<LesHouchesEvents version="3.0">
<header>
<!--
#*********************************************************************
#                                                                    *
#                        MadGraph5_aMC@NLO                           *
#                                                                    *
#                           Going Beyond                             *
#                                                                    *
#                   http://madgraph.hep.uiuc.edu                     *
#                   http://madgraph.phys.ucl.ac.be                   *
#                   http://amcatnlo.cern.ch                          *
#                                                                    *
#                     The MadGraph5_aMC@NLO team                     *
#                                                                    *
#....................................................................*
#                                                                    *
# This file contains all the information necessary to reproduce      *
# the events generated:                                              *
#                                                                    *
# 1. software version                                                *
# 2. proc_card          : code generation info including model       *
# 3. param_card         : model primary parameters in the LH format  *
# 4. run_card           : running parameters (collider and cuts)     *
# 5. pythia_card        : present only if pythia has been run        *
# 6. pgs_card           : present only if pgs has been run           *
# 7. delphes_cards      : present only if delphes has been run       *
#                                                                    *
#                                                                    *
#*********************************************************************
-->
<MGVersion>
#5.2.2.3
</MGVersion>
<MG5ProcCard>
#************************************************************
#*                     MadGraph5_aMC@NLO                    *
#*                                                          *
#*                *                       *                 *
#*                  *        * *        *                   *
#*                    * * * * 5 * * * *                     *
#*                  *        * *        *                   *
#*                *                       *                 *
#*                                                          *
#*                                                          *
#*         VERSION 2.2.3                 2015-02-10         *
#*                                                          *
#*    The MadGraph5_aMC@NLO Development Team - Find us at   *
#*    https://server06.fynu.ucl.ac.be/projects/madgraph     *
#*                                                          *
#************************************************************
#*                                                          *
#*               Command File for MadGraph5_aMC@NLO         *
#*                                                          *
#*     run as ./bin/mg5_aMC  filename                       *
#*                                                          *
#************************************************************
set group_subprocesses Auto
set ignore_six_quark_processes False
set loop_optimized_output True
set gauge unitary
set complex_mass_scheme False
import model sm
define p = g u c d s u~ c~ d~ s~
define j = g u c d s u~ c~ d~ s~
define l+ = e+ mu+
define l- = e- mu-
define vl = ve vm vt
define vl~ = ve~ vm~ vt~
import model Zprime_UFO
generate p p > zph, zph > j j
add process p p > zph, zph > b b~
output Dijet_signal
</MG5ProcCard>
<MGProcCard>
#*********************************************************************
#                        MadGraph/MadEvent                           *
#                   http://madgraph.hep.uiuc.edu                     *
#                                                                    *
#                          proc_card.dat                             *
#*********************************************************************
#                                                                    *
#            This Files is generated by MADGRAPH 5                   *
#                                                                    *
# WARNING: This Files is generated for MADEVENT (compatibility issue)*
#          This files is NOT a valid MG4 proc_card.dat               *
#          Running this in MG4 will NEVER reproduce the result of MG5*
#                                                                    *
#*********************************************************************
#*********************************************************************
# Process(es) requested : mg2 input                                  *
#*********************************************************************
# Begin PROCESS # This is TAG. Do not modify this line
p p > zph , zph > j j           #Process
# Be carefull the coupling are here in MG5 convention
          
end_coup           # End the couplings input

done               # this tells MG there are no more procs
# End PROCESS  # This is TAG. Do not modify this line
#*********************************************************************
# Model information                                                  *
#*********************************************************************
# Begin MODEL  # This is TAG. Do not modify this line
Zprime_UFO
# End   MODEL  # This is TAG. Do not modify this line
#*********************************************************************
# Start multiparticle definitions                                    *
#*********************************************************************
# Begin MULTIPARTICLES # This is TAG. Do not modify this line

# End  MULTIPARTICLES # This is TAG. Do not modify this line
</MGProcCard>
<MGRunCard>
#*********************************************************************
#                       MadGraph5_aMC@NLO                            *
#                                                                    *
#                     run_card.dat MadEvent                          *
#                                                                    *
#  This file is used to set the parameters of the run.               *
#                                                                    *
#  Some notation/conventions:                                        *
#                                                                    *
#   Lines starting with a '# ' are info or comments                  *
#                                                                    *
#   mind the format:   value    = variable     ! comment             *
#*********************************************************************
#
#*******************                                                 
# Running parameters
#*******************                                                 
#                                                                    
#*********************************************************************
# Tag name for the run (one word)                                    *
#*********************************************************************
  tag_1     = run_tag ! name of the run 
#*********************************************************************
# Run to generate the grid pack                                      *
#*********************************************************************
  .false.     = gridpack  !True = setting up the grid pack
#*********************************************************************
# Number of events and rnd seed                                      *
# Warning: Do not generate more than 1M events in a single run       *
# If you want to run Pythia, avoid more than 50k events in a run.    *
#*********************************************************************
  2000 = nevents ! Number of unweighted events requested 
 597 = iseed   ! rnd seed (0=assigned automatically=default))
#*********************************************************************
# Collider type and energy                                           *
# lpp: 0=No PDF, 1=proton, -1=antiproton, 2=photon from proton,      *
#                                         3=photon from electron     *
#*********************************************************************
        1     = lpp1    ! beam 1 type 
        1     = lpp2    ! beam 2 type
     4000     = ebeam1  ! beam 1 total energy in GeV
     4000     = ebeam2  ! beam 2 total energy in GeV
#*********************************************************************
# Beam polarization from -100 (left-handed) to 100 (right-handed)    *
#*********************************************************************
        0     = polbeam1 ! beam polarization for beam 1
        0     = polbeam2 ! beam polarization for beam 2
#*********************************************************************
# PDF CHOICE: this automatically fixes also alpha_s and its evol.    *
#*********************************************************************
 'nn23lo1'    = pdlabel     ! PDF set                                     
 230000    = lhaid     ! if pdlabel=lhapdf, this is the lhapdf number
#*********************************************************************
# Renormalization and factorization scales                           *
#*********************************************************************
 F        = fixed_ren_scale  ! if .true. use fixed ren scale
 F        = fixed_fac_scale  ! if .true. use fixed fac scale
 91.1880  = scale            ! fixed ren scale
 91.1880  = dsqrt_q2fact1    ! fixed fact scale for pdf1
 91.1880  = dsqrt_q2fact2    ! fixed fact scale for pdf2
 1        = scalefact        ! scale factor for event-by-event scales
#*********************************************************************
# Matching - Warning! ickkw > 1 is still beta
#*********************************************************************
 0        = ickkw            ! 0 no matching, 1 MLM, 2 CKKW matching
 1        = highestmult      ! for ickkw=2, highest mult group
 1        = ktscheme         ! for ickkw=1, 1 Durham kT, 2 Pythia pTE
 1        = alpsfact         ! scale factor for QCD emission vx
 F        = chcluster        ! cluster only according to channel diag
 T        = pdfwgt           ! for ickkw=1, perform pdf reweighting
 5        = asrwgtflavor     ! highest quark flavor for a_s reweight
 T        = clusinfo         ! include clustering tag in output
 3.0      = lhe_version       ! Change the way clustering information pass to shower.        
#*********************************************************************
#**********************************************************
#
#**********************************************************
# Automatic ptj and mjj cuts if xqcut > 0
# (turn off for VBF and single top processes)
#**********************************************************
   T  = auto_ptj_mjj  ! Automatic setting of ptj and mjj
#**********************************************************
#                                                                    
#**********************************
# BW cutoff (M+/-bwcutoff*Gamma)
#**********************************
  15  = bwcutoff      ! (M+/-bwcutoff*Gamma)
#**********************************************************
# Apply pt/E/eta/dr/mij cuts on decay products or not
# (note that etmiss/ptll/ptheavy/ht/sorted cuts always apply)
#**********************************************************
   T  = cut_decays    ! Cut decay products 
#*************************************************************
# Number of helicities to sum per event (0 = all helicities)
# 0 gives more stable result, but longer run time (needed for
# long decay chains e.g.).
# Use >=2 if most helicities contribute, e.g. pure QCD.
#*************************************************************
   0  = nhel          ! Number of helicities used per event
#*******************                                                 
# Standard Cuts
#*******************                                                 
#                                                                    
#*********************************************************************
# Minimum and maximum pt's (for max, -1 means no cut)                *
#*********************************************************************
 20  = ptj       ! minimum pt for the jets 
  0  = ptb       ! minimum pt for the b 
 10  = pta       ! minimum pt for the photons 
 10  = ptl       ! minimum pt for the charged leptons 
  0  = misset    ! minimum missing Et (sum of neutrino's momenta)
  0  = ptheavy   ! minimum pt for one heavy final state
 1.0 = ptonium   ! minimum pt for the quarkonium states
 -1  = ptjmax    ! maximum pt for the jets
 -1  = ptbmax    ! maximum pt for the b
 -1  = ptamax    ! maximum pt for the photons
 -1  = ptlmax    ! maximum pt for the charged leptons
 -1  = missetmax ! maximum missing Et (sum of neutrino's momenta)
#*********************************************************************
# Minimum and maximum E's (in the center of mass frame)              *
#*********************************************************************
  0  = ej     ! minimum E for the jets 
  0  = eb     ! minimum E for the b 
  0  = ea     ! minimum E for the photons 
  0  = el     ! minimum E for the charged leptons 
 -1   = ejmax ! maximum E for the jets
 -1   = ebmax ! maximum E for the b
 -1   = eamax ! maximum E for the photons
 -1   = elmax ! maximum E for the charged leptons
#*********************************************************************
# Maximum and minimum absolute rapidity (for max, -1 means no cut)   *
#*********************************************************************
   5  = etaj    ! max rap for the jets 
  -1  = etab    ! max rap for the b
 2.5  = etaa    ! max rap for the photons 
 2.5  = etal    ! max rap for the charged leptons 
 0.6  = etaonium ! max rap for the quarkonium states
   0  = etajmin ! min rap for the jets
   0  = etabmin ! min rap for the b
   0  = etaamin ! min rap for the photons
   0  = etalmin ! main rap for the charged leptons
#*********************************************************************
# Minimum and maximum DeltaR distance                                *
#*********************************************************************
 0.4 = drjj    ! min distance between jets 
 0   = drbb    ! min distance between b's 
 0.4 = drll    ! min distance between leptons 
 0.4 = draa    ! min distance between gammas 
 0   = drbj    ! min distance between b and jet 
 0.4 = draj    ! min distance between gamma and jet 
 0.4 = drjl    ! min distance between jet and lepton 
 0   = drab    ! min distance between gamma and b 
 0   = drbl    ! min distance between b and lepton 
 0.4 = dral    ! min distance between gamma and lepton 
 -1  = drjjmax ! max distance between jets
 -1  = drbbmax ! max distance between b's
 -1  = drllmax ! max distance between leptons
 -1  = draamax ! max distance between gammas
 -1  = drbjmax ! max distance between b and jet
 -1  = drajmax ! max distance between gamma and jet
 -1  = drjlmax ! max distance between jet and lepton
 -1  = drabmax ! max distance between gamma and b
 -1  = drblmax ! max distance between b and lepton
 -1  = dralmax ! maxdistance between gamma and lepton
#*********************************************************************
# Minimum and maximum invariant mass for pairs                       *
# WARNING: for four lepton final state mmll cut require to have      *
#          different lepton masses for each flavor!                  *           
#*********************************************************************
 0   = mmjj    ! min invariant mass of a jet pair 
 0   = mmbb    ! min invariant mass of a b pair 
 0   = mmaa    ! min invariant mass of gamma gamma pair
 0   = mmll    ! min invariant mass of l+l- (same flavour) lepton pair
 -1  = mmjjmax ! max invariant mass of a jet pair
 -1  = mmbbmax ! max invariant mass of a b pair
 -1  = mmaamax ! max invariant mass of gamma gamma pair
 -1  = mmllmax ! max invariant mass of l+l- (same flavour) lepton pair
#*********************************************************************
# Minimum and maximum invariant mass for all letpons                 *
#*********************************************************************
 0   = mmnl    ! min invariant mass for all letpons (l+- and vl) 
 -1  = mmnlmax ! max invariant mass for all letpons (l+- and vl) 
#*********************************************************************
# Minimum and maximum pt for 4-momenta sum of leptons                *
#*********************************************************************
 0   = ptllmin  ! Minimum pt for 4-momenta sum of leptons(l and vl)
 -1  = ptllmax  ! Maximum pt for 4-momenta sum of leptons(l and vl)
#*********************************************************************
# Inclusive cuts                                                     *
#*********************************************************************
 0  = xptj ! minimum pt for at least one jet  
 0  = xptb ! minimum pt for at least one b 
 0  = xpta ! minimum pt for at least one photon 
 0  = xptl ! minimum pt for at least one charged lepton 
#*********************************************************************
# Control the pt's of the jets sorted by pt                          *
#*********************************************************************
 0   = ptj1min ! minimum pt for the leading jet in pt
 0   = ptj2min ! minimum pt for the second jet in pt
 0   = ptj3min ! minimum pt for the third jet in pt
 0   = ptj4min ! minimum pt for the fourth jet in pt
 -1  = ptj1max ! maximum pt for the leading jet in pt 
 -1  = ptj2max ! maximum pt for the second jet in pt
 -1  = ptj3max ! maximum pt for the third jet in pt
 -1  = ptj4max ! maximum pt for the fourth jet in pt
 0   = cutuse  ! reject event if fails any (0) / all (1) jet pt cuts
#*********************************************************************
# Control the pt's of leptons sorted by pt                           *
#*********************************************************************
 0   = ptl1min ! minimum pt for the leading lepton in pt
 0   = ptl2min ! minimum pt for the second lepton in pt
 0   = ptl3min ! minimum pt for the third lepton in pt
 0   = ptl4min ! minimum pt for the fourth lepton in pt
 -1  = ptl1max ! maximum pt for the leading lepton in pt 
 -1  = ptl2max ! maximum pt for the second lepton in pt
 -1  = ptl3max ! maximum pt for the third lepton in pt
 -1  = ptl4max ! maximum pt for the fourth lepton in pt
#*********************************************************************
# Control the Ht(k)=Sum of k leading jets                            *
#*********************************************************************
 0   = htjmin ! minimum jet HT=Sum(jet pt)
 -1  = htjmax ! maximum jet HT=Sum(jet pt)
 0   = ihtmin  !inclusive Ht for all partons (including b)
 -1  = ihtmax  !inclusive Ht for all partons (including b)
 0   = ht2min ! minimum Ht for the two leading jets
 0   = ht3min ! minimum Ht for the three leading jets
 0   = ht4min ! minimum Ht for the four leading jets
 -1  = ht2max ! maximum Ht for the two leading jets
 -1  = ht3max ! maximum Ht for the three leading jets
 -1  = ht4max ! maximum Ht for the four leading jets
#***********************************************************************
# Photon-isolation cuts, according to hep-ph/9801442                   *
# When ptgmin=0, all the other parameters are ignored                  *
# When ptgmin>0, pta and draj are not going to be used                 *
#***********************************************************************
   0 = ptgmin ! Min photon transverse momentum
 0.4 = R0gamma ! Radius of isolation code
 1.0 = xn ! n parameter of eq.(3.4) in hep-ph/9801442
 1.0 = epsgamma ! epsilon_gamma parameter of eq.(3.4) in hep-ph/9801442
 .true. = isoEM ! isolate photons from EM energy (photons and leptons)
#*********************************************************************
# WBF cuts                                                           *
#*********************************************************************
 0   = xetamin ! minimum rapidity for two jets in the WBF case  
 0   = deltaeta ! minimum rapidity for two jets in the WBF case 
#*********************************************************************
# KT DURHAM CUT                                                      *
#*********************************************************************
 -1    =  ktdurham        
 0.4  =  dparameter 
#*********************************************************************
# maximal pdg code for quark to be considered as a light jet         *
# (otherwise b cuts are applied)                                     *
#*********************************************************************
 4 = maxjetflavor    ! Maximum jet pdg code
#*********************************************************************
# Jet measure cuts                                                   *
#*********************************************************************
 0   = xqcut   ! minimum kt jet measure between partons
#*********************************************************************
#
#*********************************************************************
# Store info for systematics studies                                 *
# WARNING: If use_syst is T, matched Pythia output is                *
#          meaningful ONLY if plotted taking matchscale              *
#          reweighting into account!                                 *
#*********************************************************************
   F  = use_syst      ! Enable systematics studies
#
#**************************************
# Parameter of the systematics study
#  will be used by SysCalc (if installed)
#**************************************                                  
#
0.5 1 2 = sys_scalefact  # factorization/renormalization scale factor
0.5 1 2 = sys_alpsfact  # \alpha_s emission scale factors
30 50 = sys_matchscale # variation of merging scale
# PDF sets and number of members (0 or none for all members).
CT10nlo.LHgrid = sys_pdf # matching scales
# MSTW2008nlo68cl.LHgrid 1  = sys_pdf
</MGRunCard>
<slha>
######################################################################
## PARAM_CARD AUTOMATICALY GENERATED BY MG5 FOLLOWING UFO MODEL   ####
######################################################################
##                                                                  ##
##  Width set on Auto will be computed following the information    ##
##        present in the decay.py files of the model.               ##
##        See  arXiv:1402.1178 for more details.                    ##
##                                                                  ##
######################################################################

###################################
## INFORMATION FOR CKMBLOCK
###################################
Block ckmblock 
    1 2.277360e-01 # cabi 

###################################
## INFORMATION FOR FRBLOCK
###################################
Block frblock 
    1 2.000000e-01 # gz 

###################################
## INFORMATION FOR MASS
###################################
Block mass 
    1 5.040000e-03 # MD 
    2 2.550000e-03 # MU 
    3 1.010000e-01 # MS 
    4 1.270000e+00 # MC 
    5 4.700000e+00 # MB 
    6 1.720000e+02 # MT 
   11 5.110000e-04 # Me 
   13 1.056600e-01 # MM 
   15 1.777000e+00 # MTA 
   23 9.118760e+01 # MZ 
   25 1.200000e+02 # MH 
  10030 1.600000e+03 # MZph 
  10031 3.000000e+02 # MZpl 
## Dependent parameters, given by model restrictions.
## Those values should be edited following the 
## analytical expression. MG5 ignores those values 
## but they are important for interfacing the output of MG5
## to external program such as Pythia.
  12 0.000000 # ve : 0.0 
  14 0.000000 # vm : 0.0 
  16 0.000000 # vt : 0.0 
  21 0.000000 # g : 0.0 
  22 0.000000 # a : 0.0 
  24 79.824360 # w+ : cmath.sqrt(MZ__exp__2/2. + cmath.sqrt(MZ__exp__4/4. - (aEW*cmath.pi*MZ__exp__2)/(Gf*sqrt__2))) 

###################################
## INFORMATION FOR SMINPUTS
###################################
Block sminputs 
    1 1.279000e+02 # aEWM1 
    2 1.166370e-05 # Gf 
    3 1.184000e-01 # aS 

###################################
## INFORMATION FOR YUKAWA
###################################
Block yukawa 
    1 5.040000e-03 # ymdo 
    2 2.550000e-03 # ymup 
    3 1.010000e-01 # yms 
    4 1.270000e+00 # ymc 
    5 4.700000e+00 # ymb 
    6 1.720000e+02 # ymt 
   11 5.110000e-04 # yme 
   13 1.056600e-01 # ymm 
   15 1.777000e+00 # ymtau 

###################################
## INFORMATION FOR DECAY
###################################
DECAY   6 1.508336e+00 # WT 
DECAY  23 2.495200e+00 # WZ 
DECAY  24 2.085000e+00 # WW 
DECAY  25 5.753088e-03 # WH 
## Dependent parameters, given by model restrictions.
## Those values should be edited following the 
## analytical expression. MG5 ignores those values 
## but they are important for interfacing the output of MG5
## to external program such as Pythia.
DECAY  1 0.000000 # d : 0.0 
DECAY  2 0.000000 # u : 0.0 
DECAY  3 0.000000 # s : 0.0 
DECAY  4 0.000000 # c : 0.0 
DECAY  5 0.000000 # b : 0.0 
DECAY  11 0.000000 # e- : 0.0 
DECAY  12 0.000000 # ve : 0.0 
DECAY  13 0.000000 # mu- : 0.0 
DECAY  14 0.000000 # vm : 0.0 
DECAY  15 0.000000 # ta- : 0.0 
DECAY  16 0.000000 # vt : 0.0 
DECAY  21 0.000000 # g : 0.0 
DECAY  22 0.000000 # a : 0.0 
DECAY  10030 0.308725 # zph : (gz__exp__2*MZph*(5 + cmath.sqrt(1 - (4*MT__exp__2)/MZph__exp__2)))/(144.*cmath.pi) 
DECAY  10031 0.132629 # zpl : (5*gz__exp__2*MZpl)/(144.*cmath.pi) 
#===========================================================
# QUANTUM NUMBERS OF NEW STATE(S) (NON SM PDG CODE)
#===========================================================

Block QNUMBERS 10030  # zph 
        1 0  # 3 times electric charge
        2 3  # number of spin states (2S+1)
        3 1  # colour rep (1: singlet, 3: triplet, 8: octet)
        4 0  # Particle/Antiparticle distinction (0=own anti)
Block QNUMBERS 10031  # zpl 
        1 0  # 3 times electric charge
        2 3  # number of spin states (2S+1)
        3 1  # colour rep (1: singlet, 3: triplet, 8: octet)
        4 0  # Particle/Antiparticle distinction (0=own anti)
</slha>
## END BANNER##
<MGGenerationInfo>
#  Number of Events        :         3963
#  Integrated weight (pb)  :  0.60776E-02
#  Max wgt                 :  0.21478E-05
#  Average wgt             :  0.15336E-05
</MGGenerationInfo>
</header>
<init>
     2212     2212  0.40000000000E+04  0.40000000000E+04 0 0  247000  247000 2   1
  0.60822842110E-02  0.12958980230E-04  0.21478440000E-05   0
</init>
<event>
 5   0  0.2046108E-05  0.1600737E+04  0.7818609E-02  0.8820095E-01
        2   -1    0    0  501    0  0.00000000000E+00  0.00000000000E+00  0.91947104057E+03  0.91947104057E+03  0.25500000920E-02 0. -1.
       -2   -1    0    0    0  501  0.00000000000E+00  0.00000000000E+00 -0.69669398319E+03  0.69669398320E+03  0.25500000920E-02 0.  1.
    10030    2    1    2    0    0  0.00000000000E+00  0.00000000000E+00  0.22277705738E+03  0.16161650238E+04  0.16007372573E+04 0.  0.
        1    1    3    3  502    0 -0.20438031470E+03 -0.45442559479E+03  0.74377659353E+03  0.89525278852E+03  0.50400001928E-02 0. -1.
       -1    1    3    3    0  502  0.20438031470E+03  0.45442559479E+03 -0.52099953616E+03  0.72091223525E+03  0.50400001928E-02 0.  1.
</event>
<event>
 5   0  0.2046108E-05  0.1600983E+04  0.7818609E-02  0.8819945E-01
       -2   -1    0    0    0  501  0.00000000000E+00  0.00000000000E+00  0.26402108888E+03  0.26402108889E+03  0.25500000920E-02 0. -1.
        2   -1    0    0  501    0  0.00000000000E+00  0.00000000000E+00 -0.24270273742E+04  0.24270273742E+04  0.25500000920E-02 0.  1.
    10030    2    1    2    0    0  0.00000000000E+00  0.00000000000E+00 -0.21630062853E+04  0.26910484631E+04  0.16009827108E+04 0.  0.
        1    1    3    3  502    0  0.18545407492E+02  0.20402241673E+03  0.21921158551E+03  0.30003799412E+03  0.50400001928E-02 0. -1.
       -1    1    3    3    0  502 -0.18545407492E+02 -0.20402241673E+03 -0.23822178708E+04  0.23910104689E+04  0.50400001928E-02 0.  1.
</event>
<event>
 5   0  0.2125803E-05  0.1600188E+04  0.7818609E-02  0.8820432E-01
       -2   -1    0    0    0  501  0.00000000000E+00  0.00000000000E+00  0.11035218453E+04  0.11035218453E+04  0.25500000920E-02 0.  1.
        2   -1    0    0  501    0  0.00000000000E+00  0.00000000000E+00 -0.58009777147E+03  0.58009777147E+03  0.25500000920E-02 0. -1.
    10030    2    1    2    0    0  0.00000000000E+00  0.00000000000E+00  0.52342407379E+03  0.16836196167E+04  0.16001881929E+04 0.  0.
        3    1    3    3  502    0 -0.41225679545E+02  0.72451125341E+03 -0.92804686597E+02  0.73159335223E+03  0.10100000352E+00 0. -1.
       -3    1    3    3    0  502  0.41225679545E+02 -0.72451125341E+03  0.61622876039E+03  0.95202626450E+03  0.10100000352E+00 0.  1.
</event>
<event>
 5   0  0.2046108E-05  0.1595875E+04  0.7818609E-02  0.8823086E-01
       -2   -1    0    0    0  501  0.00000000000E+00  0.00000000000E+00  0.35881623978E+03  0.35881623979E+03  0.25500000920E-02 0.  1.
        2   -1    0    0  501    0  0.00000000000E+00  0.00000000000E+00 -0.17744585560E+04  0.17744585560E+04  0.25500000920E-02 0. -1.
    10030    2    1    2    0    0  0.00000000000E+00  0.00000000000E+00 -0.14156423163E+04  0.21332747958E+04  0.15958753670E+04 0.  0.
        1    1    3    3  502    0  0.19067275155E+03  0.32876199818E+03  0.23005796326E+03  0.44426030221E+03  0.50400001928E-02 0.  1.
       -1    1    3    3    0  502 -0.19067275155E+03 -0.32876199818E+03 -0.16457002795E+04  0.16890144936E+04  0.50400001928E-02 0. -1.
</event>
<event>
 5   0  0.2125803E-05  0.1599838E+04  0.7818609E-02  0.8820647E-01
        2   -1    0    0  501    0  0.00000000000E+00  0.00000000000E+00  0.13337512434E+04  0.13337512435E+04  0.25500000920E-02 0. -1.
       -2   -1    0    0    0  501  0.00000000000E+00  0.00000000000E+00 -0.47975258689E+03  0.47975258689E+03  0.25500000920E-02 0.  1.
    10030    2    1    2    0    0  0.00000000000E+00  0.00000000000E+00  0.85399865656E+03  0.18135038303E+04  0.15998382535E+04 0.  0.
        3    1    3    3  502    0 -0.13887216308E+03 -0.75271649366E+03  0.16357774845E+03  0.78270383128E+03  0.10100000352E+00 0. -1.
       -3    1    3    3    0  502  0.13887216308E+03  0.75271649366E+03  0.69042090811E+03  0.10307999991E+04  0.10100000352E+00 0.  1.
</event>
<event>
 5   0  0.1060251E-05  0.1600072E+04  0.7818609E-02  0.8820504E-01
       -1   -1    0    0    0  501  0.00000000000E+00  0.00000000000E+00  0.50612344405E+03  0.50612344408E+03  0.50400001928E-02 0. -1.
        1   -1    0    0  501    0  0.00000000000E+00  0.00000000000E+00 -0.12646280829E+04  0.12646280829E+04  0.50400001928E-02 0.  1.
    10030    2    1    2    0    0  0.00000000000E+00  0.00000000000E+00 -0.75850463881E+03  0.17707515269E+04  0.16000723993E+04 0.  0.
        1    1    3    3  502    0 -0.56247660877E+03  0.27516012942E+03  0.17182569630E+03  0.64932049265E+03  0.50400001928E-02 0. -1.
       -1    1    3    3    0  502  0.56247660877E+03 -0.27516012942E+03 -0.93033033511E+03  0.11214310343E+04  0.50400001928E-02 0.  1.
</event>
<event>
 5   0  0.1081831E-05  0.1600341E+04  0.7818609E-02  0.8820339E-01
        1   -1    0    0  501    0  0.00000000000E+00  0.00000000000E+00  0.73373928015E+03  0.73373928017E+03  0.50400001928E-02 0. -1.
       -1   -1    0    0    0  501  0.00000000000E+00  0.00000000000E+00 -0.87261633375E+03  0.87261633377E+03  0.50400001928E-02 0.  1.
    10030    2    1    2    0    0  0.00000000000E+00  0.00000000000E+00 -0.13887705360E+03  0.16063556139E+04  0.16003410644E+04 0.  0.
        3    1    3    3  502    0  0.24135411601E+03  0.36032686384E+03  0.60553620660E+03  0.74482304330E+03  0.10100000352E+00 0. -1.
       -3    1    3    3    0  502 -0.24135411601E+03 -0.36032686384E+03 -0.74441326020E+03  0.86153257064E+03  0.10100000352E+00 0.  1.
</event>
<event>
 5   0  0.2046108E-05  0.1600296E+04  0.7818609E-02  0.8820366E-01
       -2   -1    0    0    0  501  0.00000000000E+00  0.00000000000E+00  0.11823191661E+04  0.11823191661E+04  0.25500000920E-02 0. -1.
        2   -1    0    0  501    0  0.00000000000E+00  0.00000000000E+00 -0.54150919050E+03  0.54150919051E+03  0.25500000920E-02 0.  1.
    10030    2    1    2    0    0  0.00000000000E+00  0.00000000000E+00  0.64080997560E+03  0.17238283566E+04  0.16002958408E+04 0.  0.
        1    1    3    3  502    0  0.17131186956E+03  0.14672996187E+03 -0.50655366991E+03  0.55450343451E+03  0.50400001928E-02 0.  1.
       -1    1    3    3    0  502 -0.17131186956E+03 -0.14672996187E+03  0.11473636455E+04  0.11693249221E+04  0.50400001928E-02 0. -1.
</event>
<event>
 5   0  0.1126485E-05  0.1600103E+04  0.7818609E-02  0.8820485E-01
        1   -1    0    0  501    0  0.00000000000E+00  0.00000000000E+00  0.12357705134E+04  0.12357705134E+04  0.50400001928E-02 0. -1.
       -1   -1    0    0    0  501  0.00000000000E+00  0.00000000000E+00 -0.51796198528E+03  0.51796198531E+03  0.50400001928E-02 0.  1.
    10030    2    1    2    0    0  0.00000000000E+00  0.00000000000E+00  0.71780852813E+03  0.17537324987E+04  0.16001026823E+04 0.  0.
        2    1    3    3  502    0 -0.16391329207E+03 -0.59802552721E+02  0.12146635012E+04  0.12271313433E+04  0.25500000920E-02 0. -1.
       -2    1    3    3    0  502  0.16391329207E+03  0.59802552721E+02 -0.49685497305E+03  0.52660115541E+03  0.25500000920E-02 0.  1.
</event>
<event>
 5   0  0.2046108E-05  0.1600218E+04  0.7818609E-02  0.8820414E-01
        2   -1    0    0  501    0  0.00000000000E+00  0.00000000000E+00  0.13927644093E+04  0.13927644093E+04  0.25500000920E-02 0.  1.
       -2   -1    0    0    0  501  0.00000000000E+00  0.00000000000E+00 -0.45964307495E+03  0.45964307496E+03  0.25500000920E-02 0. -1.
    10030    2    1    2    0    0  0.00000000000E+00  0.00000000000E+00  0.93312133439E+03  0.18524074843E+04  0.16002181299E+04 0.  0.
        1    1    3    3  502    0 -0.27082403056E+02 -0.58436531455E+03  0.10984412928E+04  0.12445037369E+04  0.50400001928E-02 0.  1.
       -1    1    3    3    0  502  0.27082403056E+02  0.58436531455E+03 -0.16531995844E+03  0.60790374739E+03  0.50400001928E-02 0. -1.
</event>
<event>
 5   0  0.7597000E-06  0.1600567E+04  0.7818609E-02  0.8820200E-01
        4   -1    0    0  501    0  0.00000000000E+00  0.00000000000E+00  0.12473513498E+04  0.12473519964E+04  0.12699999809E+01 0. -1.
       -4   -1    0    0    0  501  0.00000000000E+00  0.00000000000E+00 -0.51344911827E+03  0.51345068892E+03  0.12699999809E+01 0.  1.
    10030    2    1    2    0    0  0.00000000000E+00  0.00000000000E+00  0.73390223156E+03  0.17608026853E+04  0.16005666531E+04 0.  0.
        3    1    3    3  502    0  0.38899719360E+03  0.20780949866E+02 -0.40210726490E+03  0.55985795269E+03  0.10100000352E+00 0.  1.
       -3    1    3    3    0  502 -0.38899719360E+03 -0.20780949866E+02  0.11360094965E+04  0.12009447326E+04  0.10100000352E+00 0. -1.
</event>
<event>
 5   0  0.1994525E-05  0.1599847E+04  0.7818609E-02  0.8820642E-01
        2   -1    0    0  501    0  0.00000000000E+00  0.00000000000E+00  0.84418266748E+03  0.84418266749E+03  0.25500000920E-02 0.  1.
       -2   -1    0    0    0  501  0.00000000000E+00  0.00000000000E+00 -0.75798514168E+03  0.75798514168E+03  0.25500000920E-02 0. -1.
    10030    2    1    2    0    0  0.00000000000E+00  0.00000000000E+00  0.86197525807E+02  0.16021678092E+04  0.15998473912E+04 0.  0.
        5    1    3    3  502    0  0.12094560274E+03  0.50185087811E+03 -0.56883060691E+03  0.76816176163E+03  0.46999998093E+01 0. -1.
       -5    1    3    3    0  502 -0.12094560274E+03 -0.50185087811E+03  0.65502813272E+03  0.83400604754E+03  0.46999998093E+01 0.  1.
</event>
<event>
 5   0  0.1057506E-05  0.1599314E+04  0.7818609E-02  0.8820969E-01
        1   -1    0    0  501    0  0.00000000000E+00  0.00000000000E+00  0.15203100852E+04  0.15203100852E+04  0.50400001928E-02 0.  1.
       -1   -1    0    0    0  501  0.00000000000E+00  0.00000000000E+00 -0.42060601001E+03  0.42060601004E+03  0.50400001928E-02 0. -1.
    10030    2    1    2    0    0  0.00000000000E+00  0.00000000000E+00  0.10997040752E+04  0.19409160953E+04  0.15993143018E+04 0.  0.
        5    1    3    3  502    0 -0.48071646073E+03  0.63901574962E+03  0.54965982867E+03  0.97034914393E+03  0.46999998093E+01 0.  1.
       -5    1    3    3    0  502  0.48071646073E+03 -0.63901574962E+03  0.55004424653E+03  0.97056695133E+03  0.46999998093E+01 0. -1.
</event>
<event>
 5   0  0.1060251E-05  0.1599896E+04  0.7818609E-02  0.8820612E-01
        1   -1    0    0  501    0  0.00000000000E+00  0.00000000000E+00  0.72474808004E+03  0.72474808006E+03  0.50400001928E-02 0. -1.
       -1   -1    0    0    0  501  0.00000000000E+00  0.00000000000E+00 -0.88295085089E+03  0.88295085090E+03  0.50400001928E-02 0.  1.
    10030    2    1    2    0    0  0.00000000000E+00  0.00000000000E+00 -0.15820277085E+03  0.16076989310E+04  0.15998961641E+04 0.  0.
        1    1    3    3  502    0 -0.25586272068E+03  0.40102038491E+02 -0.83965658881E+03  0.87869055559E+03  0.50400001928E-02 0.  1.
       -1    1    3    3    0  502  0.25586272068E+03 -0.40102038491E+02  0.68145381796E+03  0.72900837537E+03  0.50400001928E-02 0. -1.
</event>
<event>
 5   0  0.1081831E-05  0.1600042E+04  0.7818609E-02  0.8820522E-01
       -1   -1    0    0    0  501  0.00000000000E+00  0.00000000000E+00  0.70636375882E+03  0.70636375884E+03  0.50400001928E-02 0. -1.
        1   -1    0    0  501    0  0.00000000000E+00  0.00000000000E+00 -0.90609629996E+03  0.90609629998E+03  0.50400001928E-02 0.  1.
    10030    2    1    2    0    0  0.00000000000E+00  0.00000000000E+00 -0.19973254114E+03  0.16124600588E+04  0.16000419848E+04 0.  0.
        3    1    3    3  502    0 -0.45355650152E+03 -0.57471481539E+03 -0.42489532839E+03  0.84649079699E+03  0.10100000352E+00 0.  1.
       -3    1    3    3    0  502  0.45355650152E+03  0.57471481539E+03  0.22516278724E+03  0.76596926183E+03  0.10100000352E+00 0. -1.
</event>
<event>
 5   0  0.1081831E-05  0.1599957E+04  0.7818609E-02  0.8820574E-01
       -1   -1    0    0    0  501  0.00000000000E+00  0.00000000000E+00  0.85222866088E+03  0.85222866090E+03  0.50400001928E-02 0. -1.
        1   -1    0    0  501    0  0.00000000000E+00  0.00000000000E+00 -0.75093197713E+03  0.75093197715E+03  0.50400001928E-02 0.  1.
    10030    2    1    2    0    0  0.00000000000E+00  0.00000000000E+00  0.10129668375E+03  0.16031606380E+04  0.15999571911E+04 0.  0.
        3    1    3    3  502    0  0.50922319496E+03 -0.48734194911E+03  0.42976459413E+03  0.82553501090E+03  0.10100000352E+00 0. -1.
       -3    1    3    3    0  502 -0.50922319496E+03  0.48734194911E+03 -0.32846791038E+03  0.77762562715E+03  0.10100000352E+00 0.  1.
</event>
<event>
 5   0  0.2046108E-05  0.1599873E+04  0.7818609E-02  0.8820626E-01
        2   -1    0    0  501    0  0.00000000000E+00  0.00000000000E+00  0.67581352285E+03  0.67581352285E+03  0.25500000920E-02 0. -1.
       -2   -1    0    0    0  501  0.00000000000E+00  0.00000000000E+00 -0.94685687365E+03  0.94685687366E+03  0.25500000920E-02 0.  1.
    10030    2    1    2    0    0  0.00000000000E+00  0.00000000000E+00 -0.27104335081E+03  0.16226703965E+04  0.15998733443E+04 0.  0.
        1    1    3    3  502    0  0.60613567383E+03  0.39938803844E+03 -0.47644738621E+03  0.86828185065E+03  0.50400001928E-02 0.  1.
       -1    1    3    3    0  502 -0.60613567383E+03 -0.39938803844E+03  0.20540403540E+03  0.75438854585E+03  0.50400001928E-02 0. -1.
</event>
<event>
 5   0  0.1090674E-05  0.1601487E+04  0.7818609E-02  0.8819635E-01
       -1   -1    0    0    0  501  0.00000000000E+00  0.00000000000E+00  0.61853815035E+03  0.61853815037E+03  0.50400001928E-02 0.  1.
        1   -1    0    0  501    0  0.00000000000E+00  0.00000000000E+00 -0.10366223344E+04  0.10366223344E+04  0.50400001928E-02 0. -1.
    10030    2    1    2    0    0  0.00000000000E+00  0.00000000000E+00 -0.41808418400E+03  0.16551604847E+04  0.16014873853E+04 0.  0.
        4    1    3    3  502    0 -0.72722367157E+03  0.21558548935E+03  0.56185761657E+02  0.76058518552E+03  0.12699999809E+01 0. -1.
       -4    1    3    3    0  502  0.72722367157E+03 -0.21558548935E+03 -0.47426994566E+03  0.89457529922E+03  0.12699999809E+01 0.  1.
</event>
<event>
 5   0  0.1060251E-05  0.1599238E+04  0.7818609E-02  0.8821016E-01
       -1   -1    0    0    0  501  0.00000000000E+00  0.00000000000E+00  0.61202219837E+03  0.61202219839E+03  0.50400001928E-02 0.  1.
        1   -1    0    0  501    0  0.00000000000E+00  0.00000000000E+00 -0.10447180664E+04  0.10447180664E+04  0.50400001928E-02 0. -1.
    10030    2    1    2    0    0  0.00000000000E+00  0.00000000000E+00 -0.43269586799E+03  0.16567402648E+04  0.15992381282E+04 0.  0.
        1    1    3    3  502    0  0.93654522007E+02  0.39298976350E+03  0.49852062091E+03  0.64166574881E+03  0.50400001928E-02 0.  1.
       -1    1    3    3    0  502 -0.93654522007E+02 -0.39298976350E+03 -0.93121648890E+03  0.10150745159E+04  0.50400001928E-02 0. -1.
</event>
<event>
 5   0  0.2147844E-05  0.1600962E+04  0.7818609E-02  0.8819957E-01
        2   -1    0    0  501    0  0.00000000000E+00  0.00000000000E+00  0.12124453642E+04  0.12124453642E+04  0.25500000920E-02 0. -1.
       -2   -1    0    0    0  501  0.00000000000E+00  0.00000000000E+00 -0.52849392948E+03  0.52849392949E+03  0.25500000920E-02 0.  1.
    10030    2    1    2    0    0  0.00000000000E+00  0.00000000000E+00  0.68395143469E+03  0.17409392937E+04  0.16009622292E+04 0.  0.
        2    1    3    3  502    0 -0.10601850058E+03 -0.74564608414E+03  0.47078762415E+02  0.75461540875E+03  0.25500000920E-02 0.  1.
       -2    1    3    3    0  502  0.10601850058E+03  0.74564608414E+03  0.63687267227E+03  0.98632388491E+03  0.25500000920E-02 0. -1.
</event>
<event>
 5   0  0.1081831E-05  0.1599602E+04  0.7818609E-02  0.8820793E-01
        1   -1    0    0  501    0  0.00000000000E+00  0.00000000000E+00  0.75922594006E+03  0.75922594008E+03  0.50400001928E-02 0.  1.
       -1   -1    0    0    0  501  0.00000000000E+00  0.00000000000E+00 -0.84254454168E+03  0.84254454169E+03  0.50400001928E-02 0. -1.
    10030    2    1    2    0    0  0.00000000000E+00  0.00000000000E+00 -0.83318601613E+02  0.16017704818E+04  0.15996020402E+04 0.  0.
        3    1    3    3  502    0 -0.13573217651E+03 -0.66509002901E+03 -0.46521460463E+03  0.82291713373E+03  0.10100000352E+00 0. -1.
       -3    1    3    3    0  502  0.13573217651E+03  0.66509002901E+03  0.38189600302E+03  0.77885334804E+03  0.10100000352E+00 0.  1.
</event>
<event>
 5   0  0.2125803E-05  0.1600729E+04  0.7818609E-02  0.8820100E-01
        2   -1    0    0  501    0  0.00000000000E+00  0.00000000000E+00  0.18497824929E+04  0.18497824929E+04  0.25500000920E-02 0.  1.
       -2   -1    0    0    0  501  0.00000000000E+00  0.00000000000E+00 -0.34630196899E+03  0.34630196900E+03  0.25500000920E-02 0. -1.
    10030    2    1    2    0    0  0.00000000000E+00  0.00000000000E+00  0.15034805239E+04  0.21960844619E+04  0.16007289833E+04 0.  0.
        3    1    3    3  502    0 -0.32932313490E+03  0.36301089059E+03  0.16198059660E+04  0.16923362584E+04  0.10100000352E+00 0. -1.
       -3    1    3    3    0  502  0.32932313490E+03 -0.36301089059E+03 -0.11632544207E+03  0.50374820351E+03  0.10100000352E+00 0.  1.
</event>
<event>
 5   0  0.1060251E-05  0.1599690E+04  0.7818609E-02  0.8820739E-01
        1   -1    0    0  501    0  0.00000000000E+00  0.00000000000E+00  0.21078162581E+04  0.21078162581E+04  0.50400001928E-02 0.  1.
       -1   -1    0    0    0  501  0.00000000000E+00  0.00000000000E+00 -0.30351396838E+03  0.30351396843E+03  0.50400001928E-02 0. -1.
    10030    2    1    2    0    0  0.00000000000E+00  0.00000000000E+00  0.18043022897E+04  0.24113302265E+04  0.15996895664E+04 0.  0.
        1    1    3    3  502    0  0.76737120896E+03  0.12767420330E+03  0.11825081044E+04  0.14154450507E+04  0.50400001928E-02 0. -1.
       -1    1    3    3    0  502 -0.76737120896E+03 -0.12767420330E+03  0.62179418530E+03  0.99588517583E+03  0.50400001928E-02 0.  1.
</event>
<event>
 5   0  0.2147844E-05  0.1600262E+04  0.7818609E-02  0.8820387E-01
       -2   -1    0    0    0  501  0.00000000000E+00  0.00000000000E+00  0.12339553663E+04  0.12339553663E+04  0.25500000920E-02 0.  1.
        2   -1    0    0  501    0  0.00000000000E+00  0.00000000000E+00 -0.51882714633E+03  0.51882714633E+03  0.25500000920E-02 0. -1.
    10030    2    1    2    0    0  0.00000000000E+00  0.00000000000E+00  0.71512821996E+03  0.17527825126E+04  0.16002619053E+04 0.  0.
        2    1    3    3  502    0  0.28545716736E+01 -0.30765211327E+02 -0.51817348828E+03  0.51909383619E+03  0.25500000920E-02 0. -1.
       -2    1    3    3    0  502 -0.28545716736E+01  0.30765211327E+02  0.12333017082E+04  0.12336886764E+04  0.25500000920E-02 0.  1.
</event>
<event>
 5   0  0.1126485E-05  0.1599351E+04  0.7818609E-02  0.8820947E-01
        1   -1    0    0  501    0  0.00000000000E+00  0.00000000000E+00  0.11126990481E+04  0.11126990482E+04  0.50400001928E-02 0.  1.
       -1   -1    0    0    0  501  0.00000000000E+00  0.00000000000E+00 -0.57471180547E+03  0.57471180549E+03  0.50400001928E-02 0. -1.
    10030    2    1    2    0    0  0.00000000000E+00  0.00000000000E+00  0.53798724267E+03  0.16874108536E+04  0.15993514672E+04 0.  0.
        2    1    3    3  502    0 -0.14840276906E+03 -0.11501656431E+03 -0.55112701331E+03  0.58223120557E+03  0.25500000920E-02 0. -1.
       -2    1    3    3    0  502  0.14840276906E+03  0.11501656431E+03  0.10891142560E+04  0.11051796481E+04  0.25500000920E-02 0.  1.
</event>
<event>
 5   0  0.2125803E-05  0.1600311E+04  0.7818609E-02  0.8820357E-01
       -2   -1    0    0    0  501  0.00000000000E+00  0.00000000000E+00  0.14952613991E+04  0.14952613991E+04  0.25500000920E-02 0.  1.
        2   -1    0    0  501    0  0.00000000000E+00  0.00000000000E+00 -0.42818537948E+03  0.42818537949E+03  0.25500000920E-02 0. -1.
    10030    2    1    2    0    0  0.00000000000E+00  0.00000000000E+00  0.10670760196E+04  0.19234467786E+04  0.16003113067E+04 0.  0.
        3    1    3    3  502    0 -0.54454446184E+03  0.57518641262E+03  0.66994924463E+03  0.10374006366E+04  0.10100000352E+00 0. -1.
       -3    1    3    3    0  502  0.54454446184E+03 -0.57518641262E+03  0.39712677501E+03  0.88604614204E+03  0.10100000352E+00 0.  1.
</event>
<event>
 5   0  0.1994525E-05  0.1599881E+04  0.7818609E-02  0.8820621E-01
       -2   -1    0    0    0  501  0.00000000000E+00  0.00000000000E+00  0.80440460712E+03  0.80440460713E+03  0.25500000920E-02 0.  1.
        2   -1    0    0  501    0  0.00000000000E+00  0.00000000000E+00 -0.79550128399E+03  0.79550128400E+03  0.25500000920E-02 0. -1.
    10030    2    1    2    0    0  0.00000000000E+00  0.00000000000E+00  0.89033231285E+01  0.15999058911E+04  0.15998811179E+04 0.  0.
        5    1    3    3  502    0 -0.66213384998E+03 -0.44197580534E+03  0.82676654526E+02  0.80038826016E+03  0.46999998093E+01 0.  1.
       -5    1    3    3    0  502  0.66213384998E+03  0.44197580534E+03 -0.73773331397E+02  0.79951763096E+03  0.46999998093E+01 0. -1.
</event>
<event>
 5   0  0.1126485E-05  0.1600035E+04  0.7818609E-02  0.8820527E-01
        1   -1    0    0  501    0  0.00000000000E+00  0.00000000000E+00  0.87168043311E+03  0.87168043313E+03  0.50400001928E-02 0.  1.
       -1   -1    0    0    0  501  0.00000000000E+00  0.00000000000E+00 -0.73424595580E+03  0.73424595582E+03  0.50400001928E-02 0. -1.
    10030    2    1    2    0    0  0.00000000000E+00  0.00000000000E+00  0.13743447731E+03  0.16059263889E+04  0.16000347906E+04 0.  0.
        2    1    3    3  502    0 -0.52204448272E+03  0.27613168824E+03 -0.47294454154E+03  0.75660801646E+03  0.25500000920E-02 0.  1.
       -2    1    3    3    0  502  0.52204448272E+03 -0.27613168824E+03  0.61037901885E+03  0.84931837249E+03  0.25500000920E-02 0. -1.
</event>
<event>
 5   0  0.2125803E-05  0.1600735E+04  0.7818609E-02  0.8820097E-01
        2   -1    0    0  501    0  0.00000000000E+00  0.00000000000E+00  0.20174594964E+04  0.20174594964E+04  0.25500000920E-02 0. -1.
       -2   -1    0    0    0  501  0.00000000000E+00  0.00000000000E+00 -0.31752211822E+03  0.31752211823E+03  0.25500000920E-02 0.  1.
    10030    2    1    2    0    0  0.00000000000E+00  0.00000000000E+00  0.16999373782E+04  0.23349816146E+04  0.16007348472E+04 0.  0.
        3    1    3    3  502    0 -0.77461910515E+03 -0.46710109920E+02  0.11357066529E+04  0.13755167044E+04  0.10100000352E+00 0. -1.
       -3    1    3    3    0  502  0.77461910515E+03  0.46710109920E+02  0.56423072531E+03  0.95946491026E+03  0.10100000352E+00 0.  1.
</event>
<event>
 5   0  0.2046108E-05  0.1600042E+04  0.7818609E-02  0.8820522E-01
       -2   -1    0    0    0  501  0.00000000000E+00  0.00000000000E+00  0.59067086679E+03  0.59067086680E+03  0.25500000920E-02 0.  1.
        2   -1    0    0  501    0  0.00000000000E+00  0.00000000000E+00 -0.10835707521E+04  0.10835707521E+04  0.25500000920E-02 0. -1.
    10030    2    1    2    0    0  0.00000000000E+00  0.00000000000E+00 -0.49289988531E+03  0.16742416189E+04  0.16000420937E+04 0.  0.
        1    1    3    3  502    0 -0.66751469607E+03 -0.41764471696E+03 -0.98356868478E+02  0.79352192955E+03  0.50400001928E-02 0.  1.
       -1    1    3    3    0  502  0.66751469607E+03  0.41764471696E+03 -0.39454301683E+03  0.88071968936E+03  0.50400001928E-02 0. -1.
</event>
<event>
 5   0  0.1057506E-05  0.1599761E+04  0.7818609E-02  0.8820695E-01
        1   -1    0    0  501    0  0.00000000000E+00  0.00000000000E+00  0.65224672865E+03  0.65224672867E+03  0.50400001928E-02 0. -1.
       -1   -1    0    0    0  501  0.00000000000E+00  0.00000000000E+00 -0.98093054644E+03  0.98093054646E+03  0.50400001928E-02 0.  1.
    10030    2    1    2    0    0  0.00000000000E+00  0.00000000000E+00 -0.32868381780E+03  0.16331772751E+04  0.15997609071E+04 0.  0.
        5    1    3    3  502    0  0.52171540284E+03  0.55251945306E+03  0.90516365811E+02  0.76529733440E+03  0.46999998093E+01 0. -1.
       -5    1    3    3    0  502 -0.52171540284E+03 -0.55251945306E+03 -0.41920018361E+03  0.86787994072E+03  0.46999998093E+01 0.  1.
</event>
<event>
 5   0  0.2125803E-05  0.1599962E+04  0.7818609E-02  0.8820571E-01
       -2   -1    0    0    0  501  0.00000000000E+00  0.00000000000E+00  0.41227975622E+03  0.41227975622E+03  0.25500000920E-02 0. -1.
        2   -1    0    0  501    0  0.00000000000E+00  0.00000000000E+00 -0.15522709890E+04  0.15522709890E+04  0.25500000920E-02 0.  1.
    10030    2    1    2    0    0  0.00000000000E+00  0.00000000000E+00 -0.11399912327E+04  0.19645507452E+04  0.15999623807E+04 0.  0.
        3    1    3    3  502    0  0.14017189499E+02 -0.14302458279E+03 -0.15362914667E+04  0.15429983777E+04  0.10100000352E+00 0.  1.
       -3    1    3    3    0  502 -0.14017189499E+02  0.14302458279E+03  0.39630023394E+03  0.42155236745E+03  0.10100000352E+00 0. -1.
</event>
<event>
 5   0  0.1090674E-05  0.1599935E+04  0.7818609E-02  0.8820588E-01
       -1   -1    0    0    0  501  0.00000000000E+00  0.00000000000E+00  0.64636073265E+03  0.64636073267E+03  0.50400001928E-02 0.  1.
        1   -1    0    0  501    0  0.00000000000E+00  0.00000000000E+00 -0.99007924076E+03  0.99007924078E+03  0.50400001928E-02 0. -1.
    10030    2    1    2    0    0  0.00000000000E+00  0.00000000000E+00 -0.34371850812E+03  0.16364399734E+04  0.15999354280E+04 0.  0.
        4    1    3    3  502    0 -0.35412579359E+03  0.50989965251E+03 -0.68789412994E+03  0.92660815894E+03  0.12699999809E+01 0. -1.
       -4    1    3    3    0  502  0.35412579359E+03 -0.50989965251E+03  0.34417562182E+03  0.70983181450E+03  0.12699999809E+01 0.  1.
</event>
<event>
 5   0  0.1060251E-05  0.1600235E+04  0.7818609E-02  0.8820404E-01
       -1   -1    0    0    0  501  0.00000000000E+00  0.00000000000E+00  0.73911502248E+03  0.73911502249E+03  0.50400001928E-02 0.  1.
        1   -1    0    0  501    0  0.00000000000E+00  0.00000000000E+00 -0.86615492659E+03  0.86615492660E+03  0.50400001928E-02 0. -1.
    10030    2    1    2    0    0  0.00000000000E+00  0.00000000000E+00 -0.12703990411E+03  0.16052699491E+04  0.16002351303E+04 0.  0.
        1    1    3    3  502    0 -0.37128572639E+03 -0.38721062982E+02 -0.77344404850E+03  0.85881785469E+03  0.50400001928E-02 0. -1.
       -1    1    3    3    0  502  0.37128572639E+03  0.38721062982E+02  0.64640414439E+03  0.74645209441E+03  0.50400001928E-02 0.  1.
</event>
<event>
 5   0  0.1081831E-05  0.1601357E+04  0.7818609E-02  0.8819715E-01
       -1   -1    0    0    0  501  0.00000000000E+00  0.00000000000E+00  0.90663184200E+03  0.90663184201E+03  0.50400001928E-02 0. -1.
        1   -1    0    0  501    0  0.00000000000E+00  0.00000000000E+00 -0.70710775634E+03  0.70710775636E+03  0.50400001928E-02 0.  1.
    10030    2    1    2    0    0  0.00000000000E+00  0.00000000000E+00  0.19952408566E+03  0.16137395984E+04  0.16013574337E+04 0.  0.
        3    1    3    3  502    0 -0.78633797473E+03  0.46894131701E+01 -0.52191811958E+02  0.78808210012E+03  0.10100000352E+00 0.  1.
       -3    1    3    3    0  502  0.78633797473E+03 -0.46894131701E+01  0.25171589762E+03  0.82565749825E+03  0.10100000352E+00 0. -1.
</event>
<event>
 5   0  0.1990948E-05  0.1599733E+04  0.7818609E-02  0.8820712E-01
       -2   -1    0    0    0  501  0.00000000000E+00  0.00000000000E+00  0.28189728459E+03  0.28189728460E+03  0.25500000920E-02 0. -1.
        2   -1    0    0  501    0  0.00000000000E+00  0.00000000000E+00 -0.22695722478E+04  0.22695722478E+04  0.25500000920E-02 0.  1.
    10030    2    1    2    0    0  0.00000000000E+00  0.00000000000E+00 -0.19876749632E+04  0.25514695324E+04  0.15997327950E+04 0.  0.
        4    1    3    3  502    0  0.24492415358E+03 -0.71257536742E+03 -0.56577306402E+03  0.94225913003E+03  0.12699999809E+01 0. -1.
       -4    1    3    3    0  502 -0.24492415358E+03  0.71257536742E+03 -0.14219018992E+04  0.16092104023E+04  0.12699999809E+01 0.  1.
</event>
<event>
 5   0  0.1990948E-05  0.1598178E+04  0.7818609E-02  0.8821668E-01
       -2   -1    0    0    0  501  0.00000000000E+00  0.00000000000E+00  0.46306586090E+03  0.46306586091E+03  0.25500000920E-02 0.  1.
        2   -1    0    0  501    0  0.00000000000E+00  0.00000000000E+00 -0.13789474997E+04  0.13789474997E+04  0.25500000920E-02 0. -1.
    10030    2    1    2    0    0  0.00000000000E+00  0.00000000000E+00 -0.91588163878E+03  0.18420133606E+04  0.15981783519E+04 0.  0.
        4    1    3    3  502    0 -0.56957729810E+03 -0.18256807936E+03  0.15280468803E+03  0.61733320638E+03  0.12699999809E+01 0.  1.
       -4    1    3    3    0  502  0.56957729810E+03  0.18256807936E+03 -0.10686863268E+04  0.12246801542E+04  0.12699999809E+01 0. -1.
</event>
<event>
 5   0  0.1126485E-05  0.1601201E+04  0.7818609E-02  0.8819810E-01
       -1   -1    0    0    0  501  0.00000000000E+00  0.00000000000E+00  0.76301738814E+03  0.76301738816E+03  0.50400001928E-02 0. -1.
        1   -1    0    0  501    0  0.00000000000E+00  0.00000000000E+00 -0.84003502572E+03  0.84003502574E+03  0.50400001928E-02 0.  1.
    10030    2    1    2    0    0  0.00000000000E+00  0.00000000000E+00 -0.77017637581E+02  0.16030524139E+04  0.16012012132E+04 0.  0.
        2    1    3    3  502    0 -0.12210014781E+03 -0.75037073838E+03  0.21277267537E+03  0.78945354677E+03  0.25500000920E-02 0. -1.
       -2    1    3    3    0  502  0.12210014781E+03  0.75037073838E+03 -0.28979031295E+03  0.81359886713E+03  0.25500000920E-02 0.  1.
</event>
<event>
 5   0  0.1057506E-05  0.1599587E+04  0.7818609E-02  0.8820802E-01
       -1   -1    0    0    0  501  0.00000000000E+00  0.00000000000E+00  0.57322102850E+03  0.57322102852E+03  0.50400001928E-02 0. -1.
        1   -1    0    0  501    0  0.00000000000E+00  0.00000000000E+00 -0.11159215746E+04  0.11159215747E+04  0.50400001928E-02 0.  1.
    10030    2    1    2    0    0  0.00000000000E+00  0.00000000000E+00 -0.54270054614E+03  0.16891426032E+04  0.15995870877E+04 0.  0.
        5    1    3    3  502    0  0.98715140569E+02 -0.77799915141E+03 -0.10565703679E+03  0.79133612200E+03  0.46999998093E+01 0. -1.
       -5    1    3    3    0  502 -0.98715140569E+02  0.77799915141E+03 -0.43704350935E+03  0.89780648117E+03  0.46999998093E+01 0.  1.
</event>
<event>
 5   0  0.1057506E-05  0.1600300E+04  0.7818609E-02  0.8820364E-01
       -1   -1    0    0    0  501  0.00000000000E+00  0.00000000000E+00  0.10590633798E+04  0.10590633798E+04  0.50400001928E-02 0. -1.
        1   -1    0    0  501    0  0.00000000000E+00  0.00000000000E+00 -0.60453389241E+03  0.60453389243E+03  0.50400001928E-02 0.  1.
    10030    2    1    2    0    0  0.00000000000E+00  0.00000000000E+00  0.45452948735E+03  0.16635972722E+04  0.16002996061E+04 0.  0.
        5    1    3    3  502    0 -0.43278763751E+03  0.65849279857E+03  0.37168307388E+03  0.87125673734E+03  0.46999998093E+01 0. -1.
       -5    1    3    3    0  502  0.43278763751E+03 -0.65849279857E+03  0.82846413465E+02  0.79234053486E+03  0.46999998093E+01 0.  1.
</event>
<event>
 5   0  0.2147844E-05  0.1599543E+04  0.7818609E-02  0.8820829E-01
        2   -1    0    0  501    0  0.00000000000E+00  0.00000000000E+00  0.13520445227E+04  0.13520445227E+04  0.25500000920E-02 0. -1.
       -2   -1    0    0    0  501  0.00000000000E+00  0.00000000000E+00 -0.47308696597E+03  0.47308696598E+03  0.25500000920E-02 0.  1.
    10030    2    1    2    0    0  0.00000000000E+00  0.00000000000E+00  0.87895755676E+03  0.18251314887E+04  0.15995432362E+04 0.  0.
        2    1    3    3  502    0  0.53329203703E+03  0.37649083455E+03  0.96669142547E+03  0.11664639117E+04  0.25500000920E-02 0. -1.
       -2    1    3    3    0  502 -0.53329203703E+03 -0.37649083455E+03 -0.87733868710E+02  0.65866757700E+03  0.25500000920E-02 0.  1.
</event>
<event>
 5   0  0.2125803E-05  0.1599997E+04  0.7818609E-02  0.8820550E-01
       -2   -1    0    0    0  501  0.00000000000E+00  0.00000000000E+00  0.31244594729E+03  0.31244594730E+03  0.25500000920E-02 0.  1.
        2   -1    0    0  501    0  0.00000000000E+00  0.00000000000E+00 -0.20483459326E+04  0.20483459326E+04  0.25500000920E-02 0. -1.
    10030    2    1    2    0    0  0.00000000000E+00  0.00000000000E+00 -0.17358999853E+04  0.23607918799E+04  0.15999967316E+04 0.  0.
        3    1    3    3  502    0 -0.64522737257E+03 -0.22862921000E+03 -0.14788269833E+04  0.16295763053E+04  0.10100000352E+00 0. -1.
       -3    1    3    3    0  502  0.64522737257E+03  0.22862921000E+03 -0.25707300197E+03  0.73121557459E+03  0.10100000352E+00 0.  1.
</event>
<event>
 5   0  0.2046108E-05  0.1600266E+04  0.7818609E-02  0.8820384E-01
       -2   -1    0    0    0  501  0.00000000000E+00  0.00000000000E+00  0.42535375776E+03  0.42535375777E+03  0.25500000920E-02 0.  1.
        2   -1    0    0  501    0  0.00000000000E+00  0.00000000000E+00 -0.15051309245E+04  0.15051309245E+04  0.25500000920E-02 0. -1.
    10030    2    1    2    0    0  0.00000000000E+00  0.00000000000E+00 -0.10797771667E+04  0.19304846822E+04  0.16002663461E+04 0.  0.
        1    1    3    3  502    0 -0.66549695052E+03 -0.18836457599E+03 -0.10252046367E+04  0.12366939604E+04  0.50400001928E-02 0. -1.
       -1    1    3    3    0  502  0.66549695052E+03  0.18836457599E+03 -0.54572530051E+02  0.69379072184E+03  0.50400001928E-02 0.  1.
</event>
<event>
 5   0  0.2147844E-05  0.1599670E+04  0.7818609E-02  0.8820751E-01
        2   -1    0    0  501    0  0.00000000000E+00  0.00000000000E+00  0.10297499259E+04  0.10297499259E+04  0.25500000920E-02 0.  1.
       -2   -1    0    0    0  501  0.00000000000E+00  0.00000000000E+00 -0.62125406086E+03  0.62125406087E+03  0.25500000920E-02 0. -1.
    10030    2    1    2    0    0  0.00000000000E+00  0.00000000000E+00  0.40849586502E+03  0.16510039867E+04  0.15996703700E+04 0.  0.
        2    1    3    3  502    0 -0.78970775202E+03 -0.43849905151E+02  0.32712811316E+03  0.85590533952E+03  0.25500000920E-02 0. -1.
       -2    1    3    3    0  502  0.78970775202E+03  0.43849905151E+02  0.81367751855E+02  0.79509864723E+03  0.25500000920E-02 0.  1.
</event>
<event>
 5   0  0.2125803E-05  0.1596026E+04  0.7818609E-02  0.8822993E-01
       -2   -1    0    0    0  501  0.00000000000E+00  0.00000000000E+00  0.50860218268E+03  0.50860218269E+03  0.25500000920E-02 0.  1.
        2   -1    0    0  501    0  0.00000000000E+00  0.00000000000E+00 -0.12521078730E+04  0.12521078730E+04  0.25500000920E-02 0. -1.
    10030    2    1    2    0    0  0.00000000000E+00  0.00000000000E+00 -0.74350569029E+03  0.17607100557E+04  0.15960260614E+04 0.  0.
        3    1    3    3  502    0 -0.49165986190E+03  0.62219524229E+03 -0.27327586394E+03  0.83877055704E+03  0.10100000352E+00 0.  1.
       -3    1    3    3    0  502  0.49165986190E+03 -0.62219524229E+03 -0.47022982634E+03  0.92193949863E+03  0.10100000352E+00 0. -1.
</event>
<event>
 5   0  0.1081831E-05  0.1602136E+04  0.7818609E-02  0.8819237E-01
       -1   -1    0    0    0  501  0.00000000000E+00  0.00000000000E+00  0.48088460086E+03  0.48088460089E+03  0.50400001928E-02 0.  1.
        1   -1    0    0  501    0  0.00000000000E+00  0.00000000000E+00 -0.13344356562E+04  0.13344356562E+04  0.50400001928E-02 0. -1.
    10030    2    1    2    0    0  0.00000000000E+00  0.00000000000E+00 -0.85355105530E+03  0.18153202571E+04  0.16021355223E+04 0.  0.
        3    1    3    3  502    0  0.44525288596E+03  0.30945037726E+03 -0.10948982996E+04  0.12218068444E+04  0.10100000352E+00 0. -1.
       -3    1    3    3    0  502 -0.44525288596E+03 -0.30945037726E+03  0.24134724429E+03  0.59351341263E+03  0.10100000352E+00 0.  1.
</event>
<event>
 5   0  0.1994525E-05  0.1602484E+04  0.7818609E-02  0.8819024E-01
        2   -1    0    0  501    0  0.00000000000E+00  0.00000000000E+00  0.17007578487E+04  0.17007578488E+04  0.25500000920E-02 0.  1.
       -2   -1    0    0    0  501  0.00000000000E+00  0.00000000000E+00 -0.37747207938E+03  0.37747207939E+03  0.25500000920E-02 0. -1.
    10030    2    1    2    0    0  0.00000000000E+00  0.00000000000E+00  0.13232857694E+04  0.20782299281E+04  0.16024838242E+04 0.  0.
        5    1    3    3  502    0 -0.14529497752E+03 -0.62832133740E+03  0.12782657963E+04  0.14317415512E+04  0.46999998093E+01 0. -1.
       -5    1    3    3    0  502  0.14529497752E+03  0.62832133740E+03  0.45019973077E+02  0.64648837693E+03  0.46999998093E+01 0.  1.
</event>
<event>
 5   0  0.1057506E-05  0.1600263E+04  0.7818609E-02  0.8820386E-01
        1   -1    0    0  501    0  0.00000000000E+00  0.00000000000E+00  0.37705371086E+03  0.37705371089E+03  0.50400001928E-02 0.  1.
       -1   -1    0    0    0  501  0.00000000000E+00  0.00000000000E+00 -0.16979299930E+04  0.16979299930E+04  0.50400001928E-02 0. -1.
    10030    2    1    2    0    0  0.00000000000E+00  0.00000000000E+00 -0.13208762821E+04  0.20749837039E+04  0.16002634842E+04 0.  0.
        5    1    3    3  502    0  0.25943977446E+03 -0.26752126213E+03  0.25763500693E+03  0.45307230003E+03  0.46999998093E+01 0.  1.
       -5    1    3    3    0  502 -0.25943977446E+03  0.26752126213E+03 -0.15785112891E+04  0.16219114039E+04  0.46999998093E+01 0. -1.
</event>
<event>
 5   0  0.1081831E-05  0.1600684E+04  0.7818609E-02  0.8820128E-01
       -1   -1    0    0    0  501  0.00000000000E+00  0.00000000000E+00  0.67752826788E+03  0.67752826789E+03  0.50400001928E-02 0. -1.
        1   -1    0    0  501    0  0.00000000000E+00  0.00000000000E+00 -0.94541736789E+03  0.94541736790E+03  0.50400001928E-02 0.  1.
    10030    2    1    2    0    0  0.00000000000E+00  0.00000000000E+00 -0.26788910001E+03  0.16229456358E+04  0.16006835936E+04 0.  0.
        3    1    3    3  502    0 -0.48432900742E+03  0.62497748372E+03 -0.25966723644E+03  0.83222504556E+03  0.10100000352E+00 0.  1.
       -3    1    3    3    0  502  0.48432900742E+03 -0.62497748372E+03 -0.82218635724E+01  0.79072059023E+03  0.10100000352E+00 0. -1.
</event>
<event>
 5   0  0.2125803E-05  0.1599574E+04  0.7818609E-02  0.8820809E-01
       -2   -1    0    0    0  501  0.00000000000E+00  0.00000000000E+00  0.69232447683E+03  0.69232447684E+03  0.25500000920E-02 0. -1.
        2   -1    0    0  501    0  0.00000000000E+00  0.00000000000E+00 -0.92393037238E+03  0.92393037238E+03  0.25500000920E-02 0.  1.
    10030    2    1    2    0    0  0.00000000000E+00  0.00000000000E+00 -0.23160589555E+03  0.16162548492E+04  0.15995744580E+04 0.  0.
        3    1    3    3  502    0  0.44191516724E+03 -0.46157187066E+03 -0.60177785380E+03  0.87776659901E+03  0.10100000352E+00 0.  1.
       -3    1    3    3    0  502 -0.44191516724E+03  0.46157187066E+03  0.37017195825E+03  0.73848825021E+03  0.10100000352E+00 0. -1.
</event>
<event>
 5   0  0.1060251E-05  0.1598263E+04  0.7818609E-02  0.8821616E-01
       -1   -1    0    0    0  501  0.00000000000E+00  0.00000000000E+00  0.51252216541E+03  0.51252216543E+03  0.50400001928E-02 0.  1.
        1   -1    0    0  501    0  0.00000000000E+00  0.00000000000E+00 -0.12460161679E+04  0.12460161679E+04  0.50400001928E-02 0. -1.
    10030    2    1    2    0    0  0.00000000000E+00  0.00000000000E+00 -0.73349400252E+03  0.17585383334E+04  0.15982626875E+04 0.  0.
        1    1    3    3  502    0  0.20953470900E+03 -0.30631011955E+03  0.41195379749E+03  0.55446966996E+03  0.50400001928E-02 0.  1.
       -1    1    3    3    0  502 -0.20953470900E+03  0.30631011955E+03 -0.11454478000E+04  0.12040686634E+04  0.50400001928E-02 0. -1.
</event>
<event>
 5   0  0.1081831E-05  0.1600315E+04  0.7818609E-02  0.8820355E-01
       -1   -1    0    0    0  501  0.00000000000E+00  0.00000000000E+00  0.78403462600E+03  0.78403462602E+03  0.50400001928E-02 0. -1.
        1   -1    0    0  501    0  0.00000000000E+00  0.00000000000E+00 -0.81661177556E+03  0.81661177557E+03  0.50400001928E-02 0.  1.
    10030    2    1    2    0    0  0.00000000000E+00  0.00000000000E+00 -0.32577149559E+02  0.16006464016E+04  0.16003148541E+04 0.  0.
        3    1    3    3  502    0 -0.18683169613E+03 -0.38167731554E+03 -0.69441741692E+03  0.81412481537E+03  0.10100000352E+00 0.  1.
       -3    1    3    3    0  502  0.18683169613E+03  0.38167731554E+03  0.66184026736E+03  0.78652158622E+03  0.10100000352E+00 0. -1.
</event>
<event>
 5   0  0.1090674E-05  0.1601672E+04  0.7818609E-02  0.8819522E-01
        1   -1    0    0  501    0  0.00000000000E+00  0.00000000000E+00  0.66594822449E+03  0.66594822451E+03  0.50400001928E-02 0. -1.
       -1   -1    0    0    0  501  0.00000000000E+00  0.00000000000E+00 -0.96304515006E+03  0.96304515007E+03  0.50400001928E-02 0.  1.
    10030    2    1    2    0    0  0.00000000000E+00  0.00000000000E+00 -0.29709692557E+03  0.16289933746E+04  0.16016718863E+04 0.  0.
        4    1    3    3  502    0  0.51560468458E+03  0.52250082389E+03  0.17703929274E+03  0.75511576980E+03  0.12699999809E+01 0. -1.
       -4    1    3    3    0  502 -0.51560468458E+03 -0.52250082389E+03 -0.47413621831E+03  0.87387760478E+03  0.12699999809E+01 0.  1.
</event>
<event>
 5   0  0.1057506E-05  0.1600354E+04  0.7818609E-02  0.8820331E-01
        1   -1    0    0  501    0  0.00000000000E+00  0.00000000000E+00  0.72572323360E+03  0.72572323362E+03  0.50400001928E-02 0. -1.
       -1   -1    0    0    0  501  0.00000000000E+00  0.00000000000E+00 -0.88226918000E+03  0.88226918002E+03  0.50400001928E-02 0.  1.
    10030    2    1    2    0    0  0.00000000000E+00  0.00000000000E+00 -0.15654594640E+03  0.16079924136E+04  0.16003540136E+04 0.  0.
        5    1    3    3  502    0  0.32967118886E+03  0.51030655663E+03  0.44494779139E+03  0.75305809972E+03  0.46999998093E+01 0. -1.
       -5    1    3    3    0  502 -0.32967118886E+03 -0.51030655663E+03 -0.60149373779E+03  0.85493431391E+03  0.46999998093E+01 0.  1.
</event>
<event>
 5   0  0.1990948E-05  0.1599820E+04  0.7818609E-02  0.8820658E-01
        2   -1    0    0  501    0  0.00000000000E+00  0.00000000000E+00  0.20013159832E+04  0.20013159832E+04  0.25500000920E-02 0. -1.
       -2   -1    0    0    0  501  0.00000000000E+00  0.00000000000E+00 -0.31971776855E+03  0.31971776856E+03  0.25500000920E-02 0.  1.
    10030    2    1    2    0    0  0.00000000000E+00  0.00000000000E+00  0.16815982146E+04  0.23210337517E+04  0.15998203403E+04 0.  0.
        4    1    3    3  502    0 -0.20003972392E+03 -0.56816016096E+03  0.16044165561E+04  0.17137607646E+04  0.12699999809E+01 0. -1.
       -4    1    3    3    0  502  0.20003972392E+03  0.56816016096E+03  0.77181658505E+02  0.60727298718E+03  0.12699999809E+01 0.  1.
</event>
<event>
 5   0  0.2046108E-05  0.1599973E+04  0.7818609E-02  0.8820565E-01
        2   -1    0    0  501    0  0.00000000000E+00  0.00000000000E+00  0.41318939905E+03  0.41318939906E+03  0.25500000920E-02 0.  1.
       -2   -1    0    0    0  501  0.00000000000E+00  0.00000000000E+00 -0.15488735235E+04  0.15488735235E+04  0.25500000920E-02 0. -1.
    10030    2    1    2    0    0  0.00000000000E+00  0.00000000000E+00 -0.11356841244E+04  0.19620629225E+04  0.15999726502E+04 0.  0.
        1    1    3    3  502    0  0.39832785882E+03  0.19118760052E+03 -0.13856727413E+04  0.14544094085E+04  0.50400001928E-02 0. -1.
       -1    1    3    3    0  502 -0.39832785882E+03 -0.19118760052E+03  0.24998861684E+03  0.50765351400E+03  0.50400001928E-02 0.  1.
</event>
<event>
 5   0  0.1090674E-05  0.1600297E+04  0.7818609E-02  0.8820366E-01
       -1   -1    0    0    0  501  0.00000000000E+00  0.00000000000E+00  0.13795263507E+04  0.13795263507E+04  0.50400001928E-02 0.  1.
        1   -1    0    0  501    0  0.00000000000E+00  0.00000000000E+00 -0.46409955134E+03  0.46409955137E+03  0.50400001928E-02 0. -1.
    10030    2    1    2    0    0  0.00000000000E+00  0.00000000000E+00  0.91542679934E+03  0.18436259021E+04  0.16002969230E+04 0.  0.
        4    1    3    3  502    0 -0.16079630209E+03 -0.72367856098E+03  0.80461287965E+03  0.10940610629E+04  0.12699999809E+01 0.  1.
       -4    1    3    3    0  502  0.16079630209E+03  0.72367856098E+03  0.11081391969E+03  0.74956483915E+03  0.12699999809E+01 0. -1.
</event>
<event>
 5   0  0.2147844E-05  0.1599701E+04  0.7818609E-02  0.8820732E-01
        2   -1    0    0  501    0  0.00000000000E+00  0.00000000000E+00  0.19266078936E+04  0.19266078936E+04  0.25500000920E-02 0.  1.
       -2   -1    0    0    0  501  0.00000000000E+00  0.00000000000E+00 -0.33206587511E+03  0.33206587512E+03  0.25500000920E-02 0. -1.
    10030    2    1    2    0    0  0.00000000000E+00  0.00000000000E+00  0.15945420185E+04  0.22586737687E+04  0.15997008923E+04 0.  0.
        2    1    3    3  502    0 -0.16802534922E+03  0.77133333223E+03  0.61550330935E+03  0.10010154600E+04  0.25500000920E-02 0.  1.
       -2    1    3    3    0  502  0.16802534922E+03 -0.77133333223E+03  0.97903870911E+03  0.12576583087E+04  0.25500000920E-02 0. -1.
</event>
<event>
 5   0  0.1057506E-05  0.1598677E+04  0.7818609E-02  0.8821361E-01
        1   -1    0    0  501    0  0.00000000000E+00  0.00000000000E+00  0.12328075172E+04  0.12328075172E+04  0.50400001928E-02 0. -1.
       -1   -1    0    0    0  501  0.00000000000E+00  0.00000000000E+00 -0.51828235463E+03  0.51828235465E+03  0.50400001928E-02 0.  1.
    10030    2    1    2    0    0  0.00000000000E+00  0.00000000000E+00  0.71452516253E+03  0.17510898718E+04  0.15986774319E+04 0.  0.
        5    1    3    3  502    0  0.69294367678E+03  0.12853528103E+03 -0.55823153076E+02  0.70698696740E+03  0.46999998093E+01 0.  1.
       -5    1    3    3    0  502 -0.69294367678E+03 -0.12853528103E+03  0.77034831561E+03  0.10441029044E+04  0.46999998093E+01 0. -1.
</event>
<event>
 5   0  0.2147844E-05  0.1600522E+04  0.7818609E-02  0.8820227E-01
        2   -1    0    0  501    0  0.00000000000E+00  0.00000000000E+00  0.74552949529E+03  0.74552949529E+03  0.25500000920E-02 0. -1.
       -2   -1    0    0    0  501  0.00000000000E+00  0.00000000000E+00 -0.85901040528E+03  0.85901040528E+03  0.25500000920E-02 0.  1.
    10030    2    1    2    0    0  0.00000000000E+00  0.00000000000E+00 -0.11348090999E+03  0.16045399006E+04  0.16005219073E+04 0.  0.
        2    1    3    3  502    0 -0.53952641392E+03  0.41084674248E+03  0.36921889559E+03  0.77214402154E+03  0.25500000920E-02 0. -1.
       -2    1    3    3    0  502  0.53952641392E+03 -0.41084674248E+03 -0.48269980558E+03  0.83239587904E+03  0.25500000920E-02 0.  1.
</event>
<event>
 5   0  0.1090674E-05  0.1600080E+04  0.7818609E-02  0.8820499E-01
       -1   -1    0    0    0  501  0.00000000000E+00  0.00000000000E+00  0.10401177890E+04  0.10401177890E+04  0.50400001928E-02 0. -1.
        1   -1    0    0  501    0  0.00000000000E+00  0.00000000000E+00 -0.61537666610E+03  0.61537666612E+03  0.50400001928E-02 0.  1.
    10030    2    1    2    0    0  0.00000000000E+00  0.00000000000E+00  0.42474112288E+03  0.16554944551E+04  0.16000802697E+04 0.  0.
        4    1    3    3  502    0 -0.86284722009E+02 -0.79464615511E+03  0.24753343484E+03  0.83676877293E+03  0.12699999809E+01 0. -1.
       -4    1    3    3    0  502  0.86284722009E+02  0.79464615511E+03  0.17720768804E+03  0.81872568219E+03  0.12699999809E+01 0.  1.
</event>
<event>
 5   0  0.1090674E-05  0.1599164E+04  0.7818609E-02  0.8821062E-01
       -1   -1    0    0    0  501  0.00000000000E+00  0.00000000000E+00  0.91683493458E+03  0.91683493459E+03  0.50400001928E-02 0. -1.
        1   -1    0    0  501    0  0.00000000000E+00  0.00000000000E+00 -0.69732416393E+03  0.69732416395E+03  0.50400001928E-02 0.  1.
    10030    2    1    2    0    0  0.00000000000E+00  0.00000000000E+00  0.21951077065E+03  0.16141590985E+04  0.15991637242E+04 0.  0.
        4    1    3    3  502    0  0.32888618722E+03  0.21460288933E+03  0.81278413022E+03  0.90268498353E+03  0.12699999809E+01 0. -1.
       -4    1    3    3    0  502 -0.32888618722E+03 -0.21460288933E+03 -0.59327335957E+03  0.71147411501E+03  0.12699999809E+01 0.  1.
</event>
<event>
 5   0  0.1126485E-05  0.1598904E+04  0.7818609E-02  0.8821222E-01
       -1   -1    0    0    0  501  0.00000000000E+00  0.00000000000E+00  0.63586072415E+03  0.63586072417E+03  0.50400001928E-02 0. -1.
        1   -1    0    0  501    0  0.00000000000E+00  0.00000000000E+00 -0.10051311662E+04  0.10051311662E+04  0.50400001928E-02 0.  1.
    10030    2    1    2    0    0  0.00000000000E+00  0.00000000000E+00 -0.36927044204E+03  0.16409918904E+04  0.15989039136E+04 0.  0.
        2    1    3    3  502    0  0.70654057064E+03 -0.88873296452E+02  0.18828230939E+03  0.73657875942E+03  0.25500000920E-02 0. -1.
       -2    1    3    3    0  502 -0.70654057064E+03  0.88873296452E+02 -0.55755275143E+03  0.90441313094E+03  0.25500000920E-02 0.  1.
</event>
<event>
 5   0  0.1990948E-05  0.1600196E+04  0.7818609E-02  0.8820428E-01
        2   -1    0    0  501    0  0.00000000000E+00  0.00000000000E+00  0.60935458428E+03  0.60935458428E+03  0.25500000920E-02 0.  1.
       -2   -1    0    0    0  501  0.00000000000E+00  0.00000000000E+00 -0.10505485065E+04  0.10505485065E+04  0.25500000920E-02 0. -1.
    10030    2    1    2    0    0  0.00000000000E+00  0.00000000000E+00 -0.44119392226E+03  0.16599030908E+04  0.16001956736E+04 0.  0.
        4    1    3    3  502    0 -0.52397210603E+03 -0.16911884026E+03  0.38158687404E+03  0.66989410011E+03  0.12699999809E+01 0.  1.
       -4    1    3    3    0  502  0.52397210603E+03  0.16911884026E+03 -0.82278079630E+03  0.99000899071E+03  0.12699999809E+01 0. -1.
</event>
<event>
 5   0  0.7597000E-06  0.1599603E+04  0.7818609E-02  0.8820792E-01
        3   -1    0    0  501    0  0.00000000000E+00  0.00000000000E+00  0.20496547007E+04  0.20496547032E+04  0.10100000352E+00 0. -1.
       -3   -1    0    0    0  501  0.00000000000E+00  0.00000000000E+00 -0.31209267139E+03  0.31209268773E+03  0.10100000352E+00 0.  1.
    10030    2    1    2    0    0  0.00000000000E+00  0.00000000000E+00  0.17375620294E+04  0.23617473910E+04  0.15996027422E+04 0.  0.
        2    1    3    3  502    0 -0.52423819639E+03 -0.19074392687E+01  0.17606071811E+04  0.18369994477E+04  0.25500000920E-02 0. -1.
       -2    1    3    3    0  502  0.52423819639E+03  0.19074392687E+01 -0.23045151739E+02  0.52474794321E+03  0.25500000920E-02 0.  1.
</event>
<event>
 5   0  0.1994525E-05  0.1599571E+04  0.7818609E-02  0.8820812E-01
       -2   -1    0    0    0  501  0.00000000000E+00  0.00000000000E+00  0.87175609748E+03  0.87175609749E+03  0.25500000920E-02 0. -1.
        2   -1    0    0  501    0  0.00000000000E+00  0.00000000000E+00 -0.73375663630E+03  0.73375663631E+03  0.25500000920E-02 0.  1.
    10030    2    1    2    0    0  0.00000000000E+00  0.00000000000E+00  0.13799946118E+03  0.16055127338E+04  0.15995709697E+04 0.  0.
        5    1    3    3  502    0  0.13118173235E+03 -0.50472480402E+03  0.67761750053E+03  0.85506920288E+03  0.46999998093E+01 0. -1.
       -5    1    3    3    0  502 -0.13118173235E+03  0.50472480402E+03 -0.53961803935E+03  0.75044353091E+03  0.46999998093E+01 0.  1.
</event>
<event>
 5   0  0.1994525E-05  0.1595645E+04  0.7818609E-02  0.8823228E-01
       -2   -1    0    0    0  501  0.00000000000E+00  0.00000000000E+00  0.75168395930E+03  0.75168395931E+03  0.25500000920E-02 0.  1.
        2   -1    0    0  501    0  0.00000000000E+00  0.00000000000E+00 -0.84679315252E+03  0.84679315253E+03  0.25500000920E-02 0. -1.
    10030    2    1    2    0    0  0.00000000000E+00  0.00000000000E+00 -0.95109193220E+02  0.15984771118E+04  0.15956451104E+04 0.  0.
        5    1    3    3  502    0  0.77657744838E+03 -0.17264964771E+03 -0.10781370864E+03  0.80282396573E+03  0.46999998093E+01 0.  1.
       -5    1    3    3    0  502 -0.77657744838E+03  0.17264964771E+03  0.12704515420E+02  0.79565314610E+03  0.46999998093E+01 0. -1.
</event>
<event>
 5   0  0.1990948E-05  0.1600155E+04  0.7818609E-02  0.8820453E-01
       -2   -1    0    0    0  501  0.00000000000E+00  0.00000000000E+00  0.58007286967E+03  0.58007286967E+03  0.25500000920E-02 0.  1.
        2   -1    0    0  501    0  0.00000000000E+00  0.00000000000E+00 -0.11035232071E+04  0.11035232071E+04  0.25500000920E-02 0. -1.
    10030    2    1    2    0    0  0.00000000000E+00  0.00000000000E+00 -0.52345033747E+03  0.16835960768E+04  0.16001548344E+04 0.  0.
        4    1    3    3  502    0 -0.12310250794E+03 -0.75389007288E+03 -0.11372423388E+02  0.76396034869E+03  0.12699999809E+01 0. -1.
       -4    1    3    3    0  502  0.12310250794E+03  0.75389007288E+03 -0.51207791408E+03  0.91963572813E+03  0.12699999809E+01 0.  1.
</event>
<event>
 5   0  0.1090674E-05  0.1600140E+04  0.7818609E-02  0.8820462E-01
        1   -1    0    0  501    0  0.00000000000E+00  0.00000000000E+00  0.11197088675E+04  0.11197088675E+04  0.50400001928E-02 0. -1.
       -1   -1    0    0    0  501  0.00000000000E+00  0.00000000000E+00 -0.57167742573E+03  0.57167742576E+03  0.50400001928E-02 0.  1.
    10030    2    1    2    0    0  0.00000000000E+00  0.00000000000E+00  0.54803144180E+03  0.16913862933E+04  0.16001403476E+04 0.  0.
        4    1    3    3  502    0  0.12650245097E+03  0.19120584169E+03 -0.53621079768E+03  0.58316908049E+03  0.12699999809E+01 0.  1.
       -4    1    3    3    0  502 -0.12650245097E+03 -0.19120584169E+03  0.10842422395E+04  0.11082172128E+04  0.12699999809E+01 0. -1.
</event>
<event>
 5   0  0.1126485E-05  0.1600232E+04  0.7818609E-02  0.8820405E-01
        1   -1    0    0  501    0  0.00000000000E+00  0.00000000000E+00  0.11089289921E+04  0.11089289921E+04  0.50400001928E-02 0.  1.
       -1   -1    0    0    0  501  0.00000000000E+00  0.00000000000E+00 -0.57730112542E+03  0.57730112544E+03  0.50400001928E-02 0. -1.
    10030    2    1    2    0    0  0.00000000000E+00  0.00000000000E+00  0.53162786670E+03  0.16862301176E+04  0.16002324271E+04 0.  0.
        2    1    3    3  502    0  0.37943886647E+03 -0.59080668735E+03 -0.13841557698E+03  0.71567120045E+03  0.25500000920E-02 0. -1.
       -2    1    3    3    0  502 -0.37943886647E+03  0.59080668735E+03  0.67004344368E+03  0.97055891713E+03  0.25500000920E-02 0.  1.
</event>
<event>
 5   0  0.2147844E-05  0.1599007E+04  0.7818609E-02  0.8821158E-01
        2   -1    0    0  501    0  0.00000000000E+00  0.00000000000E+00  0.48285486117E+03  0.48285486118E+03  0.25500000920E-02 0. -1.
       -2   -1    0    0    0  501  0.00000000000E+00  0.00000000000E+00 -0.13238060451E+04  0.13238060451E+04  0.25500000920E-02 0.  1.
    10030    2    1    2    0    0  0.00000000000E+00  0.00000000000E+00 -0.84095118397E+03  0.18066609063E+04  0.15990074223E+04 0.  0.
        2    1    3    3  502    0 -0.86125299303E+02  0.12172034687E+03 -0.13079568031E+04  0.13164286569E+04  0.25500000920E-02 0.  1.
       -2    1    3    3    0  502  0.86125299303E+02 -0.12172034687E+03  0.46700561914E+03  0.49023224938E+03  0.25500000920E-02 0. -1.
</event>
<event>
 5   0  0.1126485E-05  0.1600511E+04  0.7818609E-02  0.8820234E-01
       -1   -1    0    0    0  501  0.00000000000E+00  0.00000000000E+00  0.40016011962E+03  0.40016011965E+03  0.50400001928E-02 0.  1.
        1   -1    0    0  501    0  0.00000000000E+00  0.00000000000E+00 -0.16003807776E+04  0.16003807776E+04  0.50400001928E-02 0. -1.
    10030    2    1    2    0    0  0.00000000000E+00  0.00000000000E+00 -0.12002206580E+04  0.20005408973E+04  0.16005106228E+04 0.  0.
        2    1    3    3  502    0  0.64082286459E+03 -0.81398249089E+02 -0.96824867964E+01  0.64604440195E+03  0.25500000920E-02 0.  1.
       -2    1    3    3    0  502 -0.64082286459E+03  0.81398249089E+02 -0.11905381712E+04  0.13544964953E+04  0.25500000920E-02 0. -1.
</event>
<event>
 5   0  0.2125803E-05  0.1599387E+04  0.7818609E-02  0.8820924E-01
       -2   -1    0    0    0  501  0.00000000000E+00  0.00000000000E+00  0.65073868442E+03  0.65073868443E+03  0.25500000920E-02 0. -1.
        2   -1    0    0  501    0  0.00000000000E+00  0.00000000000E+00 -0.98274465223E+03  0.98274465224E+03  0.25500000920E-02 0.  1.
    10030    2    1    2    0    0  0.00000000000E+00  0.00000000000E+00 -0.33200596781E+03  0.16334833367E+04  0.15993873354E+04 0.  0.
        3    1    3    3  502    0  0.77771595270E+03  0.41121221229E+02 -0.35146967764E+03  0.85443782829E+03  0.10100000352E+00 0.  1.
       -3    1    3    3    0  502 -0.77771595270E+03 -0.41121221229E+02  0.19463709830E+02  0.77904550837E+03  0.10100000352E+00 0. -1.
</event>
<event>
 5   0  0.1994525E-05  0.1601848E+04  0.7818609E-02  0.8819413E-01
       -2   -1    0    0    0  501  0.00000000000E+00  0.00000000000E+00  0.31508598863E+03  0.31508598864E+03  0.25500000920E-02 0. -1.
        2   -1    0    0  501    0  0.00000000000E+00  0.00000000000E+00 -0.20358867088E+04  0.20358867088E+04  0.25500000920E-02 0.  1.
    10030    2    1    2    0    0  0.00000000000E+00  0.00000000000E+00 -0.17208007202E+04  0.23509726974E+04  0.16018481531E+04 0.  0.
        5    1    3    3  502    0  0.11907305769E+03  0.63423434447E+03 -0.16418709875E+03  0.66589119995E+03  0.46999998093E+01 0. -1.
       -5    1    3    3    0  502 -0.11907305769E+03 -0.63423434447E+03 -0.15566136214E+04  0.16850814975E+04  0.46999998093E+01 0.  1.
</event>
<event>
 5   0  0.1057506E-05  0.1600364E+04  0.7818609E-02  0.8820324E-01
        1   -1    0    0  501    0  0.00000000000E+00  0.00000000000E+00  0.68556710224E+03  0.68556710226E+03  0.50400001928E-02 0.  1.
       -1   -1    0    0    0  501  0.00000000000E+00  0.00000000000E+00 -0.93395860958E+03  0.93395860959E+03  0.50400001928E-02 0. -1.
    10030    2    1    2    0    0  0.00000000000E+00  0.00000000000E+00 -0.24839150733E+03  0.16195257119E+04  0.16003640806E+04 0.  0.
        5    1    3    3  502    0 -0.12976187300E+03  0.76179206799E+03  0.85904889085E+02  0.77753909130E+03  0.46999998093E+01 0. -1.
       -5    1    3    3    0  502  0.12976187300E+03 -0.76179206799E+03 -0.33429639642E+03  0.84198662055E+03  0.46999998093E+01 0.  1.
</event>
<event>
 5   0  0.1081831E-05  0.1594629E+04  0.7818609E-02  0.8823854E-01
        1   -1    0    0  501    0  0.00000000000E+00  0.00000000000E+00  0.59643156714E+03  0.59643156716E+03  0.50400001928E-02 0.  1.
       -1   -1    0    0    0  501  0.00000000000E+00  0.00000000000E+00 -0.10658569234E+04  0.10658569234E+04  0.50400001928E-02 0. -1.
    10030    2    1    2    0    0  0.00000000000E+00  0.00000000000E+00 -0.46942535626E+03  0.16622884906E+04  0.15946293804E+04 0.  0.
        3    1    3    3  502    0  0.60947798024E+03  0.17055820269E+02 -0.77027834846E+03  0.98238640753E+03  0.10100000352E+00 0. -1.
       -3    1    3    3    0  502 -0.60947798024E+03 -0.17055820269E+02  0.30085299220E+03  0.67990208304E+03  0.10100000352E+00 0.  1.
</event>
<event>
 5   0  0.2125803E-05  0.1600146E+04  0.7818609E-02  0.8820458E-01
       -2   -1    0    0    0  501  0.00000000000E+00  0.00000000000E+00  0.14424622609E+04  0.14424622609E+04  0.25500000920E-02 0. -1.
        2   -1    0    0  501    0  0.00000000000E+00  0.00000000000E+00 -0.44376692908E+03  0.44376692909E+03  0.25500000920E-02 0.  1.
    10030    2    1    2    0    0  0.00000000000E+00  0.00000000000E+00  0.99869533179E+03  0.18862291900E+04  0.16001463031E+04 0.  0.
        3    1    3    3  502    0  0.65440903017E+03  0.34002914845E+03  0.13364662444E+03  0.74948811265E+03  0.10100000352E+00 0.  1.
       -3    1    3    3    0  502 -0.65440903017E+03 -0.34002914845E+03  0.86504870735E+03  0.11367410773E+04  0.10100000352E+00 0. -1.
</event>
<event>
 5   0  0.2046108E-05  0.1598747E+04  0.7818609E-02  0.8821318E-01
       -2   -1    0    0    0  501  0.00000000000E+00  0.00000000000E+00  0.74024379239E+03  0.74024379239E+03  0.25500000920E-02 0. -1.
        2   -1    0    0  501    0  0.00000000000E+00  0.00000000000E+00 -0.86322660045E+03  0.86322660045E+03  0.25500000920E-02 0.  1.
    10030    2    1    2    0    0  0.00000000000E+00  0.00000000000E+00 -0.12298280806E+03  0.16034703928E+04  0.15987471750E+04 0.  0.
        1    1    3    3  502    0  0.18551603914E+02  0.13093142340E+02 -0.86290308464E+03  0.86320178747E+03  0.50400001928E-02 0.  1.
       -1    1    3    3    0  502 -0.18551603914E+02 -0.13093142340E+02  0.73992027658E+03  0.74026860537E+03  0.50400001928E-02 0. -1.
</event>
<event>
 5   0  0.2046108E-05  0.1598688E+04  0.7818609E-02  0.8821354E-01
        2   -1    0    0  501    0  0.00000000000E+00  0.00000000000E+00  0.93488184153E+03  0.93488184153E+03  0.25500000920E-02 0.  1.
       -2   -1    0    0    0  501  0.00000000000E+00  0.00000000000E+00 -0.68345636899E+03  0.68345636899E+03  0.25500000920E-02 0. -1.
    10030    2    1    2    0    0  0.00000000000E+00  0.00000000000E+00  0.25142547254E+03  0.16183382105E+04  0.15986881483E+04 0.  0.
        1    1    3    3  502    0  0.75642852953E+03  0.88295020575E+02 -0.12011116605E+03  0.77097783572E+03  0.50400001928E-02 0. -1.
       -1    1    3    3    0  502 -0.75642852953E+03 -0.88295020575E+02  0.37153663859E+03  0.84736037480E+03  0.50400001928E-02 0.  1.
</event>
<event>
 5   0  0.2147844E-05  0.1600230E+04  0.7818609E-02  0.8820407E-01
        2   -1    0    0  501    0  0.00000000000E+00  0.00000000000E+00  0.11784058736E+04  0.11784058736E+04  0.25500000920E-02 0.  1.
       -2   -1    0    0    0  501  0.00000000000E+00  0.00000000000E+00 -0.54326243270E+03  0.54326243271E+03  0.25500000920E-02 0. -1.
    10030    2    1    2    0    0  0.00000000000E+00  0.00000000000E+00  0.63514344092E+03  0.17216683063E+04  0.16002295356E+04 0.  0.
        2    1    3    3  502    0  0.48782715480E+03 -0.91015390340E+02  0.99283588536E+03  0.11099469490E+04  0.25500000920E-02 0.  1.
       -2    1    3    3    0  502 -0.48782715480E+03  0.91015390340E+02 -0.35769244444E+03  0.61172135737E+03  0.25500000920E-02 0. -1.
</event>
<event>
 5   0  0.1060251E-05  0.1599196E+04  0.7818609E-02  0.8821042E-01
       -1   -1    0    0    0  501  0.00000000000E+00  0.00000000000E+00  0.10414062492E+04  0.10414062492E+04  0.50400001928E-02 0. -1.
        1   -1    0    0  501    0  0.00000000000E+00  0.00000000000E+00 -0.61393639712E+03  0.61393639714E+03  0.50400001928E-02 0.  1.
    10030    2    1    2    0    0  0.00000000000E+00  0.00000000000E+00  0.42746985208E+03  0.16553426464E+04  0.15991962989E+04 0.  0.
        1    1    3    3  502    0 -0.16281700293E+03  0.32213746491E+03  0.95228021353E+03  0.10183906558E+04  0.50400001928E-02 0. -1.
       -1    1    3    3    0  502  0.16281700293E+03 -0.32213746491E+03 -0.52481036145E+03  0.63695199054E+03  0.50400001928E-02 0.  1.
</event>
<event>
 5   0  0.2046108E-05  0.1598807E+04  0.7818609E-02  0.8821282E-01
       -2   -1    0    0    0  501  0.00000000000E+00  0.00000000000E+00  0.95712663961E+03  0.95712663961E+03  0.25500000920E-02 0.  1.
        2   -1    0    0  501    0  0.00000000000E+00  0.00000000000E+00 -0.66767090913E+03  0.66767090913E+03  0.25500000920E-02 0. -1.
    10030    2    1    2    0    0  0.00000000000E+00  0.00000000000E+00  0.28945573048E+03  0.16247975487E+04  0.15988065719E+04 0.  0.
        1    1    3    3  502    0 -0.35363508939E+03 -0.22345504835E+02 -0.58350235572E+03  0.68266543576E+03  0.50400001928E-02 0. -1.
       -1    1    3    3    0  502  0.35363508939E+03  0.22345504835E+02  0.87295808619E+03  0.94213211298E+03  0.50400001928E-02 0.  1.
</event>
<event>
 5   0  0.1990948E-05  0.1600027E+04  0.7818609E-02  0.8820531E-01
        2   -1    0    0  501    0  0.00000000000E+00  0.00000000000E+00  0.89981076475E+03  0.89981076476E+03  0.25500000920E-02 0.  1.
       -2   -1    0    0    0  501  0.00000000000E+00  0.00000000000E+00 -0.71128485760E+03  0.71128485761E+03  0.25500000920E-02 0. -1.
    10030    2    1    2    0    0  0.00000000000E+00  0.00000000000E+00  0.18852590715E+03  0.16110956224E+04  0.16000272144E+04 0.  0.
        4    1    3    3  502    0 -0.41070435036E+03 -0.33027244618E+03 -0.51178286927E+03  0.73463002273E+03  0.12699999809E+01 0. -1.
       -4    1    3    3    0  502  0.41070435036E+03  0.33027244618E+03  0.70030877642E+03  0.87646559964E+03  0.12699999809E+01 0.  1.
</event>
<event>
 5   0  0.2125803E-05  0.1590114E+04  0.7818609E-02  0.8826644E-01
       -2   -1    0    0    0  501  0.00000000000E+00  0.00000000000E+00  0.29116478275E+03  0.29116478276E+03  0.25500000920E-02 0. -1.
        2   -1    0    0  501    0  0.00000000000E+00  0.00000000000E+00 -0.21709905129E+04  0.21709905129E+04  0.25500000920E-02 0.  1.
    10030    2    1    2    0    0  0.00000000000E+00  0.00000000000E+00 -0.18798257302E+04  0.24621552957E+04  0.15901144375E+04 0.  0.
        3    1    3    3  502    0  0.66441538200E+03 -0.42506426434E+03 -0.78516020779E+03  0.11129258694E+04  0.10100000352E+00 0.  1.
       -3    1    3    3    0  502 -0.66441538200E+03  0.42506426434E+03 -0.10946655224E+04  0.13492294263E+04  0.10100000352E+00 0. -1.
</event>
<event>
 5   0  0.1057506E-05  0.1599857E+04  0.7818609E-02  0.8820636E-01
       -1   -1    0    0    0  501  0.00000000000E+00  0.00000000000E+00  0.52420115891E+03  0.52420115893E+03  0.50400001928E-02 0.  1.
        1   -1    0    0  501    0  0.00000000000E+00  0.00000000000E+00 -0.12206877046E+04  0.12206877046E+04  0.50400001928E-02 0. -1.
    10030    2    1    2    0    0  0.00000000000E+00  0.00000000000E+00 -0.69648654571E+03  0.17448888636E+04  0.15998573805E+04 0.  0.
        5    1    3    3  502    0 -0.33080544078E+03  0.29124268880E+03  0.37981076205E+03  0.58183575724E+03  0.46999998093E+01 0.  1.
       -5    1    3    3    0  502  0.33080544078E+03 -0.29124268880E+03 -0.10762973078E+04  0.11630531063E+04  0.46999998093E+01 0. -1.
</event>
<event>
 5   0  0.1126485E-05  0.1599676E+04  0.7818609E-02  0.8820747E-01
        1   -1    0    0  501    0  0.00000000000E+00  0.00000000000E+00  0.84233929779E+03  0.84233929780E+03  0.50400001928E-02 0.  1.
       -1   -1    0    0    0  501  0.00000000000E+00  0.00000000000E+00 -0.75948104260E+03  0.75948104262E+03  0.50400001928E-02 0. -1.
    10030    2    1    2    0    0  0.00000000000E+00  0.00000000000E+00  0.82858255190E+02  0.16018203404E+04  0.15996758773E+04 0.  0.
        2    1    3    3  502    0 -0.18937112943E+03  0.18804644190E+03 -0.71358287663E+03  0.76185524268E+03  0.25500000920E-02 0. -1.
       -2    1    3    3    0  502  0.18937112943E+03 -0.18804644190E+03  0.79644113182E+03  0.83996509774E+03  0.25500000920E-02 0.  1.
</event>
<event>
 5   0  0.2046108E-05  0.1600596E+04  0.7818609E-02  0.8820182E-01
       -2   -1    0    0    0  501  0.00000000000E+00  0.00000000000E+00  0.43649101788E+03  0.43649101789E+03  0.25500000920E-02 0. -1.
        2   -1    0    0  501    0  0.00000000000E+00  0.00000000000E+00 -0.14673321067E+04  0.14673321068E+04  0.25500000920E-02 0.  1.
    10030    2    1    2    0    0  0.00000000000E+00  0.00000000000E+00 -0.10308410889E+04  0.19038231246E+04  0.16005964949E+04 0.  0.
        1    1    3    3  502    0 -0.78416448847E+02  0.60369971151E+03 -0.11333315150E+04  0.12864846692E+04  0.50400001928E-02 0.  1.
       -1    1    3    3    0  502  0.78416448847E+02 -0.60369971151E+03  0.10249042612E+03  0.61733845547E+03  0.50400001928E-02 0. -1.
</event>
<event>
 5   0  0.1990948E-05  0.1600097E+04  0.7818609E-02  0.8820489E-01
        2   -1    0    0  501    0  0.00000000000E+00  0.00000000000E+00  0.13133273083E+04  0.13133273083E+04  0.25500000920E-02 0. -1.
       -2   -1    0    0    0  501  0.00000000000E+00  0.00000000000E+00 -0.48737075746E+03  0.48737075747E+03  0.25500000920E-02 0.  1.
    10030    2    1    2    0    0  0.00000000000E+00  0.00000000000E+00  0.82595655088E+03  0.18006980658E+04  0.16000966534E+04 0.  0.
        4    1    3    3  502    0 -0.37955680526E+03 -0.67866950750E+03  0.20118155781E+03  0.80320066044E+03  0.12699999809E+01 0.  1.
       -4    1    3    3    0  502  0.37955680526E+03  0.67866950750E+03  0.62477499307E+03  0.99749740536E+03  0.12699999809E+01 0. -1.
</event>
<event>
 5   0  0.2125803E-05  0.1599918E+04  0.7818609E-02  0.8820598E-01
       -2   -1    0    0    0  501  0.00000000000E+00  0.00000000000E+00  0.55124937263E+03  0.55124937263E+03  0.25500000920E-02 0. -1.
        2   -1    0    0  501    0  0.00000000000E+00  0.00000000000E+00 -0.11608807371E+04  0.11608807371E+04  0.25500000920E-02 0.  1.
    10030    2    1    2    0    0  0.00000000000E+00  0.00000000000E+00 -0.60963136447E+03  0.17121301097E+04  0.15999184705E+04 0.  0.
        3    1    3    3  502    0 -0.23827999755E+03 -0.73458228048E+03 -0.81502447722E+02  0.77655079886E+03  0.10100000352E+00 0.  1.
       -3    1    3    3    0  502  0.23827999755E+03  0.73458228048E+03 -0.52812891675E+03  0.93557931088E+03  0.10100000352E+00 0. -1.
</event>
<event>
 5   0  0.1060251E-05  0.1601777E+04  0.7818609E-02  0.8819457E-01
       -1   -1    0    0    0  501  0.00000000000E+00  0.00000000000E+00  0.98804598368E+03  0.98804598369E+03  0.50400001928E-02 0.  1.
        1   -1    0    0  501    0  0.00000000000E+00  0.00000000000E+00 -0.64918270734E+03  0.64918270736E+03  0.50400001928E-02 0. -1.
    10030    2    1    2    0    0  0.00000000000E+00  0.00000000000E+00  0.33886327633E+03  0.16372286910E+04  0.16017769716E+04 0.  0.
        1    1    3    3  502    0 -0.73687979723E+01 -0.79004564231E+03  0.30346730978E+03  0.84635620412E+03  0.50400001928E-02 0.  1.
       -1    1    3    3    0  502  0.73687979723E+01  0.79004564231E+03  0.35395966551E+02  0.79087248693E+03  0.50400001928E-02 0. -1.
</event>
<event>
 5   0  0.2147844E-05  0.1599458E+04  0.7818609E-02  0.8820881E-01
        2   -1    0    0  501    0  0.00000000000E+00  0.00000000000E+00  0.11824251890E+04  0.11824251890E+04  0.25500000920E-02 0.  1.
       -2   -1    0    0    0  501  0.00000000000E+00  0.00000000000E+00 -0.54089354212E+03  0.54089354212E+03  0.25500000920E-02 0. -1.
    10030    2    1    2    0    0  0.00000000000E+00  0.00000000000E+00  0.64153164684E+03  0.17233187311E+04  0.15994575940E+04 0.  0.
        2    1    3    3  502    0 -0.32524403044E+02  0.19074222852E+03  0.11568239362E+04  0.11728947327E+04  0.25500000920E-02 0.  1.
       -2    1    3    3    0  502  0.32524403044E+02 -0.19074222852E+03 -0.51529228937E+03  0.55042399841E+03  0.25500000920E-02 0. -1.
</event>
<event>
 5   0  0.1060251E-05  0.1597228E+04  0.7818609E-02  0.8822253E-01
        1   -1    0    0  501    0  0.00000000000E+00  0.00000000000E+00  0.69742872154E+03  0.69742872156E+03  0.50400001928E-02 0. -1.
       -1   -1    0    0    0  501  0.00000000000E+00  0.00000000000E+00 -0.91447980220E+03  0.91447980221E+03  0.50400001928E-02 0.  1.
    10030    2    1    2    0    0  0.00000000000E+00  0.00000000000E+00 -0.21705108066E+03  0.16119085238E+04  0.15972281983E+04 0.  0.
        1    1    3    3  502    0  0.11257503123E+03  0.23558433056E+03  0.65313726129E+03  0.70339277546E+03  0.50400001928E-02 0. -1.
       -1    1    3    3    0  502 -0.11257503123E+03 -0.23558433056E+03 -0.87018834194E+03  0.90851574832E+03  0.50400001928E-02 0.  1.
</event>
<event>
 5   0  0.1126485E-05  0.1599073E+04  0.7818609E-02  0.8821118E-01
       -1   -1    0    0    0  501  0.00000000000E+00  0.00000000000E+00  0.74944228027E+03  0.74944228028E+03  0.50400001928E-02 0. -1.
        1   -1    0    0  501    0  0.00000000000E+00  0.00000000000E+00 -0.85297903754E+03  0.85297903755E+03  0.50400001928E-02 0.  1.
    10030    2    1    2    0    0  0.00000000000E+00  0.00000000000E+00 -0.10353675727E+03  0.16024213178E+04  0.15990729251E+04 0.  0.
        2    1    3    3  502    0 -0.97561383568E+02  0.28186792190E+03 -0.79513759464E+03  0.84924174614E+03  0.25500000920E-02 0.  1.
       -2    1    3    3    0  502  0.97561383568E+02 -0.28186792190E+03  0.69160083737E+03  0.75317957170E+03  0.25500000920E-02 0. -1.
</event>
<event>
 5   0  0.1994525E-05  0.1598141E+04  0.7818609E-02  0.8821691E-01
       -2   -1    0    0    0  501  0.00000000000E+00  0.00000000000E+00  0.87710958489E+03  0.87710958489E+03  0.25500000920E-02 0. -1.
        2   -1    0    0  501    0  0.00000000000E+00  0.00000000000E+00 -0.72797522766E+03  0.72797522767E+03  0.25500000920E-02 0.  1.
    10030    2    1    2    0    0  0.00000000000E+00  0.00000000000E+00  0.14913435722E+03  0.16050848126E+04  0.15981414828E+04 0.  0.
        5    1    3    3  502    0  0.47055973670E+03 -0.47849341710E+03 -0.36103312710E+03  0.76206917328E+03  0.46999998093E+01 0.  1.
       -5    1    3    3    0  502 -0.47055973670E+03  0.47849341710E+03  0.51016748433E+03  0.84301563928E+03  0.46999998093E+01 0. -1.
</event>
<event>
 5   0  0.1060251E-05  0.1599759E+04  0.7818609E-02  0.8820696E-01
       -1   -1    0    0    0  501  0.00000000000E+00  0.00000000000E+00  0.91903630158E+03  0.91903630159E+03  0.50400001928E-02 0. -1.
        1   -1    0    0  501    0  0.00000000000E+00  0.00000000000E+00 -0.69617163200E+03  0.69617163201E+03  0.50400001928E-02 0.  1.
    10030    2    1    2    0    0  0.00000000000E+00  0.00000000000E+00  0.22286466958E+03  0.16152079336E+04  0.15997587343E+04 0.  0.
        1    1    3    3  502    0 -0.36464079087E+03 -0.49433880415E+02 -0.60563783258E+03  0.70866338919E+03  0.50400001928E-02 0.  1.
       -1    1    3    3    0  502  0.36464079087E+03  0.49433880415E+02  0.82850250216E+03  0.90654454441E+03  0.50400001928E-02 0. -1.
</event>
<event>
 5   0  0.1990948E-05  0.1600450E+04  0.7818609E-02  0.8820271E-01
       -2   -1    0    0    0  501  0.00000000000E+00  0.00000000000E+00  0.74756549912E+03  0.74756549912E+03  0.25500000920E-02 0.  1.
        2   -1    0    0  501    0  0.00000000000E+00  0.00000000000E+00 -0.85659420285E+03  0.85659420286E+03  0.25500000920E-02 0. -1.
    10030    2    1    2    0    0  0.00000000000E+00  0.00000000000E+00 -0.10902870374E+03  0.16041597020E+04  0.16004502776E+04 0.  0.
        4    1    3    3  502    0 -0.18570839758E+03  0.56120366285E+03 -0.59513586659E+03  0.83882386275E+03  0.12699999809E+01 0. -1.
       -4    1    3    3    0  502  0.18570839758E+03 -0.56120366285E+03  0.48610716285E+03  0.76533583922E+03  0.12699999809E+01 0.  1.
</event>
<event>
 5   0  0.7597000E-06  0.1599918E+04  0.7818609E-02  0.8820598E-01
       -3   -1    0    0    0  501  0.00000000000E+00  0.00000000000E+00  0.79565625241E+03  0.79565625882E+03  0.10100000352E+00 0. -1.
        3   -1    0    0  501    0  0.00000000000E+00  0.00000000000E+00 -0.80428507968E+03  0.80428508602E+03  0.10100000352E+00 0.  1.
    10030    2    1    2    0    0  0.00000000000E+00  0.00000000000E+00 -0.86288272634E+01  0.15999413448E+04  0.15999180761E+04 0.  0.
        2    1    3    3  502    0 -0.56607060390E+03 -0.56524124881E+03 -0.52442678069E+01  0.79997568732E+03  0.25500000920E-02 0. -1.
       -2    1    3    3    0  502  0.56607060390E+03  0.56524124881E+03 -0.33845594565E+01  0.79996565752E+03  0.25500000920E-02 0.  1.
</event>
<event>
 5   0  0.2125803E-05  0.1597782E+04  0.7818609E-02  0.8821912E-01
        2   -1    0    0  501    0  0.00000000000E+00  0.00000000000E+00  0.88578647366E+03  0.88578647366E+03  0.25500000920E-02 0.  1.
       -2   -1    0    0    0  501  0.00000000000E+00  0.00000000000E+00 -0.72051981832E+03  0.72051981833E+03  0.25500000920E-02 0. -1.
    10030    2    1    2    0    0  0.00000000000E+00  0.00000000000E+00  0.16526665533E+03  0.16063062920E+04  0.15977818488E+04 0.  0.
        3    1    3    3  502    0 -0.34262879687E+03  0.28849270839E+03 -0.58241254129E+03  0.73472914308E+03  0.10100000352E+00 0. -1.
       -3    1    3    3    0  502  0.34262879687E+03 -0.28849270839E+03  0.74767919662E+03  0.87157714891E+03  0.10100000352E+00 0.  1.
</event>
<event>
 5   0  0.1994525E-05  0.1600148E+04  0.7818609E-02  0.8820457E-01
        2   -1    0    0  501    0  0.00000000000E+00  0.00000000000E+00  0.12096528404E+04  0.12096528404E+04  0.25500000920E-02 0. -1.
       -2   -1    0    0    0  501  0.00000000000E+00  0.00000000000E+00 -0.52917551307E+03  0.52917551308E+03  0.25500000920E-02 0.  1.
    10030    2    1    2    0    0  0.00000000000E+00  0.00000000000E+00  0.68047732733E+03  0.17388283535E+04  0.16001483212E+04 0.  0.
        5    1    3    3  502    0 -0.28958467969E+03  0.46313876819E+03  0.97548801842E+03  0.11180142080E+04  0.46999998093E+01 0. -1.
       -5    1    3    3    0  502  0.28958467969E+03 -0.46313876819E+03 -0.29501069109E+03  0.62081414543E+03  0.46999998093E+01 0.  1.
</event>
<event>
 5   0  0.1081831E-05  0.1599952E+04  0.7818609E-02  0.8820578E-01
        1   -1    0    0  501    0  0.00000000000E+00  0.00000000000E+00  0.58494228642E+03  0.58494228644E+03  0.50400001928E-02 0.  1.
       -1   -1    0    0    0  501  0.00000000000E+00  0.00000000000E+00 -0.10940588000E+04  0.10940588000E+04  0.50400001928E-02 0. -1.
    10030    2    1    2    0    0  0.00000000000E+00  0.00000000000E+00 -0.50911651355E+03  0.16790010864E+04  0.15999515692E+04 0.  0.
        3    1    3    3  502    0 -0.26340764298E+03  0.66220517255E+03 -0.63591639986E+03  0.95513818621E+03  0.10100000352E+00 0. -1.
       -3    1    3    3    0  502  0.26340764298E+03 -0.66220517255E+03  0.12679988632E+03  0.72386290021E+03  0.10100000352E+00 0.  1.
</event>
<event>
 5   0  0.2147844E-05  0.1599025E+04  0.7818609E-02  0.8821147E-01
       -2   -1    0    0    0  501  0.00000000000E+00  0.00000000000E+00  0.36533455295E+03  0.36533455296E+03  0.25500000920E-02 0. -1.
        2   -1    0    0  501    0  0.00000000000E+00  0.00000000000E+00 -0.17496850779E+04  0.17496850779E+04  0.25500000920E-02 0.  1.
    10030    2    1    2    0    0  0.00000000000E+00  0.00000000000E+00 -0.13843505249E+04  0.21150196308E+04  0.15990252227E+04 0.  0.
        2    1    3    3  502    0 -0.29713002892E+03 -0.34886252058E+03 -0.15587453003E+04  0.16247086581E+04  0.25500000920E-02 0.  1.
       -2    1    3    3    0  502  0.29713002892E+03  0.34886252058E+03  0.17439477537E+03  0.49031097279E+03  0.25500000920E-02 0. -1.
</event>
<event>
 5   0  0.1990948E-05  0.1599846E+04  0.7818609E-02  0.8820642E-01
        2   -1    0    0  501    0  0.00000000000E+00  0.00000000000E+00  0.86839675127E+03  0.86839675127E+03  0.25500000920E-02 0.  1.
       -2   -1    0    0    0  501  0.00000000000E+00  0.00000000000E+00 -0.73684874741E+03  0.73684874742E+03  0.25500000920E-02 0. -1.
    10030    2    1    2    0    0  0.00000000000E+00  0.00000000000E+00  0.13154800386E+03  0.16052454987E+04  0.15998463157E+04 0.  0.
        4    1    3    3  502    0  0.20607321051E+03  0.11939327693E+03  0.83199671120E+03  0.86541381027E+03  0.12699999809E+01 0.  1.
       -4    1    3    3    0  502 -0.20607321051E+03 -0.11939327693E+03 -0.70044870734E+03  0.73983168842E+03  0.12699999809E+01 0. -1.
</event>
<event>
 5   0  0.1990948E-05  0.1600091E+04  0.7818609E-02  0.8820492E-01
        2   -1    0    0  501    0  0.00000000000E+00  0.00000000000E+00  0.13436219042E+04  0.13436219042E+04  0.25500000920E-02 0.  1.
       -2   -1    0    0    0  501  0.00000000000E+00  0.00000000000E+00 -0.47637866475E+03  0.47637866476E+03  0.25500000920E-02 0. -1.
    10030    2    1    2    0    0  0.00000000000E+00  0.00000000000E+00  0.86724323943E+03  0.18200005689E+04  0.16000910082E+04 0.  0.
        4    1    3    3  502    0  0.10934886989E+03  0.45080369245E+03  0.11750430250E+04  0.12632928670E+04  0.12699999809E+01 0.  1.
       -4    1    3    3    0  502 -0.10934886989E+03 -0.45080369245E+03 -0.30779978554E+03  0.55670770190E+03  0.12699999809E+01 0. -1.
</event>
<event>
 5   0  0.1090674E-05  0.1599942E+04  0.7818609E-02  0.8820584E-01
       -1   -1    0    0    0  501  0.00000000000E+00  0.00000000000E+00  0.71962018391E+03  0.71962018392E+03  0.50400001928E-02 0. -1.
        1   -1    0    0  501    0  0.00000000000E+00  0.00000000000E+00 -0.88929381558E+03  0.88929381560E+03  0.50400001928E-02 0.  1.
    10030    2    1    2    0    0  0.00000000000E+00  0.00000000000E+00 -0.16967363168E+03  0.16089139995E+04  0.15999422229E+04 0.  0.
        4    1    3    3  502    0 -0.52278824902E+03  0.29391089995E+03 -0.61720226445E+03  0.86059945304E+03  0.12699999809E+01 0.  1.
       -4    1    3    3    0  502  0.52278824902E+03 -0.29391089995E+03  0.44752863278E+03  0.74831454648E+03  0.12699999809E+01 0. -1.
</event>
<event>
 5   0  0.1081831E-05  0.1599849E+04  0.7818609E-02  0.8820641E-01
        1   -1    0    0  501    0  0.00000000000E+00  0.00000000000E+00  0.66712075708E+03  0.66712075710E+03  0.50400001928E-02 0. -1.
       -1   -1    0    0    0  501  0.00000000000E+00  0.00000000000E+00 -0.95916577485E+03  0.95916577486E+03  0.50400001928E-02 0.  1.
    10030    2    1    2    0    0  0.00000000000E+00  0.00000000000E+00 -0.29204501777E+03  0.16262865320E+04  0.15998492403E+04 0.  0.
        3    1    3    3  502    0  0.88086676034E+02  0.21051885093E+03 -0.92537425551E+03  0.95309756691E+03  0.10100000352E+00 0.  1.
       -3    1    3    3    0  502 -0.88086676034E+02 -0.21051885093E+03  0.63332923774E+03  0.67318896505E+03  0.10100000352E+00 0. -1.
</event>
<event>
 5   0  0.1060251E-05  0.1599600E+04  0.7818609E-02  0.8820794E-01
       -1   -1    0    0    0  501  0.00000000000E+00  0.00000000000E+00  0.48553008493E+03  0.48553008495E+03  0.50400001928E-02 0. -1.
        1   -1    0    0  501    0  0.00000000000E+00  0.00000000000E+00 -0.13174883029E+04  0.13174883030E+04  0.50400001928E-02 0.  1.
    10030    2    1    2    0    0  0.00000000000E+00  0.00000000000E+00 -0.83195821802E+03  0.18030183879E+04  0.15996002096E+04 0.  0.
        1    1    3    3  502    0  0.49515564985E+03  0.13954152244E+03 -0.11062527288E+04  0.12200188744E+04  0.50400001928E-02 0.  1.
       -1    1    3    3    0  502 -0.49515564985E+03 -0.13954152244E+03  0.27429451075E+03  0.58299951347E+03  0.50400001928E-02 0. -1.
</event>
<event>
 5   0  0.1090674E-05  0.1599274E+04  0.7818609E-02  0.8820994E-01
       -1   -1    0    0    0  501  0.00000000000E+00  0.00000000000E+00  0.13335209232E+04  0.13335209232E+04  0.50400001928E-02 0.  1.
        1   -1    0    0  501    0  0.00000000000E+00  0.00000000000E+00 -0.47949721443E+03  0.47949721445E+03  0.50400001928E-02 0. -1.
    10030    2    1    2    0    0  0.00000000000E+00  0.00000000000E+00  0.85402370878E+03  0.18130181377E+04  0.15992742955E+04 0.  0.
        4    1    3    3  502    0  0.20868570415E+03  0.29498117846E+03 -0.38166671056E+03  0.52558035505E+03  0.12699999809E+01 0. -1.
       -4    1    3    3    0  502 -0.20868570415E+03 -0.29498117846E+03  0.12356904193E+04  0.12874377826E+04  0.12699999809E+01 0.  1.
</event>
<event>
 5   0  0.1060251E-05  0.1598388E+04  0.7818609E-02  0.8821539E-01
       -1   -1    0    0    0  501  0.00000000000E+00  0.00000000000E+00  0.80394508084E+03  0.80394508085E+03  0.50400001928E-02 0. -1.
        1   -1    0    0  501    0  0.00000000000E+00  0.00000000000E+00 -0.79447094422E+03  0.79447094424E+03  0.50400001928E-02 0.  1.
    10030    2    1    2    0    0  0.00000000000E+00  0.00000000000E+00  0.94741366125E+01  0.15984160251E+04  0.15983879473E+04 0.  0.
        1    1    3    3  502    0  0.38529041772E+03 -0.32554318424E+03  0.62465435127E+03  0.80288238826E+03  0.50400001928E-02 0. -1.
       -1    1    3    3    0  502 -0.38529041772E+03  0.32554318424E+03 -0.61518021466E+03  0.79553363683E+03  0.50400001928E-02 0.  1.
</event>
<event>
 5   0  0.2147844E-05  0.1600096E+04  0.7818609E-02  0.8820489E-01
       -2   -1    0    0    0  501  0.00000000000E+00  0.00000000000E+00  0.13744395578E+04  0.13744395578E+04  0.25500000920E-02 0.  1.
        2   -1    0    0  501    0  0.00000000000E+00  0.00000000000E+00 -0.46570009073E+03  0.46570009074E+03  0.25500000920E-02 0. -1.
    10030    2    1    2    0    0  0.00000000000E+00  0.00000000000E+00  0.90873946705E+03  0.18401396485E+04  0.16000957806E+04 0.  0.
        2    1    3    3  502    0  0.61899343661E+03  0.48686874298E+03  0.29221069350E+03  0.83998877187E+03  0.25500000920E-02 0.  1.
       -2    1    3    3    0  502 -0.61899343661E+03 -0.48686874298E+03  0.61652877355E+03  0.10001508767E+04  0.25500000920E-02 0. -1.
</event>
<event>
 5   0  0.1090674E-05  0.1598815E+04  0.7818609E-02  0.8821276E-01
        1   -1    0    0  501    0  0.00000000000E+00  0.00000000000E+00  0.77924522252E+03  0.77924522254E+03  0.50400001928E-02 0. -1.
       -1   -1    0    0    0  501  0.00000000000E+00  0.00000000000E+00 -0.82009195259E+03  0.82009195261E+03  0.50400001928E-02 0.  1.
    10030    2    1    2    0    0  0.00000000000E+00  0.00000000000E+00 -0.40846730074E+02  0.15993371751E+04  0.15988154817E+04 0.  0.
        4    1    3    3  502    0  0.24742382222E+03  0.61836150360E+03  0.42183131876E+03  0.78837349735E+03  0.12699999809E+01 0. -1.
       -4    1    3    3    0  502 -0.24742382222E+03 -0.61836150360E+03 -0.46267804883E+03  0.81096367780E+03  0.12699999809E+01 0.  1.
</event>
<event>
 5   0  0.1990948E-05  0.1600279E+04  0.7818609E-02  0.8820376E-01
       -2   -1    0    0    0  501  0.00000000000E+00  0.00000000000E+00  0.47067178283E+03  0.47067178283E+03  0.25500000920E-02 0.  1.
        2   -1    0    0  501    0  0.00000000000E+00  0.00000000000E+00 -0.13602336363E+04  0.13602336363E+04  0.25500000920E-02 0. -1.
    10030    2    1    2    0    0  0.00000000000E+00  0.00000000000E+00 -0.88956185347E+03  0.18309054191E+04  0.16002794639E+04 0.  0.
        4    1    3    3  502    0 -0.23457106631E+03  0.62002374332E+03  0.67865993023E+02  0.66637859610E+03  0.12699999809E+01 0.  1.
       -4    1    3    3    0  502  0.23457106631E+03 -0.62002374332E+03 -0.95742784650E+03  0.11645268230E+04  0.12699999809E+01 0. -1.
</event>
<event>
 5   0  0.1060251E-05  0.1599817E+04  0.7818609E-02  0.8820660E-01
        1   -1    0    0  501    0  0.00000000000E+00  0.00000000000E+00  0.45831007505E+03  0.45831007508E+03  0.50400001928E-02 0.  1.
       -1   -1    0    0    0  501  0.00000000000E+00  0.00000000000E+00 -0.13961149487E+04  0.13961149488E+04  0.50400001928E-02 0. -1.
    10030    2    1    2    0    0  0.00000000000E+00  0.00000000000E+00 -0.93780487370E+03  0.18544250238E+04  0.15998169232E+04 0.  0.
        1    1    3    3  502    0 -0.48130936185E+03 -0.11618746646E+03  0.25932993365E+03  0.55893670811E+03  0.50400001928E-02 0.  1.
       -1    1    3    3    0  502  0.48130936185E+03  0.11618746646E+03 -0.11971348074E+04  0.12954883157E+04  0.50400001928E-02 0. -1.
</event>
<event>
 5   0  0.1081831E-05  0.1599978E+04  0.7818609E-02  0.8820562E-01
        1   -1    0    0  501    0  0.00000000000E+00  0.00000000000E+00  0.10676686819E+04  0.10676686819E+04  0.50400001928E-02 0.  1.
       -1   -1    0    0    0  501  0.00000000000E+00  0.00000000000E+00 -0.59942009653E+03  0.59942009655E+03  0.50400001928E-02 0. -1.
    10030    2    1    2    0    0  0.00000000000E+00  0.00000000000E+00  0.46824858533E+03  0.16670887784E+04  0.15999775803E+04 0.  0.
        3    1    3    3  502    0  0.78829851063E+03  0.12943745740E+03  0.27849521470E+03  0.84600720568E+03  0.10100000352E+00 0. -1.
       -3    1    3    3    0  502 -0.78829851063E+03 -0.12943745740E+03  0.18975337063E+03  0.82108157275E+03  0.10100000352E+00 0.  1.
</event>
<event>
 5   0  0.2147844E-05  0.1600040E+04  0.7818609E-02  0.8820523E-01
        2   -1    0    0  501    0  0.00000000000E+00  0.00000000000E+00  0.60428732834E+03  0.60428732834E+03  0.25500000920E-02 0.  1.
       -2   -1    0    0    0  501  0.00000000000E+00  0.00000000000E+00 -0.10591519773E+04  0.10591519773E+04  0.25500000920E-02 0. -1.
    10030    2    1    2    0    0  0.00000000000E+00  0.00000000000E+00 -0.45486464900E+03  0.16634393057E+04  0.16000401479E+04 0.  0.
        2    1    3    3  502    0  0.85595133205E+02  0.79357215752E+03 -0.17097758495E+03  0.81628220033E+03  0.25500000920E-02 0.  1.
       -2    1    3    3    0  502 -0.85595133205E+02 -0.79357215752E+03 -0.28388706405E+03  0.84715710536E+03  0.25500000920E-02 0. -1.
</event>
<event>
 5   0  0.2125803E-05  0.1600729E+04  0.7818609E-02  0.8820100E-01
       -2   -1    0    0    0  501  0.00000000000E+00  0.00000000000E+00  0.64768099966E+03  0.64768099967E+03  0.25500000920E-02 0. -1.
        2   -1    0    0  501    0  0.00000000000E+00  0.00000000000E+00 -0.98904130282E+03  0.98904130282E+03  0.25500000920E-02 0.  1.
    10030    2    1    2    0    0  0.00000000000E+00  0.00000000000E+00 -0.34136030316E+03  0.16367223025E+04  0.16007289086E+04 0.  0.
        3    1    3    3  502    0 -0.24657257706E+03 -0.13904538520E+03  0.59478648543E+03  0.65871285729E+03  0.10100000352E+00 0. -1.
       -3    1    3    3    0  502  0.24657257706E+03  0.13904538520E+03 -0.93614678859E+03  0.97800944520E+03  0.10100000352E+00 0.  1.
</event>
<event>
 5   0  0.1994525E-05  0.1600729E+04  0.7818609E-02  0.8820100E-01
       -2   -1    0    0    0  501  0.00000000000E+00  0.00000000000E+00  0.79395477696E+03  0.79395477697E+03  0.25500000920E-02 0. -1.
        2   -1    0    0  501    0  0.00000000000E+00  0.00000000000E+00 -0.80682630991E+03  0.80682630991E+03  0.25500000920E-02 0.  1.
    10030    2    1    2    0    0  0.00000000000E+00  0.00000000000E+00 -0.12871532945E+02  0.16007810869E+04  0.16007293374E+04 0.  0.
        5    1    3    3  502    0 -0.12977359294E+03 -0.76239786763E+03  0.19965296437E+03  0.79873342873E+03  0.46999998093E+01 0.  1.
       -5    1    3    3    0  502  0.12977359294E+03  0.76239786763E+03 -0.21252449732E+03  0.80204765815E+03  0.46999998093E+01 0. -1.
</event>
<event>
 5   0  0.1090674E-05  0.1599933E+04  0.7818609E-02  0.8820589E-01
       -1   -1    0    0    0  501  0.00000000000E+00  0.00000000000E+00  0.68000195723E+03  0.68000195724E+03  0.50400001928E-02 0. -1.
        1   -1    0    0  501    0  0.00000000000E+00  0.00000000000E+00 -0.94109496481E+03  0.94109496482E+03  0.50400001928E-02 0.  1.
    10030    2    1    2    0    0  0.00000000000E+00  0.00000000000E+00 -0.26109300759E+03  0.16210969221E+04  0.15999330211E+04 0.  0.
        4    1    3    3  502    0 -0.48568791365E+03 -0.13456679936E+03 -0.76000808980E+03  0.91192920910E+03  0.12699999809E+01 0.  1.
       -4    1    3    3    0  502  0.48568791365E+03  0.13456679936E+03  0.49891508221E+03  0.70916771297E+03  0.12699999809E+01 0. -1.
</event>
<event>
 5   0  0.1060251E-05  0.1600132E+04  0.7818609E-02  0.8820467E-01
        1   -1    0    0  501    0  0.00000000000E+00  0.00000000000E+00  0.46295117655E+03  0.46295117658E+03  0.50400001928E-02 0. -1.
       -1   -1    0    0    0  501  0.00000000000E+00  0.00000000000E+00 -0.13826639284E+04  0.13826639284E+04  0.50400001928E-02 0.  1.
    10030    2    1    2    0    0  0.00000000000E+00  0.00000000000E+00 -0.91971275180E+03  0.18456151049E+04  0.16001323601E+04 0.  0.
        1    1    3    3  502    0  0.58035801003E+03  0.35379049260E+03  0.26937309022E+02  0.68022698499E+03  0.50400001928E-02 0. -1.
       -1    1    3    3    0  502 -0.58035801003E+03 -0.35379049260E+03 -0.94665006082E+03  0.11653881200E+04  0.50400001928E-02 0.  1.
</event>
<event>
 5   0  0.1081831E-05  0.1599874E+04  0.7818609E-02  0.8820625E-01
        1   -1    0    0  501    0  0.00000000000E+00  0.00000000000E+00  0.29055803422E+04  0.29055803422E+04  0.50400001928E-02 0. -1.
       -1   -1    0    0    0  501  0.00000000000E+00  0.00000000000E+00 -0.22023110416E+03  0.22023110422E+03  0.50400001928E-02 0.  1.
    10030    2    1    2    0    0  0.00000000000E+00  0.00000000000E+00  0.26853492380E+04  0.31258114464E+04  0.15998739539E+04 0.  0.
        3    1    3    3  502    0  0.52390208038E+03 -0.17591629150E+02  0.16210223242E+03  0.54868934672E+03  0.10100000352E+00 0.  1.
       -3    1    3    3    0  502 -0.52390208038E+03  0.17591629150E+02  0.25232470056E+04  0.25771220997E+04  0.10100000352E+00 0. -1.
</event>
<event>
 5   0  0.2125803E-05  0.1599624E+04  0.7818609E-02  0.8820779E-01
        2   -1    0    0  501    0  0.00000000000E+00  0.00000000000E+00  0.14680432194E+04  0.14680432194E+04  0.25500000920E-02 0. -1.
       -2   -1    0    0    0  501  0.00000000000E+00  0.00000000000E+00 -0.43574982519E+03  0.43574982519E+03  0.25500000920E-02 0.  1.
    10030    2    1    2    0    0  0.00000000000E+00  0.00000000000E+00  0.10322933942E+04  0.19037930446E+04  0.15996244262E+04 0.  0.
        3    1    3    3  502    0 -0.96201896872E+02 -0.35279132437E+03 -0.33043658837E+03  0.49285380454E+03  0.10100000352E+00 0.  1.
       -3    1    3    3    0  502  0.96201896872E+02  0.35279132437E+03  0.13627299826E+04  0.14109392400E+04  0.10100000352E+00 0. -1.
</event>
<event>
 5   0  0.2147844E-05  0.1600162E+04  0.7818609E-02  0.8820449E-01
       -2   -1    0    0    0  501  0.00000000000E+00  0.00000000000E+00  0.78449371365E+03  0.78449371366E+03  0.25500000920E-02 0. -1.
        2   -1    0    0  501    0  0.00000000000E+00  0.00000000000E+00 -0.81597784804E+03  0.81597784805E+03  0.25500000920E-02 0.  1.
    10030    2    1    2    0    0  0.00000000000E+00  0.00000000000E+00 -0.31484134391E+02  0.16004715617E+04  0.16001618572E+04 0.  0.
        2    1    3    3  502    0  0.88382951103E+01 -0.43062961423E+03 -0.69011993210E+03  0.81350199803E+03  0.25500000920E-02 0.  1.
       -2    1    3    3    0  502 -0.88382951103E+01  0.43062961423E+03  0.65863579771E+03  0.78696956367E+03  0.25500000920E-02 0. -1.
</event>
<event>
 5   0  0.1126485E-05  0.1598892E+04  0.7818609E-02  0.8821229E-01
       -1   -1    0    0    0  501  0.00000000000E+00  0.00000000000E+00  0.59003377383E+03  0.59003377385E+03  0.50400001928E-02 0.  1.
        1   -1    0    0  501    0  0.00000000000E+00  0.00000000000E+00 -0.10831814065E+04  0.10831814065E+04  0.50400001928E-02 0. -1.
    10030    2    1    2    0    0  0.00000000000E+00  0.00000000000E+00 -0.49314763268E+03  0.16732151804E+04  0.15988916324E+04 0.  0.
        2    1    3    3  502    0 -0.68239360975E+02  0.17904831142E+03 -0.10587958770E+04  0.10759942460E+04  0.25500000920E-02 0. -1.
       -2    1    3    3    0  502  0.68239360975E+02 -0.17904831142E+03  0.56564824430E+03  0.59722093441E+03  0.25500000920E-02 0.  1.
</event>
<event>
 5   0  0.1126485E-05  0.1600059E+04  0.7818609E-02  0.8820512E-01
        1   -1    0    0  501    0  0.00000000000E+00  0.00000000000E+00  0.11161099300E+04  0.11161099301E+04  0.50400001928E-02 0. -1.
       -1   -1    0    0    0  501  0.00000000000E+00  0.00000000000E+00 -0.57346263957E+03  0.57346263959E+03  0.50400001928E-02 0.  1.
    10030    2    1    2    0    0  0.00000000000E+00  0.00000000000E+00  0.54264729048E+03  0.16895725696E+04  0.16000591821E+04 0.  0.
        2    1    3    3  502    0 -0.19511079689E+03 -0.42624101661E+03  0.95589594234E+03  0.10646533144E+04  0.25500000920E-02 0. -1.
       -2    1    3    3    0  502  0.19511079689E+03  0.42624101661E+03 -0.41324865185E+03  0.62491925524E+03  0.25500000920E-02 0.  1.
</event>
<event>
 5   0  0.2046108E-05  0.1600135E+04  0.7818609E-02  0.8820465E-01
        2   -1    0    0  501    0  0.00000000000E+00  0.00000000000E+00  0.16822603070E+04  0.16822603070E+04  0.25500000920E-02 0. -1.
       -2   -1    0    0    0  501  0.00000000000E+00  0.00000000000E+00 -0.38050480231E+03  0.38050480232E+03  0.25500000920E-02 0.  1.
    10030    2    1    2    0    0  0.00000000000E+00  0.00000000000E+00  0.13017555047E+04  0.20627651093E+04  0.16001351512E+04 0.  0.
        1    1    3    3  502    0 -0.68114701662E+03  0.39367714373E+03  0.46333338278E+03  0.91302835409E+03  0.50400001928E-02 0.  1.
       -1    1    3    3    0  502  0.68114701662E+03 -0.39367714373E+03  0.83842212187E+03  0.11497367552E+04  0.50400001928E-02 0. -1.
</event>
<event>
 5   0  0.1081831E-05  0.1599037E+04  0.7818609E-02  0.8821140E-01
        1   -1    0    0  501    0  0.00000000000E+00  0.00000000000E+00  0.14361663317E+04  0.14361663317E+04  0.50400001928E-02 0. -1.
       -1   -1    0    0    0  501  0.00000000000E+00  0.00000000000E+00 -0.44509454433E+03  0.44509454436E+03  0.50400001928E-02 0.  1.
    10030    2    1    2    0    0  0.00000000000E+00  0.00000000000E+00  0.99107178737E+03  0.18812608761E+04  0.15990369590E+04 0.  0.
        3    1    3    3  502    0  0.58995809864E+03 -0.11081768555E+03 -0.12578183289E+03  0.61331247930E+03  0.10100000352E+00 0.  1.
       -3    1    3    3    0  502 -0.58995809864E+03  0.11081768555E+03  0.11168536203E+04  0.12679483968E+04  0.10100000352E+00 0. -1.
</event>
<event>
 5   0  0.2046108E-05  0.1600713E+04  0.7818609E-02  0.8820110E-01
        2   -1    0    0  501    0  0.00000000000E+00  0.00000000000E+00  0.10102718276E+04  0.10102718276E+04  0.25500000920E-02 0.  1.
       -2   -1    0    0    0  501  0.00000000000E+00  0.00000000000E+00 -0.63405753214E+03  0.63405753215E+03  0.25500000920E-02 0. -1.
    10030    2    1    2    0    0  0.00000000000E+00  0.00000000000E+00  0.37621429547E+03  0.16443293598E+04  0.16007129184E+04 0.  0.
        1    1    3    3  502    0 -0.24547621607E+03 -0.66065737052E+03  0.57770883254E+03  0.91130358778E+03  0.50400001928E-02 0.  1.
       -1    1    3    3    0  502  0.24547621607E+03  0.66065737052E+03 -0.20149453708E+03  0.73302577198E+03  0.50400001928E-02 0. -1.
</event>
<event>
 5   0  0.1126485E-05  0.1599568E+04  0.7818609E-02  0.8820813E-01
       -1   -1    0    0    0  501  0.00000000000E+00  0.00000000000E+00  0.62387743147E+03  0.62387743149E+03  0.50400001928E-02 0.  1.
        1   -1    0    0  501    0  0.00000000000E+00  0.00000000000E+00 -0.10252892083E+04  0.10252892084E+04  0.50400001928E-02 0. -1.
    10030    2    1    2    0    0  0.00000000000E+00  0.00000000000E+00 -0.40141177688E+03  0.16491666398E+04  0.15995684391E+04 0.  0.
        2    1    3    3  502    0 -0.76466229813E+03 -0.47990358523E+02 -0.43726149145E+03  0.88216161592E+03  0.25500000920E-02 0.  1.
       -2    1    3    3    0  502  0.76466229813E+03  0.47990358523E+02  0.35849714571E+02  0.76700502393E+03  0.25500000920E-02 0. -1.
</event>
<event>
 5   0  0.1090674E-05  0.1599959E+04  0.7818609E-02  0.8820573E-01
        1   -1    0    0  501    0  0.00000000000E+00  0.00000000000E+00  0.57967346918E+03  0.57967346921E+03  0.50400001928E-02 0. -1.
       -1   -1    0    0    0  501  0.00000000000E+00  0.00000000000E+00 -0.11040127639E+04  0.11040127639E+04  0.50400001928E-02 0.  1.
    10030    2    1    2    0    0  0.00000000000E+00  0.00000000000E+00 -0.52433929472E+03  0.16836862331E+04  0.15999586356E+04 0.  0.
        4    1    3    3  502    0 -0.32154015711E+03  0.60782140085E+03 -0.69237924091E+03  0.97582045178E+03  0.12699999809E+01 0.  1.
       -4    1    3    3    0  502  0.32154015711E+03 -0.60782140085E+03  0.16803994619E+03  0.70786578134E+03  0.12699999809E+01 0. -1.
</event>
<event>
 5   0  0.1990948E-05  0.1600382E+04  0.7818609E-02  0.8820314E-01
       -2   -1    0    0    0  501  0.00000000000E+00  0.00000000000E+00  0.53125081907E+03  0.53125081908E+03  0.25500000920E-02 0. -1.
        2   -1    0    0  501    0  0.00000000000E+00  0.00000000000E+00 -0.12052786888E+04  0.12052786888E+04  0.25500000920E-02 0.  1.
    10030    2    1    2    0    0  0.00000000000E+00  0.00000000000E+00 -0.67402786974E+03  0.17365295079E+04  0.16003815678E+04 0.  0.
        4    1    3    3  502    0 -0.61375261415E+02  0.52415542567E+03 -0.98968087446E+03  0.11215951494E+04  0.12699999809E+01 0.  1.
       -4    1    3    3    0  502  0.61375261415E+02 -0.52415542567E+03  0.31565300472E+03  0.61493435849E+03  0.12699999809E+01 0. -1.
</event>
<event>
 5   0  0.2147844E-05  0.1594858E+04  0.7818609E-02  0.8823713E-01
       -2   -1    0    0    0  501  0.00000000000E+00  0.00000000000E+00  0.74325971613E+03  0.74325971613E+03  0.25500000920E-02 0. -1.
        2   -1    0    0  501    0  0.00000000000E+00  0.00000000000E+00 -0.85554593552E+03  0.85554593553E+03  0.25500000920E-02 0.  1.
    10030    2    1    2    0    0  0.00000000000E+00  0.00000000000E+00 -0.11228621940E+03  0.15988056517E+04  0.15948577732E+04 0.  0.
        2    1    3    3  502    0  0.20517070901E+03  0.75102584047E+03  0.11678896742E+03  0.78725757907E+03  0.25500000920E-02 0. -1.
       -2    1    3    3    0  502 -0.20517070901E+03 -0.75102584047E+03 -0.22907518682E+03  0.81154807258E+03  0.25500000920E-02 0.  1.
</event>
<event>
 5   0  0.1057506E-05  0.1600541E+04  0.7818609E-02  0.8820216E-01
       -1   -1    0    0    0  501  0.00000000000E+00  0.00000000000E+00  0.50251566107E+03  0.50251566109E+03  0.50400001928E-02 0. -1.
        1   -1    0    0  501    0  0.00000000000E+00  0.00000000000E+00 -0.12744535825E+04  0.12744535825E+04  0.50400001928E-02 0.  1.
    10030    2    1    2    0    0  0.00000000000E+00  0.00000000000E+00 -0.77193792139E+03  0.17769692436E+04  0.16005410142E+04 0.  0.
        5    1    3    3  502    0 -0.24185028754E+03  0.69591633127E+02 -0.12293613919E+04  0.12548649644E+04  0.46999998093E+01 0.  1.
       -5    1    3    3    0  502  0.24185028754E+03 -0.69591633127E+02  0.45742347049E+03  0.52210427918E+03  0.46999998093E+01 0. -1.
</event>
<event>
 5   0  0.1994525E-05  0.1599307E+04  0.7818609E-02  0.8820974E-01
       -2   -1    0    0    0  501  0.00000000000E+00  0.00000000000E+00  0.10977811284E+04  0.10977811284E+04  0.25500000920E-02 0. -1.
        2   -1    0    0  501    0  0.00000000000E+00  0.00000000000E+00 -0.58248912984E+03  0.58248912985E+03  0.25500000920E-02 0.  1.
    10030    2    1    2    0    0  0.00000000000E+00  0.00000000000E+00  0.51529199859E+03  0.16802702583E+04  0.15993068177E+04 0.  0.
        5    1    3    3  502    0 -0.67704028214E+02  0.18980997894E+03  0.10706497217E+04  0.10894606831E+04  0.46999998093E+01 0. -1.
       -5    1    3    3    0  502  0.67704028214E+02 -0.18980997894E+03 -0.55535772307E+03  0.59080957517E+03  0.46999998093E+01 0.  1.
</event>
<event>
 5   0  0.2147844E-05  0.1599337E+04  0.7818609E-02  0.8820956E-01
       -2   -1    0    0    0  501  0.00000000000E+00  0.00000000000E+00  0.35303123100E+03  0.35303123101E+03  0.25500000920E-02 0. -1.
        2   -1    0    0  501    0  0.00000000000E+00  0.00000000000E+00 -0.18113675818E+04  0.18113675818E+04  0.25500000920E-02 0.  1.
    10030    2    1    2    0    0  0.00000000000E+00  0.00000000000E+00 -0.14583363508E+04  0.21643988128E+04  0.15993365215E+04 0.  0.
        2    1    3    3  502    0  0.37744895090E+03  0.32762983908E+03 -0.15739421301E+04  0.16513942142E+04  0.25500000920E-02 0.  1.
       -2    1    3    3    0  502 -0.37744895090E+03 -0.32762983908E+03  0.11560577925E+03  0.51300459861E+03  0.25500000920E-02 0. -1.
</event>
<event>
 5   0  0.7597000E-06  0.1600796E+04  0.7818609E-02  0.8820059E-01
       -4   -1    0    0    0  501  0.00000000000E+00  0.00000000000E+00  0.66047734375E+03  0.66047856476E+03  0.12699999809E+01 0. -1.
        4   -1    0    0  501    0  0.00000000000E+00  0.00000000000E+00 -0.96995782532E+03  0.96995865675E+03  0.12699999809E+01 0.  1.
    10030    2    1    2    0    0  0.00000000000E+00  0.00000000000E+00 -0.30948048158E+03  0.16304372215E+04  0.16007958536E+04 0.  0.
        4    1    3    3  502    0  0.32612830945E+02 -0.72178408892E+03 -0.50549962935E+03  0.88179779765E+03  0.12699999809E+01 0.  1.
       -4    1    3    3    0  502 -0.32612830945E+02  0.72178408892E+03  0.19601914777E+03  0.74863942386E+03  0.12699999809E+01 0. -1.
</event>
<event>
 5   0  0.1081831E-05  0.1600860E+04  0.7818609E-02  0.8820020E-01
        1   -1    0    0  501    0  0.00000000000E+00  0.00000000000E+00  0.12195631646E+04  0.12195631646E+04  0.50400001928E-02 0.  1.
       -1   -1    0    0    0  501  0.00000000000E+00  0.00000000000E+00 -0.52534243003E+03  0.52534243005E+03  0.50400001928E-02 0. -1.
    10030    2    1    2    0    0  0.00000000000E+00  0.00000000000E+00  0.69422073455E+03  0.17449055946E+04  0.16008601144E+04 0.  0.
        3    1    3    3  502    0  0.24024439482E+03  0.75797643716E+03  0.24695894660E+03  0.83260697813E+03  0.10100000352E+00 0. -1.
       -3    1    3    3    0  502 -0.24024439482E+03 -0.75797643716E+03  0.44726178795E+03  0.91229861651E+03  0.10100000352E+00 0.  1.
</event>
<event>
 5   0  0.2046108E-05  0.1600135E+04  0.7818609E-02  0.8820465E-01
        2   -1    0    0  501    0  0.00000000000E+00  0.00000000000E+00  0.10674222378E+04  0.10674222378E+04  0.25500000920E-02 0. -1.
       -2   -1    0    0    0  501  0.00000000000E+00  0.00000000000E+00 -0.59967633027E+03  0.59967633027E+03  0.25500000920E-02 0.  1.
    10030    2    1    2    0    0  0.00000000000E+00  0.00000000000E+00  0.46774590753E+03  0.16670985681E+04  0.16001348073E+04 0.  0.
        1    1    3    3  502    0 -0.75862672974E+03  0.24304331023E+03  0.15644399494E+03  0.81182466660E+03  0.50400001928E-02 0.  1.
       -1    1    3    3    0  502  0.75862672974E+03 -0.24304331023E+03  0.31130191259E+03  0.85527390147E+03  0.50400001928E-02 0. -1.
</event>
<event>
 5   0  0.1081831E-05  0.1600567E+04  0.7818609E-02  0.8820200E-01
       -1   -1    0    0    0  501  0.00000000000E+00  0.00000000000E+00  0.34304231083E+03  0.34304231087E+03  0.50400001928E-02 0.  1.
        1   -1    0    0  501    0  0.00000000000E+00  0.00000000000E+00 -0.18669816059E+04  0.18669816059E+04  0.50400001928E-02 0. -1.
    10030    2    1    2    0    0  0.00000000000E+00  0.00000000000E+00 -0.15239392951E+04  0.22100239168E+04  0.16005670051E+04 0.  0.
        3    1    3    3  502    0  0.20640186038E+03  0.54812347215E+03 -0.89560828300E+01  0.58576555917E+03  0.10100000352E+00 0.  1.
       -3    1    3    3    0  502 -0.20640186038E+03 -0.54812347215E+03 -0.15149832123E+04  0.16242583576E+04  0.10100000352E+00 0. -1.
</event>
<event>
 5   0  0.2147844E-05  0.1600157E+04  0.7818609E-02  0.8820452E-01
        2   -1    0    0  501    0  0.00000000000E+00  0.00000000000E+00  0.10712785496E+04  0.10712785496E+04  0.25500000920E-02 0. -1.
       -2   -1    0    0    0  501  0.00000000000E+00  0.00000000000E+00 -0.59753409256E+03  0.59753409256E+03  0.25500000920E-02 0.  1.
    10030    2    1    2    0    0  0.00000000000E+00  0.00000000000E+00  0.47374445703E+03  0.16688126422E+04  0.16001568123E+04 0.  0.
        2    1    3    3  502    0 -0.76220092542E+03  0.39045770898E+02  0.48727958108E+03  0.90549224905E+03  0.25500000920E-02 0.  1.
       -2    1    3    3    0  502  0.76220092542E+03 -0.39045770898E+02 -0.13535124056E+02  0.76332039310E+03  0.25500000920E-02 0. -1.
</event>
<event>
 5   0  0.2125803E-05  0.1601104E+04  0.7818609E-02  0.8819870E-01
       -2   -1    0    0    0  501  0.00000000000E+00  0.00000000000E+00  0.45906486931E+03  0.45906486932E+03  0.25500000920E-02 0.  1.
        2   -1    0    0  501    0  0.00000000000E+00  0.00000000000E+00 -0.13960632146E+04  0.13960632146E+04  0.25500000920E-02 0. -1.
    10030    2    1    2    0    0  0.00000000000E+00  0.00000000000E+00 -0.93699834527E+03  0.18551280839E+04  0.16011040905E+04 0.  0.
        3    1    3    3  502    0  0.15017128295E+03  0.27720874395E+03  0.38410712614E+03  0.49692494050E+03  0.10100000352E+00 0.  1.
       -3    1    3    3    0  502 -0.15017128295E+03 -0.27720874395E+03 -0.13211054714E+04  0.13582031434E+04  0.10100000352E+00 0. -1.
</event>
<event>
 5   0  0.2046108E-05  0.1600272E+04  0.7818609E-02  0.8820381E-01
       -2   -1    0    0    0  501  0.00000000000E+00  0.00000000000E+00  0.75232917040E+03  0.75232917041E+03  0.25500000920E-02 0.  1.
        2   -1    0    0  501    0  0.00000000000E+00  0.00000000000E+00 -0.85098104407E+03  0.85098104407E+03  0.25500000920E-02 0. -1.
    10030    2    1    2    0    0  0.00000000000E+00  0.00000000000E+00 -0.98651873667E+02  0.16033102145E+04  0.16002723055E+04 0.  0.
        1    1    3    3  502    0 -0.51485705903E+03  0.43408770036E+03 -0.48224335902E+03  0.82829256920E+03  0.50400001928E-02 0. -1.
       -1    1    3    3    0  502  0.51485705903E+03 -0.43408770036E+03  0.38359148536E+03  0.77501764528E+03  0.50400001928E-02 0.  1.
</event>
<event>
 5   0  0.1994525E-05  0.1599614E+04  0.7818609E-02  0.8820785E-01
        2   -1    0    0  501    0  0.00000000000E+00  0.00000000000E+00  0.14625239045E+04  0.14625239045E+04  0.25500000920E-02 0.  1.
       -2   -1    0    0    0  501  0.00000000000E+00  0.00000000000E+00 -0.43738840587E+03  0.43738840588E+03  0.25500000920E-02 0. -1.
    10030    2    1    2    0    0  0.00000000000E+00  0.00000000000E+00  0.10251354987E+04  0.18999123104E+04  0.15996137023E+04 0.  0.
        5    1    3    3  502    0  0.37554271499E+03  0.63951472652E+03  0.86820867868E+03  0.11418492965E+04  0.46999998093E+01 0.  1.
       -5    1    3    3    0  502 -0.37554271499E+03 -0.63951472652E+03  0.15692681998E+03  0.75806301390E+03  0.46999998093E+01 0. -1.
</event>
<event>
 5   0  0.1090674E-05  0.1599313E+04  0.7818609E-02  0.8820970E-01
        1   -1    0    0  501    0  0.00000000000E+00  0.00000000000E+00  0.92335364188E+03  0.92335364189E+03  0.50400001928E-02 0. -1.
       -1   -1    0    0    0  501  0.00000000000E+00  0.00000000000E+00 -0.69253051903E+03  0.69253051904E+03  0.50400001928E-02 0.  1.
    10030    2    1    2    0    0  0.00000000000E+00  0.00000000000E+00  0.23082312285E+03  0.16158841609E+04  0.15993130736E+04 0.  0.
        4    1    3    3  502    0 -0.11296999712E+03  0.25268890117E+03  0.87340825111E+03  0.91621912610E+03  0.12699999809E+01 0. -1.
       -4    1    3    3    0  502  0.11296999712E+03 -0.25268890117E+03 -0.64258512825E+03  0.69966503484E+03  0.12699999809E+01 0.  1.
</event>
<event>
 5   0  0.1057506E-05  0.1602644E+04  0.7818609E-02  0.8818926E-01
       -1   -1    0    0    0  501  0.00000000000E+00  0.00000000000E+00  0.51852171659E+03  0.51852171662E+03  0.50400001928E-02 0.  1.
        1   -1    0    0  501    0  0.00000000000E+00  0.00000000000E+00 -0.12383602068E+04  0.12383602068E+04  0.50400001928E-02 0. -1.
    10030    2    1    2    0    0  0.00000000000E+00  0.00000000000E+00 -0.71983849018E+03  0.17568819234E+04  0.16026436412E+04 0.  0.
        5    1    3    3  502    0 -0.14620153246E+03 -0.78069884029E+03 -0.47608448837E+03  0.92603676892E+03  0.46999998093E+01 0. -1.
       -5    1    3    3    0  502  0.14620153246E+03  0.78069884029E+03 -0.24375400181E+03  0.83084515448E+03  0.46999998093E+01 0.  1.
</event>
<event>
 5   0  0.1990948E-05  0.1599626E+04  0.7818609E-02  0.8820778E-01
       -2   -1    0    0    0  501  0.00000000000E+00  0.00000000000E+00  0.12233994714E+04  0.12233994714E+04  0.25500000920E-02 0. -1.
        2   -1    0    0  501    0  0.00000000000E+00  0.00000000000E+00 -0.52288777406E+03  0.52288777407E+03  0.25500000920E-02 0.  1.
    10030    2    1    2    0    0  0.00000000000E+00  0.00000000000E+00  0.70051169729E+03  0.17462872454E+04  0.15996257392E+04 0.  0.
        4    1    3    3  502    0 -0.62622379356E+03 -0.49702738012E+03  0.37482621151E+03  0.88299986294E+03  0.12699999809E+01 0. -1.
       -4    1    3    3    0  502  0.62622379356E+03  0.49702738012E+03  0.32568548578E+03  0.86328738249E+03  0.12699999809E+01 0.  1.
</event>
<event>
 5   0  0.1090674E-05  0.1600725E+04  0.7818609E-02  0.8820103E-01
        1   -1    0    0  501    0  0.00000000000E+00  0.00000000000E+00  0.15207051151E+04  0.15207051151E+04  0.50400001928E-02 0. -1.
       -1   -1    0    0    0  501  0.00000000000E+00  0.00000000000E+00 -0.42123881069E+03  0.42123881072E+03  0.50400001928E-02 0.  1.
    10030    2    1    2    0    0  0.00000000000E+00  0.00000000000E+00  0.10994663044E+04  0.19419439259E+04  0.16007248535E+04 0.  0.
        4    1    3    3  502    0 -0.64770085922E+03  0.18916401525E+03  0.27537723871E+02  0.67532167656E+03  0.12699999809E+01 0.  1.
       -4    1    3    3    0  502  0.64770085922E+03 -0.18916401525E+03  0.10719285806E+04  0.12666222493E+04  0.12699999809E+01 0. -1.
</event>
<event>
 5   0  0.1060251E-05  0.1599328E+04  0.7818609E-02  0.8820961E-01
        1   -1    0    0  501    0  0.00000000000E+00  0.00000000000E+00  0.17130979587E+04  0.17130979587E+04  0.50400001928E-02 0.  1.
       -1   -1    0    0    0  501  0.00000000000E+00  0.00000000000E+00 -0.37327840178E+03  0.37327840181E+03  0.50400001928E-02 0. -1.
    10030    2    1    2    0    0  0.00000000000E+00  0.00000000000E+00  0.13398195569E+04  0.20863763605E+04  0.15993279440E+04 0.  0.
        1    1    3    3  502    0  0.39631964125E+03 -0.69454361390E+03  0.66789789006E+03  0.10418961950E+04  0.50400001928E-02 0.  1.
       -1    1    3    3    0  502 -0.39631964125E+03  0.69454361390E+03  0.67192166686E+03  0.10444801655E+04  0.50400001928E-02 0. -1.
</event>
<event>
 5   0  0.2046108E-05  0.1599922E+04  0.7818609E-02  0.8820596E-01
        2   -1    0    0  501    0  0.00000000000E+00  0.00000000000E+00  0.45373744683E+03  0.45373744684E+03  0.25500000920E-02 0. -1.
       -2   -1    0    0    0  501  0.00000000000E+00  0.00000000000E+00 -0.14103705806E+04  0.14103705806E+04  0.25500000920E-02 0.  1.
    10030    2    1    2    0    0  0.00000000000E+00  0.00000000000E+00 -0.95663313378E+03  0.18641080274E+04  0.15999224310E+04 0.  0.
        1    1    3    3  502    0  0.25510532865E+03 -0.35774913241E+03  0.30055360124E+03  0.53234916895E+03  0.50400001928E-02 0. -1.
       -1    1    3    3    0  502 -0.25510532865E+03  0.35774913241E+03 -0.12571867350E+04  0.13317588585E+04  0.50400001928E-02 0.  1.
</event>
<event>
 5   0  0.1057506E-05  0.1599832E+04  0.7818609E-02  0.8820651E-01
        1   -1    0    0  501    0  0.00000000000E+00  0.00000000000E+00  0.63296492229E+03  0.63296492231E+03  0.50400001928E-02 0. -1.
       -1   -1    0    0    0  501  0.00000000000E+00  0.00000000000E+00 -0.10109020518E+04  0.10109020518E+04  0.50400001928E-02 0.  1.
    10030    2    1    2    0    0  0.00000000000E+00  0.00000000000E+00 -0.37793712950E+03  0.16438669741E+04  0.15998319145E+04 0.  0.
        5    1    3    3  502    0  0.31799750842E+03 -0.82882605997E+02  0.56038626596E+03  0.64965129017E+03  0.46999998093E+01 0. -1.
       -5    1    3    3    0  502 -0.31799750842E+03  0.82882605997E+02 -0.93832339546E+03  0.99421568395E+03  0.46999998093E+01 0.  1.
</event>
<event>
 5   0  0.1990948E-05  0.1599955E+04  0.7818609E-02  0.8820576E-01
       -2   -1    0    0    0  501  0.00000000000E+00  0.00000000000E+00  0.50930306199E+03  0.50930306199E+03  0.25500000920E-02 0. -1.
        2   -1    0    0  501    0  0.00000000000E+00  0.00000000000E+00 -0.12565482778E+04  0.12565482778E+04  0.25500000920E-02 0.  1.
    10030    2    1    2    0    0  0.00000000000E+00  0.00000000000E+00 -0.74724521580E+03  0.17658513398E+04  0.15999548561E+04 0.  0.
        4    1    3    3  502    0 -0.54712841113E+03 -0.45485609159E+03 -0.77721456206E+03  0.10537113697E+04  0.12699999809E+01 0.  1.
       -4    1    3    3    0  502  0.54712841113E+03  0.45485609159E+03  0.29969346260E+02  0.71213997005E+03  0.12699999809E+01 0. -1.
</event>
<event>
 5   0  0.2046108E-05  0.1599659E+04  0.7818609E-02  0.8820758E-01
       -2   -1    0    0    0  501  0.00000000000E+00  0.00000000000E+00  0.14351507902E+04  0.14351507902E+04  0.25500000920E-02 0. -1.
        2   -1    0    0  501    0  0.00000000000E+00  0.00000000000E+00 -0.44575590087E+03  0.44575590087E+03  0.25500000920E-02 0.  1.
    10030    2    1    2    0    0  0.00000000000E+00  0.00000000000E+00  0.98939488938E+03  0.18809066911E+04  0.15996586303E+04 0.  0.
        1    1    3    3  502    0  0.11816048051E+03 -0.15792306203E+03 -0.41671312052E+03  0.46103298962E+03  0.50400001928E-02 0.  1.
       -1    1    3    3    0  502 -0.11816048051E+03  0.15792306203E+03  0.14061080099E+04  0.14198737015E+04  0.50400001928E-02 0. -1.
</event>
<event>
 5   0  0.2125803E-05  0.1600108E+04  0.7818609E-02  0.8820482E-01
        2   -1    0    0  501    0  0.00000000000E+00  0.00000000000E+00  0.29724976025E+04  0.29724976025E+04  0.25500000920E-02 0.  1.
       -2   -1    0    0    0  501  0.00000000000E+00  0.00000000000E+00 -0.21533621676E+03  0.21533621678E+03  0.25500000920E-02 0. -1.
    10030    2    1    2    0    0  0.00000000000E+00  0.00000000000E+00  0.27571613857E+04  0.31878338193E+04  0.16001079815E+04 0.  0.
        3    1    3    3  502    0  0.12051145013E+03  0.44001541028E+03  0.26879526166E+04  0.27263942947E+04  0.10100000352E+00 0.  1.
       -3    1    3    3    0  502 -0.12051145013E+03 -0.44001541028E+03  0.69208769107E+02  0.46143952455E+03  0.10100000352E+00 0. -1.
</event>
<event>
 5   0  0.2147844E-05  0.1599857E+04  0.7818609E-02  0.8820636E-01
        2   -1    0    0  501    0  0.00000000000E+00  0.00000000000E+00  0.88614727160E+03  0.88614727160E+03  0.25500000920E-02 0. -1.
       -2   -1    0    0    0  501  0.00000000000E+00  0.00000000000E+00 -0.72209819615E+03  0.72209819616E+03  0.25500000920E-02 0.  1.
    10030    2    1    2    0    0  0.00000000000E+00  0.00000000000E+00  0.16404907544E+03  0.16082454678E+04  0.15998566765E+04 0.  0.
        2    1    3    3  502    0  0.71375616626E+03  0.34559143504E+03 -0.23425652580E+02  0.79336628745E+03  0.25500000920E-02 0.  1.
       -2    1    3    3    0  502 -0.71375616626E+03 -0.34559143504E+03  0.18747472802E+03  0.81487918031E+03  0.25500000920E-02 0. -1.
</event>
<event>
 5   0  0.2046108E-05  0.1599419E+04  0.7818609E-02  0.8820905E-01
        2   -1    0    0  501    0  0.00000000000E+00  0.00000000000E+00  0.97420421882E+03  0.97420421882E+03  0.25500000920E-02 0. -1.
       -2   -1    0    0    0  501  0.00000000000E+00  0.00000000000E+00 -0.65646905695E+03  0.65646905696E+03  0.25500000920E-02 0.  1.
    10030    2    1    2    0    0  0.00000000000E+00  0.00000000000E+00  0.31773516187E+03  0.16306732758E+04  0.15994185504E+04 0.  0.
        1    1    3    3  502    0  0.15619526876E+03  0.29384479739E+03 -0.58252417942E+03  0.67087714715E+03  0.50400001928E-02 0.  1.
       -1    1    3    3    0  502 -0.15619526876E+03 -0.29384479739E+03  0.90025934129E+03  0.95979612863E+03  0.50400001928E-02 0. -1.
</event>
<event>
 5   0  0.1994525E-05  0.1597925E+04  0.7818609E-02  0.8821824E-01
        2   -1    0    0  501    0  0.00000000000E+00  0.00000000000E+00  0.15664850179E+04  0.15664850179E+04  0.25500000920E-02 0. -1.
       -2   -1    0    0    0  501  0.00000000000E+00  0.00000000000E+00 -0.40749914905E+03  0.40749914905E+03  0.25500000920E-02 0.  1.
    10030    2    1    2    0    0  0.00000000000E+00  0.00000000000E+00  0.11589858688E+04  0.19739841669E+04  0.15979252946E+04 0.  0.
        5    1    3    3  502    0 -0.52733688735E+03 -0.23667933941E+03 -0.10187170166E+03  0.58694227660E+03  0.46999998093E+01 0.  1.
       -5    1    3    3    0  502  0.52733688735E+03  0.23667933941E+03  0.12608575705E+04  0.13870418903E+04  0.46999998093E+01 0. -1.
</event>
<event>
 5   0  0.2147844E-05  0.1599061E+04  0.7818609E-02  0.8821125E-01
       -2   -1    0    0    0  501  0.00000000000E+00  0.00000000000E+00  0.51051726238E+03  0.51051726238E+03  0.25500000920E-02 0. -1.
        2   -1    0    0  501    0  0.00000000000E+00  0.00000000000E+00 -0.12521587820E+04  0.12521587821E+04  0.25500000920E-02 0.  1.
    10030    2    1    2    0    0  0.00000000000E+00  0.00000000000E+00 -0.74164151967E+03  0.17626760444E+04  0.15990605661E+04 0.  0.
        2    1    3    3  502    0  0.13122010037E+03  0.47015459943E+02 -0.12386618487E+04  0.12464799812E+04  0.25500000920E-02 0.  1.
       -2    1    3    3    0  502 -0.13122010037E+03 -0.47015459943E+02  0.49702032901E+03  0.51619606321E+03  0.25500000920E-02 0. -1.
</event>
<event>
 5   0  0.1081831E-05  0.1599288E+04  0.7818609E-02  0.8820986E-01
        1   -1    0    0  501    0  0.00000000000E+00  0.00000000000E+00  0.78126704670E+03  0.78126704671E+03  0.50400001928E-02 0.  1.
       -1   -1    0    0    0  501  0.00000000000E+00  0.00000000000E+00 -0.81845274889E+03  0.81845274890E+03  0.50400001928E-02 0. -1.
    10030    2    1    2    0    0  0.00000000000E+00  0.00000000000E+00 -0.37185702191E+02  0.15997197956E+04  0.15992875439E+04 0.  0.
        3    1    3    3  502    0  0.30463205163E+03  0.57693465669E+03  0.44389113797E+03  0.78910939517E+03  0.10100000352E+00 0.  1.
       -3    1    3    3    0  502 -0.30463205163E+03 -0.57693465669E+03 -0.48107684017E+03  0.81061040045E+03  0.10100000352E+00 0. -1.
</event>
<event>
 5   0  0.1060251E-05  0.1599729E+04  0.7818609E-02  0.8820715E-01
        1   -1    0    0  501    0  0.00000000000E+00  0.00000000000E+00  0.15385532232E+04  0.15385532232E+04  0.50400001928E-02 0.  1.
       -1   -1    0    0    0  501  0.00000000000E+00  0.00000000000E+00 -0.41583415868E+03  0.41583415871E+03  0.50400001928E-02 0. -1.
    10030    2    1    2    0    0  0.00000000000E+00  0.00000000000E+00  0.11227190645E+04  0.19543873820E+04  0.15997287085E+04 0.  0.
        1    1    3    3  502    0 -0.63822981812E+03  0.38669969700E+03  0.20958432689E+03  0.77511260246E+03  0.50400001928E-02 0. -1.
       -1    1    3    3    0  502  0.63822981812E+03 -0.38669969700E+03  0.91313473766E+03  0.11792747795E+04  0.50400001928E-02 0.  1.
</event>
<event>
 5   0  0.1990948E-05  0.1599748E+04  0.7818609E-02  0.8820703E-01
       -2   -1    0    0    0  501  0.00000000000E+00  0.00000000000E+00  0.68340638332E+03  0.68340638333E+03  0.25500000920E-02 0. -1.
        2   -1    0    0  501    0  0.00000000000E+00  0.00000000000E+00 -0.93619037208E+03  0.93619037208E+03  0.25500000920E-02 0.  1.
    10030    2    1    2    0    0  0.00000000000E+00  0.00000000000E+00 -0.25278398876E+03  0.16195967554E+04  0.15997480755E+04 0.  0.
        4    1    3    3  502    0  0.63424295763E+03 -0.35239007262E+03  0.21446614636E+03  0.75659780162E+03  0.12699999809E+01 0. -1.
       -4    1    3    3    0  502 -0.63424295763E+03  0.35239007262E+03 -0.46725013511E+03  0.86299895379E+03  0.12699999809E+01 0.  1.
</event>
<event>
 5   0  0.1994525E-05  0.1600703E+04  0.7818609E-02  0.8820116E-01
       -2   -1    0    0    0  501  0.00000000000E+00  0.00000000000E+00  0.48528232900E+03  0.48528232901E+03  0.25500000920E-02 0. -1.
        2   -1    0    0  501    0  0.00000000000E+00  0.00000000000E+00 -0.13199797389E+04  0.13199797389E+04  0.25500000920E-02 0.  1.
    10030    2    1    2    0    0  0.00000000000E+00  0.00000000000E+00 -0.83469740991E+03  0.18052620679E+04  0.16007033978E+04 0.  0.
        5    1    3    3  502    0  0.44860807163E+02  0.57591192358E+03 -0.10420826207E+04  0.11914886966E+04  0.46999998093E+01 0.  1.
       -5    1    3    3    0  502 -0.44860807163E+02 -0.57591192358E+03  0.20738521075E+03  0.61377337135E+03  0.46999998093E+01 0. -1.
</event>
<event>
 5   0  0.1994525E-05  0.1599650E+04  0.7818609E-02  0.8820763E-01
        2   -1    0    0  501    0  0.00000000000E+00  0.00000000000E+00  0.33563213440E+03  0.33563213441E+03  0.25500000920E-02 0. -1.
       -2   -1    0    0    0  501  0.00000000000E+00  0.00000000000E+00 -0.19060151620E+04  0.19060151620E+04  0.25500000920E-02 0.  1.
    10030    2    1    2    0    0  0.00000000000E+00  0.00000000000E+00 -0.15703830276E+04  0.22416472964E+04  0.15996498830E+04 0.  0.
        5    1    3    3  502    0  0.64931657019E+03  0.46398147337E+03 -0.71094672890E+03  0.10688115630E+04  0.46999998093E+01 0. -1.
       -5    1    3    3    0  502 -0.64931657019E+03 -0.46398147337E+03 -0.85943629867E+03  0.11728357334E+04  0.46999998093E+01 0.  1.
</event>
<event>
 5   0  0.1090674E-05  0.1599937E+04  0.7818609E-02  0.8820587E-01
       -1   -1    0    0    0  501  0.00000000000E+00  0.00000000000E+00  0.78953228137E+03  0.78953228138E+03  0.50400001928E-02 0. -1.
        1   -1    0    0  501    0  0.00000000000E+00  0.00000000000E+00 -0.81054287314E+03  0.81054287315E+03  0.50400001928E-02 0.  1.
    10030    2    1    2    0    0  0.00000000000E+00  0.00000000000E+00 -0.21010591772E+02  0.16000751545E+04  0.15999372035E+04 0.  0.
        4    1    3    3  502    0  0.33660487403E+03 -0.72535714370E+03 -0.32919808634E+02  0.80033190230E+03  0.12699999809E+01 0. -1.
       -4    1    3    3    0  502 -0.33660487403E+03  0.72535714370E+03  0.11909216862E+02  0.79974325223E+03  0.12699999809E+01 0.  1.
</event>
<event>
 5   0  0.1057506E-05  0.1599001E+04  0.7818609E-02  0.8821162E-01
       -1   -1    0    0    0  501  0.00000000000E+00  0.00000000000E+00  0.43478195162E+03  0.43478195165E+03  0.50400001928E-02 0.  1.
        1   -1    0    0  501    0  0.00000000000E+00  0.00000000000E+00 -0.14701650968E+04  0.14701650968E+04  0.50400001928E-02 0. -1.
    10030    2    1    2    0    0  0.00000000000E+00  0.00000000000E+00 -0.10353831451E+04  0.19049470484E+04  0.15990012508E+04 0.  0.
        5    1    3    3  502    0  0.51426888522E+03  0.88526945177E+02  0.20389758597E+03  0.56027298872E+03  0.46999998093E+01 0.  1.
       -5    1    3    3    0  502 -0.51426888522E+03 -0.88526945177E+02 -0.12392807311E+04  0.13446740597E+04  0.46999998093E+01 0. -1.
</event>
<event>
 5   0  0.2046108E-05  0.1600003E+04  0.7818609E-02  0.8820546E-01
        2   -1    0    0  501    0  0.00000000000E+00  0.00000000000E+00  0.11433632286E+04  0.11433632286E+04  0.25500000920E-02 0. -1.
       -2   -1    0    0    0  501  0.00000000000E+00  0.00000000000E+00 -0.55975454597E+03  0.55975454597E+03  0.25500000920E-02 0.  1.
    10030    2    1    2    0    0  0.00000000000E+00  0.00000000000E+00  0.58360868262E+03  0.17031177746E+04  0.16000034561E+04 0.  0.
        1    1    3    3  502    0 -0.26908944632E+03 -0.58803936166E+03 -0.20950731795E+03  0.67977403399E+03  0.50400001928E-02 0.  1.
       -1    1    3    3    0  502  0.26908944632E+03  0.58803936166E+03  0.79311600056E+03  0.10233437406E+04  0.50400001928E-02 0. -1.
</event>
<event>
 5   0  0.1990948E-05  0.1599974E+04  0.7818609E-02  0.8820564E-01
        2   -1    0    0  501    0  0.00000000000E+00  0.00000000000E+00  0.10921067948E+04  0.10921067948E+04  0.25500000920E-02 0. -1.
       -2   -1    0    0    0  501  0.00000000000E+00  0.00000000000E+00 -0.58600449187E+03  0.58600449188E+03  0.25500000920E-02 0.  1.
    10030    2    1    2    0    0  0.00000000000E+00  0.00000000000E+00  0.50610230297E+03  0.16781112867E+04  0.15999743590E+04 0.  0.
        4    1    3    3  502    0  0.75137908977E+03  0.24746607379E+03  0.37789299545E+03  0.87670674865E+03  0.12699999809E+01 0.  1.
       -4    1    3    3    0  502 -0.75137908977E+03 -0.24746607379E+03  0.12820930752E+03  0.80140453808E+03  0.12699999809E+01 0. -1.
</event>
<event>
 5   0  0.1990948E-05  0.1601419E+04  0.7818609E-02  0.8819677E-01
       -2   -1    0    0    0  501  0.00000000000E+00  0.00000000000E+00  0.10486938836E+04  0.10486938836E+04  0.25500000920E-02 0.  1.
        2   -1    0    0  501    0  0.00000000000E+00  0.00000000000E+00 -0.61136618163E+03  0.61136618164E+03  0.25500000920E-02 0. -1.
    10030    2    1    2    0    0  0.00000000000E+00  0.00000000000E+00  0.43732770201E+03  0.16600600653E+04  0.16014193396E+04 0.  0.
        4    1    3    3  502    0 -0.42400562270E+03 -0.63431522687E+03  0.47045275955E+03  0.89636152695E+03  0.12699999809E+01 0. -1.
       -4    1    3    3    0  502  0.42400562270E+03  0.63431522687E+03 -0.33125057547E+02  0.76369853833E+03  0.12699999809E+01 0.  1.
</event>
<event>
 5   0  0.2147844E-05  0.1599921E+04  0.7818609E-02  0.8820596E-01
        2   -1    0    0  501    0  0.00000000000E+00  0.00000000000E+00  0.90615651304E+03  0.90615651305E+03  0.25500000920E-02 0. -1.
       -2   -1    0    0    0  501  0.00000000000E+00  0.00000000000E+00 -0.70621031851E+03  0.70621031851E+03  0.25500000920E-02 0.  1.
    10030    2    1    2    0    0  0.00000000000E+00  0.00000000000E+00  0.19994619454E+03  0.16123668316E+04  0.15999213477E+04 0.  0.
        2    1    3    3  502    0  0.62759240023E+02  0.23343741773E+03 -0.66852371797E+03  0.71088375399E+03  0.25500000920E-02 0.  1.
       -2    1    3    3    0  502 -0.62759240023E+02 -0.23343741773E+03  0.86846991250E+03  0.90148307756E+03  0.25500000920E-02 0. -1.
</event>
<event>
 5   0  0.1126485E-05  0.1601645E+04  0.7818609E-02  0.8819538E-01
       -1   -1    0    0    0  501  0.00000000000E+00  0.00000000000E+00  0.29616719601E+03  0.29616719605E+03  0.50400001928E-02 0. -1.
        1   -1    0    0  501    0  0.00000000000E+00  0.00000000000E+00 -0.21653866036E+04  0.21653866036E+04  0.50400001928E-02 0.  1.
    10030    2    1    2    0    0  0.00000000000E+00  0.00000000000E+00 -0.18692194076E+04  0.24615537996E+04  0.16016447530E+04 0.  0.
        2    1    3    3  502    0 -0.43056854824E+03 -0.29445339718E+03 -0.73559698552E+00  0.52162497922E+03  0.25500000920E-02 0. -1.
       -2    1    3    3    0  502  0.43056854824E+03  0.29445339718E+03 -0.18684838106E+04  0.19399288204E+04  0.25500000920E-02 0.  1.
</event>
<event>
 5   0  0.1081831E-05  0.1599505E+04  0.7818609E-02  0.8820852E-01
        1   -1    0    0  501    0  0.00000000000E+00  0.00000000000E+00  0.94755969693E+03  0.94755969694E+03  0.50400001928E-02 0.  1.
       -1   -1    0    0    0  501  0.00000000000E+00  0.00000000000E+00 -0.67500172200E+03  0.67500172202E+03  0.50400001928E-02 0. -1.
    10030    2    1    2    0    0  0.00000000000E+00  0.00000000000E+00  0.27255797493E+03  0.16225614190E+04  0.15995054575E+04 0.  0.
        3    1    3    3  502    0 -0.62529883468E+03  0.47157241497E+03 -0.27997409517E+02  0.78368554941E+03  0.10100000352E+00 0.  1.
       -3    1    3    3    0  502  0.62529883468E+03 -0.47157241497E+03  0.30055538444E+03  0.83887586956E+03  0.10100000352E+00 0. -1.
</event>
<event>
 5   0  0.1994525E-05  0.1600123E+04  0.7818609E-02  0.8820472E-01
       -2   -1    0    0    0  501  0.00000000000E+00  0.00000000000E+00  0.74767123796E+03  0.74767123797E+03  0.25500000920E-02 0.  1.
        2   -1    0    0  501    0  0.00000000000E+00  0.00000000000E+00 -0.85612311063E+03  0.85612311063E+03  0.25500000920E-02 0. -1.
    10030    2    1    2    0    0  0.00000000000E+00  0.00000000000E+00 -0.10845187266E+03  0.16037943486E+04  0.16001232777E+04 0.  0.
        5    1    3    3  502    0 -0.39730926059E+03  0.57519641614E+03  0.33573089522E+03  0.77552749126E+03  0.46999998093E+01 0.  1.
       -5    1    3    3    0  502  0.39730926059E+03 -0.57519641614E+03 -0.44418276788E+03  0.82826685734E+03  0.46999998093E+01 0. -1.
</event>
<event>
 5   0  0.2046108E-05  0.1599671E+04  0.7818609E-02  0.8820750E-01
       -2   -1    0    0    0  501  0.00000000000E+00  0.00000000000E+00  0.30320844428E+03  0.30320844429E+03  0.25500000920E-02 0.  1.
        2   -1    0    0  501    0  0.00000000000E+00  0.00000000000E+00 -0.21098922560E+04  0.21098922560E+04  0.25500000920E-02 0. -1.
    10030    2    1    2    0    0  0.00000000000E+00  0.00000000000E+00 -0.18066838117E+04  0.24131007003E+04  0.15996714020E+04 0.  0.
        1    1    3    3  502    0  0.17436116914E+03  0.21753097793E+03  0.22754415759E+03  0.35985814891E+03  0.50400001928E-02 0.  1.
       -1    1    3    3    0  502 -0.17436116914E+03 -0.21753097793E+03 -0.20342279693E+04  0.20532425514E+04  0.50400001928E-02 0. -1.
</event>
<event>
 5   0  0.1090674E-05  0.1600173E+04  0.7818609E-02  0.8820442E-01
        1   -1    0    0  501    0  0.00000000000E+00  0.00000000000E+00  0.25490822953E+04  0.25490822953E+04  0.50400001928E-02 0. -1.
       -1   -1    0    0    0  501  0.00000000000E+00  0.00000000000E+00 -0.25112506256E+03  0.25112506261E+03  0.50400001928E-02 0.  1.
    10030    2    1    2    0    0  0.00000000000E+00  0.00000000000E+00  0.22979572328E+04  0.28002073580E+04  0.16001730543E+04 0.  0.
        4    1    3    3  502    0  0.15336958241E+03  0.64259093606E+03  0.35919214418E+03  0.75197469988E+03  0.12699999809E+01 0.  1.
       -4    1    3    3    0  502 -0.15336958241E+03 -0.64259093606E+03  0.19387650886E+04  0.20482326581E+04  0.12699999809E+01 0. -1.
</event>
<event>
 5   0  0.1081831E-05  0.1599974E+04  0.7818609E-02  0.8820564E-01
        1   -1    0    0  501    0  0.00000000000E+00  0.00000000000E+00  0.69798364979E+03  0.69798364980E+03  0.50400001928E-02 0.  1.
       -1   -1    0    0    0  501  0.00000000000E+00  0.00000000000E+00 -0.91689711290E+03  0.91689711292E+03  0.50400001928E-02 0. -1.
    10030    2    1    2    0    0  0.00000000000E+00  0.00000000000E+00 -0.21891346312E+03  0.16148807627E+04  0.15999739915E+04 0.  0.
        3    1    3    3  502    0 -0.65011457118E+03 -0.46584031505E+03 -0.91316288807E+02  0.80498126039E+03  0.10100000352E+00 0. -1.
       -3    1    3    3    0  502  0.65011457118E+03  0.46584031505E+03 -0.12759717431E+03  0.80989950233E+03  0.10100000352E+00 0.  1.
</event>
<event>
 5   0  0.1994525E-05  0.1599670E+04  0.7818609E-02  0.8820751E-01
        2   -1    0    0  501    0  0.00000000000E+00  0.00000000000E+00  0.81157880455E+03  0.81157880456E+03  0.25500000920E-02 0.  1.
       -2   -1    0    0    0  501  0.00000000000E+00  0.00000000000E+00 -0.78826143428E+03  0.78826143428E+03  0.25500000920E-02 0. -1.
    10030    2    1    2    0    0  0.00000000000E+00  0.00000000000E+00  0.23317370277E+02  0.15998402388E+04  0.15996703067E+04 0.  0.
        5    1    3    3  502    0  0.73319282806E+03 -0.17308745293E+03  0.28035652625E+03  0.80383633986E+03  0.46999998093E+01 0.  1.
       -5    1    3    3    0  502 -0.73319282806E+03  0.17308745293E+03 -0.25703915597E+03  0.79600389897E+03  0.46999998093E+01 0. -1.
</event>
<event>
 5   0  0.7597000E-06  0.1599356E+04  0.7818609E-02  0.8820944E-01
       -4   -1    0    0    0  501  0.00000000000E+00  0.00000000000E+00  0.10030635298E+04  0.10030643338E+04  0.12699999809E+01 0. -1.
        4   -1    0    0  501    0  0.00000000000E+00  0.00000000000E+00 -0.63753007864E+03  0.63753134360E+03  0.12699999809E+01 0.  1.
    10030    2    1    2    0    0  0.00000000000E+00  0.00000000000E+00  0.36553345114E+03  0.16405956774E+04  0.15993559556E+04 0.  0.
        2    1    3    3  502    0 -0.33007122019E+02  0.10730479307E+03 -0.62940714306E+03  0.63934117689E+03  0.25500000920E-02 0.  1.
       -2    1    3    3    0  502  0.33007122019E+02 -0.10730479307E+03  0.99494059421E+03  0.10012545005E+04  0.25500000920E-02 0. -1.
</event>
<event>
 5   0  0.2147844E-05  0.1599804E+04  0.7818609E-02  0.8820669E-01
       -2   -1    0    0    0  501  0.00000000000E+00  0.00000000000E+00  0.77363113040E+03  0.77363113040E+03  0.25500000920E-02 0. -1.
        2   -1    0    0  501    0  0.00000000000E+00  0.00000000000E+00 -0.82706483049E+03  0.82706483049E+03  0.25500000920E-02 0.  1.
    10030    2    1    2    0    0  0.00000000000E+00  0.00000000000E+00 -0.53433700087E+02  0.16006959609E+04  0.15998038626E+04 0.  0.
        2    1    3    3  502    0  0.77315913194E+01  0.69872931404E+03 -0.41624187430E+03  0.81335092656E+03  0.25500000920E-02 0.  1.
       -2    1    3    3    0  502 -0.77315913194E+01 -0.69872931404E+03  0.36280817421E+03  0.78734503433E+03  0.25500000920E-02 0. -1.
</event>
<event>
 5   0  0.1990948E-05  0.1600303E+04  0.7818609E-02  0.8820362E-01
       -2   -1    0    0    0  501  0.00000000000E+00  0.00000000000E+00  0.13705329472E+04  0.13705329472E+04  0.25500000920E-02 0. -1.
        2   -1    0    0  501    0  0.00000000000E+00  0.00000000000E+00 -0.46714878861E+03  0.46714878862E+03  0.25500000920E-02 0.  1.
    10030    2    1    2    0    0  0.00000000000E+00  0.00000000000E+00  0.90338415858E+03  0.18376817358E+04  0.16003034788E+04 0.  0.
        4    1    3    3  502    0  0.13304132058E+03 -0.46742711507E+03 -0.27824792726E+03  0.56001037741E+03  0.12699999809E+01 0. -1.
       -4    1    3    3    0  502 -0.13304132058E+03  0.46742711507E+03  0.11816320858E+04  0.12776713584E+04  0.12699999809E+01 0.  1.
</event>
<event>
 5   0  0.1060251E-05  0.1599517E+04  0.7818609E-02  0.8820844E-01
       -1   -1    0    0    0  501  0.00000000000E+00  0.00000000000E+00  0.78454752645E+03  0.78454752647E+03  0.50400001928E-02 0. -1.
        1   -1    0    0  501    0  0.00000000000E+00  0.00000000000E+00 -0.81526486889E+03  0.81526486891E+03  0.50400001928E-02 0.  1.
    10030    2    1    2    0    0  0.00000000000E+00  0.00000000000E+00 -0.30717342440E+02  0.15998123954E+04  0.15995174726E+04 0.  0.
        1    1    3    3  502    0  0.38504991328E+02  0.79627246376E+03 -0.79257581008E+02  0.80113309448E+03  0.50400001928E-02 0.  1.
       -1    1    3    3    0  502 -0.38504991328E+02 -0.79627246376E+03  0.48540238569E+02  0.79867930090E+03  0.50400001928E-02 0. -1.
</event>
<event>
 5   0  0.1060251E-05  0.1599324E+04  0.7818609E-02  0.8820964E-01
       -1   -1    0    0    0  501  0.00000000000E+00  0.00000000000E+00  0.27302065674E+03  0.27302065678E+03  0.50400001928E-02 0. -1.
        1   -1    0    0  501    0  0.00000000000E+00  0.00000000000E+00 -0.23421638740E+04  0.23421638740E+04  0.50400001928E-02 0.  1.
    10030    2    1    2    0    0  0.00000000000E+00  0.00000000000E+00 -0.20691432173E+04  0.26151845308E+04  0.15993237560E+04 0.  0.
        1    1    3    3  502    0 -0.58684848814E+02  0.64066296548E+03 -0.25796168554E+03  0.69313575730E+03  0.50400001928E-02 0. -1.
       -1    1    3    3    0  502  0.58684848814E+02 -0.64066296548E+03 -0.18111815317E+04  0.19220487735E+04  0.50400001928E-02 0.  1.
</event>
<event>
 5   0  0.1057506E-05  0.1600564E+04  0.7818609E-02  0.8820202E-01
       -1   -1    0    0    0  501  0.00000000000E+00  0.00000000000E+00  0.13190123289E+04  0.13190123289E+04  0.50400001928E-02 0. -1.
        1   -1    0    0  501    0  0.00000000000E+00  0.00000000000E+00 -0.48555342067E+03  0.48555342070E+03  0.50400001928E-02 0.  1.
    10030    2    1    2    0    0  0.00000000000E+00  0.00000000000E+00  0.83345890824E+03  0.18045657496E+04  0.16005635861E+04 0.  0.
        5    1    3    3  502    0 -0.32960449272E+03 -0.72747450735E+03  0.47389247266E+03  0.92868425533E+03  0.46999998093E+01 0. -1.
       -5    1    3    3    0  502  0.32960449272E+03  0.72747450735E+03  0.35956643558E+03  0.87588149430E+03  0.46999998093E+01 0.  1.
</event>
<event>
 5   0  0.2046108E-05  0.1599261E+04  0.7818609E-02  0.8821002E-01
        2   -1    0    0  501    0  0.00000000000E+00  0.00000000000E+00  0.21548357088E+04  0.21548357088E+04  0.25500000920E-02 0.  1.
       -2   -1    0    0    0  501  0.00000000000E+00  0.00000000000E+00 -0.29673212029E+03  0.29673212030E+03  0.25500000920E-02 0. -1.
    10030    2    1    2    0    0  0.00000000000E+00  0.00000000000E+00  0.18581035885E+04  0.24515678291E+04  0.15992610403E+04 0.  0.
        1    1    3    3  502    0 -0.16920605910E+03 -0.73907931154E+03  0.13184905809E+04  0.15209491546E+04  0.50400001928E-02 0. -1.
       -1    1    3    3    0  502  0.16920605910E+03  0.73907931154E+03  0.53961300767E+03  0.93061867446E+03  0.50400001928E-02 0.  1.
</event>
<event>
 5   0  0.7597000E-06  0.1595636E+04  0.7818609E-02  0.8823234E-01
       -3   -1    0    0    0  501  0.00000000000E+00  0.00000000000E+00  0.52098542305E+03  0.52098543284E+03  0.10100000352E+00 0.  1.
        3   -1    0    0  501    0  0.00000000000E+00  0.00000000000E+00 -0.12217485358E+04  0.12217485399E+04  0.10100000352E+00 0. -1.
    10030    2    1    2    0    0  0.00000000000E+00  0.00000000000E+00 -0.70076311270E+03  0.17427339728E+04  0.15956355347E+04 0.  0.
        3    1    3    3  502    0 -0.45577277244E+03 -0.80731920848E+02  0.35934462045E+03  0.58598210689E+03  0.10100000352E+00 0.  1.
       -3    1    3    3    0  502  0.45577277244E+03  0.80731920848E+02 -0.10601077331E+04  0.11567518659E+04  0.10100000352E+00 0. -1.
</event>
<event>
 5   0  0.1990948E-05  0.1600001E+04  0.7818609E-02  0.8820547E-01
       -2   -1    0    0    0  501  0.00000000000E+00  0.00000000000E+00  0.43773090715E+03  0.43773090716E+03  0.25500000920E-02 0. -1.
        2   -1    0    0  501    0  0.00000000000E+00  0.00000000000E+00 -0.14620880762E+04  0.14620880762E+04  0.25500000920E-02 0.  1.
    10030    2    1    2    0    0  0.00000000000E+00  0.00000000000E+00 -0.10243571690E+04  0.18998189833E+04  0.16000014249E+04 0.  0.
        4    1    3    3  502    0 -0.18624981293E+02  0.15955726533E+03  0.41838205578E+03  0.44816355089E+03  0.12699999809E+01 0. -1.
       -4    1    3    3    0  502  0.18624981293E+02 -0.15955726533E+03 -0.14427392248E+04  0.14516554324E+04  0.12699999809E+01 0.  1.
</event>
<event>
 5   0  0.1090674E-05  0.1600040E+04  0.7818609E-02  0.8820523E-01
       -1   -1    0    0    0  501  0.00000000000E+00  0.00000000000E+00  0.32087313159E+03  0.32087313163E+03  0.50400001928E-02 0. -1.
        1   -1    0    0  501    0  0.00000000000E+00  0.00000000000E+00 -0.19946580383E+04  0.19946580383E+04  0.50400001928E-02 0.  1.
    10030    2    1    2    0    0  0.00000000000E+00  0.00000000000E+00 -0.16737849067E+04  0.23155311700E+04  0.16000402136E+04 0.  0.
        4    1    3    3  502    0  0.48281844279E+03 -0.98165626884E+02  0.75261855460E+02  0.49841358207E+03  0.12699999809E+01 0. -1.
       -4    1    3    3    0  502 -0.48281844279E+03  0.98165626884E+02 -0.17490467622E+04  0.18171175879E+04  0.12699999809E+01 0.  1.
</event>
<event>
 5   0  0.1057506E-05  0.1600035E+04  0.7818609E-02  0.8820527E-01
       -1   -1    0    0    0  501  0.00000000000E+00  0.00000000000E+00  0.59913408610E+03  0.59913408612E+03  0.50400001928E-02 0.  1.
        1   -1    0    0  501    0  0.00000000000E+00  0.00000000000E+00 -0.10682545883E+04  0.10682545883E+04  0.50400001928E-02 0. -1.
    10030    2    1    2    0    0  0.00000000000E+00  0.00000000000E+00 -0.46912050218E+03  0.16673886744E+04  0.16000346703E+04 0.  0.
        5    1    3    3  502    0 -0.38051760111E+03  0.59389789116E+03  0.15881838176E+03  0.72301709403E+03  0.46999998093E+01 0.  1.
       -5    1    3    3    0  502  0.38051760111E+03 -0.59389789116E+03 -0.62793888394E+03  0.94437158039E+03  0.46999998093E+01 0. -1.
</event>
<event>
 5   0  0.2046108E-05  0.1599712E+04  0.7818609E-02  0.8820725E-01
       -2   -1    0    0    0  501  0.00000000000E+00  0.00000000000E+00  0.38684196055E+03  0.38684196056E+03  0.25500000920E-02 0. -1.
        2   -1    0    0  501    0  0.00000000000E+00  0.00000000000E+00 -0.16538269982E+04  0.16538269982E+04  0.25500000920E-02 0.  1.
    10030    2    1    2    0    0  0.00000000000E+00  0.00000000000E+00 -0.12669850376E+04  0.20406689588E+04  0.15997120721E+04 0.  0.
        1    1    3    3  502    0  0.52108067806E+03 -0.30577456433E+03  0.35154383848E+02  0.60519334759E+03  0.50400001928E-02 0. -1.
       -1    1    3    3    0  502 -0.52108067806E+03  0.30577456433E+03 -0.13021394215E+04  0.14354756112E+04  0.50400001928E-02 0.  1.
</event>
<event>
 5   0  0.1081831E-05  0.1598583E+04  0.7818609E-02  0.8821419E-01
        1   -1    0    0  501    0  0.00000000000E+00  0.00000000000E+00  0.83434053958E+03  0.83434053959E+03  0.50400001928E-02 0. -1.
       -1   -1    0    0    0  501  0.00000000000E+00  0.00000000000E+00 -0.76571451524E+03  0.76571451525E+03  0.50400001928E-02 0.  1.
    10030    2    1    2    0    0  0.00000000000E+00  0.00000000000E+00  0.68626024343E+02  0.16000550548E+04  0.15985826996E+04 0.  0.
        3    1    3    3  502    0  0.61784780123E+03 -0.70868493504E+01  0.54181109357E+03  0.82179401326E+03  0.10100000352E+00 0. -1.
       -3    1    3    3    0  502 -0.61784780123E+03  0.70868493504E+01 -0.47318506922E+03  0.77826104159E+03  0.10100000352E+00 0.  1.
</event>
<event>
 5   0  0.2147844E-05  0.1600078E+04  0.7818609E-02  0.8820500E-01
        2   -1    0    0  501    0  0.00000000000E+00  0.00000000000E+00  0.11026351684E+04  0.11026351684E+04  0.25500000920E-02 0. -1.
       -2   -1    0    0    0  501  0.00000000000E+00  0.00000000000E+00 -0.58048460576E+03  0.58048460576E+03  0.25500000920E-02 0.  1.
    10030    2    1    2    0    0  0.00000000000E+00  0.00000000000E+00  0.52215056266E+03  0.16831197742E+04  0.16000784244E+04 0.  0.
        2    1    3    3  502    0  0.49863432662E+03  0.19804672104E+02  0.91885608256E+03  0.10456217850E+04  0.25500000920E-02 0. -1.
       -2    1    3    3    0  502 -0.49863432662E+03 -0.19804672104E+02 -0.39670551991E+03  0.63749798922E+03  0.25500000920E-02 0.  1.
</event>
<event>
 5   0  0.2147844E-05  0.1600034E+04  0.7818609E-02  0.8820527E-01
       -2   -1    0    0    0  501  0.00000000000E+00  0.00000000000E+00  0.28722722856E+03  0.28722722858E+03  0.25500000920E-02 0.  1.
        2   -1    0    0  501    0  0.00000000000E+00  0.00000000000E+00 -0.22282946648E+04  0.22282946648E+04  0.25500000920E-02 0. -1.
    10030    2    1    2    0    0  0.00000000000E+00  0.00000000000E+00 -0.19410674362E+04  0.25155218934E+04  0.16000336259E+04 0.  0.
        2    1    3    3  502    0  0.15515562207E+03  0.61378284107E+02  0.25956738835E+03  0.30857055906E+03  0.25500000920E-02 0.  1.
       -2    1    3    3    0  502 -0.15515562207E+03 -0.61378284107E+02 -0.22006348246E+04  0.22069513343E+04  0.25500000920E-02 0. -1.
</event>
<event>
 5   0  0.1990948E-05  0.1600542E+04  0.7818609E-02  0.8820215E-01
        2   -1    0    0  501    0  0.00000000000E+00  0.00000000000E+00  0.13379834109E+04  0.13379834109E+04  0.25500000920E-02 0. -1.
       -2   -1    0    0    0  501  0.00000000000E+00  0.00000000000E+00 -0.47865582950E+03  0.47865582951E+03  0.25500000920E-02 0.  1.
    10030    2    1    2    0    0  0.00000000000E+00  0.00000000000E+00  0.85932758141E+03  0.18166392404E+04  0.16005418575E+04 0.  0.
        4    1    3    3  502    0  0.21471075109E+03  0.12941735533E+02  0.13045563663E+04  0.13221713659E+04  0.12699999809E+01 0. -1.
       -4    1    3    3    0  502 -0.21471075109E+03 -0.12941735533E+02 -0.44522878486E+03  0.49446787451E+03  0.12699999809E+01 0.  1.
</event>
<event>
 5   0  0.1994525E-05  0.1600606E+04  0.7818609E-02  0.8820176E-01
        2   -1    0    0  501    0  0.00000000000E+00  0.00000000000E+00  0.15468428037E+04  0.15468428037E+04  0.25500000920E-02 0. -1.
       -2   -1    0    0    0  501  0.00000000000E+00  0.00000000000E+00 -0.41405966040E+03  0.41405966041E+03  0.25500000920E-02 0.  1.
    10030    2    1    2    0    0  0.00000000000E+00  0.00000000000E+00  0.11327831433E+04  0.19609024641E+04  0.16006063926E+04 0.  0.
        5    1    3    3  502    0 -0.64621758924E+03  0.41461118430E+03  0.84295904853E+03  0.11402200026E+04  0.46999998093E+01 0. -1.
       -5    1    3    3    0  502  0.64621758924E+03 -0.41461118430E+03  0.28982409480E+03  0.82068246156E+03  0.46999998093E+01 0.  1.
</event>
<event>
 5   0  0.2046108E-05  0.1602189E+04  0.7818609E-02  0.8819204E-01
        2   -1    0    0  501    0  0.00000000000E+00  0.00000000000E+00  0.63855031670E+03  0.63855031671E+03  0.25500000920E-02 0. -1.
       -2   -1    0    0    0  501  0.00000000000E+00  0.00000000000E+00 -0.10050148537E+04  0.10050148537E+04  0.25500000920E-02 0.  1.
    10030    2    1    2    0    0  0.00000000000E+00  0.00000000000E+00 -0.36646453703E+03  0.16435651704E+04  0.16021891938E+04 0.  0.
        1    1    3    3  502    0 -0.99420296912E+02 -0.68724299493E+03  0.22653970718E+03  0.73041602425E+03  0.50400001928E-02 0. -1.
       -1    1    3    3    0  502  0.99420296912E+02  0.68724299493E+03 -0.59300424421E+03  0.91314914619E+03  0.50400001928E-02 0.  1.
</event>
<event>
 5   0  0.1994525E-05  0.1598971E+04  0.7818609E-02  0.8821181E-01
       -2   -1    0    0    0  501  0.00000000000E+00  0.00000000000E+00  0.59167764307E+03  0.59167764308E+03  0.25500000920E-02 0. -1.
        2   -1    0    0  501    0  0.00000000000E+00  0.00000000000E+00 -0.10802785848E+04  0.10802785848E+04  0.25500000920E-02 0.  1.
    10030    2    1    2    0    0  0.00000000000E+00  0.00000000000E+00 -0.48860094170E+03  0.16719562279E+04  0.15989705274E+04 0.  0.
        5    1    3    3  502    0 -0.62238372615E+03  0.44641709452E+03 -0.48389905466E+03  0.90599674942E+03  0.46999998093E+01 0.  1.
       -5    1    3    3    0  502  0.62238372615E+03 -0.44641709452E+03 -0.47018870368E+01  0.76595947843E+03  0.46999998093E+01 0. -1.
</event>
<event>
 5   0  0.1090674E-05  0.1600378E+04  0.7818609E-02  0.8820316E-01
        1   -1    0    0  501    0  0.00000000000E+00  0.00000000000E+00  0.10240865862E+04  0.10240865862E+04  0.50400001928E-02 0. -1.
       -1   -1    0    0    0  501  0.00000000000E+00  0.00000000000E+00 -0.62524282794E+03  0.62524282796E+03  0.50400001928E-02 0.  1.
    10030    2    1    2    0    0  0.00000000000E+00  0.00000000000E+00  0.39884375824E+03  0.16493294141E+04  0.16003784468E+04 0.  0.
        4    1    3    3  502    0 -0.48845041972E+03  0.15360832366E+03  0.83314652564E+03  0.97791312278E+03  0.12699999809E+01 0. -1.
       -4    1    3    3    0  502  0.48845041972E+03 -0.15360832366E+03 -0.43430276741E+03  0.67141629136E+03  0.12699999809E+01 0.  1.
</event>
<event>
 5   0  0.1057506E-05  0.1600700E+04  0.7818609E-02  0.8820118E-01
       -1   -1    0    0    0  501  0.00000000000E+00  0.00000000000E+00  0.66138955230E+03  0.66138955232E+03  0.50400001928E-02 0. -1.
        1   -1    0    0  501    0  0.00000000000E+00  0.00000000000E+00 -0.96850649698E+03  0.96850649700E+03  0.50400001928E-02 0.  1.
    10030    2    1    2    0    0  0.00000000000E+00  0.00000000000E+00 -0.30711694469E+03  0.16298960493E+04  0.16006999450E+04 0.  0.
        5    1    3    3  502    0 -0.64982155013E+03  0.30984155923E+03 -0.50960491168E+03  0.88203690107E+03  0.46999998093E+01 0.  1.
       -5    1    3    3    0  502  0.64982155013E+03 -0.30984155923E+03  0.20248796700E+03  0.74785914824E+03  0.46999998093E+01 0. -1.
</event>
<event>
 5   0  0.1990948E-05  0.1600279E+04  0.7818609E-02  0.8820377E-01
       -2   -1    0    0    0  501  0.00000000000E+00  0.00000000000E+00  0.32374428702E+03  0.32374428703E+03  0.25500000920E-02 0.  1.
        2   -1    0    0  501    0  0.00000000000E+00  0.00000000000E+00 -0.19775576940E+04  0.19775576940E+04  0.25500000920E-02 0. -1.
    10030    2    1    2    0    0  0.00000000000E+00  0.00000000000E+00 -0.16538134070E+04  0.23013019811E+04  0.16002787329E+04 0.  0.
        4    1    3    3  502    0 -0.24114769059E+03  0.51617186556E+03 -0.18981608006E+02  0.57004168077E+03  0.12699999809E+01 0.  1.
       -4    1    3    3    0  502  0.24114769059E+03 -0.51617186556E+03 -0.16348317990E+04  0.17312603003E+04  0.12699999809E+01 0. -1.
</event>
<event>
 5   0  0.2147844E-05  0.1598879E+04  0.7818609E-02  0.8821237E-01
       -2   -1    0    0    0  501  0.00000000000E+00  0.00000000000E+00  0.51602431685E+03  0.51602431685E+03  0.25500000920E-02 0. -1.
        2   -1    0    0  501    0  0.00000000000E+00  0.00000000000E+00 -0.12385148062E+04  0.12385148062E+04  0.25500000920E-02 0.  1.
    10030    2    1    2    0    0  0.00000000000E+00  0.00000000000E+00 -0.72249048938E+03  0.17545391231E+04  0.15988793035E+04 0.  0.
        2    1    3    3  502    0 -0.54300004745E+03 -0.58438310832E+03 -0.30368805052E+03  0.85356845119E+03  0.25500000920E-02 0. -1.
       -2    1    3    3    0  502  0.54300004745E+03  0.58438310832E+03 -0.41880243886E+03  0.90097067190E+03  0.25500000920E-02 0.  1.
</event>
<event>
 5   0  0.1057506E-05  0.1599532E+04  0.7818609E-02  0.8820836E-01
        1   -1    0    0  501    0  0.00000000000E+00  0.00000000000E+00  0.96018928466E+03  0.96018928467E+03  0.50400001928E-02 0.  1.
       -1   -1    0    0    0  501  0.00000000000E+00  0.00000000000E+00 -0.66614504912E+03  0.66614504913E+03  0.50400001928E-02 0. -1.
    10030    2    1    2    0    0  0.00000000000E+00  0.00000000000E+00  0.29404423555E+03  0.16263343338E+04  0.15995316042E+04 0.  0.
        5    1    3    3  502    0 -0.73198893977E+03  0.31567777644E+03  0.81577563486E+02  0.80133467125E+03  0.46999998093E+01 0. -1.
       -5    1    3    3    0  502  0.73198893977E+03 -0.31567777644E+03  0.21246667206E+03  0.82499966256E+03  0.46999998093E+01 0.  1.
</event>
<event>
 5   0  0.1090674E-05  0.1599889E+04  0.7818609E-02  0.8820616E-01
        1   -1    0    0  501    0  0.00000000000E+00  0.00000000000E+00  0.72316537486E+03  0.72316537488E+03  0.50400001928E-02 0.  1.
       -1   -1    0    0    0  501  0.00000000000E+00  0.00000000000E+00 -0.88487498224E+03  0.88487498225E+03  0.50400001928E-02 0. -1.
    10030    2    1    2    0    0  0.00000000000E+00  0.00000000000E+00 -0.16170960738E+03  0.16080403571E+04  0.15998886815E+04 0.  0.
        4    1    3    3  502    0  0.29959922978E+03  0.34647942759E+03  0.57830805564E+03  0.73773268353E+03  0.12699999809E+01 0.  1.
       -4    1    3    3    0  502 -0.29959922978E+03 -0.34647942759E+03 -0.74001766303E+03  0.87030767360E+03  0.12699999809E+01 0. -1.
</event>
<event>
 5   0  0.1994525E-05  0.1599952E+04  0.7818609E-02  0.8820577E-01
       -2   -1    0    0    0  501  0.00000000000E+00  0.00000000000E+00  0.59820632707E+03  0.59820632708E+03  0.25500000920E-02 0.  1.
        2   -1    0    0  501    0  0.00000000000E+00  0.00000000000E+00 -0.10698013614E+04  0.10698013614E+04  0.25500000920E-02 0. -1.
    10030    2    1    2    0    0  0.00000000000E+00  0.00000000000E+00 -0.47159503428E+03  0.16680076884E+04  0.15999524281E+04 0.  0.
        5    1    3    3  502    0  0.37611810018E+02 -0.28386212559E+03 -0.10145288436E+04  0.10541741883E+04  0.46999998093E+01 0. -1.
       -5    1    3    3    0  502 -0.37611810018E+02  0.28386212559E+03  0.54293380936E+03  0.61383350018E+03  0.46999998093E+01 0.  1.
</event>
<event>
 5   0  0.1126485E-05  0.1609957E+04  0.7818609E-02  0.8814454E-01
        1   -1    0    0  501    0  0.00000000000E+00  0.00000000000E+00  0.11430678406E+04  0.11430678406E+04  0.50400001928E-02 0. -1.
       -1   -1    0    0    0  501  0.00000000000E+00  0.00000000000E+00 -0.56688685081E+03  0.56688685084E+03  0.50400001928E-02 0.  1.
    10030    2    1    2    0    0  0.00000000000E+00  0.00000000000E+00  0.57618098976E+03  0.17099546914E+04  0.16099566807E+04 0.  0.
        2    1    3    3  502    0  0.47946219236E+03  0.63737299449E+03  0.17241384066E+03  0.81599930176E+03  0.25500000920E-02 0.  1.
       -2    1    3    3    0  502 -0.47946219236E+03 -0.63737299449E+03  0.40376714909E+03  0.89395538966E+03  0.25500000920E-02 0. -1.
</event>
<event>
 5   0  0.1081831E-05  0.1599821E+04  0.7818609E-02  0.8820658E-01
        1   -1    0    0  501    0  0.00000000000E+00  0.00000000000E+00  0.40370215463E+03  0.40370215466E+03  0.50400001928E-02 0.  1.
       -1   -1    0    0    0  501  0.00000000000E+00  0.00000000000E+00 -0.15849726474E+04  0.15849726474E+04  0.50400001928E-02 0. -1.
    10030    2    1    2    0    0  0.00000000000E+00  0.00000000000E+00 -0.11812704928E+04  0.19886748021E+04  0.15998210810E+04 0.  0.
        3    1    3    3  502    0 -0.34367504519E+02 -0.54111067127E+03 -0.13216934053E+04  0.14285850874E+04  0.10100000352E+00 0. -1.
       -3    1    3    3    0  502  0.34367504519E+02  0.54111067127E+03  0.14042291258E+03  0.56008971469E+03  0.10100000352E+00 0.  1.
</event>
<event>
 5   0  0.1060251E-05  0.1600007E+04  0.7818609E-02  0.8820543E-01
       -1   -1    0    0    0  501  0.00000000000E+00  0.00000000000E+00  0.13621740740E+04  0.13621740740E+04  0.50400001928E-02 0. -1.
        1   -1    0    0  501    0  0.00000000000E+00  0.00000000000E+00 -0.46984149308E+03  0.46984149311E+03  0.50400001928E-02 0.  1.
    10030    2    1    2    0    0  0.00000000000E+00  0.00000000000E+00  0.89233258088E+03  0.18320155671E+04  0.16000073760E+04 0.  0.
        1    1    3    3  502    0 -0.76226577401E+03  0.13163374174E+03  0.67978465660E+03  0.10297979081E+04  0.50400001928E-02 0. -1.
       -1    1    3    3    0  502  0.76226577401E+03 -0.13163374174E+03  0.21254792428E+03  0.80221765895E+03  0.50400001928E-02 0.  1.
</event>
<event>
 5   0  0.2046108E-05  0.1600055E+04  0.7818609E-02  0.8820514E-01
        2   -1    0    0  501    0  0.00000000000E+00  0.00000000000E+00  0.13502036555E+04  0.13502036555E+04  0.25500000920E-02 0.  1.
       -2   -1    0    0    0  501  0.00000000000E+00  0.00000000000E+00 -0.47403533207E+03  0.47403533208E+03  0.25500000920E-02 0. -1.
    10030    2    1    2    0    0  0.00000000000E+00  0.00000000000E+00  0.87616832345E+03  0.18242389876E+04  0.16000552968E+04 0.  0.
        1    1    3    3  502    0 -0.19723806447E+03  0.22181724111E+03 -0.40893275493E+03  0.50530361230E+03  0.50400001928E-02 0. -1.
       -1    1    3    3    0  502  0.19723806447E+03 -0.22181724111E+03  0.12851010784E+04  0.13189353753E+04  0.50400001928E-02 0.  1.
</event>
<event>
 5   0  0.2125803E-05  0.1589746E+04  0.7818609E-02  0.8826872E-01
       -2   -1    0    0    0  501  0.00000000000E+00  0.00000000000E+00  0.70062838543E+03  0.70062838544E+03  0.25500000920E-02 0. -1.
        2   -1    0    0  501    0  0.00000000000E+00  0.00000000000E+00 -0.90179495561E+03  0.90179495561E+03  0.25500000920E-02 0.  1.
    10030    2    1    2    0    0  0.00000000000E+00  0.00000000000E+00 -0.20116657018E+03  0.16024233410E+04  0.15897460725E+04 0.  0.
        3    1    3    3  502    0 -0.53523752752E+03 -0.19316673399E+03 -0.66001410294E+03  0.87144203724E+03  0.10100000352E+00 0.  1.
       -3    1    3    3    0  502  0.53523752752E+03  0.19316673399E+03  0.45884753276E+03  0.73098130381E+03  0.10100000352E+00 0. -1.
</event>
<event>
 5   0  0.1994525E-05  0.1599788E+04  0.7818609E-02  0.8820678E-01
        2   -1    0    0  501    0  0.00000000000E+00  0.00000000000E+00  0.81920343803E+03  0.81920343804E+03  0.25500000920E-02 0.  1.
       -2   -1    0    0    0  501  0.00000000000E+00  0.00000000000E+00 -0.78104011668E+03  0.78104011668E+03  0.25500000920E-02 0. -1.
    10030    2    1    2    0    0  0.00000000000E+00  0.00000000000E+00  0.38163321353E+02  0.16002435547E+04  0.15997884220E+04 0.  0.
        5    1    3    3  502    0  0.22811381644E+02  0.70361791328E+03  0.39893978915E+03  0.80918080327E+03  0.46999998093E+01 0. -1.
       -5    1    3    3    0  502 -0.22811381644E+02 -0.70361791328E+03 -0.36077646779E+03  0.79106275145E+03  0.46999998093E+01 0.  1.
</event>
<event>
 5   0  0.1990948E-05  0.1595798E+04  0.7818609E-02  0.8823134E-01
       -2   -1    0    0    0  501  0.00000000000E+00  0.00000000000E+00  0.11961437874E+04  0.11961437874E+04  0.25500000920E-02 0. -1.
        2   -1    0    0  501    0  0.00000000000E+00  0.00000000000E+00 -0.53224575627E+03  0.53224575628E+03  0.25500000920E-02 0.  1.
    10030    2    1    2    0    0  0.00000000000E+00  0.00000000000E+00  0.66389803116E+03  0.17283895437E+04  0.15957975495E+04 0.  0.
        4    1    3    3  502    0  0.63953275616E+03 -0.47612137797E+03  0.29861647426E+03  0.85139128746E+03  0.12699999809E+01 0. -1.
       -4    1    3    3    0  502 -0.63953275616E+03  0.47612137797E+03  0.36528155690E+03  0.87699825625E+03  0.12699999809E+01 0.  1.
</event>
<event>
 5   0  0.2046108E-05  0.1600242E+04  0.7818609E-02  0.8820400E-01
       -2   -1    0    0    0  501  0.00000000000E+00  0.00000000000E+00  0.29214666644E+03  0.29214666645E+03  0.25500000920E-02 0.  1.
        2   -1    0    0  501    0  0.00000000000E+00  0.00000000000E+00 -0.21913424968E+04  0.21913424968E+04  0.25500000920E-02 0. -1.
    10030    2    1    2    0    0  0.00000000000E+00  0.00000000000E+00 -0.18991958304E+04  0.24834891633E+04  0.16002417386E+04 0.  0.
        1    1    3    3  502    0  0.43883837025E+03  0.41763270803E+03 -0.13842244991E+03  0.62141529486E+03  0.50400001928E-02 0.  1.
       -1    1    3    3    0  502 -0.43883837025E+03 -0.41763270803E+03 -0.17607733805E+04  0.18620738684E+04  0.50400001928E-02 0. -1.
</event>
<event>
 5   0  0.1126485E-05  0.1599830E+04  0.7818609E-02  0.8820653E-01
       -1   -1    0    0    0  501  0.00000000000E+00  0.00000000000E+00  0.45645028473E+03  0.45645028476E+03  0.50400001928E-02 0. -1.
        1   -1    0    0  501    0  0.00000000000E+00  0.00000000000E+00 -0.14018255326E+04  0.14018255326E+04  0.50400001928E-02 0.  1.
    10030    2    1    2    0    0  0.00000000000E+00  0.00000000000E+00 -0.94537524789E+03  0.18582758174E+04  0.15998295704E+04 0.  0.
        2    1    3    3  502    0 -0.72009593282E+03 -0.27648660274E+02 -0.69376696455E+02  0.72395837373E+03  0.25500000920E-02 0. -1.
       -2    1    3    3    0  502  0.72009593282E+03  0.27648660274E+02 -0.87599855144E+03  0.11343174437E+04  0.25500000920E-02 0.  1.
</event>
<event>
 5   0  0.1081831E-05  0.1599622E+04  0.7818609E-02  0.8820780E-01
       -1   -1    0    0    0  501  0.00000000000E+00  0.00000000000E+00  0.12098576333E+04  0.12098576333E+04  0.50400001928E-02 0. -1.
        1   -1    0    0  501    0  0.00000000000E+00  0.00000000000E+00 -0.52873799720E+03  0.52873799722E+03  0.50400001928E-02 0.  1.
    10030    2    1    2    0    0  0.00000000000E+00  0.00000000000E+00  0.68111963607E+03  0.17385956305E+04  0.15996220828E+04 0.  0.
        3    1    3    3  502    0 -0.19541261201E+03  0.32152821007E+03 -0.42654210349E+03  0.56877469622E+03  0.10100000352E+00 0.  1.
       -3    1    3    3    0  502  0.19541261201E+03 -0.32152821007E+03  0.11076617396E+04  0.11698209343E+04  0.10100000352E+00 0. -1.
</event>
<event>
 5   0  0.2125803E-05  0.1600564E+04  0.7818609E-02  0.8820201E-01
       -2   -1    0    0    0  501  0.00000000000E+00  0.00000000000E+00  0.35570272466E+03  0.35570272467E+03  0.25500000920E-02 0.  1.
        2   -1    0    0  501    0  0.00000000000E+00  0.00000000000E+00 -0.18005247697E+04  0.18005247697E+04  0.25500000920E-02 0. -1.
    10030    2    1    2    0    0  0.00000000000E+00  0.00000000000E+00 -0.14448220451E+04  0.21562274944E+04  0.16005643585E+04 0.  0.
        3    1    3    3  502    0  0.67253647037E+03  0.32848526587E+03 -0.34079476974E+03  0.82240437691E+03  0.10100000352E+00 0.  1.
       -3    1    3    3    0  502 -0.67253647037E+03 -0.32848526587E+03 -0.11040272753E+04  0.13338231175E+04  0.10100000352E+00 0. -1.
</event>
<event>
 5   0  0.2125803E-05  0.1599934E+04  0.7818609E-02  0.8820588E-01
        2   -1    0    0  501    0  0.00000000000E+00  0.00000000000E+00  0.16777348897E+04  0.16777348897E+04  0.25500000920E-02 0.  1.
       -2   -1    0    0    0  501  0.00000000000E+00  0.00000000000E+00 -0.38143542915E+03  0.38143542916E+03  0.25500000920E-02 0. -1.
    10030    2    1    2    0    0  0.00000000000E+00  0.00000000000E+00  0.12962994605E+04  0.20591703188E+04  0.15999344082E+04 0.  0.
        3    1    3    3  502    0  0.42484790730E+03 -0.65956688678E+03  0.44701261434E+03  0.90296429057E+03  0.10100000352E+00 0. -1.
       -3    1    3    3    0  502 -0.42484790730E+03  0.65956688678E+03  0.84928684619E+03  0.11562060283E+04  0.10100000352E+00 0.  1.
</event>
<event>
 5   0  0.1090674E-05  0.1599589E+04  0.7818609E-02  0.8820800E-01
        1   -1    0    0  501    0  0.00000000000E+00  0.00000000000E+00  0.45500182959E+03  0.45500182962E+03  0.50400001928E-02 0. -1.
       -1   -1    0    0    0  501  0.00000000000E+00  0.00000000000E+00 -0.14058658898E+04  0.14058658898E+04  0.50400001928E-02 0.  1.
    10030    2    1    2    0    0  0.00000000000E+00  0.00000000000E+00 -0.95086406020E+03  0.18608677194E+04  0.15995893874E+04 0.  0.
        4    1    3    3  502    0 -0.27685409536E+03  0.92860563178E+01 -0.13482753926E+04  0.13764383634E+04  0.12699999809E+01 0.  1.
       -4    1    3    3    0  502  0.27685409536E+03 -0.92860563178E+01  0.39741133241E+03  0.48442935604E+03  0.12699999809E+01 0. -1.
</event>
<event>
 5   0  0.1060251E-05  0.1599753E+04  0.7818609E-02  0.8820700E-01
        1   -1    0    0  501    0  0.00000000000E+00  0.00000000000E+00  0.78079194529E+03  0.78079194530E+03  0.50400001928E-02 0. -1.
       -1   -1    0    0    0  501  0.00000000000E+00  0.00000000000E+00 -0.81942753706E+03  0.81942753708E+03  0.50400001928E-02 0.  1.
    10030    2    1    2    0    0  0.00000000000E+00  0.00000000000E+00 -0.38635591774E+02  0.16002194824E+04  0.15997530068E+04 0.  0.
        1    1    3    3  502    0  0.30475965715E+03  0.59199733315E+03  0.42405306530E+03  0.78940502488E+03  0.50400001928E-02 0. -1.
       -1    1    3    3    0  502 -0.30475965715E+03 -0.59199733315E+03 -0.46268865707E+03  0.81081445750E+03  0.50400001928E-02 0.  1.
</event>
<event>
 5   0  0.1994525E-05  0.1600894E+04  0.7818609E-02  0.8819999E-01
        2   -1    0    0  501    0  0.00000000000E+00  0.00000000000E+00  0.33575412258E+03  0.33575412259E+03  0.25500000920E-02 0. -1.
       -2   -1    0    0    0  501  0.00000000000E+00  0.00000000000E+00 -0.19082877560E+04  0.19082877560E+04  0.25500000920E-02 0.  1.
    10030    2    1    2    0    0  0.00000000000E+00  0.00000000000E+00 -0.15725336334E+04  0.22440418786E+04  0.16008941016E+04 0.  0.
        5    1    3    3  502    0 -0.41577746638E+03 -0.54195399290E+03 -0.13711621609E+04  0.15318919001E+04  0.46999998093E+01 0.  1.
       -5    1    3    3    0  502  0.41577746638E+03  0.54195399290E+03 -0.20137147251E+03  0.71214997852E+03  0.46999998093E+01 0. -1.
</event>
<event>
 5   0  0.1090674E-05  0.1600103E+04  0.7818609E-02  0.8820485E-01
       -1   -1    0    0    0  501  0.00000000000E+00  0.00000000000E+00  0.70385537811E+03  0.70385537813E+03  0.50400001928E-02 0.  1.
        1   -1    0    0  501    0  0.00000000000E+00  0.00000000000E+00 -0.90939512623E+03  0.90939512624E+03  0.50400001928E-02 0. -1.
    10030    2    1    2    0    0  0.00000000000E+00  0.00000000000E+00 -0.20553974812E+03  0.16132505044E+04  0.16001033097E+04 0.  0.
        4    1    3    3  502    0  0.75200641585E+03 -0.98102744849E+02 -0.35970339020E+03  0.83936043500E+03  0.12699999809E+01 0. -1.
       -4    1    3    3    0  502 -0.75200641585E+03  0.98102744849E+02  0.15416364208E+03  0.77389006937E+03  0.12699999809E+01 0.  1.
</event>
<event>
 5   0  0.1060251E-05  0.1599706E+04  0.7818609E-02  0.8820729E-01
        1   -1    0    0  501    0  0.00000000000E+00  0.00000000000E+00  0.13348313423E+04  0.13348313423E+04  0.50400001928E-02 0.  1.
       -1   -1    0    0    0  501  0.00000000000E+00  0.00000000000E+00 -0.47928491799E+03  0.47928491802E+03  0.50400001928E-02 0. -1.
    10030    2    1    2    0    0  0.00000000000E+00  0.00000000000E+00  0.85554642428E+03  0.18141162603E+04  0.15997056360E+04 0.  0.
        1    1    3    3  502    0 -0.68205448743E+03 -0.34527728670E+03  0.16097490077E+03  0.78123469408E+03  0.50400001928E-02 0.  1.
       -1    1    3    3    0  502  0.68205448743E+03  0.34527728670E+03  0.69457152351E+03  0.10328815662E+04  0.50400001928E-02 0. -1.
</event>
<event>
 5   0  0.1990948E-05  0.1598708E+04  0.7818609E-02  0.8821342E-01
        2   -1    0    0  501    0  0.00000000000E+00  0.00000000000E+00  0.94887229756E+03  0.94887229757E+03  0.25500000920E-02 0. -1.
       -2   -1    0    0    0  501  0.00000000000E+00  0.00000000000E+00 -0.67339588595E+03  0.67339588596E+03  0.25500000920E-02 0.  1.
    10030    2    1    2    0    0  0.00000000000E+00  0.00000000000E+00  0.27547641161E+03  0.16222681835E+04  0.15987078551E+04 0.  0.
        4    1    3    3  502    0 -0.25395427952E+03 -0.37863074382E+03 -0.52852852898E+03  0.69799572713E+03  0.12699999809E+01 0.  1.
       -4    1    3    3    0  502  0.25395427952E+03  0.37863074382E+03  0.80400494059E+03  0.92427245639E+03  0.12699999809E+01 0. -1.
</event>
<event>
 5   0  0.1081831E-05  0.1600354E+04  0.7818609E-02  0.8820330E-01
        1   -1    0    0  501    0  0.00000000000E+00  0.00000000000E+00  0.94629123484E+03  0.94629123485E+03  0.50400001928E-02 0. -1.
       -1   -1    0    0    0  501  0.00000000000E+00  0.00000000000E+00 -0.67662407105E+03  0.67662407107E+03  0.50400001928E-02 0.  1.
    10030    2    1    2    0    0  0.00000000000E+00  0.00000000000E+00  0.26966716379E+03  0.16229153059E+04  0.16003542455E+04 0.  0.
        3    1    3    3  502    0 -0.18788295198E+03 -0.36735740970E+03 -0.56042029383E+03  0.69593274535E+03  0.10100000352E+00 0.  1.
       -3    1    3    3    0  502  0.18788295198E+03  0.36735740970E+03  0.83008745761E+03  0.92698256057E+03  0.10100000352E+00 0. -1.
</event>
<event>
 5   0  0.1060251E-05  0.1604316E+04  0.7818609E-02  0.8817901E-01
       -1   -1    0    0    0  501  0.00000000000E+00  0.00000000000E+00  0.13800537601E+04  0.13800537601E+04  0.50400001928E-02 0.  1.
        1   -1    0    0  501    0  0.00000000000E+00  0.00000000000E+00 -0.46625559174E+03  0.46625559177E+03  0.50400001928E-02 0. -1.
    10030    2    1    2    0    0  0.00000000000E+00  0.00000000000E+00  0.91379816833E+03  0.18463093519E+04  0.16043164059E+04 0.  0.
        1    1    3    3  502    0  0.41499081117E+02 -0.64468808781E+02  0.13758272789E+04  0.13779619380E+04  0.50400001928E-02 0.  1.
       -1    1    3    3    0  502 -0.41499081117E+02  0.64468808781E+02 -0.46202911059E+03  0.46834741389E+03  0.50400001928E-02 0. -1.
</event>
<event>
 5   0  0.1060251E-05  0.1599247E+04  0.7818609E-02  0.8821011E-01
       -1   -1    0    0    0  501  0.00000000000E+00  0.00000000000E+00  0.24197509271E+03  0.24197509276E+03  0.50400001928E-02 0. -1.
        1   -1    0    0  501    0  0.00000000000E+00  0.00000000000E+00 -0.26424125562E+04  0.26424125562E+04  0.50400001928E-02 0.  1.
    10030    2    1    2    0    0  0.00000000000E+00  0.00000000000E+00 -0.24004374635E+04  0.28843876489E+04  0.15992473522E+04 0.  0.
        1    1    3    3  502    0  0.28821458375E+03 -0.32103808319E+03 -0.24144853172E+04  0.24527275519E+04  0.50400001928E-02 0.  1.
       -1    1    3    3    0  502 -0.28821458375E+03  0.32103808319E+03  0.14047853697E+02  0.43166009702E+03  0.50400001928E-02 0. -1.
</event>
<event>
 5   0  0.1057506E-05  0.1599912E+04  0.7818609E-02  0.8820602E-01
        1   -1    0    0  501    0  0.00000000000E+00  0.00000000000E+00  0.17808340910E+04  0.17808340910E+04  0.50400001928E-02 0.  1.
       -1   -1    0    0    0  501  0.00000000000E+00  0.00000000000E+00 -0.35934276593E+03  0.35934276596E+03  0.50400001928E-02 0. -1.
    10030    2    1    2    0    0  0.00000000000E+00  0.00000000000E+00  0.14214913251E+04  0.21401768570E+04  0.15999123076E+04 0.  0.
        5    1    3    3  502    0 -0.87114335263E+02  0.61129974784E+03  0.13910357883E+04  0.15219326343E+04  0.46999998093E+01 0.  1.
       -5    1    3    3    0  502  0.87114335263E+02 -0.61129974784E+03  0.30455536784E+02  0.61824422265E+03  0.46999998093E+01 0. -1.
</event>
<event>
 5   0  0.1057506E-05  0.1599917E+04  0.7818609E-02  0.8820599E-01
       -1   -1    0    0    0  501  0.00000000000E+00  0.00000000000E+00  0.48723367741E+03  0.48723367743E+03  0.50400001928E-02 0.  1.
        1   -1    0    0  501    0  0.00000000000E+00  0.00000000000E+00 -0.13134021640E+04  0.13134021640E+04  0.50400001928E-02 0. -1.
    10030    2    1    2    0    0  0.00000000000E+00  0.00000000000E+00 -0.82616848658E+03  0.18006358414E+04  0.15999172057E+04 0.  0.
        5    1    3    3  502    0 -0.15119055200E+03 -0.78379033500E+03 -0.35432506709E+03  0.87335801102E+03  0.46999998093E+01 0. -1.
       -5    1    3    3    0  502  0.15119055200E+03  0.78379033500E+03 -0.47184341949E+03  0.92727783041E+03  0.46999998093E+01 0.  1.
</event>
<event>
 5   0  0.1126485E-05  0.1598591E+04  0.7818609E-02  0.8821414E-01
        1   -1    0    0  501    0  0.00000000000E+00  0.00000000000E+00  0.19017426127E+04  0.19017426127E+04  0.50400001928E-02 0. -1.
       -1   -1    0    0    0  501  0.00000000000E+00  0.00000000000E+00 -0.33594084442E+03  0.33594084446E+03  0.50400001928E-02 0.  1.
    10030    2    1    2    0    0  0.00000000000E+00  0.00000000000E+00  0.15658017683E+04  0.22376834572E+04  0.15985906533E+04 0.  0.
        2    1    3    3  502    0  0.79232389028E+03 -0.10519383450E+03  0.79058432835E+03  0.11242181595E+04  0.25500000920E-02 0.  1.
       -2    1    3    3    0  502 -0.79232389028E+03  0.10519383450E+03  0.77521743993E+03  0.11134652977E+04  0.25500000920E-02 0. -1.
</event>
<event>
 5   0  0.1126485E-05  0.1600085E+04  0.7818609E-02  0.8820496E-01
       -1   -1    0    0    0  501  0.00000000000E+00  0.00000000000E+00  0.10052080587E+04  0.10052080587E+04  0.50400001928E-02 0. -1.
        1   -1    0    0  501    0  0.00000000000E+00  0.00000000000E+00 -0.63675199682E+03  0.63675199684E+03  0.50400001928E-02 0.  1.
    10030    2    1    2    0    0  0.00000000000E+00  0.00000000000E+00  0.36845606184E+03  0.16419600555E+04  0.16000852960E+04 0.  0.
        2    1    3    3  502    0 -0.11980693236E+02 -0.22196469546E+03 -0.60442667930E+03  0.64400580253E+03  0.25500000920E-02 0.  1.
       -2    1    3    3    0  502  0.11980693236E+02  0.22196469546E+03  0.97288274114E+03  0.99795425299E+03  0.25500000920E-02 0. -1.
</event>
<event>
 5   0  0.1126485E-05  0.1601353E+04  0.7818609E-02  0.8819717E-01
        1   -1    0    0  501    0  0.00000000000E+00  0.00000000000E+00  0.16661310623E+04  0.16661310624E+04  0.50400001928E-02 0. -1.
       -1   -1    0    0    0  501  0.00000000000E+00  0.00000000000E+00 -0.38477324540E+03  0.38477324544E+03  0.50400001928E-02 0.  1.
    10030    2    1    2    0    0  0.00000000000E+00  0.00000000000E+00  0.12813578169E+04  0.20509043078E+04  0.16013527484E+04 0.  0.
        2    1    3    3  502    0  0.70410010207E+03 -0.37987787228E+03  0.68155222531E+03  0.10509888617E+04  0.25500000920E-02 0. -1.
       -2    1    3    3    0  502 -0.70410010207E+03  0.37987787228E+03  0.59980559163E+03  0.99991544609E+03  0.25500000920E-02 0.  1.
</event>
<event>
 5   0  0.1994525E-05  0.1600203E+04  0.7818609E-02  0.8820423E-01
       -2   -1    0    0    0  501  0.00000000000E+00  0.00000000000E+00  0.43892756351E+03  0.43892756352E+03  0.25500000920E-02 0. -1.
        2   -1    0    0  501    0  0.00000000000E+00  0.00000000000E+00 -0.14584688610E+04  0.14584688610E+04  0.25500000920E-02 0.  1.
    10030    2    1    2    0    0  0.00000000000E+00  0.00000000000E+00 -0.10195412975E+04  0.18973964245E+04  0.16002027167E+04 0.  0.
        5    1    3    3  502    0  0.79062037879E+03  0.77134101396E+02 -0.62294251181E+03  0.10095096413E+04  0.46999998093E+01 0. -1.
       -5    1    3    3    0  502 -0.79062037879E+03 -0.77134101396E+02 -0.39659878571E+03  0.88788678320E+03  0.46999998093E+01 0.  1.
</event>
<event>
 5   0  0.1060251E-05  0.1600364E+04  0.7818609E-02  0.8820324E-01
        1   -1    0    0  501    0  0.00000000000E+00  0.00000000000E+00  0.59051212008E+03  0.59051212010E+03  0.50400001928E-02 0.  1.
       -1   -1    0    0    0  501  0.00000000000E+00  0.00000000000E+00 -0.10842982487E+04  0.10842982487E+04  0.50400001928E-02 0. -1.
    10030    2    1    2    0    0  0.00000000000E+00  0.00000000000E+00 -0.49378612858E+03  0.16748103688E+04  0.16003640306E+04 0.  0.
        1    1    3    3  502    0  0.13544814332E+03  0.58155856355E+03 -0.80433942131E+03  0.10017576888E+04  0.50400001928E-02 0. -1.
       -1    1    3    3    0  502 -0.13544814332E+03 -0.58155856355E+03  0.31055329273E+03  0.67305267997E+03  0.50400001928E-02 0.  1.
</event>
<event>
 5   0  0.7597000E-06  0.1602313E+04  0.7818609E-02  0.8819128E-01
        3   -1    0    0  501    0  0.00000000000E+00  0.00000000000E+00  0.46097454510E+03  0.46097455617E+03  0.10100000352E+00 0.  1.
       -3   -1    0    0    0  501  0.00000000000E+00  0.00000000000E+00 -0.13923803529E+04  0.13923803566E+04  0.10100000352E+00 0. -1.
    10030    2    1    2    0    0  0.00000000000E+00  0.00000000000E+00 -0.93140580784E+03  0.18533549128E+04  0.16023132196E+04 0.  0.
        4    1    3    3  502    0 -0.43575544915E+03 -0.59897130568E+03 -0.11258385415E+03  0.74921704039E+03  0.12699999809E+01 0.  1.
       -4    1    3    3    0  502  0.43575544915E+03  0.59897130568E+03 -0.81882195370E+03  0.11041378724E+04  0.12699999809E+01 0. -1.
</event>
<event>
 5   0  0.1994525E-05  0.1598171E+04  0.7818609E-02  0.8821673E-01
        2   -1    0    0  501    0  0.00000000000E+00  0.00000000000E+00  0.11840578787E+04  0.11840578787E+04  0.25500000920E-02 0. -1.
       -2   -1    0    0    0  501  0.00000000000E+00  0.00000000000E+00 -0.53927881704E+03  0.53927881705E+03  0.25500000920E-02 0.  1.
    10030    2    1    2    0    0  0.00000000000E+00  0.00000000000E+00  0.64477906167E+03  0.17233366958E+04  0.15981706194E+04 0.  0.
        5    1    3    3  502    0 -0.14738658723E+03 -0.40798988768E+02 -0.52333650096E+03  0.54524356650E+03  0.46999998093E+01 0.  1.
       -5    1    3    3    0  502  0.14738658723E+03  0.40798988768E+02  0.11681155626E+04  0.11780931293E+04  0.46999998093E+01 0. -1.
</event>
<event>
 5   0  0.1090674E-05  0.1601389E+04  0.7818609E-02  0.8819695E-01
        1   -1    0    0  501    0  0.00000000000E+00  0.00000000000E+00  0.94353840245E+03  0.94353840247E+03  0.50400001928E-02 0. -1.
       -1   -1    0    0    0  501  0.00000000000E+00  0.00000000000E+00 -0.67947592920E+03  0.67947592922E+03  0.50400001928E-02 0.  1.
    10030    2    1    2    0    0  0.00000000000E+00  0.00000000000E+00  0.26406247326E+03  0.16230143317E+04  0.16013889381E+04 0.  0.
        4    1    3    3  502    0  0.29163509917E+03 -0.74568529141E+03  0.12845729036E+03  0.81092568910E+03  0.12699999809E+01 0.  1.
       -4    1    3    3    0  502 -0.29163509917E+03  0.74568529141E+03  0.13560518290E+03  0.81208864259E+03  0.12699999809E+01 0. -1.
</event>
<event>
 5   0  0.1990948E-05  0.1599253E+04  0.7818609E-02  0.8821007E-01
        2   -1    0    0  501    0  0.00000000000E+00  0.00000000000E+00  0.17143853038E+04  0.17143853038E+04  0.25500000920E-02 0.  1.
       -2   -1    0    0    0  501  0.00000000000E+00  0.00000000000E+00 -0.37296334667E+03  0.37296334668E+03  0.25500000920E-02 0. -1.
    10030    2    1    2    0    0  0.00000000000E+00  0.00000000000E+00  0.13414219571E+04  0.20873486505E+04  0.15992534263E+04 0.  0.
        4    1    3    3  502    0 -0.68711951719E+03 -0.39819808453E+03  0.54892562258E+03  0.96540970446E+03  0.12699999809E+01 0. -1.
       -4    1    3    3    0  502  0.68711951719E+03  0.39819808453E+03  0.79249633453E+03  0.11219389460E+04  0.12699999809E+01 0.  1.
</event>
<event>
 5   0  0.2046108E-05  0.1600448E+04  0.7818609E-02  0.8820273E-01
       -2   -1    0    0    0  501  0.00000000000E+00  0.00000000000E+00  0.33803940854E+03  0.33803940855E+03  0.25500000920E-02 0. -1.
        2   -1    0    0  501    0  0.00000000000E+00  0.00000000000E+00 -0.18943302779E+04  0.18943302779E+04  0.25500000920E-02 0.  1.
    10030    2    1    2    0    0  0.00000000000E+00  0.00000000000E+00 -0.15562908694E+04  0.22323696865E+04  0.16004477958E+04 0.  0.
        1    1    3    3  502    0 -0.74922355345E+03 -0.27279862407E+03 -0.68350917591E+03  0.10502094153E+04  0.50400001928E-02 0. -1.
       -1    1    3    3    0  502  0.74922355345E+03  0.27279862407E+03 -0.87278169346E+03  0.11821602712E+04  0.50400001928E-02 0.  1.
</event>
<event>
 5   0  0.1081831E-05  0.1599965E+04  0.7818609E-02  0.8820570E-01
        1   -1    0    0  501    0  0.00000000000E+00  0.00000000000E+00  0.21338772026E+04  0.21338772026E+04  0.50400001928E-02 0.  1.
       -1   -1    0    0    0  501  0.00000000000E+00  0.00000000000E+00 -0.29991038388E+03  0.29991038392E+03  0.50400001928E-02 0. -1.
    10030    2    1    2    0    0  0.00000000000E+00  0.00000000000E+00  0.18339668188E+04  0.24337875866E+04  0.15999649134E+04 0.  0.
        3    1    3    3  502    0  0.64794629627E+03  0.46098720363E+03  0.78412576349E+03  0.11167796685E+04  0.10100000352E+00 0. -1.
       -3    1    3    3    0  502 -0.64794629627E+03 -0.46098720363E+03  0.10498410553E+04  0.13170079181E+04  0.10100000352E+00 0.  1.
</event>
<event>
 5   0  0.2125803E-05  0.1607056E+04  0.7818609E-02  0.8816225E-01
       -2   -1    0    0    0  501  0.00000000000E+00  0.00000000000E+00  0.92601526367E+03  0.92601526367E+03  0.25500000920E-02 0.  1.
        2   -1    0    0  501    0  0.00000000000E+00  0.00000000000E+00 -0.69724216096E+03  0.69724216096E+03  0.25500000920E-02 0. -1.
    10030    2    1    2    0    0  0.00000000000E+00  0.00000000000E+00  0.22877310271E+03  0.16232574246E+04  0.16070555479E+04 0.  0.
        3    1    3    3  502    0 -0.62272904170E+03  0.66010134010E+02 -0.39418540573E+03  0.73995333735E+03  0.10100000352E+00 0. -1.
       -3    1    3    3    0  502  0.62272904170E+03 -0.66010134010E+02  0.62295850844E+03  0.88330408728E+03  0.10100000352E+00 0.  1.
</event>
<event>
 5   0  0.1090674E-05  0.1599272E+04  0.7818609E-02  0.8820995E-01
        1   -1    0    0  501    0  0.00000000000E+00  0.00000000000E+00  0.57318640073E+03  0.57318640076E+03  0.50400001928E-02 0.  1.
       -1   -1    0    0    0  501  0.00000000000E+00  0.00000000000E+00 -0.11155499510E+04  0.11155499511E+04  0.50400001928E-02 0. -1.
    10030    2    1    2    0    0  0.00000000000E+00  0.00000000000E+00 -0.54236355031E+03  0.16887363518E+04  0.15992724112E+04 0.  0.
        4    1    3    3  502    0 -0.19710941133E+03  0.74008522202E+03 -0.51390614553E+03  0.92232282592E+03  0.12699999809E+01 0. -1.
       -4    1    3    3    0  502  0.19710941133E+03 -0.74008522202E+03 -0.28457404772E+02  0.76641352589E+03  0.12699999809E+01 0.  1.
</event>
<event>
 5   0  0.2147844E-05  0.1600267E+04  0.7818609E-02  0.8820384E-01
       -2   -1    0    0    0  501  0.00000000000E+00  0.00000000000E+00  0.23372070512E+04  0.23372070512E+04  0.25500000920E-02 0. -1.
        2   -1    0    0  501    0  0.00000000000E+00  0.00000000000E+00 -0.27392255785E+03  0.27392255786E+03  0.25500000920E-02 0.  1.
    10030    2    1    2    0    0  0.00000000000E+00  0.00000000000E+00  0.20632844933E+04  0.26111296090E+04  0.16002671448E+04 0.  0.
        2    1    3    3  502    0 -0.47201816379E+03 -0.64351911937E+03  0.93796982727E+03  0.12315459394E+04  0.25500000920E-02 0.  1.
       -2    1    3    3    0  502  0.47201816379E+03  0.64351911937E+03  0.11253146660E+04  0.13795836697E+04  0.25500000920E-02 0. -1.
</event>
<event>
 5   0  0.1090674E-05  0.1599992E+04  0.7818609E-02  0.8820553E-01
       -1   -1    0    0    0  501  0.00000000000E+00  0.00000000000E+00  0.59025445738E+03  0.59025445741E+03  0.50400001928E-02 0.  1.
        1   -1    0    0  501    0  0.00000000000E+00  0.00000000000E+00 -0.10842667967E+04  0.10842667967E+04  0.50400001928E-02 0. -1.
    10030    2    1    2    0    0  0.00000000000E+00  0.00000000000E+00 -0.49401233934E+03  0.16745212541E+04  0.15999916372E+04 0.  0.
        4    1    3    3  502    0 -0.30370491288E+03  0.25773397042E+03 -0.97310145275E+03  0.10514711237E+04  0.12699999809E+01 0. -1.
       -4    1    3    3    0  502  0.30370491288E+03 -0.25773397042E+03  0.47908911341E+03  0.62305013049E+03  0.12699999809E+01 0.  1.
</event>
<event>
 5   0  0.1090674E-05  0.1601406E+04  0.7818609E-02  0.8819685E-01
       -1   -1    0    0    0  501  0.00000000000E+00  0.00000000000E+00  0.32333438543E+03  0.32333438547E+03  0.50400001928E-02 0. -1.
        1   -1    0    0  501    0  0.00000000000E+00  0.00000000000E+00 -0.19828540633E+04  0.19828540633E+04  0.50400001928E-02 0.  1.
    10030    2    1    2    0    0  0.00000000000E+00  0.00000000000E+00 -0.16595196779E+04  0.23061884488E+04  0.16014055077E+04 0.  0.
        4    1    3    3  502    0 -0.41775737676E+03  0.25068688285E+03  0.85309754466E+02  0.49461551348E+03  0.12699999809E+01 0. -1.
       -4    1    3    3    0  502  0.41775737676E+03 -0.25068688285E+03 -0.17448294324E+04  0.18115729353E+04  0.12699999809E+01 0.  1.
</event>
<event>
 5   0  0.1126485E-05  0.1599885E+04  0.7818609E-02  0.8820619E-01
       -1   -1    0    0    0  501  0.00000000000E+00  0.00000000000E+00  0.37862294166E+03  0.37862294170E+03  0.50400001928E-02 0. -1.
        1   -1    0    0  501    0  0.00000000000E+00  0.00000000000E+00 -0.16900934805E+04  0.16900934805E+04  0.50400001928E-02 0.  1.
    10030    2    1    2    0    0  0.00000000000E+00  0.00000000000E+00 -0.13114705388E+04  0.20687164222E+04  0.15998852025E+04 0.  0.
        2    1    3    3  502    0  0.34624961661E+03 -0.18017782411E+03  0.24713237614E+03  0.46198187913E+03  0.25500000920E-02 0. -1.
       -2    1    3    3    0  502 -0.34624961661E+03  0.18017782411E+03 -0.15586029149E+04  0.16067345430E+04  0.25500000920E-02 0.  1.
</event>
<event>
 5   0  0.2147844E-05  0.1599676E+04  0.7818609E-02  0.8820747E-01
       -2   -1    0    0    0  501  0.00000000000E+00  0.00000000000E+00  0.12533007945E+04  0.12533007945E+04  0.25500000920E-02 0. -1.
        2   -1    0    0  501    0  0.00000000000E+00  0.00000000000E+00 -0.51044486956E+03  0.51044486957E+03  0.25500000920E-02 0.  1.
    10030    2    1    2    0    0  0.00000000000E+00  0.00000000000E+00  0.74285592495E+03  0.17637456641E+04  0.15996761680E+04 0.  0.
        2    1    3    3  502    0 -0.36420930500E+03  0.62624377277E+03 -0.23254918033E+01  0.72445502876E+03  0.25500000920E-02 0.  1.
       -2    1    3    3    0  502  0.36420930500E+03 -0.62624377277E+03  0.74518141676E+03  0.10392906353E+04  0.25500000920E-02 0. -1.
</event>
<event>
 5   0  0.2046108E-05  0.1599101E+04  0.7818609E-02  0.8821101E-01
        2   -1    0    0  501    0  0.00000000000E+00  0.00000000000E+00  0.53524168753E+03  0.53524168753E+03  0.25500000920E-02 0.  1.
       -2   -1    0    0    0  501  0.00000000000E+00  0.00000000000E+00 -0.11943779102E+04  0.11943779102E+04  0.25500000920E-02 0. -1.
    10030    2    1    2    0    0  0.00000000000E+00  0.00000000000E+00 -0.65913622265E+03  0.17296195977E+04  0.15991008076E+04 0.  0.
        1    1    3    3  502    0 -0.22834801783E+03 -0.55818741010E+03 -0.89735670241E+03  0.10811868726E+04  0.50400001928E-02 0. -1.
       -1    1    3    3    0  502  0.22834801783E+03  0.55818741010E+03  0.23822047976E+03  0.64843272515E+03  0.50400001928E-02 0.  1.
</event>
<event>
 5   0  0.7597000E-06  0.1600111E+04  0.7818609E-02  0.8820480E-01
       -4   -1    0    0    0  501  0.00000000000E+00  0.00000000000E+00  0.78305025757E+03  0.78305128745E+03  0.12699999809E+01 0. -1.
        4   -1    0    0  501    0  0.00000000000E+00  0.00000000000E+00 -0.81742750758E+03  0.81742849415E+03  0.12699999809E+01 0.  1.
    10030    2    1    2    0    0  0.00000000000E+00  0.00000000000E+00 -0.34377250006E+02  0.16004797816E+04  0.16001105387E+04 0.  0.
        4    1    3    3  502    0 -0.70040349543E+03 -0.35203711001E+03 -0.17719940688E+03  0.80367681685E+03  0.12699999809E+01 0.  1.
       -4    1    3    3    0  502  0.70040349543E+03  0.35203711001E+03  0.14282215687E+03  0.79680296475E+03  0.12699999809E+01 0. -1.
</event>
<event>
 5   0  0.2046108E-05  0.1600422E+04  0.7818609E-02  0.8820289E-01
        2   -1    0    0  501    0  0.00000000000E+00  0.00000000000E+00  0.19313451753E+04  0.19313451753E+04  0.25500000920E-02 0. -1.
       -2   -1    0    0    0  501  0.00000000000E+00  0.00000000000E+00 -0.33155013644E+03  0.33155013645E+03  0.25500000920E-02 0.  1.
    10030    2    1    2    0    0  0.00000000000E+00  0.00000000000E+00  0.15997950389E+04  0.22628953118E+04  0.16004221398E+04 0.  0.
        1    1    3    3  502    0  0.47264758007E+03 -0.52523532379E+03  0.13309617544E+04  0.15068931854E+04  0.50400001928E-02 0. -1.
       -1    1    3    3    0  502 -0.47264758007E+03  0.52523532379E+03  0.26883328447E+03  0.75600212643E+03  0.50400001928E-02 0.  1.
</event>
<event>
 5   0  0.1060251E-05  0.1600622E+04  0.7818609E-02  0.8820166E-01
        1   -1    0    0  501    0  0.00000000000E+00  0.00000000000E+00  0.16465292830E+04  0.16465292830E+04  0.50400001928E-02 0.  1.
       -1   -1    0    0    0  501  0.00000000000E+00  0.00000000000E+00 -0.38899871781E+03  0.38899871784E+03  0.50400001928E-02 0. -1.
    10030    2    1    2    0    0  0.00000000000E+00  0.00000000000E+00  0.12575305652E+04  0.20355280009E+04  0.16006221040E+04 0.  0.
        1    1    3    3  502    0  0.39774557734E+03  0.15362893224E+02  0.15117209875E+04  0.15632459521E+04  0.50400001928E-02 0.  1.
       -1    1    3    3    0  502 -0.39774557734E+03 -0.15362893224E+02 -0.25419042227E+03  0.47228204876E+03  0.50400001928E-02 0. -1.
</event>
<event>
 5   0  0.1994525E-05  0.1600342E+04  0.7818609E-02  0.8820338E-01
       -2   -1    0    0    0  501  0.00000000000E+00  0.00000000000E+00  0.41609442794E+03  0.41609442794E+03  0.25500000920E-02 0. -1.
        2   -1    0    0  501    0  0.00000000000E+00  0.00000000000E+00 -0.15387695519E+04  0.15387695519E+04  0.25500000920E-02 0.  1.
    10030    2    1    2    0    0  0.00000000000E+00  0.00000000000E+00 -0.11226751240E+04  0.19548639799E+04  0.16003417590E+04 0.  0.
        5    1    3    3  502    0  0.69942034836E+03 -0.22676028084E+03 -0.94692748324E+03  0.11988756388E+04  0.46999998093E+01 0.  1.
       -5    1    3    3    0  502 -0.69942034836E+03  0.22676028084E+03 -0.17574764073E+03  0.75598834111E+03  0.46999998093E+01 0. -1.
</event>
<event>
 5   0  0.7597000E-06  0.1597743E+04  0.7818609E-02  0.8821936E-01
       -3   -1    0    0    0  501  0.00000000000E+00  0.00000000000E+00  0.39721061726E+03  0.39721063010E+03  0.10100000352E+00 0.  1.
        3   -1    0    0  501    0  0.00000000000E+00  0.00000000000E+00 -0.16066935246E+04  0.16066935277E+04  0.10100000352E+00 0. -1.
    10030    2    1    2    0    0  0.00000000000E+00  0.00000000000E+00 -0.12094829073E+04  0.20039041578E+04  0.15977430866E+04 0.  0.
        3    1    3    3  502    0 -0.25284066986E+03 -0.75180991608E+03 -0.48543207869E+03  0.92994132475E+03  0.10100000352E+00 0. -1.
       -3    1    3    3    0  502  0.25284066986E+03  0.75180991608E+03 -0.72405082860E+03  0.10739628331E+04  0.10100000352E+00 0.  1.
</event>
<event>
 5   0  0.1990948E-05  0.1600365E+04  0.7818609E-02  0.8820324E-01
        2   -1    0    0  501    0  0.00000000000E+00  0.00000000000E+00  0.20338742580E+04  0.20338742580E+04  0.25500000920E-02 0.  1.
       -2   -1    0    0    0  501  0.00000000000E+00  0.00000000000E+00 -0.31481402749E+03  0.31481402750E+03  0.25500000920E-02 0. -1.
    10030    2    1    2    0    0  0.00000000000E+00  0.00000000000E+00  0.17190602305E+04  0.23486882855E+04  0.16003651416E+04 0.  0.
        4    1    3    3  502    0  0.10732990724E+03  0.29262346093E+03 -0.22206103687E+03  0.38270212420E+03  0.12699999809E+01 0. -1.
       -4    1    3    3    0  502 -0.10732990724E+03 -0.29262346093E+03  0.19411212674E+04  0.19659861613E+04  0.12699999809E+01 0.  1.
</event>
<event>
 5   0  0.1990948E-05  0.1599338E+04  0.7818609E-02  0.8820955E-01
       -2   -1    0    0    0  501  0.00000000000E+00  0.00000000000E+00  0.71499145958E+03  0.71499145958E+03  0.25500000920E-02 0.  1.
        2   -1    0    0  501    0  0.00000000000E+00  0.00000000000E+00 -0.89437549051E+03  0.89437549051E+03  0.25500000920E-02 0. -1.
    10030    2    1    2    0    0  0.00000000000E+00  0.00000000000E+00 -0.17938403093E+03  0.16093669501E+04  0.15993384099E+04 0.  0.
        4    1    3    3  502    0 -0.47634368417E+03 -0.15561481425E+03  0.53739287553E+03  0.73478703814E+03  0.12699999809E+01 0.  1.
       -4    1    3    3    0  502  0.47634368417E+03  0.15561481425E+03 -0.71677690646E+03  0.87457991195E+03  0.12699999809E+01 0. -1.
</event>
<event>
 5   0  0.1126485E-05  0.1599442E+04  0.7818609E-02  0.8820891E-01
        1   -1    0    0  501    0  0.00000000000E+00  0.00000000000E+00  0.12424152333E+04  0.12424152333E+04  0.50400001928E-02 0.  1.
       -1   -1    0    0    0  501  0.00000000000E+00  0.00000000000E+00 -0.51476648653E+03  0.51476648655E+03  0.50400001928E-02 0. -1.
    10030    2    1    2    0    0  0.00000000000E+00  0.00000000000E+00  0.72764874680E+03  0.17571817199E+04  0.15994420583E+04 0.  0.
        2    1    3    3  502    0 -0.65796580113E+03 -0.45185363754E+03  0.30930108137E+03  0.85601277103E+03  0.25500000920E-02 0.  1.
       -2    1    3    3    0  502  0.65796580113E+03  0.45185363754E+03  0.41834766543E+03  0.90116894886E+03  0.25500000920E-02 0. -1.
</event>
<event>
 5   0  0.1081831E-05  0.1600644E+04  0.7818609E-02  0.8820153E-01
       -1   -1    0    0    0  501  0.00000000000E+00  0.00000000000E+00  0.64356752897E+03  0.64356752899E+03  0.50400001928E-02 0.  1.
        1   -1    0    0  501    0  0.00000000000E+00  0.00000000000E+00 -0.99525686790E+03  0.99525686791E+03  0.50400001928E-02 0. -1.
    10030    2    1    2    0    0  0.00000000000E+00  0.00000000000E+00 -0.35168933893E+03  0.16388243969E+04  0.16006436245E+04 0.  0.
        3    1    3    3  502    0  0.36834503346E+03  0.38602568875E+03  0.43489146864E+03  0.68834910891E+03  0.10100000352E+00 0.  1.
       -3    1    3    3    0  502 -0.36834503346E+03 -0.38602568875E+03 -0.78658080757E+03  0.95047528799E+03  0.10100000352E+00 0. -1.
</event>
<event>
 5   0  0.1057506E-05  0.1600356E+04  0.7818609E-02  0.8820329E-01
        1   -1    0    0  501    0  0.00000000000E+00  0.00000000000E+00  0.48461372887E+03  0.48461372890E+03  0.50400001928E-02 0.  1.
       -1   -1    0    0    0  501  0.00000000000E+00  0.00000000000E+00 -0.13212268946E+04  0.13212268946E+04  0.50400001928E-02 0. -1.
    10030    2    1    2    0    0  0.00000000000E+00  0.00000000000E+00 -0.83661316574E+03  0.18058406235E+04  0.16003558256E+04 0.  0.
        5    1    3    3  502    0 -0.51662984396E+03  0.37986049824E+03  0.12175039908E+03  0.65272171978E+03  0.46999998093E+01 0.  1.
       -5    1    3    3    0  502  0.51662984396E+03 -0.37986049824E+03 -0.95836356483E+03  0.11531189037E+04  0.46999998093E+01 0. -1.
</event>
<event>
 5   0  0.1990948E-05  0.1599742E+04  0.7818609E-02  0.8820707E-01
        2   -1    0    0  501    0  0.00000000000E+00  0.00000000000E+00  0.45061993685E+03  0.45061993685E+03  0.25500000920E-02 0. -1.
       -2   -1    0    0    0  501  0.00000000000E+00  0.00000000000E+00 -0.14198075825E+04  0.14198075825E+04  0.25500000920E-02 0.  1.
    10030    2    1    2    0    0  0.00000000000E+00  0.00000000000E+00 -0.96918764563E+03  0.18704275193E+04  0.15997419831E+04 0.  0.
        4    1    3    3  502    0 -0.54206060411E+03 -0.19001439394E+03 -0.11354296803E+04  0.12724532762E+04  0.12699999809E+01 0.  1.
       -4    1    3    3    0  502  0.54206060411E+03  0.19001439394E+03  0.16624203464E+03  0.59797424310E+03  0.12699999809E+01 0. -1.
</event>
<event>
 5   0  0.1994525E-05  0.1600128E+04  0.7818609E-02  0.8820469E-01
       -2   -1    0    0    0  501  0.00000000000E+00  0.00000000000E+00  0.36008060144E+03  0.36008060145E+03  0.25500000920E-02 0. -1.
        2   -1    0    0  501    0  0.00000000000E+00  0.00000000000E+00 -0.17776651851E+04  0.17776651851E+04  0.25500000920E-02 0.  1.
    10030    2    1    2    0    0  0.00000000000E+00  0.00000000000E+00 -0.14175845837E+04  0.21377457866E+04  0.16001284311E+04 0.  0.
        5    1    3    3  502    0 -0.26681439211E+03  0.50200626889E+03 -0.14608461387E+04  0.15675757541E+04  0.46999998093E+01 0.  1.
       -5    1    3    3    0  502  0.26681439211E+03 -0.50200626889E+03  0.43261554996E+02  0.57017003252E+03  0.46999998093E+01 0. -1.
</event>
<event>
 5   0  0.2046108E-05  0.1599484E+04  0.7818609E-02  0.8820865E-01
       -2   -1    0    0    0  501  0.00000000000E+00  0.00000000000E+00  0.30677473583E+03  0.30677473584E+03  0.25500000920E-02 0.  1.
        2   -1    0    0  501    0  0.00000000000E+00  0.00000000000E+00 -0.20848769514E+04  0.20848769514E+04  0.25500000920E-02 0. -1.
    10030    2    1    2    0    0  0.00000000000E+00  0.00000000000E+00 -0.17781022156E+04  0.23916516873E+04  0.15994843869E+04 0.  0.
        1    1    3    3  502    0 -0.51265557723E+03 -0.60439693104E+03 -0.10492342076E+04  0.13149158960E+04  0.50400001928E-02 0. -1.
       -1    1    3    3    0  502  0.51265557723E+03  0.60439693104E+03 -0.72886800803E+03  0.10767357913E+04  0.50400001928E-02 0.  1.
</event>
<event>
 5   0  0.2046108E-05  0.1600575E+04  0.7818609E-02  0.8820195E-01
        2   -1    0    0  501    0  0.00000000000E+00  0.00000000000E+00  0.41835092024E+03  0.41835092025E+03  0.25500000920E-02 0. -1.
       -2   -1    0    0    0  501  0.00000000000E+00  0.00000000000E+00 -0.15309159336E+04  0.15309159336E+04  0.25500000920E-02 0.  1.
    10030    2    1    2    0    0  0.00000000000E+00  0.00000000000E+00 -0.11125650134E+04  0.19492668539E+04  0.16005750087E+04 0.  0.
        1    1    3    3  502    0  0.31432148082E+03 -0.10938149787E+03  0.33007585175E+03  0.46873486463E+03  0.50400001928E-02 0. -1.
       -1    1    3    3    0  502 -0.31432148082E+03  0.10938149787E+03 -0.14426408651E+04  0.14805319892E+04  0.50400001928E-02 0.  1.
</event>
<event>
 5   0  0.1057506E-05  0.1599603E+04  0.7818609E-02  0.8820792E-01
        1   -1    0    0  501    0  0.00000000000E+00  0.00000000000E+00  0.78913752129E+03  0.78913752130E+03  0.50400001928E-02 0.  1.
       -1   -1    0    0    0  501  0.00000000000E+00  0.00000000000E+00 -0.81060974237E+03  0.81060974239E+03  0.50400001928E-02 0. -1.
    10030    2    1    2    0    0  0.00000000000E+00  0.00000000000E+00 -0.21472221088E+02  0.15997472637E+04  0.15996031544E+04 0.  0.
        5    1    3    3  502    0 -0.26245952497E+03  0.15747718167E+03 -0.74970484267E+03  0.80979226109E+03  0.46999998093E+01 0. -1.
       -5    1    3    3    0  502  0.26245952497E+03 -0.15747718167E+03  0.72823262158E+03  0.78995500260E+03  0.46999998093E+01 0.  1.
</event>
<event>
 5   0  0.7597000E-06  0.1600123E+04  0.7818609E-02  0.8820472E-01
        3   -1    0    0  501    0  0.00000000000E+00  0.00000000000E+00  0.79021659828E+03  0.79021660474E+03  0.10100000352E+00 0.  1.
       -3   -1    0    0    0  501  0.00000000000E+00  0.00000000000E+00 -0.81002930039E+03  0.81002930668E+03  0.10100000352E+00 0. -1.
    10030    2    1    2    0    0  0.00000000000E+00  0.00000000000E+00 -0.19812702105E+02  0.16002459114E+04  0.16001232558E+04 0.  0.
        2    1    3    3  502    0 -0.20156222420E+03 -0.53608448376E+03  0.54878189056E+03  0.79320581652E+03  0.25500000920E-02 0.  1.
       -2    1    3    3    0  502  0.20156222420E+03  0.53608448376E+03 -0.56859459267E+03  0.80704009490E+03  0.25500000920E-02 0. -1.
</event>
<event>
 5   0  0.1990948E-05  0.1598653E+04  0.7818609E-02  0.8821376E-01
        2   -1    0    0  501    0  0.00000000000E+00  0.00000000000E+00  0.16621839714E+04  0.16621839714E+04  0.25500000920E-02 0.  1.
       -2   -1    0    0    0  501  0.00000000000E+00  0.00000000000E+00 -0.38438773316E+03  0.38438773316E+03  0.25500000920E-02 0. -1.
    10030    2    1    2    0    0  0.00000000000E+00  0.00000000000E+00  0.12777962383E+04  0.20465717046E+04  0.15986533444E+04 0.  0.
        4    1    3    3  502    0  0.28405966025E+03 -0.75196949473E-02 -0.31759066811E+03  0.42609310721E+03  0.12699999809E+01 0. -1.
       -4    1    3    3    0  502 -0.28405966025E+03  0.75196949473E-02  0.15953869064E+04  0.16204785974E+04  0.12699999809E+01 0.  1.
</event>
<event>
 5   0  0.1090674E-05  0.1597843E+04  0.7818609E-02  0.8821874E-01
       -1   -1    0    0    0  501  0.00000000000E+00  0.00000000000E+00  0.58324069083E+03  0.58324069085E+03  0.50400001928E-02 0. -1.
        1   -1    0    0  501    0  0.00000000000E+00  0.00000000000E+00 -0.10943610853E+04  0.10943610853E+04  0.50400001928E-02 0.  1.
    10030    2    1    2    0    0  0.00000000000E+00  0.00000000000E+00 -0.51112039450E+03  0.16776017762E+04  0.15978434410E+04 0.  0.
        4    1    3    3  502    0  0.39561662501E+03  0.69795268311E+02 -0.98060350310E+03  0.10597021924E+04  0.12699999809E+01 0.  1.
       -4    1    3    3    0  502 -0.39561662501E+03 -0.69795268311E+02  0.46948310859E+03  0.61789958376E+03  0.12699999809E+01 0. -1.
</event>
<event>
 5   0  0.1990948E-05  0.1599740E+04  0.7818609E-02  0.8820708E-01
       -2   -1    0    0    0  501  0.00000000000E+00  0.00000000000E+00  0.34673397509E+03  0.34673397510E+03  0.25500000920E-02 0. -1.
        2   -1    0    0  501    0  0.00000000000E+00  0.00000000000E+00 -0.18451957520E+04  0.18451957520E+04  0.25500000920E-02 0.  1.
    10030    2    1    2    0    0  0.00000000000E+00  0.00000000000E+00 -0.14984617769E+04  0.21919297271E+04  0.15997400513E+04 0.  0.
        4    1    3    3  502    0  0.13399667747E+03 -0.67199932245E+03 -0.13145890079E+04  0.14824587926E+04  0.12699999809E+01 0.  1.
       -4    1    3    3    0  502 -0.13399667747E+03  0.67199932245E+03 -0.18387276901E+03  0.70947093459E+03  0.12699999809E+01 0. -1.
</event>
<event>
 5   0  0.1081831E-05  0.1601351E+04  0.7818609E-02  0.8819719E-01
        1   -1    0    0  501    0  0.00000000000E+00  0.00000000000E+00  0.81421033795E+03  0.81421033796E+03  0.50400001928E-02 0. -1.
       -1   -1    0    0    0  501  0.00000000000E+00  0.00000000000E+00 -0.78736522127E+03  0.78736522129E+03  0.50400001928E-02 0.  1.
    10030    2    1    2    0    0  0.00000000000E+00  0.00000000000E+00  0.26845116676E+02  0.16015755593E+04  0.16013505587E+04 0.  0.
        3    1    3    3  502    0 -0.63551257735E+03 -0.43631906105E+03 -0.20301102179E+03  0.79715998656E+03  0.10100000352E+00 0.  1.
       -3    1    3    3    0  502  0.63551257735E+03  0.43631906105E+03  0.22985613846E+03  0.80441557269E+03  0.10100000352E+00 0. -1.
</event>
<event>
 5   0  0.1090674E-05  0.1600156E+04  0.7818609E-02  0.8820452E-01
       -1   -1    0    0    0  501  0.00000000000E+00  0.00000000000E+00  0.98324871000E+03  0.98324871001E+03  0.50400001928E-02 0.  1.
        1   -1    0    0  501    0  0.00000000000E+00  0.00000000000E+00 -0.65103008269E+03  0.65103008271E+03  0.50400001928E-02 0. -1.
    10030    2    1    2    0    0  0.00000000000E+00  0.00000000000E+00  0.33221862731E+03  0.16342787927E+04  0.16001556037E+04 0.  0.
        4    1    3    3  502    0  0.20683389669E+03  0.20037310716E+03 -0.59626252440E+03  0.66216331354E+03  0.12699999809E+01 0. -1.
       -4    1    3    3    0  502 -0.20683389669E+03 -0.20037310716E+03  0.92848115171E+03  0.97211547918E+03  0.12699999809E+01 0.  1.
</event>
<event>
 5   0  0.1126485E-05  0.1599953E+04  0.7818609E-02  0.8820577E-01
       -1   -1    0    0    0  501  0.00000000000E+00  0.00000000000E+00  0.80727274268E+03  0.80727274269E+03  0.50400001928E-02 0. -1.
        1   -1    0    0  501    0  0.00000000000E+00  0.00000000000E+00 -0.79274659949E+03  0.79274659950E+03  0.50400001928E-02 0.  1.
    10030    2    1    2    0    0  0.00000000000E+00  0.00000000000E+00  0.14526143190E+02  0.16000193422E+04  0.15999534014E+04 0.  0.
        2    1    3    3  502    0 -0.66986394963E+03  0.38606378026E+03 -0.19817121651E+03  0.79814458872E+03  0.25500000920E-02 0.  1.
       -2    1    3    3    0  502  0.66986394963E+03 -0.38606378026E+03  0.21269735970E+03  0.80187475348E+03  0.25500000920E-02 0. -1.
</event>
<event>
 5   0  0.2046108E-05  0.1599765E+04  0.7818609E-02  0.8820693E-01
        2   -1    0    0  501    0  0.00000000000E+00  0.00000000000E+00  0.15207548199E+04  0.15207548199E+04  0.25500000920E-02 0.  1.
       -2   -1    0    0    0  501  0.00000000000E+00  0.00000000000E+00 -0.42071988093E+03  0.42071988094E+03  0.25500000920E-02 0. -1.
    10030    2    1    2    0    0  0.00000000000E+00  0.00000000000E+00  0.11000349390E+04  0.19414747008E+04  0.15997647162E+04 0.  0.
        1    1    3    3  502    0 -0.26651600452E+02  0.50365576689E+02 -0.41825353644E+03  0.42211730585E+03  0.50400001928E-02 0. -1.
       -1    1    3    3    0  502  0.26651600452E+02 -0.50365576689E+02  0.15182884754E+04  0.15193573950E+04  0.50400001928E-02 0.  1.
</event>
<event>
 5   0  0.1060251E-05  0.1597297E+04  0.7818609E-02  0.8822211E-01
       -1   -1    0    0    0  501  0.00000000000E+00  0.00000000000E+00  0.72360797764E+03  0.72360797766E+03  0.50400001928E-02 0.  1.
        1   -1    0    0  501    0  0.00000000000E+00  0.00000000000E+00 -0.88147053066E+03  0.88147053067E+03  0.50400001928E-02 0. -1.
    10030    2    1    2    0    0  0.00000000000E+00  0.00000000000E+00 -0.15786255302E+03  0.16050785083E+04  0.15972966012E+04 0.  0.
        1    1    3    3  502    0  0.46832766792E+03 -0.60926285615E+03 -0.29749282712E+03  0.82403520230E+03  0.50400001928E-02 0. -1.
       -1    1    3    3    0  502 -0.46832766792E+03  0.60926285615E+03  0.13963027410E+03  0.78104330603E+03  0.50400001928E-02 0.  1.
</event>
<event>
 5   0  0.2046108E-05  0.1601098E+04  0.7818609E-02  0.8819874E-01
        2   -1    0    0  501    0  0.00000000000E+00  0.00000000000E+00  0.18421995882E+04  0.18421995882E+04  0.25500000920E-02 0.  1.
       -2   -1    0    0    0  501  0.00000000000E+00  0.00000000000E+00 -0.34788784709E+03  0.34788784710E+03  0.25500000920E-02 0. -1.
    10030    2    1    2    0    0  0.00000000000E+00  0.00000000000E+00  0.14943117411E+04  0.21900874353E+04  0.16010981839E+04 0.  0.
        1    1    3    3  502    0  0.41724390098E+03 -0.99697812962E+02 -0.17739060025E+03  0.46421929289E+03  0.50400001928E-02 0. -1.
       -1    1    3    3    0  502 -0.41724390098E+03  0.99697812962E+02  0.16717023414E+04  0.17258681424E+04  0.50400001928E-02 0.  1.
</event>
<event>
 5   0  0.2147844E-05  0.1600261E+04  0.7818609E-02  0.8820388E-01
        2   -1    0    0  501    0  0.00000000000E+00  0.00000000000E+00  0.42486632502E+03  0.42486632503E+03  0.25500000920E-02 0. -1.
       -2   -1    0    0    0  501  0.00000000000E+00  0.00000000000E+00 -0.15068481451E+04  0.15068481451E+04  0.25500000920E-02 0.  1.
    10030    2    1    2    0    0  0.00000000000E+00  0.00000000000E+00 -0.10819818201E+04  0.19317144701E+04  0.16002612709E+04 0.  0.
        2    1    3    3  502    0 -0.58106178809E+03  0.20911466539E+03 -0.11551400510E+04  0.13098512443E+04  0.25500000920E-02 0.  1.
       -2    1    3    3    0  502  0.58106178809E+03 -0.20911466539E+03  0.73158230901E+02  0.62186322581E+03  0.25500000920E-02 0. -1.
</event>
<event>
 5   0  0.1990948E-05  0.1600075E+04  0.7818609E-02  0.8820502E-01
        2   -1    0    0  501    0  0.00000000000E+00  0.00000000000E+00  0.80645964696E+03  0.80645964696E+03  0.25500000920E-02 0.  1.
       -2   -1    0    0    0  501  0.00000000000E+00  0.00000000000E+00 -0.79366634533E+03  0.79366634534E+03  0.25500000920E-02 0. -1.
    10030    2    1    2    0    0  0.00000000000E+00  0.00000000000E+00  0.12793301625E+02  0.16001259923E+04  0.16000748491E+04 0.  0.
        4    1    3    3  502    0 -0.99207862983E+00  0.61956888459E+03 -0.49977333879E+03  0.79601607398E+03  0.12699999809E+01 0. -1.
       -4    1    3    3    0  502  0.99207862983E+00 -0.61956888459E+03  0.51256664042E+03  0.80410991832E+03  0.12699999809E+01 0.  1.
</event>
<event>
 5   0  0.1090674E-05  0.1600159E+04  0.7818609E-02  0.8820450E-01
       -1   -1    0    0    0  501  0.00000000000E+00  0.00000000000E+00  0.85148702684E+03  0.85148702686E+03  0.50400001928E-02 0.  1.
        1   -1    0    0  501    0  0.00000000000E+00  0.00000000000E+00 -0.75177590009E+03  0.75177590011E+03  0.50400001928E-02 0. -1.
    10030    2    1    2    0    0  0.00000000000E+00  0.00000000000E+00  0.99711126753E+02  0.16032629270E+04  0.16001592746E+04 0.  0.
        4    1    3    3  502    0 -0.67441454419E+03  0.36578726600E+03  0.27721089407E+03  0.81577128785E+03  0.12699999809E+01 0.  1.
       -4    1    3    3    0  502  0.67441454419E+03 -0.36578726600E+03 -0.17749976731E+03  0.78749163912E+03  0.12699999809E+01 0. -1.
</event>
<event>
 5   0  0.1060251E-05  0.1604091E+04  0.7818609E-02  0.8818039E-01
       -1   -1    0    0    0  501  0.00000000000E+00  0.00000000000E+00  0.29595235709E+03  0.29595235713E+03  0.50400001928E-02 0. -1.
        1   -1    0    0  501    0  0.00000000000E+00  0.00000000000E+00 -0.21735834172E+04  0.21735834172E+04  0.50400001928E-02 0.  1.
    10030    2    1    2    0    0  0.00000000000E+00  0.00000000000E+00 -0.18776310601E+04  0.24695357743E+04  0.16040911891E+04 0.  0.
        1    1    3    3  502    0 -0.73465998527E+03 -0.21537733973E+03 -0.13069014944E+04  0.15146300567E+04  0.50400001928E-02 0.  1.
       -1    1    3    3    0  502  0.73465998527E+03  0.21537733973E+03 -0.57072956565E+03  0.95490571763E+03  0.50400001928E-02 0. -1.
</event>
<event>
 5   0  0.1990948E-05  0.1599105E+04  0.7818609E-02  0.8821098E-01
       -2   -1    0    0    0  501  0.00000000000E+00  0.00000000000E+00  0.55503310119E+03  0.55503310120E+03  0.25500000920E-02 0.  1.
        2   -1    0    0  501    0  0.00000000000E+00  0.00000000000E+00 -0.11517949684E+04  0.11517949684E+04  0.25500000920E-02 0. -1.
    10030    2    1    2    0    0  0.00000000000E+00  0.00000000000E+00 -0.59676186718E+03  0.17068280696E+04  0.15991051663E+04 0.  0.
        4    1    3    3  502    0  0.62154237296E+03 -0.87322904982E+02  0.23030669919E+03  0.66856787218E+03  0.12699999809E+01 0.  1.
       -4    1    3    3    0  502 -0.62154237296E+03  0.87322904982E+02 -0.82706856637E+03  0.10382601974E+04  0.12699999809E+01 0. -1.
</event>
<event>
 5   0  0.1994525E-05  0.1600031E+04  0.7818609E-02  0.8820529E-01
       -2   -1    0    0    0  501  0.00000000000E+00  0.00000000000E+00  0.52139549507E+03  0.52139549508E+03  0.25500000920E-02 0.  1.
        2   -1    0    0  501    0  0.00000000000E+00  0.00000000000E+00 -0.12275233558E+04  0.12275233558E+04  0.25500000920E-02 0. -1.
    10030    2    1    2    0    0  0.00000000000E+00  0.00000000000E+00 -0.70612786073E+03  0.17489188509E+04  0.16000314345E+04 0.  0.
        5    1    3    3  502    0  0.49880946835E+03  0.38503152253E+03 -0.89182133047E+03  0.10919833032E+04  0.46999998093E+01 0. -1.
       -5    1    3    3    0  502 -0.49880946835E+03 -0.38503152253E+03  0.18569346975E+03  0.65693554765E+03  0.46999998093E+01 0.  1.
</event>
<event>
 5   0  0.1126485E-05  0.1600460E+04  0.7818609E-02  0.8820265E-01
       -1   -1    0    0    0  501  0.00000000000E+00  0.00000000000E+00  0.52259006105E+03  0.52259006107E+03  0.50400001928E-02 0. -1.
        1   -1    0    0  501    0  0.00000000000E+00  0.00000000000E+00 -0.12253738418E+04  0.12253738418E+04  0.50400001928E-02 0.  1.
    10030    2    1    2    0    0  0.00000000000E+00  0.00000000000E+00 -0.70278378073E+03  0.17479639029E+04  0.16004601723E+04 0.  0.
        2    1    3    3  502    0 -0.47706407333E+03  0.58869127104E+03 -0.63244235151E+03  0.98698068403E+03  0.25500000920E-02 0.  1.
       -2    1    3    3    0  502  0.47706407333E+03 -0.58869127104E+03 -0.70341429216E+02  0.76098321882E+03  0.25500000920E-02 0. -1.
</event>
<event>
 5   0  0.1081831E-05  0.1599930E+04  0.7818609E-02  0.8820591E-01
       -1   -1    0    0    0  501  0.00000000000E+00  0.00000000000E+00  0.56927145987E+03  0.56927145989E+03  0.50400001928E-02 0. -1.
        1   -1    0    0  501    0  0.00000000000E+00  0.00000000000E+00 -0.11241453598E+04  0.11241453598E+04  0.50400001928E-02 0.  1.
    10030    2    1    2    0    0  0.00000000000E+00  0.00000000000E+00 -0.55487389995E+03  0.16934168197E+04  0.15999298361E+04 0.  0.
        3    1    3    3  502    0 -0.17802802639E+03  0.17698906441E+03  0.52650097769E+03  0.58328586200E+03  0.10100000352E+00 0. -1.
       -3    1    3    3    0  502  0.17802802639E+03 -0.17698906441E+03 -0.10813748776E+04  0.11101309577E+04  0.10100000352E+00 0.  1.
</event>
<event>
 5   0  0.2147844E-05  0.1599575E+04  0.7818609E-02  0.8820809E-01
       -2   -1    0    0    0  501  0.00000000000E+00  0.00000000000E+00  0.35905928322E+03  0.35905928323E+03  0.25500000920E-02 0.  1.
        2   -1    0    0  501    0  0.00000000000E+00  0.00000000000E+00 -0.17814881759E+04  0.17814881759E+04  0.25500000920E-02 0. -1.
    10030    2    1    2    0    0  0.00000000000E+00  0.00000000000E+00 -0.14224288927E+04  0.21405474591E+04  0.15995747779E+04 0.  0.
        2    1    3    3  502    0  0.17047929865E+03 -0.23683406825E+03 -0.17077058491E+04  0.17324586097E+04  0.25500000920E-02 0. -1.
       -2    1    3    3    0  502 -0.17047929865E+03  0.23683406825E+03  0.28527695645E+03  0.40808884944E+03  0.25500000920E-02 0.  1.
</event>
<event>
 5   0  0.1990948E-05  0.1599827E+04  0.7818609E-02  0.8820654E-01
        2   -1    0    0  501    0  0.00000000000E+00  0.00000000000E+00  0.93649256887E+03  0.93649256887E+03  0.25500000920E-02 0. -1.
       -2   -1    0    0    0  501  0.00000000000E+00  0.00000000000E+00 -0.68325320490E+03  0.68325320490E+03  0.25500000920E-02 0.  1.
    10030    2    1    2    0    0  0.00000000000E+00  0.00000000000E+00  0.25323936397E+03  0.16197457738E+04  0.15998269269E+04 0.  0.
        4    1    3    3  502    0  0.16855587622E+03 -0.77731167063E+03  0.21274001675E+03  0.82333738184E+03  0.12699999809E+01 0.  1.
       -4    1    3    3    0  502 -0.16855587622E+03  0.77731167063E+03  0.40499347224E+02  0.79640839193E+03  0.12699999809E+01 0. -1.
</event>
<event>
 5   0  0.1060251E-05  0.1600249E+04  0.7818609E-02  0.8820395E-01
        1   -1    0    0  501    0  0.00000000000E+00  0.00000000000E+00  0.11023589934E+04  0.11023589934E+04  0.50400001928E-02 0. -1.
       -1   -1    0    0    0  501  0.00000000000E+00  0.00000000000E+00 -0.58075368035E+03  0.58075368037E+03  0.50400001928E-02 0.  1.
    10030    2    1    2    0    0  0.00000000000E+00  0.00000000000E+00  0.52160531300E+03  0.16831126737E+04  0.16002487838E+04 0.  0.
        1    1    3    3  502    0 -0.36411232478E+03  0.42591934156E+03 -0.33992408275E+03  0.65538801685E+03  0.50400001928E-02 0.  1.
       -1    1    3    3    0  502  0.36411232478E+03 -0.42591934156E+03  0.86152939575E+03  0.10277246569E+04  0.50400001928E-02 0. -1.
</event>
<event>
 5   0  0.1060251E-05  0.1600798E+04  0.7818609E-02  0.8820058E-01
       -1   -1    0    0    0  501  0.00000000000E+00  0.00000000000E+00  0.10802938904E+04  0.10802938904E+04  0.50400001928E-02 0.  1.
        1   -1    0    0  501    0  0.00000000000E+00  0.00000000000E+00 -0.59302268344E+03  0.59302268347E+03  0.50400001928E-02 0. -1.
    10030    2    1    2    0    0  0.00000000000E+00  0.00000000000E+00  0.48727120693E+03  0.16733165739E+04  0.16007982781E+04 0.  0.
        1    1    3    3  502    0  0.43055728596E+03  0.44935394100E+03 -0.28249503598E+03  0.68344859804E+03  0.50400001928E-02 0. -1.
       -1    1    3    3    0  502 -0.43055728596E+03 -0.44935394100E+03  0.76976624292E+03  0.98986797581E+03  0.50400001928E-02 0.  1.
</event>
<event>
 5   0  0.2125803E-05  0.1601770E+04  0.7818609E-02  0.8819461E-01
       -2   -1    0    0    0  501  0.00000000000E+00  0.00000000000E+00  0.39583196128E+03  0.39583196128E+03  0.25500000920E-02 0. -1.
        2   -1    0    0  501    0  0.00000000000E+00  0.00000000000E+00 -0.16204268931E+04  0.16204268931E+04  0.25500000920E-02 0.  1.
    10030    2    1    2    0    0  0.00000000000E+00  0.00000000000E+00 -0.12245949318E+04  0.20162588543E+04  0.16017699650E+04 0.  0.
        3    1    3    3  502    0 -0.77944342927E+03  0.36063882340E+02 -0.38507624639E+03  0.87012435248E+03  0.10100000352E+00 0.  1.
       -3    1    3    3    0  502  0.77944342927E+03 -0.36063882340E+02 -0.83951868538E+03  0.11461345019E+04  0.10100000352E+00 0. -1.
</event>
<event>
 5   0  0.1090674E-05  0.1599792E+04  0.7818609E-02  0.8820676E-01
        1   -1    0    0  501    0  0.00000000000E+00  0.00000000000E+00  0.15383652924E+04  0.15383652924E+04  0.50400001928E-02 0. -1.
       -1   -1    0    0    0  501  0.00000000000E+00  0.00000000000E+00 -0.41591761092E+03  0.41591761095E+03  0.50400001928E-02 0.  1.
    10030    2    1    2    0    0  0.00000000000E+00  0.00000000000E+00  0.11224476815E+04  0.19542829033E+04  0.15997915079E+04 0.  0.
        4    1    3    3  502    0 -0.44850761556E+03 -0.30250760713E+03  0.12809875249E+04  0.13905396742E+04  0.12699999809E+01 0. -1.
       -4    1    3    3    0  502  0.44850761556E+03  0.30250760713E+03 -0.15853984342E+03  0.56374322918E+03  0.12699999809E+01 0.  1.
</event>
<event>
 5   0  0.1060251E-05  0.1597271E+04  0.7818609E-02  0.8822227E-01
        1   -1    0    0  501    0  0.00000000000E+00  0.00000000000E+00  0.86545894476E+03  0.86545894478E+03  0.50400001928E-02 0.  1.
       -1   -1    0    0    0  501  0.00000000000E+00  0.00000000000E+00 -0.73697120198E+03  0.73697120200E+03  0.50400001928E-02 0. -1.
    10030    2    1    2    0    0  0.00000000000E+00  0.00000000000E+00  0.12848774278E+03  0.16024301468E+04  0.15972705705E+04 0.  0.
        1    1    3    3  502    0 -0.41258042867E+03 -0.18333236244E+03  0.72514722134E+03  0.85420832230E+03  0.50400001928E-02 0.  1.
       -1    1    3    3    0  502  0.41258042867E+03  0.18333236244E+03 -0.59665947856E+03  0.74822182448E+03  0.50400001928E-02 0. -1.
</event>
<event>
 5   0  0.1060251E-05  0.1599318E+04  0.7818609E-02  0.8820967E-01
        1   -1    0    0  501    0  0.00000000000E+00  0.00000000000E+00  0.60620919620E+03  0.60620919622E+03  0.50400001928E-02 0.  1.
       -1   -1    0    0    0  501  0.00000000000E+00  0.00000000000E+00 -0.10548407824E+04  0.10548407824E+04  0.50400001928E-02 0. -1.
    10030    2    1    2    0    0  0.00000000000E+00  0.00000000000E+00 -0.44863158617E+03  0.16610499786E+04  0.15993175830E+04 0.  0.
        1    1    3    3  502    0  0.65161089352E+03  0.46175244797E+03 -0.26640281450E+03  0.84189223738E+03  0.50400001928E-02 0. -1.
       -1    1    3    3    0  502 -0.65161089352E+03 -0.46175244797E+03 -0.18222877167E+03  0.81915774123E+03  0.50400001928E-02 0.  1.
</event>
<event>
 5   0  0.1081831E-05  0.1599591E+04  0.7818609E-02  0.8820799E-01
       -1   -1    0    0    0  501  0.00000000000E+00  0.00000000000E+00  0.41292194244E+03  0.41292194248E+03  0.50400001928E-02 0. -1.
        1   -1    0    0  501    0  0.00000000000E+00  0.00000000000E+00 -0.15491379222E+04  0.15491379222E+04  0.50400001928E-02 0.  1.
    10030    2    1    2    0    0  0.00000000000E+00  0.00000000000E+00 -0.11362159797E+04  0.19620598647E+04  0.15995912478E+04 0.  0.
        3    1    3    3  502    0  0.33431335815E+03  0.68280077063E+03 -0.87276637811E+03  0.11574556038E+04  0.10100000352E+00 0. -1.
       -3    1    3    3    0  502 -0.33431335815E+03 -0.68280077063E+03 -0.26344960163E+03  0.80460426086E+03  0.10100000352E+00 0.  1.
</event>
<event>
 5   0  0.1994525E-05  0.1599739E+04  0.7818609E-02  0.8820708E-01
        2   -1    0    0  501    0  0.00000000000E+00  0.00000000000E+00  0.10366474764E+04  0.10366474764E+04  0.25500000920E-02 0.  1.
       -2   -1    0    0    0  501  0.00000000000E+00  0.00000000000E+00 -0.61717358264E+03  0.61717358264E+03  0.25500000920E-02 0. -1.
    10030    2    1    2    0    0  0.00000000000E+00  0.00000000000E+00  0.41947389373E+03  0.16538210590E+04  0.15997392749E+04 0.  0.
        5    1    3    3  502    0  0.62557330397E+03 -0.32613939080E+03 -0.17991419983E+03  0.72807971416E+03  0.46999998093E+01 0. -1.
       -5    1    3    3    0  502 -0.62557330397E+03  0.32613939080E+03  0.59938809356E+03  0.92574134485E+03  0.46999998093E+01 0.  1.
</event>
<event>
 5   0  0.1090674E-05  0.1599520E+04  0.7818609E-02  0.8820843E-01
        1   -1    0    0  501    0  0.00000000000E+00  0.00000000000E+00  0.92552114358E+03  0.92552114360E+03  0.50400001928E-02 0.  1.
       -1   -1    0    0    0  501  0.00000000000E+00  0.00000000000E+00 -0.69108731414E+03  0.69108731416E+03  0.50400001928E-02 0. -1.
    10030    2    1    2    0    0  0.00000000000E+00  0.00000000000E+00  0.23443382944E+03  0.16166084578E+04  0.15995198296E+04 0.  0.
        4    1    3    3  502    0  0.24627496873E+03  0.49863853586E+03 -0.46366029169E+03  0.72406783430E+03  0.12699999809E+01 0. -1.
       -4    1    3    3    0  502 -0.24627496873E+03 -0.49863853586E+03  0.69809412113E+03  0.89254062346E+03  0.12699999809E+01 0.  1.
</event>
<event>
 5   0  0.1060251E-05  0.1598940E+04  0.7818609E-02  0.8821200E-01
       -1   -1    0    0    0  501  0.00000000000E+00  0.00000000000E+00  0.20018559252E+04  0.20018559252E+04  0.50400001928E-02 0.  1.
        1   -1    0    0  501    0  0.00000000000E+00  0.00000000000E+00 -0.31927971211E+03  0.31927971215E+03  0.50400001928E-02 0. -1.
    10030    2    1    2    0    0  0.00000000000E+00  0.00000000000E+00  0.16825762130E+04  0.23211356373E+04  0.15989396280E+04 0.  0.
        1    1    3    3  502    0 -0.61916602899E+02  0.13653988301E+03  0.19812666766E+04  0.19869309120E+04  0.50400001928E-02 0.  1.
       -1    1    3    3    0  502  0.61916602899E+02 -0.13653988301E+03 -0.29869046354E+03  0.33420472529E+03  0.50400001928E-02 0. -1.
</event>
<event>
 5   0  0.1060251E-05  0.1600014E+04  0.7818609E-02  0.8820540E-01
        1   -1    0    0  501    0  0.00000000000E+00  0.00000000000E+00  0.17327800181E+04  0.17327800181E+04  0.50400001928E-02 0. -1.
       -1   -1    0    0    0  501  0.00000000000E+00  0.00000000000E+00 -0.36935493052E+03  0.36935493055E+03  0.50400001928E-02 0.  1.
    10030    2    1    2    0    0  0.00000000000E+00  0.00000000000E+00  0.13634250876E+04  0.21021349486E+04  0.16000135540E+04 0.  0.
        1    1    3    3  502    0  0.56793858983E+03 -0.11564530847E+03 -0.42778186291E+02  0.58116955567E+03  0.50400001928E-02 0.  1.
       -1    1    3    3    0  502 -0.56793858983E+03  0.11564530847E+03  0.14062032739E+04  0.15209653930E+04  0.50400001928E-02 0. -1.
</event>
<event>
 5   0  0.1994525E-05  0.1599986E+04  0.7818609E-02  0.8820557E-01
       -2   -1    0    0    0  501  0.00000000000E+00  0.00000000000E+00  0.35409908827E+03  0.35409908828E+03  0.25500000920E-02 0. -1.
        2   -1    0    0  501    0  0.00000000000E+00  0.00000000000E+00 -0.18073721981E+04  0.18073721981E+04  0.25500000920E-02 0.  1.
    10030    2    1    2    0    0  0.00000000000E+00  0.00000000000E+00 -0.14532731098E+04  0.21614712863E+04  0.15999860593E+04 0.  0.
        5    1    3    3  502    0  0.97995562993E+02  0.25997619010E+03 -0.17400835961E+04  0.17621304609E+04  0.46999998093E+01 0.  1.
       -5    1    3    3    0  502 -0.97995562993E+02 -0.25997619010E+03  0.28681048633E+03  0.39934082543E+03  0.46999998093E+01 0. -1.
</event>
<event>
 5   0  0.1990948E-05  0.1599434E+04  0.7818609E-02  0.8820896E-01
        2   -1    0    0  501    0  0.00000000000E+00  0.00000000000E+00  0.58475853716E+03  0.58475853717E+03  0.25500000920E-02 0. -1.
       -2   -1    0    0    0  501  0.00000000000E+00  0.00000000000E+00 -0.10936952434E+04  0.10936952434E+04  0.25500000920E-02 0.  1.
    10030    2    1    2    0    0  0.00000000000E+00  0.00000000000E+00 -0.50893670622E+03  0.16784537806E+04  0.15994344383E+04 0.  0.
        4    1    3    3  502    0 -0.11946507947E+03 -0.16964331306E+03 -0.10649560783E+04  0.10849810231E+04  0.12699999809E+01 0.  1.
       -4    1    3    3    0  502  0.11946507947E+03  0.16964331306E+03  0.55601937205E+03  0.59347275748E+03  0.12699999809E+01 0. -1.
</event>
<event>
 5   0  0.1057506E-05  0.1602517E+04  0.7818609E-02  0.8819003E-01
        1   -1    0    0  501    0  0.00000000000E+00  0.00000000000E+00  0.20220013477E+04  0.20220013477E+04  0.50400001928E-02 0.  1.
       -1   -1    0    0    0  501  0.00000000000E+00  0.00000000000E+00 -0.31751478101E+03  0.31751478105E+03  0.50400001928E-02 0. -1.
    10030    2    1    2    0    0  0.00000000000E+00  0.00000000000E+00  0.17044865667E+04  0.23395161288E+04  0.16025171639E+04 0.  0.
        5    1    3    3  502    0  0.39596758754E+03  0.68945829414E+03  0.99713544641E+03  0.12753212373E+04  0.46999998093E+01 0.  1.
       -5    1    3    3    0  502 -0.39596758754E+03 -0.68945829414E+03  0.70735112031E+03  0.10641948915E+04  0.46999998093E+01 0. -1.
</event>
<event>
 5   0  0.1990948E-05  0.1600695E+04  0.7818609E-02  0.8820121E-01
       -2   -1    0    0    0  501  0.00000000000E+00  0.00000000000E+00  0.59088787666E+03  0.59088787667E+03  0.25500000920E-02 0. -1.
        2   -1    0    0  501    0  0.00000000000E+00  0.00000000000E+00 -0.10840568211E+04  0.10840568211E+04  0.25500000920E-02 0.  1.
    10030    2    1    2    0    0  0.00000000000E+00  0.00000000000E+00 -0.49316894445E+03  0.16749446978E+04  0.16006948906E+04 0.  0.
        4    1    3    3  502    0 -0.12847158149E+03 -0.70893776366E+03 -0.61125669866E+03  0.94484605336E+03  0.12699999809E+01 0.  1.
       -4    1    3    3    0  502  0.12847158149E+03  0.70893776366E+03  0.11808775421E+03  0.73009864442E+03  0.12699999809E+01 0. -1.
</event>
<event>
 5   0  0.1081831E-05  0.1600843E+04  0.7818609E-02  0.8820031E-01
       -1   -1    0    0    0  501  0.00000000000E+00  0.00000000000E+00  0.57825604059E+03  0.57825604061E+03  0.50400001928E-02 0.  1.
        1   -1    0    0  501    0  0.00000000000E+00  0.00000000000E+00 -0.11079421314E+04  0.11079421315E+04  0.50400001928E-02 0. -1.
    10030    2    1    2    0    0  0.00000000000E+00  0.00000000000E+00 -0.52968609086E+03  0.16861981721E+04  0.16008425659E+04 0.  0.
        3    1    3    3  502    0 -0.18778883524E+03 -0.11026630807E+03 -0.10761387916E+04  0.10979517359E+04  0.10100000352E+00 0. -1.
       -3    1    3    3    0  502  0.18778883524E+03  0.11026630807E+03  0.54645270074E+03  0.58824643619E+03  0.10100000352E+00 0.  1.
</event>
<event>
 5   0  0.2147844E-05  0.1600398E+04  0.7818609E-02  0.8820304E-01
       -2   -1    0    0    0  501  0.00000000000E+00  0.00000000000E+00  0.34306150723E+03  0.34306150724E+03  0.25500000920E-02 0.  1.
        2   -1    0    0  501    0  0.00000000000E+00  0.00000000000E+00 -0.18664822403E+04  0.18664822403E+04  0.25500000920E-02 0. -1.
    10030    2    1    2    0    0  0.00000000000E+00  0.00000000000E+00 -0.15234207331E+04  0.22095437475E+04  0.16003977138E+04 0.  0.
        2    1    3    3  502    0 -0.16128914623E+03  0.76675499484E+03 -0.53742499008E+03  0.95013316476E+03  0.25500000920E-02 0.  1.
       -2    1    3    3    0  502  0.16128914623E+03 -0.76675499484E+03 -0.98599574298E+03  0.12594105828E+04  0.25500000920E-02 0. -1.
</event>
<event>
 5   0  0.2046108E-05  0.1599973E+04  0.7818609E-02  0.8820564E-01
       -2   -1    0    0    0  501  0.00000000000E+00  0.00000000000E+00  0.34923408353E+03  0.34923408354E+03  0.25500000920E-02 0.  1.
        2   -1    0    0  501    0  0.00000000000E+00  0.00000000000E+00 -0.18325204174E+04  0.18325204174E+04  0.25500000920E-02 0. -1.
    10030    2    1    2    0    0  0.00000000000E+00  0.00000000000E+00 -0.14832863338E+04  0.21817545009E+04  0.15999732354E+04 0.  0.
        1    1    3    3  502    0 -0.79177847513E+03  0.10618645308E+03 -0.68395268737E+03  0.10516558349E+04  0.50400001928E-02 0.  1.
       -1    1    3    3    0  502  0.79177847513E+03 -0.10618645308E+03 -0.79933364645E+03  0.11300986660E+04  0.50400001928E-02 0. -1.
</event>
<event>
 5   0  0.1090674E-05  0.1598993E+04  0.7818609E-02  0.8821167E-01
       -1   -1    0    0    0  501  0.00000000000E+00  0.00000000000E+00  0.73652353557E+03  0.73652353559E+03  0.50400001928E-02 0.  1.
        1   -1    0    0  501    0  0.00000000000E+00  0.00000000000E+00 -0.86785362178E+03  0.86785362180E+03  0.50400001928E-02 0. -1.
    10030    2    1    2    0    0  0.00000000000E+00  0.00000000000E+00 -0.13133008622E+03  0.16043771574E+04  0.15989929555E+04 0.  0.
        4    1    3    3  502    0 -0.19544909366E+03 -0.77484751919E+03 -0.90323776546E+02  0.80420707763E+03  0.12699999809E+01 0. -1.
       -4    1    3    3    0  502  0.19544909366E+03  0.77484751919E+03 -0.41006309671E+02  0.80017007975E+03  0.12699999809E+01 0.  1.
</event>
<event>
 5   0  0.2046108E-05  0.1599883E+04  0.7818609E-02  0.8820620E-01
        2   -1    0    0  501    0  0.00000000000E+00  0.00000000000E+00  0.11186974734E+04  0.11186974734E+04  0.25500000920E-02 0.  1.
       -2   -1    0    0    0  501  0.00000000000E+00  0.00000000000E+00 -0.57200996906E+03  0.57200996906E+03  0.25500000920E-02 0. -1.
    10030    2    1    2    0    0  0.00000000000E+00  0.00000000000E+00  0.54668750434E+03  0.16907074425E+04  0.15998826296E+04 0.  0.
        1    1    3    3  502    0  0.43596283872E+02 -0.39224164765E+03 -0.46196746109E+03  0.60759203521E+03  0.50400001928E-02 0. -1.
       -1    1    3    3    0  502 -0.43596283872E+02  0.39224164765E+03  0.10086549654E+04  0.10831154073E+04  0.50400001928E-02 0.  1.
</event>
<event>
 5   0  0.1126485E-05  0.1600298E+04  0.7818609E-02  0.8820365E-01
       -1   -1    0    0    0  501  0.00000000000E+00  0.00000000000E+00  0.51551317860E+03  0.51551317862E+03  0.50400001928E-02 0.  1.
        1   -1    0    0  501    0  0.00000000000E+00  0.00000000000E+00 -0.12419431030E+04  0.12419431030E+04  0.50400001928E-02 0. -1.
    10030    2    1    2    0    0  0.00000000000E+00  0.00000000000E+00 -0.72642992439E+03  0.17574562816E+04  0.16002975182E+04 0.  0.
        2    1    3    3  502    0 -0.31657103747E+03  0.61456210082E+03 -0.80569009019E+03  0.10616215517E+04  0.25500000920E-02 0. -1.
       -2    1    3    3    0  502  0.31657103747E+03 -0.61456210082E+03  0.79260165794E+02  0.69583472996E+03  0.25500000920E-02 0.  1.
</event>
<event>
 5   0  0.1990948E-05  0.1599581E+04  0.7818609E-02  0.8820806E-01
        2   -1    0    0  501    0  0.00000000000E+00  0.00000000000E+00  0.98600328492E+03  0.98600328492E+03  0.25500000920E-02 0. -1.
       -2   -1    0    0    0  501  0.00000000000E+00  0.00000000000E+00 -0.64874495635E+03  0.64874495636E+03  0.25500000920E-02 0.  1.
    10030    2    1    2    0    0  0.00000000000E+00  0.00000000000E+00  0.33725832857E+03  0.16347482413E+04  0.15995807676E+04 0.  0.
        4    1    3    3  502    0 -0.20412427288E+02  0.26546689179E+03 -0.60212248201E+03  0.65836345135E+03  0.12699999809E+01 0.  1.
       -4    1    3    3    0  502  0.20412427288E+02 -0.26546689179E+03  0.93938081058E+03  0.97638478993E+03  0.12699999809E+01 0. -1.
</event>
<event>
 5   0  0.2125803E-05  0.1593553E+04  0.7818609E-02  0.8824518E-01
       -2   -1    0    0    0  501  0.00000000000E+00  0.00000000000E+00  0.44005497998E+03  0.44005497999E+03  0.25500000920E-02 0. -1.
        2   -1    0    0  501    0  0.00000000000E+00  0.00000000000E+00 -0.14426669165E+04  0.14426669165E+04  0.25500000920E-02 0.  1.
    10030    2    1    2    0    0  0.00000000000E+00  0.00000000000E+00 -0.10026119365E+04  0.18827218965E+04  0.15935529625E+04 0.  0.
        3    1    3    3  502    0 -0.50402379205E+03  0.59765683236E+03 -0.68287891747E+03  0.10380545739E+04  0.10100000352E+00 0. -1.
       -3    1    3    3    0  502  0.50402379205E+03 -0.59765683236E+03 -0.31973301902E+03  0.84466732260E+03  0.10100000352E+00 0.  1.
</event>
<event>
 5   0  0.1126485E-05  0.1600273E+04  0.7818609E-02  0.8820381E-01
       -1   -1    0    0    0  501  0.00000000000E+00  0.00000000000E+00  0.48325284827E+03  0.48325284830E+03  0.50400001928E-02 0. -1.
        1   -1    0    0  501    0  0.00000000000E+00  0.00000000000E+00 -0.13248098118E+04  0.13248098118E+04  0.50400001928E-02 0.  1.
    10030    2    1    2    0    0  0.00000000000E+00  0.00000000000E+00 -0.84155696351E+03  0.18080626601E+04  0.16002726205E+04 0.  0.
        2    1    3    3  502    0 -0.33460873788E+03  0.46956918043E+02 -0.12402485194E+04  0.12854510296E+04  0.25500000920E-02 0.  1.
       -2    1    3    3    0  502  0.33460873788E+03 -0.46956918043E+02  0.39869155587E+03  0.52261163051E+03  0.25500000920E-02 0. -1.
</event>
<event>
 5   0  0.1090674E-05  0.1596920E+04  0.7818609E-02  0.8822442E-01
        1   -1    0    0  501    0  0.00000000000E+00  0.00000000000E+00  0.10368024641E+04  0.10368024641E+04  0.50400001928E-02 0.  1.
       -1   -1    0    0    0  501  0.00000000000E+00  0.00000000000E+00 -0.61490849249E+03  0.61490849251E+03  0.50400001928E-02 0. -1.
    10030    2    1    2    0    0  0.00000000000E+00  0.00000000000E+00  0.42189397160E+03  0.16517109566E+04  0.15969203364E+04 0.  0.
        4    1    3    3  502    0 -0.93987965895E+02  0.92992457596E+02  0.10254002112E+04  0.10338900043E+04  0.12699999809E+01 0.  1.
       -4    1    3    3    0  502  0.93987965895E+02 -0.92992457596E+02 -0.60350623964E+03  0.61782095229E+03  0.12699999809E+01 0. -1.
</event>
<event>
 5   0  0.1081831E-05  0.1596236E+04  0.7818609E-02  0.8822864E-01
        1   -1    0    0  501    0  0.00000000000E+00  0.00000000000E+00  0.79265779854E+03  0.79265779856E+03  0.50400001928E-02 0.  1.
       -1   -1    0    0    0  501  0.00000000000E+00  0.00000000000E+00 -0.80361591955E+03  0.80361591956E+03  0.50400001928E-02 0. -1.
    10030    2    1    2    0    0  0.00000000000E+00  0.00000000000E+00 -0.10958121002E+02  0.15962737181E+04  0.15962361050E+04 0.  0.
        3    1    3    3  502    0 -0.27835583654E+03 -0.36781601174E+03 -0.65681754235E+03  0.80260817611E+03  0.10100000352E+00 0. -1.
       -3    1    3    3    0  502  0.27835583654E+03  0.36781601174E+03  0.64585942135E+03  0.79366554201E+03  0.10100000352E+00 0.  1.
</event>
<event>
 5   0  0.1081831E-05  0.1599903E+04  0.7818609E-02  0.8820608E-01
       -1   -1    0    0    0  501  0.00000000000E+00  0.00000000000E+00  0.89275214242E+03  0.89275214243E+03  0.50400001928E-02 0. -1.
        1   -1    0    0  501    0  0.00000000000E+00  0.00000000000E+00 -0.71679723151E+03  0.71679723153E+03  0.50400001928E-02 0.  1.
    10030    2    1    2    0    0  0.00000000000E+00  0.00000000000E+00  0.17595491091E+03  0.16095493740E+04  0.15999028272E+04 0.  0.
        3    1    3    3  502    0  0.21975014581E+03 -0.53692346764E+03 -0.46611131074E+03  0.74420205649E+03  0.10100000352E+00 0.  1.
       -3    1    3    3    0  502 -0.21975014581E+03  0.53692346764E+03  0.64206622165E+03  0.86534731748E+03  0.10100000352E+00 0. -1.
</event>
<event>
 5   0  0.2125803E-05  0.1599870E+04  0.7818609E-02  0.8820628E-01
       -2   -1    0    0    0  501  0.00000000000E+00  0.00000000000E+00  0.17410092835E+04  0.17410092835E+04  0.25500000920E-02 0.  1.
        2   -1    0    0  501    0  0.00000000000E+00  0.00000000000E+00 -0.36754326309E+03  0.36754326310E+03  0.25500000920E-02 0. -1.
    10030    2    1    2    0    0  0.00000000000E+00  0.00000000000E+00  0.13734660204E+04  0.21085525466E+04  0.15998702862E+04 0.  0.
        3    1    3    3  502    0 -0.64702526315E+03  0.38586032110E+03  0.33219077918E+03  0.82333504877E+03  0.10100000352E+00 0. -1.
       -3    1    3    3    0  502  0.64702526315E+03 -0.38586032110E+03  0.10412752413E+04  0.12852174979E+04  0.10100000352E+00 0.  1.
</event>
<event>
 5   0  0.1994525E-05  0.1599598E+04  0.7818609E-02  0.8820795E-01
        2   -1    0    0  501    0  0.00000000000E+00  0.00000000000E+00  0.17429079320E+04  0.17429079320E+04  0.25500000920E-02 0.  1.
       -2   -1    0    0    0  501  0.00000000000E+00  0.00000000000E+00 -0.36701788989E+03  0.36701788990E+03  0.25500000920E-02 0. -1.
    10030    2    1    2    0    0  0.00000000000E+00  0.00000000000E+00  0.13758900421E+04  0.21099258219E+04  0.15995979388E+04 0.  0.
        5    1    3    3  502    0 -0.23385420972E+03  0.32093885060E+03 -0.22777961183E+03  0.45781566027E+03  0.46999998093E+01 0. -1.
       -5    1    3    3    0  502  0.23385420972E+03 -0.32093885060E+03  0.16036696539E+04  0.16521101616E+04  0.46999998093E+01 0.  1.
</event>
<event>
 5   0  0.2147844E-05  0.1599767E+04  0.7818609E-02  0.8820691E-01
       -2   -1    0    0    0  501  0.00000000000E+00  0.00000000000E+00  0.70079385329E+03  0.70079385329E+03  0.25500000920E-02 0.  1.
        2   -1    0    0  501    0  0.00000000000E+00  0.00000000000E+00 -0.91298457426E+03  0.91298457426E+03  0.25500000920E-02 0. -1.
    10030    2    1    2    0    0  0.00000000000E+00  0.00000000000E+00 -0.21219072097E+03  0.16137784276E+04  0.15997674553E+04 0.  0.
        2    1    3    3  502    0  0.80719569976E+02  0.13032640541E+03 -0.89802726208E+03  0.91101788367E+03  0.25500000920E-02 0. -1.
       -2    1    3    3    0  502 -0.80719569976E+02 -0.13032640541E+03  0.68583654110E+03  0.70276054389E+03  0.25500000920E-02 0.  1.
</event>
<event>
 5   0  0.1060251E-05  0.1600469E+04  0.7818609E-02  0.8820260E-01
        1   -1    0    0  501    0  0.00000000000E+00  0.00000000000E+00  0.83892068290E+03  0.83892068292E+03  0.50400001928E-02 0.  1.
       -1   -1    0    0    0  501  0.00000000000E+00  0.00000000000E+00 -0.76333222404E+03  0.76333222406E+03  0.50400001928E-02 0. -1.
    10030    2    1    2    0    0  0.00000000000E+00  0.00000000000E+00  0.75588458858E+02  0.16022529070E+04  0.16004689197E+04 0.  0.
        1    1    3    3  502    0  0.61158070731E+03  0.10193230155E+03 -0.46868870143E+03  0.77723243275E+03  0.50400001928E-02 0. -1.
       -1    1    3    3    0  502 -0.61158070731E+03 -0.10193230155E+03  0.54427716029E+03  0.82502047422E+03  0.50400001928E-02 0.  1.
</event>
<event>
 5   0  0.2147844E-05  0.1599818E+04  0.7818609E-02  0.8820660E-01
       -2   -1    0    0    0  501  0.00000000000E+00  0.00000000000E+00  0.53085803236E+03  0.53085803237E+03  0.25500000920E-02 0.  1.
        2   -1    0    0  501    0  0.00000000000E+00  0.00000000000E+00 -0.12053208607E+04  0.12053208607E+04  0.25500000920E-02 0. -1.
    10030    2    1    2    0    0  0.00000000000E+00  0.00000000000E+00 -0.67446282831E+03  0.17361788930E+04  0.15998178152E+04 0.  0.
        2    1    3    3  502    0 -0.39757908396E+03  0.34634178675E+03 -0.99002778210E+03  0.11216847911E+04  0.25500000920E-02 0. -1.
       -2    1    3    3    0  502  0.39757908396E+03 -0.34634178675E+03  0.31556495379E+03  0.61449410194E+03  0.25500000920E-02 0.  1.
</event>
<event>
 5   0  0.1060251E-05  0.1599391E+04  0.7818609E-02  0.8820922E-01
        1   -1    0    0  501    0  0.00000000000E+00  0.00000000000E+00  0.10179462503E+04  0.10179462503E+04  0.50400001928E-02 0. -1.
       -1   -1    0    0    0  501  0.00000000000E+00  0.00000000000E+00 -0.62823829303E+03  0.62823829305E+03  0.50400001928E-02 0.  1.
    10030    2    1    2    0    0  0.00000000000E+00  0.00000000000E+00  0.38970795725E+03  0.16461845433E+04  0.15993909024E+04 0.  0.
        1    1    3    3  502    0  0.31543839098E+03  0.59220131629E+03 -0.25297229690E+03  0.71707653744E+03  0.50400001928E-02 0.  1.
       -1    1    3    3    0  502 -0.31543839098E+03 -0.59220131629E+03  0.64268025416E+03  0.92910800590E+03  0.50400001928E-02 0. -1.
</event>
<event>
 5   0  0.1057506E-05  0.1599547E+04  0.7818609E-02  0.8820826E-01
       -1   -1    0    0    0  501  0.00000000000E+00  0.00000000000E+00  0.69053922919E+03  0.69053922921E+03  0.50400001928E-02 0. -1.
        1   -1    0    0  501    0  0.00000000000E+00  0.00000000000E+00 -0.92628701441E+03  0.92628701442E+03  0.50400001928E-02 0.  1.
    10030    2    1    2    0    0  0.00000000000E+00  0.00000000000E+00 -0.23574778521E+03  0.16168262436E+04  0.15995468370E+04 0.  0.
        5    1    3    3  502    0  0.50742477233E+03 -0.61596478224E+03 -0.17061918503E+03  0.81610385910E+03  0.46999998093E+01 0.  1.
       -5    1    3    3    0  502 -0.50742477233E+03  0.61596478224E+03 -0.65128600179E+02  0.80072238454E+03  0.46999998093E+01 0. -1.
</event>
<event>
 5   0  0.1990948E-05  0.1600077E+04  0.7818609E-02  0.8820501E-01
        2   -1    0    0  501    0  0.00000000000E+00  0.00000000000E+00  0.77047851034E+03  0.77047851035E+03  0.25500000920E-02 0.  1.
       -2   -1    0    0    0  501  0.00000000000E+00  0.00000000000E+00 -0.83073288798E+03  0.83073288799E+03  0.25500000920E-02 0. -1.
    10030    2    1    2    0    0  0.00000000000E+00  0.00000000000E+00 -0.60254377637E+02  0.16012113983E+04  0.16000772957E+04 0.  0.
        4    1    3    3  502    0  0.58045340681E+03  0.94411440807E+02  0.51267827407E+03  0.78017966087E+03  0.12699999809E+01 0.  1.
       -4    1    3    3    0  502 -0.58045340681E+03 -0.94411440807E+02 -0.57293265170E+03  0.82103173746E+03  0.12699999809E+01 0. -1.
</event>
<event>
 5   0  0.1081831E-05  0.1600393E+04  0.7818609E-02  0.8820306E-01
       -1   -1    0    0    0  501  0.00000000000E+00  0.00000000000E+00  0.63476657823E+03  0.63476657825E+03  0.50400001928E-02 0.  1.
        1   -1    0    0  501    0  0.00000000000E+00  0.00000000000E+00 -0.10087405935E+04  0.10087405935E+04  0.50400001928E-02 0. -1.
    10030    2    1    2    0    0  0.00000000000E+00  0.00000000000E+00 -0.37397401528E+03  0.16435071718E+04  0.16003934702E+04 0.  0.
        3    1    3    3  502    0 -0.11170940866E+02 -0.20470884509E+03 -0.98131274992E+03  0.10024994885E+04  0.10100000352E+00 0. -1.
       -3    1    3    3    0  502  0.11170940866E+02  0.20470884509E+03  0.60733873463E+03  0.64100768323E+03  0.10100000352E+00 0.  1.
</event>
<event>
 5   0  0.7597000E-06  0.1599927E+04  0.7818609E-02  0.8820593E-01
        3   -1    0    0  501    0  0.00000000000E+00  0.00000000000E+00  0.44164370607E+03  0.44164371762E+03  0.10100000352E+00 0. -1.
       -3   -1    0    0    0  501  0.00000000000E+00  0.00000000000E+00 -0.14489998091E+04  0.14489998126E+04  0.10100000352E+00 0.  1.
    10030    2    1    2    0    0  0.00000000000E+00  0.00000000000E+00 -0.10073561030E+04  0.18906435302E+04  0.15999270734E+04 0.  0.
        4    1    3    3  502    0 -0.93803736726E+02 -0.44961302546E+03 -0.12776630809E+04  0.13577096799E+04  0.12699999809E+01 0.  1.
       -4    1    3    3    0  502  0.93803736726E+02  0.44961302546E+03  0.27030697785E+03  0.53293385036E+03  0.12699999809E+01 0. -1.
</event>
<event>
 5   0  0.1060251E-05  0.1600641E+04  0.7818609E-02  0.8820154E-01
       -1   -1    0    0    0  501  0.00000000000E+00  0.00000000000E+00  0.42846137481E+03  0.42846137484E+03  0.50400001928E-02 0.  1.
        1   -1    0    0  501    0  0.00000000000E+00  0.00000000000E+00 -0.14949149202E+04  0.14949149202E+04  0.50400001928E-02 0. -1.
    10030    2    1    2    0    0  0.00000000000E+00  0.00000000000E+00 -0.10664535454E+04  0.19233762950E+04  0.16006414989E+04 0.  0.
        1    1    3    3  502    0  0.23999015981E+03 -0.61815810011E+03 -0.10716831371E+04  0.12602457934E+04  0.50400001928E-02 0. -1.
       -1    1    3    3    0  502 -0.23999015981E+03  0.61815810011E+03  0.52295916808E+01  0.66313050163E+03  0.50400001928E-02 0.  1.
</event>
<event>
 5   0  0.1126485E-05  0.1590841E+04  0.7818609E-02  0.8826195E-01
        1   -1    0    0  501    0  0.00000000000E+00  0.00000000000E+00  0.64104385447E+03  0.64104385449E+03  0.50400001928E-02 0. -1.
       -1   -1    0    0    0  501  0.00000000000E+00  0.00000000000E+00 -0.98697366277E+03  0.98697366279E+03  0.50400001928E-02 0.  1.
    10030    2    1    2    0    0  0.00000000000E+00  0.00000000000E+00 -0.34592980831E+03  0.16280175173E+04  0.15908405339E+04 0.  0.
        2    1    3    3  502    0  0.50403884304E+03 -0.89503970748E+02 -0.79598365766E+03  0.94639109217E+03  0.25500000920E-02 0.  1.
       -2    1    3    3    0  502 -0.50403884304E+03  0.89503970748E+02  0.45005384935E+03  0.68162642510E+03  0.25500000920E-02 0. -1.
</event>
<event>
 5   0  0.1090674E-05  0.1604928E+04  0.7818609E-02  0.8817526E-01
       -1   -1    0    0    0  501  0.00000000000E+00  0.00000000000E+00  0.67524552972E+03  0.67524552974E+03  0.50400001928E-02 0.  1.
        1   -1    0    0  501    0  0.00000000000E+00  0.00000000000E+00 -0.95365118097E+03  0.95365118098E+03  0.50400001928E-02 0. -1.
    10030    2    1    2    0    0  0.00000000000E+00  0.00000000000E+00 -0.27840565125E+03  0.16288967107E+04  0.16049282811E+04 0.  0.
        4    1    3    3  502    0 -0.49839276851E+03  0.47618123112E+03 -0.55619529507E+03  0.88571933237E+03  0.12699999809E+01 0. -1.
       -4    1    3    3    0  502  0.49839276851E+03 -0.47618123112E+03  0.27778964383E+03  0.74317737835E+03  0.12699999809E+01 0.  1.
</event>
<event>
 5   0  0.1057506E-05  0.1599161E+04  0.7818609E-02  0.8821063E-01
        1   -1    0    0  501    0  0.00000000000E+00  0.00000000000E+00  0.59485340445E+03  0.59485340447E+03  0.50400001928E-02 0.  1.
       -1   -1    0    0    0  501  0.00000000000E+00  0.00000000000E+00 -0.10747676123E+04  0.10747676123E+04  0.50400001928E-02 0. -1.
    10030    2    1    2    0    0  0.00000000000E+00  0.00000000000E+00 -0.47991420787E+03  0.16696210168E+04  0.15991612467E+04 0.  0.
        5    1    3    3  502    0 -0.44156792538E+03  0.22035850210E+03 -0.89677567731E+03  0.10236057872E+04  0.46999998093E+01 0. -1.
       -5    1    3    3    0  502  0.44156792538E+03 -0.22035850210E+03  0.41686146944E+03  0.64601522960E+03  0.46999998093E+01 0.  1.
</event>
<event>
 5   0  0.2046108E-05  0.1600034E+04  0.7818609E-02  0.8820527E-01
       -2   -1    0    0    0  501  0.00000000000E+00  0.00000000000E+00  0.49312408683E+03  0.49312408684E+03  0.25500000920E-02 0. -1.
        2   -1    0    0  501    0  0.00000000000E+00  0.00000000000E+00 -0.12979025670E+04  0.12979025670E+04  0.25500000920E-02 0.  1.
    10030    2    1    2    0    0  0.00000000000E+00  0.00000000000E+00 -0.80477848021E+03  0.17910266539E+04  0.16000337724E+04 0.  0.
        1    1    3    3  502    0  0.47388140475E+02  0.34473745633E+03  0.40397342942E+03  0.53318297174E+03  0.50400001928E-02 0. -1.
       -1    1    3    3    0  502 -0.47388140475E+02 -0.34473745633E+03 -0.12087519096E+04  0.12578436821E+04  0.50400001928E-02 0.  1.
</event>
<event>
 5   0  0.1126485E-05  0.1599689E+04  0.7818609E-02  0.8820739E-01
        1   -1    0    0  501    0  0.00000000000E+00  0.00000000000E+00  0.12809955189E+04  0.12809955189E+04  0.50400001928E-02 0.  1.
       -1   -1    0    0    0  501  0.00000000000E+00  0.00000000000E+00 -0.49941737162E+03  0.49941737164E+03  0.50400001928E-02 0. -1.
    10030    2    1    2    0    0  0.00000000000E+00  0.00000000000E+00  0.78157814731E+03  0.17804128906E+04  0.15996892388E+04 0.  0.
        2    1    3    3  502    0 -0.24939654923E+03  0.37456534311E+03  0.11267449778E+04  0.12132815337E+04  0.25500000920E-02 0.  1.
       -2    1    3    3    0  502  0.24939654923E+03 -0.37456534311E+03 -0.34516683052E+03  0.56713135685E+03  0.25500000920E-02 0. -1.
</event>
<event>
 5   0  0.2125803E-05  0.1601248E+04  0.7818609E-02  0.8819782E-01
       -2   -1    0    0    0  501  0.00000000000E+00  0.00000000000E+00  0.60916738779E+03  0.60916738780E+03  0.25500000920E-02 0.  1.
        2   -1    0    0  501    0  0.00000000000E+00  0.00000000000E+00 -0.10522541107E+04  0.10522541107E+04  0.25500000920E-02 0. -1.
    10030    2    1    2    0    0  0.00000000000E+00  0.00000000000E+00 -0.44308672292E+03  0.16614214985E+04  0.16012481231E+04 0.  0.
        3    1    3    3  502    0 -0.35656000828E+03  0.90266405013E+02 -0.95940419741E+03  0.10274918431E+04  0.10100000352E+00 0. -1.
       -3    1    3    3    0  502  0.35656000828E+03 -0.90266405013E+02  0.51631747449E+03  0.63392965544E+03  0.10100000352E+00 0.  1.
</event>
<event>
 5   0  0.1090674E-05  0.1598737E+04  0.7818609E-02  0.8821325E-01
       -1   -1    0    0    0  501  0.00000000000E+00  0.00000000000E+00  0.80181682862E+03  0.80181682863E+03  0.50400001928E-02 0. -1.
        1   -1    0    0  501    0  0.00000000000E+00  0.00000000000E+00 -0.79692716833E+03  0.79692716835E+03  0.50400001928E-02 0.  1.
    10030    2    1    2    0    0  0.00000000000E+00  0.00000000000E+00  0.48896602856E+01  0.15987439970E+04  0.15987365196E+04 0.  0.
        4    1    3    3  502    0 -0.67148511086E+03 -0.19209975887E+03 -0.38639298271E+03  0.79818276193E+03  0.12699999809E+01 0.  1.
       -4    1    3    3    0  502  0.67148511086E+03  0.19209975887E+03  0.39128264299E+03  0.80056123505E+03  0.12699999809E+01 0. -1.
</event>
<event>
 5   0  0.2046108E-05  0.1600448E+04  0.7818609E-02  0.8820273E-01
        2   -1    0    0  501    0  0.00000000000E+00  0.00000000000E+00  0.12126161302E+04  0.12126161302E+04  0.25500000920E-02 0.  1.
       -2   -1    0    0    0  501  0.00000000000E+00  0.00000000000E+00 -0.52807996160E+03  0.52807996161E+03  0.25500000920E-02 0. -1.
    10030    2    1    2    0    0  0.00000000000E+00  0.00000000000E+00  0.68453616857E+03  0.17406960918E+04  0.16004477867E+04 0.  0.
        1    1    3    3  502    0 -0.11413167658E+03 -0.39033654458E+03 -0.40730565149E+03  0.57557497461E+03  0.50400001928E-02 0. -1.
       -1    1    3    3    0  502  0.11413167658E+03  0.39033654458E+03  0.10918418201E+04  0.11651211172E+04  0.50400001928E-02 0.  1.
</event>
<event>
 5   0  0.1081831E-05  0.1599660E+04  0.7818609E-02  0.8820757E-01
        1   -1    0    0  501    0  0.00000000000E+00  0.00000000000E+00  0.12166542607E+04  0.12166542608E+04  0.50400001928E-02 0.  1.
       -1   -1    0    0    0  501  0.00000000000E+00  0.00000000000E+00 -0.52580934415E+03  0.52580934418E+03  0.50400001928E-02 0. -1.
    10030    2    1    2    0    0  0.00000000000E+00  0.00000000000E+00  0.69084491660E+03  0.17424636049E+04  0.15996601876E+04 0.  0.
        3    1    3    3  502    0 -0.67892822497E+03  0.33276663964E+03  0.61268815718E+02  0.75857171651E+03  0.10100000352E+00 0. -1.
       -3    1    3    3    0  502  0.67892822497E+03 -0.33276663964E+03  0.62957610088E+03  0.98389188843E+03  0.10100000352E+00 0.  1.
</event>
<event>
 5   0  0.1990948E-05  0.1599689E+04  0.7818609E-02  0.8820739E-01
       -2   -1    0    0    0  501  0.00000000000E+00  0.00000000000E+00  0.40037954533E+03  0.40037954534E+03  0.25500000920E-02 0. -1.
        2   -1    0    0  501    0  0.00000000000E+00  0.00000000000E+00 -0.15978613908E+04  0.15978613908E+04  0.25500000920E-02 0.  1.
    10030    2    1    2    0    0  0.00000000000E+00  0.00000000000E+00 -0.11974818455E+04  0.19982409361E+04  0.15996887412E+04 0.  0.
        4    1    3    3  502    0 -0.72410592652E+03 -0.19781602493E+03 -0.94375979050E+03  0.12058792343E+04  0.12699999809E+01 0. -1.
       -4    1    3    3    0  502  0.72410592652E+03  0.19781602493E+03 -0.25372205496E+03  0.79236170188E+03  0.12699999809E+01 0.  1.
</event>
<event>
 5   0  0.1990948E-05  0.1599826E+04  0.7818609E-02  0.8820655E-01
       -2   -1    0    0    0  501  0.00000000000E+00  0.00000000000E+00  0.63330540577E+03  0.63330540578E+03  0.25500000920E-02 0. -1.
        2   -1    0    0  501    0  0.00000000000E+00  0.00000000000E+00 -0.10103510779E+04  0.10103510779E+04  0.25500000920E-02 0.  1.
    10030    2    1    2    0    0  0.00000000000E+00  0.00000000000E+00 -0.37704567212E+03  0.16436564837E+04  0.15998259897E+04 0.  0.
        4    1    3    3  502    0 -0.77660822260E+03 -0.11928382421E+03 -0.34378269431E+02  0.78646833403E+03  0.12699999809E+01 0. -1.
       -4    1    3    3    0  502  0.77660822260E+03  0.11928382421E+03 -0.34266740269E+03  0.85718814965E+03  0.12699999809E+01 0.  1.
</event>
<event>
 5   0  0.1994525E-05  0.1601769E+04  0.7818609E-02  0.8819462E-01
        2   -1    0    0  501    0  0.00000000000E+00  0.00000000000E+00  0.10879916645E+04  0.10879916645E+04  0.25500000920E-02 0.  1.
       -2   -1    0    0    0  501  0.00000000000E+00  0.00000000000E+00 -0.58954093144E+03  0.58954093145E+03  0.25500000920E-02 0. -1.
    10030    2    1    2    0    0  0.00000000000E+00  0.00000000000E+00  0.49845073301E+03  0.16775325959E+04  0.16017685467E+04 0.  0.
        5    1    3    3  502    0  0.56140657610E+03  0.42788757621E+03  0.64544329788E+03  0.95649582452E+03  0.46999998093E+01 0.  1.
       -5    1    3    3    0  502 -0.56140657610E+03 -0.42788757621E+03 -0.14699256486E+03  0.72103677138E+03  0.46999998093E+01 0. -1.
</event>
<event>
 5   0  0.2147844E-05  0.1601476E+04  0.7818609E-02  0.8819642E-01
        2   -1    0    0  501    0  0.00000000000E+00  0.00000000000E+00  0.47018142667E+03  0.47018142667E+03  0.25500000920E-02 0. -1.
       -2   -1    0    0    0  501  0.00000000000E+00  0.00000000000E+00 -0.13636894898E+04  0.13636894898E+04  0.25500000920E-02 0.  1.
    10030    2    1    2    0    0  0.00000000000E+00  0.00000000000E+00 -0.89350806313E+03  0.18338709165E+04  0.16014761564E+04 0.  0.
        2    1    3    3  502    0  0.27430350786E+03 -0.67430004640E+03 -0.64796663792E+02  0.73083621602E+03  0.25500000920E-02 0. -1.
       -2    1    3    3    0  502 -0.27430350786E+03  0.67430004640E+03 -0.82871139934E+03  0.11030347005E+04  0.25500000920E-02 0.  1.
</event>
<event>
 5   0  0.2125803E-05  0.1598697E+04  0.7818609E-02  0.8821349E-01
       -2   -1    0    0    0  501  0.00000000000E+00  0.00000000000E+00  0.86033703855E+03  0.86033703856E+03  0.25500000920E-02 0.  1.
        2   -1    0    0  501    0  0.00000000000E+00  0.00000000000E+00 -0.74268353295E+03  0.74268353295E+03  0.25500000920E-02 0. -1.
    10030    2    1    2    0    0  0.00000000000E+00  0.00000000000E+00  0.11765350560E+03  0.16030205715E+04  0.15986971587E+04 0.  0.
        3    1    3    3  502    0 -0.28313304564E+03  0.71763685848E+03  0.26865604329E+03  0.81691068176E+03  0.10100000352E+00 0.  1.
       -3    1    3    3    0  502  0.28313304564E+03 -0.71763685848E+03 -0.15100253769E+03  0.78610988975E+03  0.10100000352E+00 0. -1.
</event>
<event>
 5   0  0.2125803E-05  0.1599616E+04  0.7818609E-02  0.8820784E-01
       -2   -1    0    0    0  501  0.00000000000E+00  0.00000000000E+00  0.55600221337E+03  0.55600221337E+03  0.25500000920E-02 0.  1.
        2   -1    0    0  501    0  0.00000000000E+00  0.00000000000E+00 -0.11505213950E+04  0.11505213950E+04  0.25500000920E-02 0. -1.
    10030    2    1    2    0    0  0.00000000000E+00  0.00000000000E+00 -0.59451918159E+03  0.17065236083E+04  0.15996155065E+04 0.  0.
        3    1    3    3  502    0 -0.13919081842E+03 -0.26464299338E+03 -0.10886476991E+04  0.11289658191E+04  0.10100000352E+00 0. -1.
       -3    1    3    3    0  502  0.13919081842E+03  0.26464299338E+03  0.49412851748E+03  0.57755778920E+03  0.10100000352E+00 0.  1.
</event>
<event>
 5   0  0.2147844E-05  0.1599940E+04  0.7818609E-02  0.8820585E-01
       -2   -1    0    0    0  501  0.00000000000E+00  0.00000000000E+00  0.43871681814E+03  0.43871681815E+03  0.25500000920E-02 0. -1.
        2   -1    0    0  501    0  0.00000000000E+00  0.00000000000E+00 -0.14586899762E+04  0.14586899762E+04  0.25500000920E-02 0.  1.
    10030    2    1    2    0    0  0.00000000000E+00  0.00000000000E+00 -0.10199731581E+04  0.18974067944E+04  0.15999397802E+04 0.  0.
        2    1    3    3  502    0 -0.44359540218E+03 -0.61775733579E+03 -0.21576553636E+03  0.79054144322E+03  0.25500000920E-02 0. -1.
       -2    1    3    3    0  502  0.44359540218E+03  0.61775733579E+03 -0.80420762172E+03  0.11068653512E+04  0.25500000920E-02 0.  1.
</event>
<event>
 5   0  0.7597000E-06  0.1600155E+04  0.7818609E-02  0.8820452E-01
        3   -1    0    0  501    0  0.00000000000E+00  0.00000000000E+00  0.73635929693E+03  0.73635930386E+03  0.10100000352E+00 0. -1.
       -3   -1    0    0    0  501  0.00000000000E+00  0.00000000000E+00 -0.86930984779E+03  0.86930985366E+03  0.10100000352E+00 0.  1.
    10030    2    1    2    0    0  0.00000000000E+00  0.00000000000E+00 -0.13295055086E+03  0.16056691575E+04  0.16001554907E+04 0.  0.
        3    1    3    3  502    0  0.54720403251E+03 -0.24246515764E+02 -0.65166932767E+03  0.85128906345E+03  0.10100000352E+00 0.  1.
       -3    1    3    3    0  502 -0.54720403251E+03  0.24246515764E+02  0.51871877680E+03  0.75438009407E+03  0.10100000352E+00 0. -1.
</event>
<event>
 5   0  0.7597000E-06  0.1600068E+04  0.7818609E-02  0.8820506E-01
       -4   -1    0    0    0  501  0.00000000000E+00  0.00000000000E+00  0.12089989621E+04  0.12089996291E+04  0.12699999809E+01 0. -1.
        4   -1    0    0  501    0  0.00000000000E+00  0.00000000000E+00 -0.52940725468E+03  0.52940877799E+03  0.12699999809E+01 0.  1.
    10030    2    1    2    0    0  0.00000000000E+00  0.00000000000E+00  0.67959170738E+03  0.17384084071E+04  0.16000684051E+04 0.  0.
        4    1    3    3  502    0  0.13747700694E+03  0.16333834209E+03 -0.49788697419E+03  0.54173092343E+03  0.12699999809E+01 0.  1.
       -4    1    3    3    0  502 -0.13747700694E+03 -0.16333834209E+03  0.11774786816E+04  0.11966774837E+04  0.12699999809E+01 0. -1.
</event>
<event>
 5   0  0.2125803E-05  0.1600380E+04  0.7818609E-02  0.8820315E-01
        2   -1    0    0  501    0  0.00000000000E+00  0.00000000000E+00  0.94486934173E+03  0.94486934173E+03  0.25500000920E-02 0.  1.
       -2   -1    0    0    0  501  0.00000000000E+00  0.00000000000E+00 -0.67766392177E+03  0.67766392177E+03  0.25500000920E-02 0. -1.
    10030    2    1    2    0    0  0.00000000000E+00  0.00000000000E+00  0.26720541996E+03  0.16225332635E+04  0.16003797845E+04 0.  0.
        3    1    3    3  502    0  0.30698042538E+03  0.70403701678E+03  0.36120699739E+03  0.84874943754E+03  0.10100000352E+00 0. -1.
       -3    1    3    3    0  502 -0.30698042538E+03 -0.70403701678E+03 -0.94001577430E+02  0.77378382596E+03  0.10100000352E+00 0.  1.
</event>
<event>
 5   0  0.1090674E-05  0.1600111E+04  0.7818609E-02  0.8820480E-01
        1   -1    0    0  501    0  0.00000000000E+00  0.00000000000E+00  0.65584729149E+03  0.65584729151E+03  0.50400001928E-02 0. -1.
       -1   -1    0    0    0  501  0.00000000000E+00  0.00000000000E+00 -0.97597270664E+03  0.97597270665E+03  0.50400001928E-02 0.  1.
    10030    2    1    2    0    0  0.00000000000E+00  0.00000000000E+00 -0.32012541515E+03  0.16318199982E+04  0.16001113164E+04 0.  0.
        4    1    3    3  502    0 -0.74456394422E+03  0.25367021858E+03 -0.11004050198E+02  0.78666813133E+03  0.12699999809E+01 0. -1.
       -4    1    3    3    0  502  0.74456394422E+03 -0.25367021858E+03 -0.30912136495E+03  0.84515186683E+03  0.12699999809E+01 0.  1.
</event>
<event>
 5   0  0.2046108E-05  0.1602232E+04  0.7818609E-02  0.8819178E-01
        2   -1    0    0  501    0  0.00000000000E+00  0.00000000000E+00  0.10139788367E+04  0.10139788367E+04  0.25500000920E-02 0. -1.
       -2   -1    0    0    0  501  0.00000000000E+00  0.00000000000E+00 -0.63293887429E+03  0.63293887430E+03  0.25500000920E-02 0.  1.
    10030    2    1    2    0    0  0.00000000000E+00  0.00000000000E+00  0.38103996240E+03  0.16469177110E+04  0.16022317229E+04 0.  0.
        1    1    3    3  502    0 -0.49486900015E+03  0.57544138757E+03 -0.73066141239E+02  0.76247411685E+03  0.50400001928E-02 0. -1.
       -1    1    3    3    0  502  0.49486900015E+03 -0.57544138757E+03  0.45410610364E+03  0.88444359415E+03  0.50400001928E-02 0.  1.
</event>
<event>
 5   0  0.2147844E-05  0.1599994E+04  0.7818609E-02  0.8820552E-01
        2   -1    0    0  501    0  0.00000000000E+00  0.00000000000E+00  0.73802227227E+03  0.73802227227E+03  0.25500000920E-02 0. -1.
       -2   -1    0    0    0  501  0.00000000000E+00  0.00000000000E+00 -0.86717614103E+03  0.86717614103E+03  0.25500000920E-02 0.  1.
    10030    2    1    2    0    0  0.00000000000E+00  0.00000000000E+00 -0.12915386876E+03  0.16051984133E+04  0.15999941326E+04 0.  0.
        2    1    3    3  502    0 -0.37632858684E+03  0.25669115273E+03 -0.72434945914E+03  0.85568434140E+03  0.25500000920E-02 0.  1.
       -2    1    3    3    0  502  0.37632858684E+03 -0.25669115273E+03  0.59519559038E+03  0.74951407190E+03  0.25500000920E-02 0. -1.
</event>
<event>
 5   0  0.1126485E-05  0.1600836E+04  0.7818609E-02  0.8820035E-01
        1   -1    0    0  501    0  0.00000000000E+00  0.00000000000E+00  0.86701077649E+03  0.86701077651E+03  0.50400001928E-02 0. -1.
       -1   -1    0    0    0  501  0.00000000000E+00  0.00000000000E+00 -0.73893985818E+03  0.73893985820E+03  0.50400001928E-02 0.  1.
    10030    2    1    2    0    0  0.00000000000E+00  0.00000000000E+00  0.12807091831E+03  0.16059506347E+04  0.16008358070E+04 0.  0.
        2    1    3    3  502    0  0.69094915840E+03  0.22622902765E+03 -0.27181548347E+03  0.77619196691E+03  0.25500000920E-02 0.  1.
       -2    1    3    3    0  502 -0.69094915840E+03 -0.22622902765E+03  0.39988640179E+03  0.82975866779E+03  0.25500000920E-02 0. -1.
</event>
<event>
 5   0  0.1994525E-05  0.1599893E+04  0.7818609E-02  0.8820614E-01
        2   -1    0    0  501    0  0.00000000000E+00  0.00000000000E+00  0.77074306285E+03  0.77074306285E+03  0.25500000920E-02 0. -1.
       -2   -1    0    0    0  501  0.00000000000E+00  0.00000000000E+00 -0.83025599263E+03  0.83025599263E+03  0.25500000920E-02 0.  1.
    10030    2    1    2    0    0  0.00000000000E+00  0.00000000000E+00 -0.59512929784E+02  0.16009990555E+04  0.15998925548E+04 0.  0.
        5    1    3    3  502    0  0.17502662261E+03  0.57764953960E+03 -0.55507538218E+03  0.82002687708E+03  0.46999998093E+01 0.  1.
       -5    1    3    3    0  502 -0.17502662261E+03 -0.57764953960E+03  0.49556245240E+03  0.78097217841E+03  0.46999998093E+01 0. -1.
</event>
<event>
 5   0  0.1081831E-05  0.1600168E+04  0.7818609E-02  0.8820445E-01
        1   -1    0    0  501    0  0.00000000000E+00  0.00000000000E+00  0.93246099879E+03  0.93246099881E+03  0.50400001928E-02 0.  1.
       -1   -1    0    0    0  501  0.00000000000E+00  0.00000000000E+00 -0.68649980647E+03  0.68649980649E+03  0.50400001928E-02 0. -1.
    10030    2    1    2    0    0  0.00000000000E+00  0.00000000000E+00  0.24596119232E+03  0.16189608053E+04  0.16001678602E+04 0.  0.
        3    1    3    3  502    0 -0.13627237295E+02 -0.47932686719E+03 -0.52500540265E+03  0.71103490085E+03  0.10100000352E+00 0. -1.
       -3    1    3    3    0  502  0.13627237295E+02  0.47932686719E+03  0.77096659498E+03  0.90792590445E+03  0.10100000352E+00 0.  1.
</event>
<event>
 5   0  0.1081831E-05  0.1600155E+04  0.7818609E-02  0.8820453E-01
       -1   -1    0    0    0  501  0.00000000000E+00  0.00000000000E+00  0.54332843391E+03  0.54332843393E+03  0.50400001928E-02 0. -1.
        1   -1    0    0  501    0  0.00000000000E+00  0.00000000000E+00 -0.11781535526E+04  0.11781535527E+04  0.50400001928E-02 0.  1.
    10030    2    1    2    0    0  0.00000000000E+00  0.00000000000E+00 -0.63482511874E+03  0.17214819866E+04  0.16001553983E+04 0.  0.
        3    1    3    3  502    0 -0.15662901188E+03 -0.47334218730E+03 -0.99058719978E+03  0.11089853399E+04  0.10100000352E+00 0.  1.
       -3    1    3    3    0  502  0.15662901188E+03  0.47334218730E+03  0.35576208104E+03  0.61249664665E+03  0.10100000352E+00 0. -1.
</event>
<event>
 5   0  0.1090674E-05  0.1599868E+04  0.7818609E-02  0.8820629E-01
       -1   -1    0    0    0  501  0.00000000000E+00  0.00000000000E+00  0.83864696968E+03  0.83864696969E+03  0.50400001928E-02 0.  1.
        1   -1    0    0  501    0  0.00000000000E+00  0.00000000000E+00 -0.76300838432E+03  0.76300838434E+03  0.50400001928E-02 0. -1.
    10030    2    1    2    0    0  0.00000000000E+00  0.00000000000E+00  0.75638585357E+02  0.16016553540E+04  0.15998683313E+04 0.  0.
        4    1    3    3  502    0  0.58376795771E+03 -0.54614439545E+03  0.89023037951E+01  0.79946206479E+03  0.12699999809E+01 0. -1.
       -4    1    3    3    0  502 -0.58376795771E+03  0.54614439545E+03  0.66736281562E+02  0.80219328924E+03  0.12699999809E+01 0.  1.
</event>
<event>
 5   0  0.1990948E-05  0.1600079E+04  0.7818609E-02  0.8820499E-01
        2   -1    0    0  501    0  0.00000000000E+00  0.00000000000E+00  0.97433262494E+03  0.97433262495E+03  0.25500000920E-02 0.  1.
       -2   -1    0    0    0  501  0.00000000000E+00  0.00000000000E+00 -0.65692473602E+03  0.65692473603E+03  0.25500000920E-02 0. -1.
    10030    2    1    2    0    0  0.00000000000E+00  0.00000000000E+00  0.31740788892E+03  0.16312573610E+04  0.16000790011E+04 0.  0.
        4    1    3    3  502    0  0.30766343659E+03  0.65165367287E+03 -0.19556146227E+03  0.74669618856E+03  0.12699999809E+01 0. -1.
       -4    1    3    3    0  502 -0.30766343659E+03 -0.65165367287E+03  0.51296935119E+03  0.88456117241E+03  0.12699999809E+01 0.  1.
</event>
<event>
 5   0  0.2147844E-05  0.1599729E+04  0.7818609E-02  0.8820714E-01
        2   -1    0    0  501    0  0.00000000000E+00  0.00000000000E+00  0.49653737892E+03  0.49653737893E+03  0.25500000920E-02 0.  1.
       -2   -1    0    0    0  501  0.00000000000E+00  0.00000000000E+00 -0.12884899080E+04  0.12884899080E+04  0.25500000920E-02 0. -1.
    10030    2    1    2    0    0  0.00000000000E+00  0.00000000000E+00 -0.79195252905E+03  0.17850272869E+04  0.15997292292E+04 0.  0.
        2    1    3    3  502    0 -0.34680180325E+03 -0.26838923110E+03  0.35044632212E+03  0.56135273652E+03  0.25500000920E-02 0.  1.
       -2    1    3    3    0  502  0.34680180325E+03  0.26838923110E+03 -0.11423988512E+04  0.12236745504E+04  0.25500000920E-02 0. -1.
</event>
<event>
 5   0  0.1990948E-05  0.1600555E+04  0.7818609E-02  0.8820207E-01
       -2   -1    0    0    0  501  0.00000000000E+00  0.00000000000E+00  0.14293033219E+04  0.14293033219E+04  0.25500000920E-02 0. -1.
        2   -1    0    0  501    0  0.00000000000E+00  0.00000000000E+00 -0.44808140730E+03  0.44808140731E+03  0.25500000920E-02 0.  1.
    10030    2    1    2    0    0  0.00000000000E+00  0.00000000000E+00  0.98122191461E+03  0.18773847292E+04  0.16005552086E+04 0.  0.
        4    1    3    3  502    0  0.58390627760E+03  0.51138136876E+03  0.71921807549E+03  0.10581747012E+04  0.12699999809E+01 0. -1.
       -4    1    3    3    0  502 -0.58390627760E+03 -0.51138136876E+03  0.26200383912E+03  0.81921002798E+03  0.12699999809E+01 0.  1.
</event>
<event>
 5   0  0.2046108E-05  0.1600312E+04  0.7818609E-02  0.8820357E-01
       -2   -1    0    0    0  501  0.00000000000E+00  0.00000000000E+00  0.38959946034E+03  0.38959946035E+03  0.25500000920E-02 0.  1.
        2   -1    0    0  501    0  0.00000000000E+00  0.00000000000E+00 -0.16433528265E+04  0.16433528265E+04  0.25500000920E-02 0. -1.
    10030    2    1    2    0    0  0.00000000000E+00  0.00000000000E+00 -0.12537533662E+04  0.20329522869E+04  0.16003116876E+04 0.  0.
        1    1    3    3  502    0  0.39985587450E+03 -0.65589461226E+03 -0.34234456841E+03  0.84100075285E+03  0.50400001928E-02 0.  1.
       -1    1    3    3    0  502 -0.39985587450E+03  0.65589461226E+03 -0.91140879776E+03  0.11919515340E+04  0.50400001928E-02 0. -1.
</event>
<event>
 5   0  0.2125803E-05  0.1600111E+04  0.7818609E-02  0.8820480E-01
        2   -1    0    0  501    0  0.00000000000E+00  0.00000000000E+00  0.55750280511E+03  0.55750280512E+03  0.25500000920E-02 0. -1.
       -2   -1    0    0    0  501  0.00000000000E+00  0.00000000000E+00 -0.11481356689E+04  0.11481356689E+04  0.25500000920E-02 0.  1.
    10030    2    1    2    0    0  0.00000000000E+00  0.00000000000E+00 -0.59063286376E+03  0.17056384740E+04  0.16001110662E+04 0.  0.
        3    1    3    3  502    0  0.62938334163E+03 -0.31532710366E+03  0.10993287055E+03  0.71248846956E+03  0.10100000352E+00 0. -1.
       -3    1    3    3    0  502 -0.62938334163E+03  0.31532710366E+03 -0.70056573431E+03  0.99315000444E+03  0.10100000352E+00 0.  1.
</event>
<event>
 5   0  0.1060251E-05  0.1600154E+04  0.7818609E-02  0.8820454E-01
       -1   -1    0    0    0  501  0.00000000000E+00  0.00000000000E+00  0.80118241347E+03  0.80118241348E+03  0.50400001928E-02 0. -1.
        1   -1    0    0  501    0  0.00000000000E+00  0.00000000000E+00 -0.79897275408E+03  0.79897275410E+03  0.50400001928E-02 0.  1.
    10030    2    1    2    0    0  0.00000000000E+00  0.00000000000E+00  0.22096593857E+01  0.16001551676E+04  0.16001536419E+04 0.  0.
        1    1    3    3  502    0 -0.57734489154E+03 -0.26557310239E+03 -0.48496838851E+03  0.79940636373E+03  0.50400001928E-02 0.  1.
       -1    1    3    3    0  502  0.57734489154E+03  0.26557310239E+03  0.48717804789E+03  0.80074880385E+03  0.50400001928E-02 0. -1.
</event>
<event>
 5   0  0.2147844E-05  0.1600673E+04  0.7818609E-02  0.8820134E-01
        2   -1    0    0  501    0  0.00000000000E+00  0.00000000000E+00  0.10661260762E+04  0.10661260762E+04  0.25500000920E-02 0.  1.
       -2   -1    0    0    0  501  0.00000000000E+00  0.00000000000E+00 -0.60080959068E+03  0.60080959068E+03  0.25500000920E-02 0. -1.
    10030    2    1    2    0    0  0.00000000000E+00  0.00000000000E+00  0.46531648553E+03  0.16669356669E+04  0.16006733227E+04 0.  0.
        2    1    3    3  502    0  0.62679466364E+03  0.47020101949E+03  0.62881148053E+02  0.78607543397E+03  0.25500000920E-02 0. -1.
       -2    1    3    3    0  502 -0.62679466364E+03 -0.47020101949E+03  0.40243533748E+03  0.88086023293E+03  0.25500000920E-02 0.  1.
</event>
<event>
 5   0  0.1126485E-05  0.1598438E+04  0.7818609E-02  0.8821508E-01
        1   -1    0    0  501    0  0.00000000000E+00  0.00000000000E+00  0.15382570835E+04  0.15382570835E+04  0.50400001928E-02 0.  1.
       -1   -1    0    0    0  501  0.00000000000E+00  0.00000000000E+00 -0.41524312753E+03  0.41524312756E+03  0.50400001928E-02 0. -1.
    10030    2    1    2    0    0  0.00000000000E+00  0.00000000000E+00  0.11230139559E+04  0.19535002110E+04  0.15984375901E+04 0.  0.
        2    1    3    3  502    0  0.42931078936E+03  0.28958141543E+03  0.13054882588E+04  0.14044446390E+04  0.25500000920E-02 0.  1.
       -2    1    3    3    0  502 -0.42931078936E+03 -0.28958141543E+03 -0.18247430287E+03  0.54905557208E+03  0.25500000920E-02 0. -1.
</event>
<event>
 5   0  0.1990948E-05  0.1599592E+04  0.7818609E-02  0.8820798E-01
        2   -1    0    0  501    0  0.00000000000E+00  0.00000000000E+00  0.16512818723E+04  0.16512818723E+04  0.25500000920E-02 0.  1.
       -2   -1    0    0    0  501  0.00000000000E+00  0.00000000000E+00 -0.38738020456E+03  0.38738020457E+03  0.25500000920E-02 0. -1.
    10030    2    1    2    0    0  0.00000000000E+00  0.00000000000E+00  0.12639016677E+04  0.20386620769E+04  0.15995923349E+04 0.  0.
        4    1    3    3  502    0  0.14205416724E+03 -0.52669790677E+03  0.13773710797E+04  0.14814664274E+04  0.12699999809E+01 0.  1.
       -4    1    3    3    0  502 -0.14205416724E+03  0.52669790677E+03 -0.11346941196E+03  0.55719564946E+03  0.12699999809E+01 0. -1.
</event>
<event>
 5   0  0.1990948E-05  0.1596108E+04  0.7818609E-02  0.8822942E-01
       -2   -1    0    0    0  501  0.00000000000E+00  0.00000000000E+00  0.43572563172E+03  0.43572563173E+03  0.25500000920E-02 0. -1.
        2   -1    0    0  501    0  0.00000000000E+00  0.00000000000E+00 -0.14616776530E+04  0.14616776530E+04  0.25500000920E-02 0.  1.
    10030    2    1    2    0    0  0.00000000000E+00  0.00000000000E+00 -0.10259520213E+04  0.18974032848E+04  0.15961082905E+04 0.  0.
        4    1    3    3  502    0  0.39154779793E+03 -0.25554129802E+03  0.25585286839E+03  0.53298530583E+03  0.12699999809E+01 0. -1.
       -4    1    3    3    0  502 -0.39154779793E+03  0.25554129802E+03 -0.12818048897E+04  0.13644179789E+04  0.12699999809E+01 0.  1.
</event>
<event>
 5   0  0.1060251E-05  0.1604243E+04  0.7818609E-02  0.8817946E-01
       -1   -1    0    0    0  501  0.00000000000E+00  0.00000000000E+00  0.23496791707E+04  0.23496791707E+04  0.50400001928E-02 0.  1.
        1   -1    0    0  501    0  0.00000000000E+00  0.00000000000E+00 -0.27382407951E+03  0.27382407956E+03  0.50400001928E-02 0. -1.
    10030    2    1    2    0    0  0.00000000000E+00  0.00000000000E+00  0.20758550912E+04  0.26235032503E+04  0.16042427948E+04 0.  0.
        1    1    3    3  502    0 -0.13417179181E+03  0.37628877437E+03  0.21754133313E+04  0.22117907843E+04  0.50400001928E-02 0.  1.
       -1    1    3    3    0  502  0.13417179181E+03 -0.37628877437E+03 -0.99558240121E+02  0.41171246597E+03  0.50400001928E-02 0. -1.
</event>
<event>
 5   0  0.1081831E-05  0.1599396E+04  0.7818609E-02  0.8820919E-01
        1   -1    0    0  501    0  0.00000000000E+00  0.00000000000E+00  0.58918629473E+03  0.58918629475E+03  0.50400001928E-02 0.  1.
       -1   -1    0    0    0  501  0.00000000000E+00  0.00000000000E+00 -0.10854244748E+04  0.10854244748E+04  0.50400001928E-02 0. -1.
    10030    2    1    2    0    0  0.00000000000E+00  0.00000000000E+00 -0.49623818007E+03  0.16746107696E+04  0.15993964168E+04 0.  0.
        3    1    3    3  502    0 -0.77580048184E+03 -0.10766643200E+03 -0.41713776212E+03  0.88739076567E+03  0.10100000352E+00 0. -1.
       -3    1    3    3    0  502  0.77580048184E+03  0.10766643200E+03 -0.79100417948E+02  0.78722000389E+03  0.10100000352E+00 0.  1.
</event>
<event>
 5   0  0.2125803E-05  0.1598499E+04  0.7818609E-02  0.8821471E-01
       -2   -1    0    0    0  501  0.00000000000E+00  0.00000000000E+00  0.64790417712E+03  0.64790417712E+03  0.25500000920E-02 0. -1.
        2   -1    0    0  501    0  0.00000000000E+00  0.00000000000E+00 -0.98594762671E+03  0.98594762671E+03  0.25500000920E-02 0.  1.
    10030    2    1    2    0    0  0.00000000000E+00  0.00000000000E+00 -0.33804344959E+03  0.16338518038E+04  0.15984987779E+04 0.  0.
        3    1    3    3  502    0  0.44790767754E+03 -0.59008709640E+03 -0.47561491451E+03  0.88035994118E+03  0.10100000352E+00 0.  1.
       -3    1    3    3    0  502 -0.44790767754E+03  0.59008709640E+03  0.13757146492E+03  0.75349186266E+03  0.10100000352E+00 0. -1.
</event>
<event>
 5   0  0.1057506E-05  0.1599999E+04  0.7818609E-02  0.8820548E-01
       -1   -1    0    0    0  501  0.00000000000E+00  0.00000000000E+00  0.61685594852E+03  0.61685594854E+03  0.50400001928E-02 0.  1.
        1   -1    0    0  501    0  0.00000000000E+00  0.00000000000E+00 -0.10375186689E+04  0.10375186689E+04  0.50400001928E-02 0. -1.
    10030    2    1    2    0    0  0.00000000000E+00  0.00000000000E+00 -0.42066272034E+03  0.16543746174E+04  0.15999994533E+04 0.  0.
        5    1    3    3  502    0  0.22034288576E+03  0.38053931682E+03  0.48067383934E+03  0.65148337567E+03  0.46999998093E+01 0.  1.
       -5    1    3    3    0  502 -0.22034288576E+03 -0.38053931682E+03 -0.90133655968E+03  0.10028912417E+04  0.46999998093E+01 0. -1.
</event>
<event>
 5   0  0.1090674E-05  0.1600683E+04  0.7818609E-02  0.8820129E-01
        1   -1    0    0  501    0  0.00000000000E+00  0.00000000000E+00  0.73318137822E+03  0.73318137824E+03  0.50400001928E-02 0. -1.
       -1   -1    0    0    0  501  0.00000000000E+00  0.00000000000E+00 -0.87365334973E+03  0.87365334974E+03  0.50400001928E-02 0.  1.
    10030    2    1    2    0    0  0.00000000000E+00  0.00000000000E+00 -0.14047197151E+03  0.16068347280E+04  0.16006828131E+04 0.  0.
        4    1    3    3  502    0 -0.37351046632E+03  0.56198186677E+03 -0.50225155113E+03  0.84118483138E+03  0.12699999809E+01 0.  1.
       -4    1    3    3    0  502  0.37351046632E+03 -0.56198186677E+03  0.36177957962E+03  0.76564989660E+03  0.12699999809E+01 0. -1.
</event>
<event>
 5   0  0.1990948E-05  0.1599382E+04  0.7818609E-02  0.8820928E-01
       -2   -1    0    0    0  501  0.00000000000E+00  0.00000000000E+00  0.85406106329E+03  0.85406106330E+03  0.25500000920E-02 0.  1.
        2   -1    0    0  501    0  0.00000000000E+00  0.00000000000E+00 -0.74878177398E+03  0.74878177398E+03  0.25500000920E-02 0. -1.
    10030    2    1    2    0    0  0.00000000000E+00  0.00000000000E+00  0.10527928931E+03  0.16028428373E+04  0.15993815781E+04 0.  0.
        4    1    3    3  502    0 -0.32784081220E+03  0.67847805248E+02  0.78044875428E+03  0.84922599688E+03  0.12699999809E+01 0.  1.
       -4    1    3    3    0  502  0.32784081220E+03 -0.67847805248E+02 -0.67516946497E+03  0.75361684040E+03  0.12699999809E+01 0. -1.
</event>
<event>
 5   0  0.2046108E-05  0.1600148E+04  0.7818609E-02  0.8820457E-01
       -2   -1    0    0    0  501  0.00000000000E+00  0.00000000000E+00  0.25392593685E+04  0.25392593685E+04  0.25500000920E-02 0.  1.
        2   -1    0    0  501    0  0.00000000000E+00  0.00000000000E+00 -0.25208874556E+03  0.25208874557E+03  0.25500000920E-02 0. -1.
    10030    2    1    2    0    0  0.00000000000E+00  0.00000000000E+00  0.22871706230E+04  0.27913481141E+04  0.16001483792E+04 0.  0.
        1    1    3    3  502    0 -0.19492520064E+03  0.22847931821E+03  0.24371958146E+04  0.24556306871E+04  0.50400001928E-02 0.  1.
       -1    1    3    3    0  502  0.19492520064E+03 -0.22847931821E+03 -0.15002519157E+03  0.33571742705E+03  0.50400001928E-02 0. -1.
</event>
<event>
 5   0  0.1126485E-05  0.1602661E+04  0.7818609E-02  0.8818915E-01
       -1   -1    0    0    0  501  0.00000000000E+00  0.00000000000E+00  0.79322096800E+03  0.79322096801E+03  0.50400001928E-02 0.  1.
        1   -1    0    0  501    0  0.00000000000E+00  0.00000000000E+00 -0.80952263406E+03  0.80952263408E+03  0.50400001928E-02 0. -1.
    10030    2    1    2    0    0  0.00000000000E+00  0.00000000000E+00 -0.16301666065E+02  0.16027436021E+04  0.16026606970E+04 0.  0.
        2    1    3    3  502    0  0.32726879726E+03 -0.45089492105E+02 -0.73825188352E+03  0.80879773212E+03  0.25500000920E-02 0. -1.
       -2    1    3    3    0  502 -0.32726879726E+03  0.45089492105E+02  0.72195021745E+03  0.79394586997E+03  0.25500000920E-02 0.  1.
</event>
<event>
 5   0  0.2147844E-05  0.1599434E+04  0.7818609E-02  0.8820896E-01
       -2   -1    0    0    0  501  0.00000000000E+00  0.00000000000E+00  0.67030352842E+03  0.67030352842E+03  0.25500000920E-02 0.  1.
        2   -1    0    0  501    0  0.00000000000E+00  0.00000000000E+00 -0.95411578880E+03  0.95411578881E+03  0.25500000920E-02 0. -1.
    10030    2    1    2    0    0  0.00000000000E+00  0.00000000000E+00 -0.28381226039E+03  0.16244193172E+04  0.15994338745E+04 0.  0.
        2    1    3    3  502    0  0.46616902983E+03  0.18533062504E+03 -0.77444032134E+03  0.92272358606E+03  0.25500000920E-02 0. -1.
       -2    1    3    3    0  502 -0.46616902983E+03 -0.18533062504E+03  0.49062806095E+03  0.70169573117E+03  0.25500000920E-02 0.  1.
</event>
<event>
 5   0  0.2046108E-05  0.1599231E+04  0.7818609E-02  0.8821021E-01
       -2   -1    0    0    0  501  0.00000000000E+00  0.00000000000E+00  0.62976151796E+03  0.62976151796E+03  0.25500000920E-02 0. -1.
        2   -1    0    0  501    0  0.00000000000E+00  0.00000000000E+00 -0.10152808509E+04  0.10152808509E+04  0.25500000920E-02 0.  1.
    10030    2    1    2    0    0  0.00000000000E+00  0.00000000000E+00 -0.38551933297E+03  0.16450423689E+04  0.15992308274E+04 0.  0.
        1    1    3    3  502    0  0.49420031144E+03  0.45963669287E+03 -0.63386169472E+03  0.92589442450E+03  0.50400001928E-02 0.  1.
       -1    1    3    3    0  502 -0.49420031144E+03 -0.45963669287E+03  0.24834236176E+03  0.71914794439E+03  0.50400001928E-02 0. -1.
</event>
<event>
 5   0  0.2125803E-05  0.1599644E+04  0.7818609E-02  0.8820767E-01
       -2   -1    0    0    0  501  0.00000000000E+00  0.00000000000E+00  0.60266156752E+03  0.60266156753E+03  0.25500000920E-02 0.  1.
        2   -1    0    0  501    0  0.00000000000E+00  0.00000000000E+00 -0.10614828529E+04  0.10614828529E+04  0.25500000920E-02 0. -1.
    10030    2    1    2    0    0  0.00000000000E+00  0.00000000000E+00 -0.45882128539E+03  0.16641444204E+04  0.15996436104E+04 0.  0.
        3    1    3    3  502    0  0.70697265844E+03 -0.26739377951E+03 -0.50150036368E+03  0.90709007165E+03  0.10100000352E+00 0. -1.
       -3    1    3    3    0  502 -0.70697265844E+03  0.26739377951E+03  0.42679078291E+02  0.75705434880E+03  0.10100000352E+00 0.  1.
</event>
<event>
 5   0  0.2147844E-05  0.1600246E+04  0.7818609E-02  0.8820397E-01
        2   -1    0    0  501    0  0.00000000000E+00  0.00000000000E+00  0.52448203125E+03  0.52448203126E+03  0.25500000920E-02 0. -1.
       -2   -1    0    0    0  501  0.00000000000E+00  0.00000000000E+00 -0.12206273911E+04  0.12206273911E+04  0.25500000920E-02 0.  1.
    10030    2    1    2    0    0  0.00000000000E+00  0.00000000000E+00 -0.69614535987E+03  0.17451094224E+04  0.16002463979E+04 0.  0.
        2    1    3    3  502    0  0.40104844198E+03  0.32806494121E+03  0.31681763256E+03  0.60732188399E+03  0.25500000920E-02 0. -1.
       -2    1    3    3    0  502 -0.40104844198E+03 -0.32806494121E+03 -0.10129629924E+04  0.11377875384E+04  0.25500000920E-02 0.  1.
</event>
<event>
 5   0  0.1057506E-05  0.1599772E+04  0.7818609E-02  0.8820688E-01
       -1   -1    0    0    0  501  0.00000000000E+00  0.00000000000E+00  0.57609716795E+03  0.57609716797E+03  0.50400001928E-02 0.  1.
        1   -1    0    0  501    0  0.00000000000E+00  0.00000000000E+00 -0.11106072111E+04  0.11106072111E+04  0.50400001928E-02 0. -1.
    10030    2    1    2    0    0  0.00000000000E+00  0.00000000000E+00 -0.53451004316E+03  0.16867043791E+04  0.15997720701E+04 0.  0.
        5    1    3    3  502    0 -0.34089164759E+03  0.35865532667E+03 -0.92985981216E+03  0.10533290649E+04  0.46999998093E+01 0. -1.
       -5    1    3    3    0  502  0.34089164759E+03 -0.35865532667E+03  0.39534976900E+03  0.63337531416E+03  0.46999998093E+01 0.  1.
</event>
<event>
 5   0  0.1990948E-05  0.1599089E+04  0.7818609E-02  0.8821108E-01
        2   -1    0    0  501    0  0.00000000000E+00  0.00000000000E+00  0.96406313768E+03  0.96406313768E+03  0.25500000920E-02 0. -1.
       -2   -1    0    0    0  501  0.00000000000E+00  0.00000000000E+00 -0.66310150066E+03  0.66310150066E+03  0.25500000920E-02 0.  1.
    10030    2    1    2    0    0  0.00000000000E+00  0.00000000000E+00  0.30096163702E+03  0.16271646383E+04  0.15990893825E+04 0.  0.
        4    1    3    3  502    0  0.57677645975E+03  0.53686807901E+03  0.12558924163E+02  0.78807217832E+03  0.12699999809E+01 0.  1.
       -4    1    3    3    0  502 -0.57677645975E+03 -0.53686807901E+03  0.28840271286E+03  0.83909246002E+03  0.12699999809E+01 0. -1.
</event>
<event>
 5   0  0.1081831E-05  0.1599332E+04  0.7818609E-02  0.8820958E-01
       -1   -1    0    0    0  501  0.00000000000E+00  0.00000000000E+00  0.67670925333E+03  0.67670925335E+03  0.50400001928E-02 0. -1.
        1   -1    0    0  501    0  0.00000000000E+00  0.00000000000E+00 -0.94496427794E+03  0.94496427796E+03  0.50400001928E-02 0.  1.
    10030    2    1    2    0    0  0.00000000000E+00  0.00000000000E+00 -0.26825502462E+03  0.16216735313E+04  0.15993324495E+04 0.  0.
        3    1    3    3  502    0  0.63332294844E+03 -0.38828953841E+03 -0.43423379798E+03  0.86047993827E+03  0.10100000352E+00 0.  1.
       -3    1    3    3    0  502 -0.63332294844E+03  0.38828953841E+03  0.16597877337E+03  0.76119359303E+03  0.10100000352E+00 0. -1.
</event>
<event>
 5   0  0.1060251E-05  0.1600507E+04  0.7818609E-02  0.8820237E-01
        1   -1    0    0  501    0  0.00000000000E+00  0.00000000000E+00  0.19339251517E+04  0.19339251518E+04  0.50400001928E-02 0. -1.
       -1   -1    0    0    0  501  0.00000000000E+00  0.00000000000E+00 -0.33114299666E+03  0.33114299670E+03  0.50400001928E-02 0.  1.
    10030    2    1    2    0    0  0.00000000000E+00  0.00000000000E+00  0.16027821551E+04  0.22650681485E+04  0.16005071323E+04 0.  0.
        1    1    3    3  502    0  0.13328981459E+03  0.64508064940E+03  0.15826698079E+03  0.67745380370E+03  0.50400001928E-02 0.  1.
       -1    1    3    3    0  502 -0.13328981459E+03 -0.64508064940E+03  0.14445151743E+04  0.15876143448E+04  0.50400001928E-02 0. -1.
</event>
<event>
 5   0  0.2125803E-05  0.1600468E+04  0.7818609E-02  0.8820261E-01
       -2   -1    0    0    0  501  0.00000000000E+00  0.00000000000E+00  0.56713364154E+03  0.56713364155E+03  0.25500000920E-02 0.  1.
        2   -1    0    0  501    0  0.00000000000E+00  0.00000000000E+00 -0.11291413669E+04  0.11291413669E+04  0.25500000920E-02 0. -1.
    10030    2    1    2    0    0  0.00000000000E+00  0.00000000000E+00 -0.56200772536E+03  0.16962750084E+04  0.16004675007E+04 0.  0.
        3    1    3    3  502    0  0.79139697084E+02 -0.41789351331E+03 -0.99942781460E+03  0.10861648341E+04  0.10100000352E+00 0. -1.
       -3    1    3    3    0  502 -0.79139697084E+02  0.41789351331E+03  0.43742008924E+03  0.61011017431E+03  0.10100000352E+00 0.  1.
</event>
<event>
 5   0  0.7597000E-06  0.1599621E+04  0.7818609E-02  0.8820781E-01
        3   -1    0    0  501    0  0.00000000000E+00  0.00000000000E+00  0.25216409905E+03  0.25216411928E+03  0.10100000352E+00 0.  1.
       -3   -1    0    0    0  501  0.00000000000E+00  0.00000000000E+00 -0.25368288335E+04  0.25368288355E+04  0.10100000352E+00 0. -1.
    10030    2    1    2    0    0  0.00000000000E+00  0.00000000000E+00 -0.22846647344E+04  0.27889929548E+04  0.15996214405E+04 0.  0.
        4    1    3    3  502    0  0.49883025215E+03  0.50471645540E+03 -0.17856116324E+04  0.19214527930E+04  0.12699999809E+01 0.  1.
       -4    1    3    3    0  502 -0.49883025215E+03 -0.50471645540E+03 -0.49905310197E+03  0.86754016178E+03  0.12699999809E+01 0. -1.
</event>
<event>
 5   0  0.1081831E-05  0.1601056E+04  0.7818609E-02  0.8819899E-01
       -1   -1    0    0    0  501  0.00000000000E+00  0.00000000000E+00  0.14010104286E+04  0.14010104286E+04  0.50400001928E-02 0. -1.
        1   -1    0    0  501    0  0.00000000000E+00  0.00000000000E+00 -0.45741661964E+03  0.45741661967E+03  0.50400001928E-02 0.  1.
    10030    2    1    2    0    0  0.00000000000E+00  0.00000000000E+00  0.94359380897E+03  0.18584270483E+04  0.16010564692E+04 0.  0.
        3    1    3    3  502    0 -0.59195194452E+03 -0.29181862542E+03  0.99770811705E+03  0.11962385681E+04  0.10100000352E+00 0. -1.
       -3    1    3    3    0  502  0.59195194452E+03  0.29181862542E+03 -0.54114308076E+02  0.66218848020E+03  0.10100000352E+00 0.  1.
</event>
<event>
 5   0  0.1090674E-05  0.1602624E+04  0.7818609E-02  0.8818937E-01
        1   -1    0    0  501    0  0.00000000000E+00  0.00000000000E+00  0.76118956285E+03  0.76118956287E+03  0.50400001928E-02 0. -1.
       -1   -1    0    0    0  501  0.00000000000E+00  0.00000000000E+00 -0.84354955477E+03  0.84354955478E+03  0.50400001928E-02 0.  1.
    10030    2    1    2    0    0  0.00000000000E+00  0.00000000000E+00 -0.82359991914E+02  0.16047391177E+04  0.16026242440E+04 0.  0.
        4    1    3    3  502    0 -0.67471990536E+03 -0.19912718176E+03  0.34299402330E+03  0.78265260373E+03  0.12699999809E+01 0. -1.
       -4    1    3    3    0  502  0.67471990536E+03  0.19912718176E+03 -0.42535401522E+03  0.82208651392E+03  0.12699999809E+01 0.  1.
</event>
<event>
 5   0  0.1057506E-05  0.1598004E+04  0.7818609E-02  0.8821775E-01
       -1   -1    0    0    0  501  0.00000000000E+00  0.00000000000E+00  0.31520913883E+03  0.31520913887E+03  0.50400001928E-02 0. -1.
        1   -1    0    0  501    0  0.00000000000E+00  0.00000000000E+00 -0.20253347648E+04  0.20253347648E+04  0.50400001928E-02 0.  1.
    10030    2    1    2    0    0  0.00000000000E+00  0.00000000000E+00 -0.17101256259E+04  0.23405439037E+04  0.15980037886E+04 0.  0.
        5    1    3    3  502    0 -0.45625636474E+03  0.43468375274E+02  0.10350858376E+03  0.46988880273E+03  0.46999998093E+01 0. -1.
       -5    1    3    3    0  502  0.45625636474E+03 -0.43468375274E+02 -0.18136342097E+04  0.18706551009E+04  0.46999998093E+01 0.  1.
</event>
<event>
 5   0  0.1090674E-05  0.1600709E+04  0.7818609E-02  0.8820113E-01
       -1   -1    0    0    0  501  0.00000000000E+00  0.00000000000E+00  0.39061330724E+03  0.39061330727E+03  0.50400001928E-02 0.  1.
        1   -1    0    0  501    0  0.00000000000E+00  0.00000000000E+00 -0.16399009840E+04  0.16399009840E+04  0.50400001928E-02 0. -1.
    10030    2    1    2    0    0  0.00000000000E+00  0.00000000000E+00 -0.12492876768E+04  0.20305142913E+04  0.16007087767E+04 0.  0.
        4    1    3    3  502    0 -0.69669753333E+03  0.12010976327E+02 -0.11241110057E+04  0.13225577048E+04  0.12699999809E+01 0. -1.
       -4    1    3    3    0  502  0.69669753333E+03 -0.12010976327E+02 -0.12517667111E+03  0.70795658652E+03  0.12699999809E+01 0.  1.
</event>
<event>
 5   0  0.2125803E-05  0.1599756E+04  0.7818609E-02  0.8820698E-01
        2   -1    0    0  501    0  0.00000000000E+00  0.00000000000E+00  0.25531845652E+04  0.25531845652E+04  0.25500000920E-02 0. -1.
       -2   -1    0    0    0  501  0.00000000000E+00  0.00000000000E+00 -0.25059093736E+03  0.25059093738E+03  0.25500000920E-02 0.  1.
    10030    2    1    2    0    0  0.00000000000E+00  0.00000000000E+00  0.23025936278E+04  0.28037755026E+04  0.15997561233E+04 0.  0.
        3    1    3    3  502    0  0.52690735364E+03  0.28646570592E+03  0.20788834728E+04  0.21636659779E+04  0.10100000352E+00 0. -1.
       -3    1    3    3    0  502 -0.52690735364E+03 -0.28646570592E+03  0.22371015504E+03  0.64010952474E+03  0.10100000352E+00 0.  1.
</event>
<event>
 5   0  0.1060251E-05  0.1599186E+04  0.7818609E-02  0.8821049E-01
       -1   -1    0    0    0  501  0.00000000000E+00  0.00000000000E+00  0.56517530169E+03  0.56517530172E+03  0.50400001928E-02 0. -1.
        1   -1    0    0  501    0  0.00000000000E+00  0.00000000000E+00 -0.11312394308E+04  0.11312394308E+04  0.50400001928E-02 0.  1.
    10030    2    1    2    0    0  0.00000000000E+00  0.00000000000E+00 -0.56606412913E+03  0.16964147325E+04  0.15991855260E+04 0.  0.
        1    1    3    3  502    0 -0.13491165393E+03  0.58435597267E+03 -0.84402891044E+03  0.10354022691E+04  0.50400001928E-02 0.  1.
       -1    1    3    3    0  502  0.13491165393E+03 -0.58435597267E+03  0.27796478131E+03  0.66101246345E+03  0.50400001928E-02 0. -1.
</event>
<event>
 5   0  0.2125803E-05  0.1601997E+04  0.7818609E-02  0.8819322E-01
        2   -1    0    0  501    0  0.00000000000E+00  0.00000000000E+00  0.16194563892E+04  0.16194563892E+04  0.25500000920E-02 0. -1.
       -2   -1    0    0    0  501  0.00000000000E+00  0.00000000000E+00 -0.39618166122E+03  0.39618166123E+03  0.25500000920E-02 0.  1.
    10030    2    1    2    0    0  0.00000000000E+00  0.00000000000E+00  0.12232747280E+04  0.20156380505E+04  0.16019974065E+04 0.  0.
        3    1    3    3  502    0  0.62100593590E+03  0.48759991041E+03  0.78136362888E+03  0.11108245477E+04  0.10100000352E+00 0.  1.
       -3    1    3    3    0  502 -0.62100593590E+03 -0.48759991041E+03  0.44191109914E+03  0.90481350277E+03  0.10100000352E+00 0. -1.
</event>
<event>
 5   0  0.1990948E-05  0.1599019E+04  0.7818609E-02  0.8821151E-01
       -2   -1    0    0    0  501  0.00000000000E+00  0.00000000000E+00  0.88665930158E+03  0.88665930158E+03  0.25500000920E-02 0. -1.
        2   -1    0    0  501    0  0.00000000000E+00  0.00000000000E+00 -0.72092523363E+03  0.72092523364E+03  0.25500000920E-02 0.  1.
    10030    2    1    2    0    0  0.00000000000E+00  0.00000000000E+00  0.16573406795E+03  0.16075845352E+04  0.15990185292E+04 0.  0.
        4    1    3    3  502    0  0.31377955463E+03 -0.97196612844E+02  0.81568105650E+03  0.87934179321E+03  0.12699999809E+01 0. -1.
       -4    1    3    3    0  502 -0.31377955463E+03  0.97196612844E+02 -0.64994698855E+03  0.72824274201E+03  0.12699999809E+01 0.  1.
</event>
<event>
 5   0  0.1090674E-05  0.1600081E+04  0.7818609E-02  0.8820498E-01
       -1   -1    0    0    0  501  0.00000000000E+00  0.00000000000E+00  0.35977375183E+03  0.35977375186E+03  0.50400001928E-02 0. -1.
        1   -1    0    0  501    0  0.00000000000E+00  0.00000000000E+00 -0.17790751349E+04  0.17790751349E+04  0.50400001928E-02 0.  1.
    10030    2    1    2    0    0  0.00000000000E+00  0.00000000000E+00 -0.14193013830E+04  0.21388488867E+04  0.16000806681E+04 0.  0.
        4    1    3    3  502    0  0.33449316032E+03  0.55460739589E+03 -0.13374618819E+04  0.14860285786E+04  0.12699999809E+01 0.  1.
       -4    1    3    3    0  502 -0.33449316032E+03 -0.55460739589E+03 -0.81839501106E+02  0.65282030814E+03  0.12699999809E+01 0. -1.
</event>
<event>
 5   0  0.1060251E-05  0.1600162E+04  0.7818609E-02  0.8820448E-01
       -1   -1    0    0    0  501  0.00000000000E+00  0.00000000000E+00  0.87195445552E+03  0.87195445554E+03  0.50400001928E-02 0. -1.
        1   -1    0    0  501    0  0.00000000000E+00  0.00000000000E+00 -0.73413230122E+03  0.73413230123E+03  0.50400001928E-02 0.  1.
    10030    2    1    2    0    0  0.00000000000E+00  0.00000000000E+00  0.13782215431E+03  0.16060867568E+04  0.16001624055E+04 0.  0.
        1    1    3    3  502    0 -0.12079818602E+03 -0.29366208789E+03  0.80600065786E+03  0.86629480207E+03  0.50400001928E-02 0. -1.
       -1    1    3    3    0  502  0.12079818602E+03  0.29366208789E+03 -0.66817850355E+03  0.73979195470E+03  0.50400001928E-02 0.  1.
</event>
<event>
 5   0  0.2147844E-05  0.1601337E+04  0.7818609E-02  0.8819727E-01
       -2   -1    0    0    0  501  0.00000000000E+00  0.00000000000E+00  0.43030496959E+03  0.43030496960E+03  0.25500000920E-02 0.  1.
        2   -1    0    0  501    0  0.00000000000E+00  0.00000000000E+00 -0.14898032955E+04  0.14898032955E+04  0.25500000920E-02 0. -1.
    10030    2    1    2    0    0  0.00000000000E+00  0.00000000000E+00 -0.10594983259E+04  0.19201082651E+04  0.16013366439E+04 0.  0.
        2    1    3    3  502    0 -0.51238101045E+03 -0.26664386204E+03 -0.11945947613E+04  0.13269099038E+04  0.25500000920E-02 0. -1.
       -2    1    3    3    0  502  0.51238101045E+03  0.26664386204E+03  0.13509643537E+03  0.59319836133E+03  0.25500000920E-02 0.  1.
</event>
<event>
 5   0  0.2125803E-05  0.1599473E+04  0.7818609E-02  0.8820872E-01
        2   -1    0    0  501    0  0.00000000000E+00  0.00000000000E+00  0.22641462185E+04  0.22641462185E+04  0.25500000920E-02 0. -1.
       -2   -1    0    0    0  501  0.00000000000E+00  0.00000000000E+00 -0.28248123178E+03  0.28248123179E+03  0.25500000920E-02 0.  1.
    10030    2    1    2    0    0  0.00000000000E+00  0.00000000000E+00  0.19816649867E+04  0.25466274503E+04  0.15994734293E+04 0.  0.
        3    1    3    3  502    0  0.27009603454E+03  0.60879107226E+03  0.16957151519E+04  0.18218200581E+04  0.10100000352E+00 0. -1.
       -3    1    3    3    0  502 -0.27009603454E+03 -0.60879107226E+03  0.28594983482E+03  0.72480739218E+03  0.10100000352E+00 0.  1.
</event>
<event>
 5   0  0.1090674E-05  0.1601824E+04  0.7818609E-02  0.8819429E-01
        1   -1    0    0  501    0  0.00000000000E+00  0.00000000000E+00  0.10026334481E+04  0.10026334481E+04  0.50400001928E-02 0.  1.
       -1   -1    0    0    0  501  0.00000000000E+00  0.00000000000E+00 -0.63977482999E+03  0.63977483001E+03  0.50400001928E-02 0. -1.
    10030    2    1    2    0    0  0.00000000000E+00  0.00000000000E+00  0.36285861812E+03  0.16424082781E+04  0.16018235157E+04 0.  0.
        4    1    3    3  502    0  0.21823921737E+03  0.49313655892E+03 -0.42572755679E+03  0.68706447096E+03  0.12699999809E+01 0. -1.
       -4    1    3    3    0  502 -0.21823921737E+03 -0.49313655892E+03  0.78858617490E+03  0.95534380717E+03  0.12699999809E+01 0.  1.
</event>
<event>
 5   0  0.1126485E-05  0.1599713E+04  0.7818609E-02  0.8820725E-01
        1   -1    0    0  501    0  0.00000000000E+00  0.00000000000E+00  0.68164561574E+03  0.68164561576E+03  0.50400001928E-02 0.  1.
       -1   -1    0    0    0  501  0.00000000000E+00  0.00000000000E+00 -0.93856711914E+03  0.93856711916E+03  0.50400001928E-02 0. -1.
    10030    2    1    2    0    0  0.00000000000E+00  0.00000000000E+00 -0.25692150340E+03  0.16202127349E+04  0.15997126765E+04 0.  0.
        2    1    3    3  502    0  0.30332109682E+03 -0.74195279238E+02 -0.87428148888E+03  0.92837317337E+03  0.25500000920E-02 0. -1.
       -2    1    3    3    0  502 -0.30332109682E+03  0.74195279238E+02  0.61735998547E+03  0.69183956154E+03  0.25500000920E-02 0.  1.
</event>
<event>
 5   0  0.1060251E-05  0.1599411E+04  0.7818609E-02  0.8820910E-01
        1   -1    0    0  501    0  0.00000000000E+00  0.00000000000E+00  0.80311676724E+03  0.80311676725E+03  0.50400001928E-02 0.  1.
       -1   -1    0    0    0  501  0.00000000000E+00  0.00000000000E+00 -0.79630891268E+03  0.79630891269E+03  0.50400001928E-02 0. -1.
    10030    2    1    2    0    0  0.00000000000E+00  0.00000000000E+00  0.68078545594E+01  0.15994256799E+04  0.15994111913E+04 0.  0.
        1    1    3    3  502    0 -0.41601842335E+03 -0.20844382940E+03 -0.64699329365E+03  0.79694446521E+03  0.50400001928E-02 0. -1.
       -1    1    3    3    0  502  0.41601842335E+03  0.20844382940E+03  0.65380114821E+03  0.80248121474E+03  0.50400001928E-02 0.  1.
</event>
<event>
 5   0  0.2147844E-05  0.1599926E+04  0.7818609E-02  0.8820593E-01
        2   -1    0    0  501    0  0.00000000000E+00  0.00000000000E+00  0.81817084614E+03  0.81817084614E+03  0.25500000920E-02 0. -1.
       -2   -1    0    0    0  501  0.00000000000E+00  0.00000000000E+00 -0.78216063603E+03  0.78216063604E+03  0.25500000920E-02 0.  1.
    10030    2    1    2    0    0  0.00000000000E+00  0.00000000000E+00  0.36010210109E+02  0.16003314822E+04  0.15999262851E+04 0.  0.
        2    1    3    3  502    0  0.41380326565E+03  0.44096646475E+03  0.54183274618E+03  0.81195276373E+03  0.25500000920E-02 0.  1.
       -2    1    3    3    0  502 -0.41380326565E+03 -0.44096646475E+03 -0.50582253607E+03  0.78837871845E+03  0.25500000920E-02 0. -1.
</event>
<event>
 5   0  0.1057506E-05  0.1599936E+04  0.7818609E-02  0.8820588E-01
        1   -1    0    0  501    0  0.00000000000E+00  0.00000000000E+00  0.21761999572E+04  0.21761999572E+04  0.50400001928E-02 0. -1.
       -1   -1    0    0    0  501  0.00000000000E+00  0.00000000000E+00 -0.29406693533E+03  0.29406693538E+03  0.50400001928E-02 0.  1.
    10030    2    1    2    0    0  0.00000000000E+00  0.00000000000E+00  0.18821330219E+04  0.24702668926E+04  0.15999355639E+04 0.  0.
        5    1    3    3  502    0  0.64232337568E+03 -0.42670095465E+03  0.12695871404E+04  0.14854381915E+04  0.46999998093E+01 0.  1.
       -5    1    3    3    0  502 -0.64232337568E+03  0.42670095465E+03  0.61254588153E+03  0.98482870116E+03  0.46999998093E+01 0. -1.
</event>
<event>
 5   0  0.1081831E-05  0.1599202E+04  0.7818609E-02  0.8821038E-01
        1   -1    0    0  501    0  0.00000000000E+00  0.00000000000E+00  0.83552282761E+03  0.83552282762E+03  0.50400001928E-02 0.  1.
       -1   -1    0    0    0  501  0.00000000000E+00  0.00000000000E+00 -0.76522372968E+03  0.76522372970E+03  0.50400001928E-02 0. -1.
    10030    2    1    2    0    0  0.00000000000E+00  0.00000000000E+00  0.70299097928E+02  0.16007465573E+04  0.15992021691E+04 0.  0.
        3    1    3    3  502    0 -0.72565926773E+03 -0.24156438456E+03 -0.19837204207E+03  0.79011784058E+03  0.10100000352E+00 0.  1.
       -3    1    3    3    0  502  0.72565926773E+03  0.24156438456E+03  0.26867114000E+03  0.81062871674E+03  0.10100000352E+00 0. -1.
</event>
<event>
 5   0  0.2125803E-05  0.1600059E+04  0.7818609E-02  0.8820512E-01
        2   -1    0    0  501    0  0.00000000000E+00  0.00000000000E+00  0.17359050874E+04  0.17359050874E+04  0.25500000920E-02 0.  1.
       -2   -1    0    0    0  501  0.00000000000E+00  0.00000000000E+00 -0.36871077624E+03  0.36871077625E+03  0.25500000920E-02 0. -1.
    10030    2    1    2    0    0  0.00000000000E+00  0.00000000000E+00  0.13671943112E+04  0.21046158637E+04  0.16000586393E+04 0.  0.
        3    1    3    3  502    0 -0.10865049555E+02 -0.67714128117E+03  0.12438264345E+04  0.14162424133E+04  0.10100000352E+00 0.  1.
       -3    1    3    3    0  502  0.10865049555E+02  0.67714128117E+03  0.12336787670E+03  0.68837345036E+03  0.10100000352E+00 0. -1.
</event>
<event>
 5   0  0.2125803E-05  0.1600110E+04  0.7818609E-02  0.8820480E-01
        2   -1    0    0  501    0  0.00000000000E+00  0.00000000000E+00  0.21547608389E+04  0.21547608389E+04  0.25500000920E-02 0.  1.
       -2   -1    0    0    0  501  0.00000000000E+00  0.00000000000E+00 -0.29705770189E+03  0.29705770190E+03  0.25500000920E-02 0. -1.
    10030    2    1    2    0    0  0.00000000000E+00  0.00000000000E+00  0.18577031371E+04  0.24518185408E+04  0.16001103749E+04 0.  0.
        3    1    3    3  502    0 -0.22719956414E+02 -0.53883202517E+03  0.23336900894E+02  0.53981549525E+03  0.10100000352E+00 0. -1.
       -3    1    3    3    0  502  0.22719956414E+02  0.53883202517E+03  0.18343662362E+04  0.19120030456E+04  0.10100000352E+00 0.  1.
</event>
<event>
 5   0  0.1060251E-05  0.1601123E+04  0.7818609E-02  0.8819859E-01
        1   -1    0    0  501    0  0.00000000000E+00  0.00000000000E+00  0.11006819208E+04  0.11006819208E+04  0.50400001928E-02 0.  1.
       -1   -1    0    0    0  501  0.00000000000E+00  0.00000000000E+00 -0.58227400686E+03  0.58227400688E+03  0.50400001928E-02 0. -1.
    10030    2    1    2    0    0  0.00000000000E+00  0.00000000000E+00  0.51840791397E+03  0.16829559277E+04  0.16011226965E+04 0.  0.
        1    1    3    3  502    0 -0.69293268080E+03  0.37861384393E+03  0.12057563258E+03  0.79877570453E+03  0.50400001928E-02 0. -1.
       -1    1    3    3    0  502  0.69293268080E+03 -0.37861384393E+03  0.39783228139E+03  0.88418022319E+03  0.50400001928E-02 0.  1.
</event>
<event>
 5   0  0.2046108E-05  0.1600413E+04  0.7818609E-02  0.8820294E-01
        2   -1    0    0  501    0  0.00000000000E+00  0.00000000000E+00  0.95259329659E+03  0.95259329660E+03  0.25500000920E-02 0. -1.
       -2   -1    0    0    0  501  0.00000000000E+00  0.00000000000E+00 -0.67219747810E+03  0.67219747811E+03  0.25500000920E-02 0.  1.
    10030    2    1    2    0    0  0.00000000000E+00  0.00000000000E+00  0.28039581849E+03  0.16247907747E+04  0.16004134611E+04 0.  0.
        1    1    3    3  502    0 -0.40425802490E+03 -0.50803585576E+03 -0.33469391613E+03  0.73044164651E+03  0.50400001928E-02 0.  1.
       -1    1    3    3    0  502  0.40425802490E+03  0.50803585576E+03  0.61508973462E+03  0.89434912819E+03  0.50400001928E-02 0. -1.
</event>
<event>
 5   0  0.1126485E-05  0.1598165E+04  0.7818609E-02  0.8821676E-01
       -1   -1    0    0    0  501  0.00000000000E+00  0.00000000000E+00  0.39595982385E+03  0.39595982388E+03  0.50400001928E-02 0. -1.
        1   -1    0    0  501    0  0.00000000000E+00  0.00000000000E+00 -0.16126210978E+04  0.16126210978E+04  0.50400001928E-02 0.  1.
    10030    2    1    2    0    0  0.00000000000E+00  0.00000000000E+00 -0.12166612740E+04  0.20085809217E+04  0.15981654055E+04 0.  0.
        2    1    3    3  502    0 -0.70377423432E+03  0.27941056260E+03 -0.92915985251E+03  0.11986269090E+04  0.25500000920E-02 0. -1.
       -2    1    3    3    0  502  0.70377423432E+03 -0.27941056260E+03 -0.28750142145E+03  0.80995401272E+03  0.25500000920E-02 0.  1.
</event>
<event>
 5   0  0.1060251E-05  0.1599897E+04  0.7818609E-02  0.8820611E-01
       -1   -1    0    0    0  501  0.00000000000E+00  0.00000000000E+00  0.88904202061E+03  0.88904202063E+03  0.50400001928E-02 0. -1.
        1   -1    0    0  501    0  0.00000000000E+00  0.00000000000E+00 -0.71978331292E+03  0.71978331294E+03  0.50400001928E-02 0.  1.
    10030    2    1    2    0    0  0.00000000000E+00  0.00000000000E+00  0.16925870769E+03  0.16088253336E+04  0.15998970104E+04 0.  0.
        1    1    3    3  502    0 -0.19868731201E+03  0.15027808495E+03  0.84904088832E+03  0.88483364585E+03  0.50400001928E-02 0. -1.
       -1    1    3    3    0  502  0.19868731201E+03 -0.15027808495E+03 -0.67978218062E+03  0.72399168772E+03  0.50400001928E-02 0.  1.
</event>
<event>
 5   0  0.7597000E-06  0.1601111E+04  0.7818609E-02  0.8819866E-01
       -4   -1    0    0    0  501  0.00000000000E+00  0.00000000000E+00  0.34589207430E+03  0.34589440580E+03  0.12699999809E+01 0. -1.
        4   -1    0    0  501    0  0.00000000000E+00  0.00000000000E+00 -0.18528495052E+04  0.18528499405E+04  0.12699999809E+01 0.  1.
    10030    2    1    2    0    0  0.00000000000E+00  0.00000000000E+00 -0.15069574309E+04  0.21987443463E+04  0.16011108649E+04 0.  0.
        3    1    3    3  502    0 -0.96377820282E+02 -0.35714520320E+03  0.22148647676E+03  0.43115849754E+03  0.10100000352E+00 0. -1.
       -3    1    3    3    0  502  0.96377820282E+02  0.35714520320E+03 -0.17284439077E+04  0.17675858487E+04  0.10100000352E+00 0.  1.
</event>
<event>
 5   0  0.2046108E-05  0.1600124E+04  0.7818609E-02  0.8820472E-01
        2   -1    0    0  501    0  0.00000000000E+00  0.00000000000E+00  0.75988220042E+03  0.75988220042E+03  0.25500000920E-02 0. -1.
       -2   -1    0    0    0  501  0.00000000000E+00  0.00000000000E+00 -0.84236677098E+03  0.84236677098E+03  0.25500000920E-02 0.  1.
    10030    2    1    2    0    0  0.00000000000E+00  0.00000000000E+00 -0.82484570562E+02  0.16022489714E+04  0.16001243895E+04 0.  0.
        1    1    3    3  502    0 -0.75205908167E+03 -0.26294424033E+03  0.32114658604E+02  0.79734803390E+03  0.50400001928E-02 0. -1.
       -1    1    3    3    0  502  0.75205908167E+03  0.26294424033E+03 -0.11459922917E+03  0.80490093750E+03  0.50400001928E-02 0.  1.
</event>
<event>
 5   0  0.1090674E-05  0.1598347E+04  0.7818609E-02  0.8821564E-01
       -1   -1    0    0    0  501  0.00000000000E+00  0.00000000000E+00  0.60996614715E+03  0.60996614717E+03  0.50400001928E-02 0.  1.
        1   -1    0    0  501    0  0.00000000000E+00  0.00000000000E+00 -0.10470715497E+04  0.10470715498E+04  0.50400001928E-02 0. -1.
    10030    2    1    2    0    0  0.00000000000E+00  0.00000000000E+00 -0.43710540259E+03  0.16570376969E+04  0.15983468948E+04 0.  0.
        4    1    3    3  502    0 -0.11330414791E+03 -0.32847482917E+03 -0.96466182170E+03  0.10253329150E+04  0.12699999809E+01 0. -1.
       -4    1    3    3    0  502  0.11330414791E+03  0.32847482917E+03  0.52755641911E+03  0.63170478198E+03  0.12699999809E+01 0.  1.
</event>
<event>
 5   0  0.1126485E-05  0.1600150E+04  0.7818609E-02  0.8820456E-01
        1   -1    0    0  501    0  0.00000000000E+00  0.00000000000E+00  0.61533870361E+03  0.61533870363E+03  0.50400001928E-02 0. -1.
       -1   -1    0    0    0  501  0.00000000000E+00  0.00000000000E+00 -0.10402722453E+04  0.10402722454E+04  0.50400001928E-02 0.  1.
    10030    2    1    2    0    0  0.00000000000E+00  0.00000000000E+00 -0.42493354173E+03  0.16556109490E+04  0.16001497116E+04 0.  0.
        2    1    3    3  502    0 -0.44970735578E+03 -0.11166441985E+03  0.46237759405E+03  0.65459811181E+03  0.25500000920E-02 0. -1.
       -2    1    3    3    0  502  0.44970735578E+03  0.11166441985E+03 -0.88731113578E+03  0.10010128372E+04  0.25500000920E-02 0.  1.
</event>
<event>
 5   0  0.2147844E-05  0.1600209E+04  0.7818609E-02  0.8820420E-01
       -2   -1    0    0    0  501  0.00000000000E+00  0.00000000000E+00  0.25071805561E+03  0.25071805563E+03  0.25500000920E-02 0. -1.
        2   -1    0    0  501    0  0.00000000000E+00  0.00000000000E+00 -0.25533355290E+04  0.25533355291E+04  0.25500000920E-02 0.  1.
    10030    2    1    2    0    0  0.00000000000E+00  0.00000000000E+00 -0.23026174734E+04  0.28040535847E+04  0.16002091353E+04 0.  0.
        2    1    3    3  502    0 -0.91219537524E+02 -0.54625434963E+03 -0.13943446722E+03  0.57110138256E+03  0.25500000920E-02 0. -1.
       -2    1    3    3    0  502  0.91219537524E+02  0.54625434963E+03 -0.21631830062E+04  0.22329522021E+04  0.25500000920E-02 0.  1.
</event>
<event>
 5   0  0.1081831E-05  0.1599432E+04  0.7818609E-02  0.8820897E-01
       -1   -1    0    0    0  501  0.00000000000E+00  0.00000000000E+00  0.18673123379E+04  0.18673123379E+04  0.50400001928E-02 0. -1.
        1   -1    0    0  501    0  0.00000000000E+00  0.00000000000E+00 -0.34249546759E+03  0.34249546762E+03  0.50400001928E-02 0.  1.
    10030    2    1    2    0    0  0.00000000000E+00  0.00000000000E+00  0.15248168704E+04  0.22098078056E+04  0.15994324148E+04 0.  0.
        3    1    3    3  502    0 -0.36935555314E+03 -0.27421990563E+03 -0.14139275078E+03  0.48126084554E+03  0.10100000352E+00 0.  1.
       -3    1    3    3    0  502  0.36935555314E+03  0.27421990563E+03  0.16662096211E+04  0.17285469600E+04  0.10100000352E+00 0. -1.
</event>
<event>
 5   0  0.1994525E-05  0.1600261E+04  0.7818609E-02  0.8820387E-01
       -2   -1    0    0    0  501  0.00000000000E+00  0.00000000000E+00  0.71922959281E+03  0.71922959281E+03  0.25500000920E-02 0. -1.
        2   -1    0    0  501    0  0.00000000000E+00  0.00000000000E+00 -0.89013180246E+03  0.89013180247E+03  0.25500000920E-02 0.  1.
    10030    2    1    2    0    0  0.00000000000E+00  0.00000000000E+00 -0.17090220966E+03  0.16093613953E+04  0.16002613959E+04 0.  0.
        5    1    3    3  502    0 -0.47946270228E+03 -0.45749770541E+03  0.36542680935E+03  0.75680081681E+03  0.46999998093E+01 0. -1.
       -5    1    3    3    0  502  0.47946270228E+03  0.45749770541E+03 -0.53632901901E+03  0.85256057847E+03  0.46999998093E+01 0.  1.
</event>
<event>
 5   0  0.1081831E-05  0.1599538E+04  0.7818609E-02  0.8820832E-01
        1   -1    0    0  501    0  0.00000000000E+00  0.00000000000E+00  0.63011260270E+03  0.63011260272E+03  0.50400001928E-02 0.  1.
       -1   -1    0    0    0  501  0.00000000000E+00  0.00000000000E+00 -0.10151046782E+04  0.10151046782E+04  0.50400001928E-02 0. -1.
    10030    2    1    2    0    0  0.00000000000E+00  0.00000000000E+00 -0.38499207548E+03  0.16452172809E+04  0.15995377467E+04 0.  0.
        3    1    3    3  502    0  0.81840097852E+02 -0.50423521737E+03 -0.82543895337E+03  0.97072160375E+03  0.10100000352E+00 0. -1.
       -3    1    3    3    0  502 -0.81840097852E+02  0.50423521737E+03  0.44044687789E+03  0.67449567715E+03  0.10100000352E+00 0.  1.
</event>
<event>
 5   0  0.2147844E-05  0.1599638E+04  0.7818609E-02  0.8820771E-01
        2   -1    0    0  501    0  0.00000000000E+00  0.00000000000E+00  0.15822454812E+04  0.15822454812E+04  0.25500000920E-02 0.  1.
       -2   -1    0    0    0  501  0.00000000000E+00  0.00000000000E+00 -0.40430522372E+03  0.40430522373E+03  0.25500000920E-02 0. -1.
    10030    2    1    2    0    0  0.00000000000E+00  0.00000000000E+00  0.11779402575E+04  0.19865507050E+04  0.15996376006E+04 0.  0.
        2    1    3    3  502    0  0.69953074138E+03 -0.24578071076E+03  0.21649298397E+03  0.77241221380E+03  0.25500000920E-02 0. -1.
       -2    1    3    3    0  502 -0.69953074138E+03  0.24578071076E+03  0.96144727354E+03  0.12141384912E+04  0.25500000920E-02 0.  1.
</event>
<event>
 5   0  0.1990948E-05  0.1600300E+04  0.7818609E-02  0.8820363E-01
       -2   -1    0    0    0  501  0.00000000000E+00  0.00000000000E+00  0.58767434726E+03  0.58767434727E+03  0.25500000920E-02 0. -1.
        2   -1    0    0  501    0  0.00000000000E+00  0.00000000000E+00 -0.10894476098E+04  0.10894476098E+04  0.25500000920E-02 0.  1.
    10030    2    1    2    0    0  0.00000000000E+00  0.00000000000E+00 -0.50177326251E+03  0.16771219570E+04  0.16003004880E+04 0.  0.
        4    1    3    3  502    0 -0.26982268447E+03  0.31433144016E+03  0.46654128765E+03  0.62391579665E+03  0.12699999809E+01 0. -1.
       -4    1    3    3    0  502  0.26982268447E+03 -0.31433144016E+03 -0.96831455016E+03  0.10532061604E+04  0.12699999809E+01 0.  1.
</event>
<event>
 5   0  0.1060251E-05  0.1598197E+04  0.7818609E-02  0.8821656E-01
        1   -1    0    0  501    0  0.00000000000E+00  0.00000000000E+00  0.53767444387E+03  0.53767444390E+03  0.50400001928E-02 0. -1.
       -1   -1    0    0    0  501  0.00000000000E+00  0.00000000000E+00 -0.11876308498E+04  0.11876308498E+04  0.50400001928E-02 0.  1.
    10030    2    1    2    0    0  0.00000000000E+00  0.00000000000E+00 -0.64995640590E+03  0.17253052937E+04  0.15981974305E+04 0.  0.
        1    1    3    3  502    0 -0.11987053422E+03 -0.37881901480E+03 -0.10734341577E+04  0.11446107119E+04  0.50400001928E-02 0.  1.
       -1    1    3    3    0  502  0.11987053422E+03  0.37881901480E+03  0.42347775181E+03  0.58069458173E+03  0.50400001928E-02 0. -1.
</event>
<event>
 5   0  0.2125803E-05  0.1599349E+04  0.7818609E-02  0.8820948E-01
       -2   -1    0    0    0  501  0.00000000000E+00  0.00000000000E+00  0.44889740335E+03  0.44889740335E+03  0.25500000920E-02 0. -1.
        2   -1    0    0  501    0  0.00000000000E+00  0.00000000000E+00 -0.14245555873E+04  0.14245555873E+04  0.25500000920E-02 0.  1.
    10030    2    1    2    0    0  0.00000000000E+00  0.00000000000E+00 -0.97565818391E+03  0.18734529906E+04  0.15993489976E+04 0.  0.
        3    1    3    3  502    0 -0.27742026385E+03 -0.64041734874E+03 -0.30564377428E+02  0.69859185132E+03  0.10100000352E+00 0. -1.
       -3    1    3    3    0  502  0.27742026385E+03  0.64041734874E+03 -0.94509380649E+03  0.11748611393E+04  0.10100000352E+00 0.  1.
</event>
<event>
 5   0  0.2147844E-05  0.1600289E+04  0.7818609E-02  0.8820371E-01
        2   -1    0    0  501    0  0.00000000000E+00  0.00000000000E+00  0.79538660313E+03  0.79538660313E+03  0.25500000920E-02 0. -1.
       -2   -1    0    0    0  501  0.00000000000E+00  0.00000000000E+00 -0.80493042553E+03  0.80493042554E+03  0.25500000920E-02 0.  1.
    10030    2    1    2    0    0  0.00000000000E+00  0.00000000000E+00 -0.95438224056E+01  0.16003170287E+04  0.16002885701E+04 0.  0.
        2    1    3    3  502    0  0.18047002764E+02  0.19237346959E+03 -0.78125054846E+03  0.80478920568E+03  0.25500000920E-02 0.  1.
       -2    1    3    3    0  502 -0.18047002764E+02 -0.19237346959E+03  0.77170672605E+03  0.79552782299E+03  0.25500000920E-02 0. -1.
</event>
<event>
 5   0  0.1081831E-05  0.1599022E+04  0.7818609E-02  0.8821149E-01
        1   -1    0    0  501    0  0.00000000000E+00  0.00000000000E+00  0.65170372291E+03  0.65170372293E+03  0.50400001928E-02 0. -1.
       -1   -1    0    0    0  501  0.00000000000E+00  0.00000000000E+00 -0.98084108749E+03  0.98084108750E+03  0.50400001928E-02 0.  1.
    10030    2    1    2    0    0  0.00000000000E+00  0.00000000000E+00 -0.32913736458E+03  0.16325448104E+04  0.15990219365E+04 0.  0.
        3    1    3    3  502    0 -0.41959890267E+03  0.16221461361E+03 -0.83936447241E+03  0.95231798668E+03  0.10100000352E+00 0.  1.
       -3    1    3    3    0  502  0.41959890267E+03 -0.16221461361E+03  0.51022710783E+03  0.68022682376E+03  0.10100000352E+00 0. -1.
</event>
<event>
 5   0  0.1081831E-05  0.1600731E+04  0.7818609E-02  0.8820099E-01
        1   -1    0    0  501    0  0.00000000000E+00  0.00000000000E+00  0.96740266165E+03  0.96740266166E+03  0.50400001928E-02 0. -1.
       -1   -1    0    0    0  501  0.00000000000E+00  0.00000000000E+00 -0.66217026345E+03  0.66217026347E+03  0.50400001928E-02 0.  1.
    10030    2    1    2    0    0  0.00000000000E+00  0.00000000000E+00  0.30523239820E+03  0.16295729251E+04  0.16007314270E+04 0.  0.
        3    1    3    3  502    0 -0.44268817540E+03  0.30000666007E+03 -0.45360325348E+03  0.70123657812E+03  0.10100000352E+00 0.  1.
       -3    1    3    3    0  502  0.44268817540E+03 -0.30000666007E+03  0.75883565168E+03  0.92833634701E+03  0.10100000352E+00 0. -1.
</event>
<event>
 5   0  0.1090674E-05  0.1600263E+04  0.7818609E-02  0.8820386E-01
       -1   -1    0    0    0  501  0.00000000000E+00  0.00000000000E+00  0.13012984626E+04  0.13012984626E+04  0.50400001928E-02 0.  1.
        1   -1    0    0  501    0  0.00000000000E+00  0.00000000000E+00 -0.49197826532E+03  0.49197826535E+03  0.50400001928E-02 0. -1.
    10030    2    1    2    0    0  0.00000000000E+00  0.00000000000E+00  0.80932019730E+03  0.17932767280E+04  0.16002631788E+04 0.  0.
        4    1    3    3  502    0 -0.17185290015E+03 -0.54195048700E+03 -0.22624159038E+03  0.61190736208E+03  0.12699999809E+01 0. -1.
       -4    1    3    3    0  502  0.17185290015E+03  0.54195048700E+03  0.10355617877E+04  0.11813693659E+04  0.12699999809E+01 0.  1.
</event>
<event>
 5   0  0.2125803E-05  0.1599915E+04  0.7818609E-02  0.8820600E-01
        2   -1    0    0  501    0  0.00000000000E+00  0.00000000000E+00  0.29066860360E+04  0.29066860360E+04  0.25500000920E-02 0. -1.
       -2   -1    0    0    0  501  0.00000000000E+00  0.00000000000E+00 -0.22015857046E+03  0.22015857048E+03  0.25500000920E-02 0.  1.
    10030    2    1    2    0    0  0.00000000000E+00  0.00000000000E+00  0.26865274656E+04  0.31268446065E+04  0.15999148009E+04 0.  0.
        3    1    3    3  502    0  0.60674561547E+03  0.51439721781E+03  0.11775776361E+04  0.14210678516E+04  0.10100000352E+00 0.  1.
       -3    1    3    3    0  502 -0.60674561547E+03 -0.51439721781E+03  0.15089498294E+04  0.17057767549E+04  0.10100000352E+00 0. -1.
</event>
<event>
 5   0  0.2147844E-05  0.1598781E+04  0.7818609E-02  0.8821297E-01
       -2   -1    0    0    0  501  0.00000000000E+00  0.00000000000E+00  0.65452731241E+03  0.65452731242E+03  0.25500000920E-02 0. -1.
        2   -1    0    0  501    0  0.00000000000E+00  0.00000000000E+00 -0.97631511173E+03  0.97631511174E+03  0.25500000920E-02 0.  1.
    10030    2    1    2    0    0  0.00000000000E+00  0.00000000000E+00 -0.32178779932E+03  0.16308424242E+04  0.15987806681E+04 0.  0.
        2    1    3    3  502    0  0.27731787596E+03  0.56485278945E+03  0.34200510664E+03  0.71619227240E+03  0.25500000920E-02 0. -1.
       -2    1    3    3    0  502 -0.27731787596E+03 -0.56485278945E+03 -0.66379290596E+03  0.91465015175E+03  0.25500000920E-02 0.  1.
</event>
<event>
 5   0  0.1990948E-05  0.1597652E+04  0.7818609E-02  0.8821991E-01
       -2   -1    0    0    0  501  0.00000000000E+00  0.00000000000E+00  0.55443900156E+03  0.55443900157E+03  0.25500000920E-02 0.  1.
        2   -1    0    0  501    0  0.00000000000E+00  0.00000000000E+00 -0.11509351451E+04  0.11509351451E+04  0.25500000920E-02 0. -1.
    10030    2    1    2    0    0  0.00000000000E+00  0.00000000000E+00 -0.59649614352E+03  0.17053741466E+04  0.15976524437E+04 0.  0.
        4    1    3    3  502    0 -0.66593206442E+03  0.19215545044E+03  0.12568563065E+03  0.70440593567E+03  0.12699999809E+01 0.  1.
       -4    1    3    3    0  502  0.66593206442E+03 -0.19215545044E+03 -0.72218177417E+03  0.10009682110E+04  0.12699999809E+01 0. -1.
</event>
<event>
 5   0  0.1126485E-05  0.1600427E+04  0.7818609E-02  0.8820286E-01
       -1   -1    0    0    0  501  0.00000000000E+00  0.00000000000E+00  0.40048179437E+03  0.40048179440E+03  0.50400001928E-02 0. -1.
        1   -1    0    0  501    0  0.00000000000E+00  0.00000000000E+00 -0.15989279332E+04  0.15989279332E+04  0.50400001928E-02 0.  1.
    10030    2    1    2    0    0  0.00000000000E+00  0.00000000000E+00 -0.11984461388E+04  0.19994097276E+04  0.16004268528E+04 0.  0.
        2    1    3    3  502    0  0.72049867315E+03  0.73255565011E+02 -0.10244558713E+04  0.12545893942E+04  0.25500000920E-02 0.  1.
       -2    1    3    3    0  502 -0.72049867315E+03 -0.73255565011E+02 -0.17399026751E+03  0.74482033338E+03  0.25500000920E-02 0. -1.
</event>
<event>
 5   0  0.7597000E-06  0.1601327E+04  0.7818609E-02  0.8819733E-01
       -3   -1    0    0    0  501  0.00000000000E+00  0.00000000000E+00  0.19270276953E+04  0.19270276979E+04  0.10100000352E+00 0. -1.
        3   -1    0    0  501    0  0.00000000000E+00  0.00000000000E+00 -0.33266877423E+03  0.33266878956E+03  0.10100000352E+00 0.  1.
    10030    2    1    2    0    0  0.00000000000E+00  0.00000000000E+00  0.15943589211E+04  0.22596964875E+04  0.16013269018E+04 0.  0.
        1    1    3    3  502    0 -0.44979769965E+03 -0.48378249621E+03  0.14356302488E+04  0.15803156917E+04  0.50400001928E-02 0. -1.
       -1    1    3    3    0  502  0.44979769965E+03  0.48378249621E+03  0.15872867230E+03  0.67938079579E+03  0.50400001928E-02 0.  1.
</event>
<event>
 5   0  0.2125803E-05  0.1598830E+04  0.7818609E-02  0.8821267E-01
        2   -1    0    0  501    0  0.00000000000E+00  0.00000000000E+00  0.50987128958E+03  0.50987128959E+03  0.25500000920E-02 0.  1.
       -2   -1    0    0    0  501  0.00000000000E+00  0.00000000000E+00 -0.12533832240E+04  0.12533832240E+04  0.25500000920E-02 0. -1.
    10030    2    1    2    0    0  0.00000000000E+00  0.00000000000E+00 -0.74351193442E+03  0.17632545136E+04  0.15988297230E+04 0.  0.
        3    1    3    3  502    0 -0.62041751146E+03  0.37266973039E+03 -0.74617565876E+03  0.10395088939E+04  0.10100000352E+00 0. -1.
       -3    1    3    3    0  502  0.62041751146E+03 -0.37266973039E+03  0.26637243397E+01  0.72374561974E+03  0.10100000352E+00 0.  1.
</event>
<event>
 5   0  0.2147844E-05  0.1599149E+04  0.7818609E-02  0.8821071E-01
        2   -1    0    0  501    0  0.00000000000E+00  0.00000000000E+00  0.22621477381E+04  0.22621477381E+04  0.25500000920E-02 0. -1.
       -2   -1    0    0    0  501  0.00000000000E+00  0.00000000000E+00 -0.28261609689E+03  0.28261609690E+03  0.25500000920E-02 0.  1.
    10030    2    1    2    0    0  0.00000000000E+00  0.00000000000E+00  0.19795316412E+04  0.25447638350E+04  0.15991489791E+04 0.  0.
        2    1    3    3  502    0 -0.76831944167E+02  0.72803853642E+03  0.15014107139E+04  0.16703824083E+04  0.25500000920E-02 0. -1.
       -2    1    3    3    0  502  0.76831944167E+02 -0.72803853642E+03  0.47812092723E+03  0.87438142663E+03  0.25500000920E-02 0.  1.
</event>
<event>
 5   0  0.1060251E-05  0.1602064E+04  0.7818609E-02  0.8819281E-01
       -1   -1    0    0    0  501  0.00000000000E+00  0.00000000000E+00  0.70460201747E+03  0.70460201749E+03  0.50400001928E-02 0. -1.
        1   -1    0    0  501    0  0.00000000000E+00  0.00000000000E+00 -0.91065868044E+03  0.91065868046E+03  0.50400001928E-02 0.  1.
    10030    2    1    2    0    0  0.00000000000E+00  0.00000000000E+00 -0.20605666297E+03  0.16152606979E+04  0.16020635986E+04 0.  0.
        1    1    3    3  502    0 -0.51696979758E+03  0.19500948845E+03 -0.68777610574E+03  0.88222584628E+03  0.50400001928E-02 0.  1.
       -1    1    3    3    0  502  0.51696979758E+03 -0.19500948845E+03  0.48171944276E+03  0.73303485167E+03  0.50400001928E-02 0. -1.
</event>
<event>
 5   0  0.1081831E-05  0.1602041E+04  0.7818609E-02  0.8819295E-01
        1   -1    0    0  501    0  0.00000000000E+00  0.00000000000E+00  0.51516362282E+03  0.51516362285E+03  0.50400001928E-02 0. -1.
       -1   -1    0    0    0  501  0.00000000000E+00  0.00000000000E+00 -0.12454956262E+04  0.12454956262E+04  0.50400001928E-02 0.  1.
    10030    2    1    2    0    0  0.00000000000E+00  0.00000000000E+00 -0.73033200342E+03  0.17606592491E+04  0.16020412467E+04 0.  0.
        3    1    3    3  502    0 -0.58436532232E+02 -0.55862651964E+03  0.26247896002E+03  0.61997873463E+03  0.10100000352E+00 0. -1.
       -3    1    3    3    0  502  0.58436532232E+02  0.55862651964E+03 -0.99281096343E+03  0.11406805145E+04  0.10100000352E+00 0.  1.
</event>
<event>
 5   0  0.1090674E-05  0.1600273E+04  0.7818609E-02  0.8820380E-01
        1   -1    0    0  501    0  0.00000000000E+00  0.00000000000E+00  0.14101105625E+04  0.14101105625E+04  0.50400001928E-02 0. -1.
       -1   -1    0    0    0  501  0.00000000000E+00  0.00000000000E+00 -0.45401991620E+03  0.45401991622E+03  0.50400001928E-02 0.  1.
    10030    2    1    2    0    0  0.00000000000E+00  0.00000000000E+00  0.95609064628E+03  0.18641304787E+04  0.16002728260E+04 0.  0.
        4    1    3    3  502    0  0.23392817929E+03  0.62085855172E+02 -0.41035614523E+03  0.47641455194E+03  0.12699999809E+01 0.  1.
       -4    1    3    3    0  502 -0.23392817929E+03 -0.62085855172E+02  0.13664467915E+04  0.13877159268E+04  0.12699999809E+01 0. -1.
</event>
<event>
 5   0  0.1081831E-05  0.1601620E+04  0.7818609E-02  0.8819553E-01
       -1   -1    0    0    0  501  0.00000000000E+00  0.00000000000E+00  0.49091682418E+03  0.49091682421E+03  0.50400001928E-02 0.  1.
        1   -1    0    0  501    0  0.00000000000E+00  0.00000000000E+00 -0.13063251991E+04  0.13063251991E+04  0.50400001928E-02 0. -1.
    10030    2    1    2    0    0  0.00000000000E+00  0.00000000000E+00 -0.81540837494E+03  0.17972420233E+04  0.16016204521E+04 0.  0.
        3    1    3    3  502    0 -0.62572983059E+03  0.16795451517E+03  0.12047744506E+03  0.65898510228E+03  0.10100000352E+00 0. -1.
       -3    1    3    3    0  502  0.62572983059E+03 -0.16795451517E+03 -0.93588582000E+03  0.11382569211E+04  0.10100000352E+00 0.  1.
</event>
<event>
 5   0  0.2125803E-05  0.1600064E+04  0.7818609E-02  0.8820509E-01
       -2   -1    0    0    0  501  0.00000000000E+00  0.00000000000E+00  0.47131375717E+03  0.47131375718E+03  0.25500000920E-02 0.  1.
        2   -1    0    0  501    0  0.00000000000E+00  0.00000000000E+00 -0.13580154726E+04  0.13580154726E+04  0.25500000920E-02 0. -1.
    10030    2    1    2    0    0  0.00000000000E+00  0.00000000000E+00 -0.88670171541E+03  0.18293292298E+04  0.16000642171E+04 0.  0.
        3    1    3    3  502    0  0.68200035011E+03 -0.41545428314E+03 -0.49847361909E+03  0.94138339589E+03  0.10100000352E+00 0. -1.
       -3    1    3    3    0  502 -0.68200035011E+03  0.41545428314E+03 -0.38822809632E+03  0.88794583388E+03  0.10100000352E+00 0.  1.
</event>
<event>
 5   0  0.1126485E-05  0.1600172E+04  0.7818609E-02  0.8820442E-01
       -1   -1    0    0    0  501  0.00000000000E+00  0.00000000000E+00  0.64659181869E+03  0.64659181871E+03  0.50400001928E-02 0.  1.
        1   -1    0    0  501    0  0.00000000000E+00  0.00000000000E+00 -0.99001836621E+03  0.99001836623E+03  0.50400001928E-02 0. -1.
    10030    2    1    2    0    0  0.00000000000E+00  0.00000000000E+00 -0.34342654752E+03  0.16366101849E+04  0.16001722107E+04 0.  0.
        2    1    3    3  502    0 -0.71395900775E+02 -0.25875895279E+03  0.59916336199E+03  0.65654421378E+03  0.25500000920E-02 0.  1.
       -2    1    3    3    0  502  0.71395900775E+02  0.25875895279E+03 -0.94258990951E+03  0.98006597115E+03  0.25500000920E-02 0. -1.
</event>
<event>
 5   0  0.2046108E-05  0.1600409E+04  0.7818609E-02  0.8820297E-01
        2   -1    0    0  501    0  0.00000000000E+00  0.00000000000E+00  0.89070786867E+03  0.89070786867E+03  0.25500000920E-02 0.  1.
       -2   -1    0    0    0  501  0.00000000000E+00  0.00000000000E+00 -0.71889662720E+03  0.71889662720E+03  0.25500000920E-02 0. -1.
    10030    2    1    2    0    0  0.00000000000E+00  0.00000000000E+00  0.17181124147E+03  0.16096044959E+04  0.16004085511E+04 0.  0.
        1    1    3    3  502    0 -0.36253111674E+03 -0.60074663015E+03  0.47282586863E+03  0.84610260980E+03  0.50400001928E-02 0.  1.
       -1    1    3    3    0  502  0.36253111674E+03  0.60074663015E+03 -0.30101462716E+03  0.76350188607E+03  0.50400001928E-02 0. -1.
</event>
<event>
 5   0  0.1126485E-05  0.1599998E+04  0.7818609E-02  0.8820549E-01
       -1   -1    0    0    0  501  0.00000000000E+00  0.00000000000E+00  0.87563043385E+03  0.87563043387E+03  0.50400001928E-02 0.  1.
        1   -1    0    0  501    0  0.00000000000E+00  0.00000000000E+00 -0.73090027684E+03  0.73090027686E+03  0.50400001928E-02 0. -1.
    10030    2    1    2    0    0  0.00000000000E+00  0.00000000000E+00  0.14473015702E+03  0.16065307107E+04  0.15999981582E+04 0.  0.
        2    1    3    3  502    0  0.61490790191E+03 -0.45186259703E+03 -0.16883851196E+03  0.78153565341E+03  0.25500000920E-02 0. -1.
       -2    1    3    3    0  502 -0.61490790191E+03  0.45186259703E+03  0.31356866897E+03  0.82499505731E+03  0.25500000920E-02 0.  1.
</event>
<event>
 5   0  0.1081831E-05  0.1599804E+04  0.7818609E-02  0.8820668E-01
       -1   -1    0    0    0  501  0.00000000000E+00  0.00000000000E+00  0.37663033747E+03  0.37663033751E+03  0.50400001928E-02 0. -1.
        1   -1    0    0  501    0  0.00000000000E+00  0.00000000000E+00 -0.16988628725E+04  0.16988628725E+04  0.50400001928E-02 0.  1.
    10030    2    1    2    0    0  0.00000000000E+00  0.00000000000E+00 -0.13222325350E+04  0.20754932100E+04  0.15998041093E+04 0.  0.
        3    1    3    3  502    0 -0.66648053730E+03 -0.18737960895E+03 -0.11809213739E+04  0.13688983622E+04  0.10100000352E+00 0.  1.
       -3    1    3    3    0  502  0.66648053730E+03  0.18737960895E+03 -0.14131116106E+03  0.70659484777E+03  0.10100000352E+00 0. -1.
</event>
<event>
 5   0  0.2046108E-05  0.1600336E+04  0.7818609E-02  0.8820342E-01
        2   -1    0    0  501    0  0.00000000000E+00  0.00000000000E+00  0.18421299031E+04  0.18421299031E+04  0.25500000920E-02 0.  1.
       -2   -1    0    0    0  501  0.00000000000E+00  0.00000000000E+00 -0.34756991468E+03  0.34756991469E+03  0.25500000920E-02 0. -1.
    10030    2    1    2    0    0  0.00000000000E+00  0.00000000000E+00  0.14945599884E+04  0.21896998178E+04  0.16003361313E+04 0.  0.
        1    1    3    3  502    0  0.48433014909E+03 -0.21340250024E+03  0.15684189510E+04  0.16553109455E+04  0.50400001928E-02 0.  1.
       -1    1    3    3    0  502 -0.48433014909E+03  0.21340250024E+03 -0.73858962590E+02  0.53438887227E+03  0.50400001928E-02 0. -1.
</event>
<event>
 5   0  0.1090674E-05  0.1599768E+04  0.7818609E-02  0.8820690E-01
        1   -1    0    0  501    0  0.00000000000E+00  0.00000000000E+00  0.69555734294E+03  0.69555734295E+03  0.50400001928E-02 0. -1.
       -1   -1    0    0    0  501  0.00000000000E+00  0.00000000000E+00 -0.91985913604E+03  0.91985913606E+03  0.50400001928E-02 0.  1.
    10030    2    1    2    0    0  0.00000000000E+00  0.00000000000E+00 -0.22430179311E+03  0.16154164790E+04  0.15997684540E+04 0.  0.
        4    1    3    3  502    0  0.21027541357E+03 -0.53313895609E+03 -0.67560555800E+03  0.88594434304E+03  0.12699999809E+01 0.  1.
       -4    1    3    3    0  502 -0.21027541357E+03  0.53313895609E+03  0.45130376489E+03  0.72947213597E+03  0.12699999809E+01 0. -1.
</event>
<event>
 5   0  0.2147844E-05  0.1599532E+04  0.7818609E-02  0.8820835E-01
        2   -1    0    0  501    0  0.00000000000E+00  0.00000000000E+00  0.17766215638E+04  0.17766215638E+04  0.25500000920E-02 0.  1.
       -2   -1    0    0    0  501  0.00000000000E+00  0.00000000000E+00 -0.36002368453E+03  0.36002368454E+03  0.25500000920E-02 0. -1.
    10030    2    1    2    0    0  0.00000000000E+00  0.00000000000E+00  0.14165978792E+04  0.21366452483E+04  0.15995322334E+04 0.  0.
        2    1    3    3  502    0 -0.67284640900E+03  0.21143129757E+03  0.12120196062E+04  0.14022899164E+04  0.25500000920E-02 0.  1.
       -2    1    3    3    0  502  0.67284640900E+03 -0.21143129757E+03  0.20457827299E+03  0.73435533190E+03  0.25500000920E-02 0. -1.
</event>
<event>
 5   0  0.1057506E-05  0.1601595E+04  0.7818609E-02  0.8819568E-01
       -1   -1    0    0    0  501  0.00000000000E+00  0.00000000000E+00  0.65615448931E+03  0.65615448933E+03  0.50400001928E-02 0. -1.
        1   -1    0    0  501    0  0.00000000000E+00  0.00000000000E+00 -0.97732622995E+03  0.97732622996E+03  0.50400001928E-02 0.  1.
    10030    2    1    2    0    0  0.00000000000E+00  0.00000000000E+00 -0.32117174064E+03  0.16334807193E+04  0.16015954462E+04 0.  0.
        5    1    3    3  502    0  0.64086830265E+02  0.27275888607E+03 -0.92568742170E+03  0.96717310986E+03  0.46999998093E+01 0.  1.
       -5    1    3    3    0  502 -0.64086830265E+02 -0.27275888607E+03  0.60451568106E+03  0.66630760943E+03  0.46999998093E+01 0. -1.
</event>
<event>
 5   0  0.2125803E-05  0.1599960E+04  0.7818609E-02  0.8820572E-01
        2   -1    0    0  501    0  0.00000000000E+00  0.00000000000E+00  0.18478596180E+04  0.18478596180E+04  0.25500000920E-02 0. -1.
       -2   -1    0    0    0  501  0.00000000000E+00  0.00000000000E+00 -0.34632946080E+03  0.34632946081E+03  0.25500000920E-02 0.  1.
    10030    2    1    2    0    0  0.00000000000E+00  0.00000000000E+00  0.15015301572E+04  0.21941890788E+04  0.15999602809E+04 0.  0.
        3    1    3    3  502    0  0.68805819431E+03 -0.27536584156E+03  0.11638231161E+04  0.13797589214E+04  0.10100000352E+00 0. -1.
       -3    1    3    3    0  502 -0.68805819431E+03  0.27536584156E+03  0.33770704110E+03  0.81443015739E+03  0.10100000352E+00 0.  1.
</event>
<event>
 5   0  0.1126485E-05  0.1599179E+04  0.7818609E-02  0.8821053E-01
        1   -1    0    0  501    0  0.00000000000E+00  0.00000000000E+00  0.59300225401E+03  0.59300225403E+03  0.50400001928E-02 0. -1.
       -1   -1    0    0    0  501  0.00000000000E+00  0.00000000000E+00 -0.10781463664E+04  0.10781463664E+04  0.50400001928E-02 0.  1.
    10030    2    1    2    0    0  0.00000000000E+00  0.00000000000E+00 -0.48514411241E+03  0.16711486205E+04  0.15991788211E+04 0.  0.
        2    1    3    3  502    0  0.26037959680E+03  0.70062865442E+03 -0.53937014358E+03  0.92173651203E+03  0.25500000920E-02 0.  1.
       -2    1    3    3    0  502 -0.26037959680E+03 -0.70062865442E+03  0.54226031161E+02  0.74941210844E+03  0.25500000920E-02 0. -1.
</event>
<event>
 5   0  0.2147844E-05  0.1600171E+04  0.7818609E-02  0.8820443E-01
        2   -1    0    0  501    0  0.00000000000E+00  0.00000000000E+00  0.10390864173E+04  0.10390864173E+04  0.25500000920E-02 0.  1.
       -2   -1    0    0    0  501  0.00000000000E+00  0.00000000000E+00 -0.61605766478E+03  0.61605766478E+03  0.25500000920E-02 0. -1.
    10030    2    1    2    0    0  0.00000000000E+00  0.00000000000E+00  0.42302875253E+03  0.16551440821E+04  0.16001714305E+04 0.  0.
        2    1    3    3  502    0 -0.78565305211E+03  0.89405295795E+02  0.85284477748E+02  0.79530966759E+03  0.25500000920E-02 0. -1.
       -2    1    3    3    0  502  0.78565305211E+03 -0.89405295795E+02  0.33774427478E+03  0.85983441451E+03  0.25500000920E-02 0.  1.
</event>
<event>
 5   0  0.2046108E-05  0.1599880E+04  0.7818609E-02  0.8820622E-01
        2   -1    0    0  501    0  0.00000000000E+00  0.00000000000E+00  0.20539580188E+04  0.20539580188E+04  0.25500000920E-02 0. -1.
       -2   -1    0    0    0  501  0.00000000000E+00  0.00000000000E+00 -0.31154667910E+03  0.31154667911E+03  0.25500000920E-02 0.  1.
    10030    2    1    2    0    0  0.00000000000E+00  0.00000000000E+00  0.17424113397E+04  0.23655046979E+04  0.15998797452E+04 0.  0.
        1    1    3    3  502    0  0.79609012191E+03 -0.73740011768E+02  0.91051201759E+03  0.12117050820E+04  0.50400001928E-02 0. -1.
       -1    1    3    3    0  502 -0.79609012191E+03  0.73740011768E+02  0.83189932211E+03  0.11537996159E+04  0.50400001928E-02 0.  1.
</event>
<event>
 5   0  0.1081831E-05  0.1600113E+04  0.7818609E-02  0.8820478E-01
        1   -1    0    0  501    0  0.00000000000E+00  0.00000000000E+00  0.18160667151E+04  0.18160667151E+04  0.50400001928E-02 0. -1.
       -1   -1    0    0    0  501  0.00000000000E+00  0.00000000000E+00 -0.35245991941E+03  0.35245991945E+03  0.50400001928E-02 0.  1.
    10030    2    1    2    0    0  0.00000000000E+00  0.00000000000E+00  0.14636067957E+04  0.21685266345E+04  0.16001134061E+04 0.  0.
        3    1    3    3  502    0  0.35613924419E+01 -0.24469543322E+03  0.17640980434E+04  0.17809914249E+04  0.10100000352E+00 0. -1.
       -3    1    3    3    0  502 -0.35613924419E+01  0.24469543322E+03 -0.30049124774E+03  0.38753520965E+03  0.10100000352E+00 0.  1.
</event>
<event>
 5   0  0.1090674E-05  0.1600529E+04  0.7818609E-02  0.8820223E-01
        1   -1    0    0  501    0  0.00000000000E+00  0.00000000000E+00  0.99664137616E+03  0.99664137617E+03  0.50400001928E-02 0.  1.
       -1   -1    0    0    0  501  0.00000000000E+00  0.00000000000E+00 -0.64258142289E+03  0.64258142291E+03  0.50400001928E-02 0. -1.
    10030    2    1    2    0    0  0.00000000000E+00  0.00000000000E+00  0.35405995327E+03  0.16392227991E+04  0.16005289546E+04 0.  0.
        4    1    3    3  502    0  0.50510507570E+03  0.36423415655E+03 -0.33773823716E+03  0.70842528755E+03  0.12699999809E+01 0. -1.
       -4    1    3    3    0  502 -0.50510507570E+03 -0.36423415655E+03  0.69179819043E+03  0.93079751154E+03  0.12699999809E+01 0.  1.
</event>
<event>
 5   0  0.2147844E-05  0.1600285E+04  0.7818609E-02  0.8820373E-01
       -2   -1    0    0    0  501  0.00000000000E+00  0.00000000000E+00  0.39000554268E+03  0.39000554269E+03  0.25500000920E-02 0. -1.
        2   -1    0    0  501    0  0.00000000000E+00  0.00000000000E+00 -0.16415863564E+04  0.16415863564E+04  0.25500000920E-02 0.  1.
    10030    2    1    2    0    0  0.00000000000E+00  0.00000000000E+00 -0.12515808138E+04  0.20315918991E+04  0.16002846969E+04 0.  0.
        2    1    3    3  502    0 -0.58997725941E+03 -0.12456880744E+03 -0.12935106282E+04  0.14271511131E+04  0.25500000920E-02 0.  1.
       -2    1    3    3    0  502  0.58997725941E+03  0.12456880744E+03  0.41929814468E+02  0.60444078598E+03  0.25500000920E-02 0. -1.
</event>
<event>
 5   0  0.1990948E-05  0.1599881E+04  0.7818609E-02  0.8820621E-01
       -2   -1    0    0    0  501  0.00000000000E+00  0.00000000000E+00  0.49191473455E+03  0.49191473455E+03  0.25500000920E-02 0.  1.
        2   -1    0    0  501    0  0.00000000000E+00  0.00000000000E+00 -0.13008447874E+04  0.13008447874E+04  0.25500000920E-02 0. -1.
    10030    2    1    2    0    0  0.00000000000E+00  0.00000000000E+00 -0.80893005285E+03  0.17927595220E+04  0.15998808934E+04 0.  0.
        4    1    3    3  502    0  0.25101434655E+03  0.34364311830E+03 -0.11634761326E+04  0.12388612186E+04  0.12699999809E+01 0. -1.
       -4    1    3    3    0  502 -0.25101434655E+03 -0.34364311830E+03  0.35454607973E+03  0.55389830337E+03  0.12699999809E+01 0.  1.
</event>
<event>
 5   0  0.2125803E-05  0.1599347E+04  0.7818609E-02  0.8820949E-01
       -2   -1    0    0    0  501  0.00000000000E+00  0.00000000000E+00  0.41381298874E+03  0.41381298875E+03  0.25500000920E-02 0.  1.
        2   -1    0    0  501    0  0.00000000000E+00  0.00000000000E+00 -0.15453309112E+04  0.15453309112E+04  0.25500000920E-02 0. -1.
    10030    2    1    2    0    0  0.00000000000E+00  0.00000000000E+00 -0.11315179225E+04  0.19591438999E+04  0.15993473706E+04 0.  0.
        3    1    3    3  502    0  0.47368820299E+02  0.79788357790E+03 -0.59616138178E+03  0.99713109085E+03  0.10100000352E+00 0. -1.
       -3    1    3    3    0  502 -0.47368820299E+02 -0.79788357790E+03 -0.53535654067E+03  0.96201280909E+03  0.10100000352E+00 0.  1.
</event>
<event>
 5   0  0.1994525E-05  0.1599843E+04  0.7818609E-02  0.8820645E-01
        2   -1    0    0  501    0  0.00000000000E+00  0.00000000000E+00  0.12364971284E+04  0.12364971284E+04  0.25500000920E-02 0. -1.
       -2   -1    0    0    0  501  0.00000000000E+00  0.00000000000E+00 -0.51748949828E+03  0.51748949828E+03  0.25500000920E-02 0.  1.
    10030    2    1    2    0    0  0.00000000000E+00  0.00000000000E+00  0.71900763008E+03  0.17539866266E+04  0.15998428405E+04 0.  0.
        5    1    3    3  502    0 -0.42461483371E+03  0.47574019530E+03  0.88896869304E+03  0.10940356108E+04  0.46999998093E+01 0. -1.
       -5    1    3    3    0  502  0.42461483371E+03 -0.47574019530E+03 -0.16996106296E+03  0.65995101587E+03  0.46999998093E+01 0.  1.
</event>
<event>
 5   0  0.1090674E-05  0.1599849E+04  0.7818609E-02  0.8820641E-01
       -1   -1    0    0    0  501  0.00000000000E+00  0.00000000000E+00  0.52987646689E+03  0.52987646691E+03  0.50400001928E-02 0. -1.
        1   -1    0    0  501    0  0.00000000000E+00  0.00000000000E+00 -0.12076007083E+04  0.12076007083E+04  0.50400001928E-02 0.  1.
    10030    2    1    2    0    0  0.00000000000E+00  0.00000000000E+00 -0.67772424138E+03  0.17374771752E+04  0.15998489888E+04 0.  0.
        4    1    3    3  502    0  0.39210341212E+03 -0.52016488290E+03 -0.84308808399E+03  0.10654180970E+04  0.12699999809E+01 0.  1.
       -4    1    3    3    0  502 -0.39210341212E+03  0.52016488290E+03  0.16536384261E+03  0.67205907817E+03  0.12699999809E+01 0. -1.
</event>
<event>
 5   0  0.1057506E-05  0.1600107E+04  0.7818609E-02  0.8820482E-01
       -1   -1    0    0    0  501  0.00000000000E+00  0.00000000000E+00  0.35774745984E+03  0.35774745988E+03  0.50400001928E-02 0. -1.
        1   -1    0    0  501    0  0.00000000000E+00  0.00000000000E+00 -0.17892102720E+04  0.17892102720E+04  0.50400001928E-02 0.  1.
    10030    2    1    2    0    0  0.00000000000E+00  0.00000000000E+00 -0.14314628121E+04  0.21469577318E+04  0.16001067839E+04 0.  0.
        5    1    3    3  502    0 -0.30621105964E+03 -0.26288015271E+03 -0.16426064187E+04  0.16914636042E+04  0.46999998093E+01 0.  1.
       -5    1    3    3    0  502  0.30621105964E+03  0.26288015271E+03  0.21114360654E+03  0.45549412764E+03  0.46999998093E+01 0. -1.
</event>
<event>
 5   0  0.1060251E-05  0.1599954E+04  0.7818609E-02  0.8820576E-01
       -1   -1    0    0    0  501  0.00000000000E+00  0.00000000000E+00  0.61169451939E+03  0.61169451941E+03  0.50400001928E-02 0.  1.
        1   -1    0    0  501    0  0.00000000000E+00  0.00000000000E+00 -0.10462133435E+04  0.10462133435E+04  0.50400001928E-02 0. -1.
    10030    2    1    2    0    0  0.00000000000E+00  0.00000000000E+00 -0.43451882409E+03  0.16579078629E+04  0.15999537098E+04 0.  0.
        1    1    3    3  502    0  0.79640823769E+02  0.56537830992E+03  0.36336520039E+03  0.67677881396E+03  0.50400001928E-02 0.  1.
       -1    1    3    3    0  502 -0.79640823769E+02 -0.56537830992E+03 -0.79788402448E+03  0.98112904895E+03  0.50400001928E-02 0. -1.
</event>
<event>
 5   0  0.1990948E-05  0.1600175E+04  0.7818609E-02  0.8820441E-01
        2   -1    0    0  501    0  0.00000000000E+00  0.00000000000E+00  0.41927269850E+03  0.41927269851E+03  0.25500000920E-02 0.  1.
       -2   -1    0    0    0  501  0.00000000000E+00  0.00000000000E+00 -0.15267861228E+04  0.15267861228E+04  0.25500000920E-02 0. -1.
    10030    2    1    2    0    0  0.00000000000E+00  0.00000000000E+00 -0.11075134243E+04  0.19460588213E+04  0.16001746627E+04 0.  0.
        4    1    3    3  502    0 -0.61790732002E+02  0.73333731569E+03 -0.17199976844E+03  0.75576930765E+03  0.12699999809E+01 0.  1.
       -4    1    3    3    0  502  0.61790732002E+02 -0.73333731569E+03 -0.93551365588E+03  0.11902895137E+04  0.12699999809E+01 0. -1.
</event>
<event>
 5   0  0.1990948E-05  0.1600293E+04  0.7818609E-02  0.8820368E-01
        2   -1    0    0  501    0  0.00000000000E+00  0.00000000000E+00  0.73590124491E+03  0.73590124491E+03  0.25500000920E-02 0.  1.
       -2   -1    0    0    0  501  0.00000000000E+00  0.00000000000E+00 -0.87000009782E+03  0.87000009783E+03  0.25500000920E-02 0. -1.
    10030    2    1    2    0    0  0.00000000000E+00  0.00000000000E+00 -0.13409885291E+03  0.16059013427E+04  0.16002926671E+04 0.  0.
        4    1    3    3  502    0  0.30110491719E+03 -0.56175413321E+03 -0.55248096791E+03  0.84348604621E+03  0.12699999809E+01 0. -1.
       -4    1    3    3    0  502 -0.30110491719E+03  0.56175413321E+03  0.41838211500E+03  0.76241529654E+03  0.12699999809E+01 0.  1.
</event>
<event>
 5   0  0.7597000E-06  0.1600799E+04  0.7818609E-02  0.8820057E-01
        3   -1    0    0  501    0  0.00000000000E+00  0.00000000000E+00  0.66927508013E+03  0.66927508775E+03  0.10100000352E+00 0.  1.
       -3   -1    0    0    0  501  0.00000000000E+00  0.00000000000E+00 -0.95721433494E+03  0.95721434027E+03  0.10100000352E+00 0. -1.
    10030    2    1    2    0    0  0.00000000000E+00  0.00000000000E+00 -0.28793925481E+03  0.16264894280E+04  0.16007994393E+04 0.  0.
        2    1    3    3  502    0 -0.13444068631E+03 -0.78562996909E+03 -0.69645406192E+02  0.80008701344E+03  0.25500000920E-02 0.  1.
       -2    1    3    3    0  502  0.13444068631E+03  0.78562996909E+03 -0.21829384862E+03  0.82640241458E+03  0.25500000920E-02 0. -1.
</event>
<event>
 5   0  0.2147844E-05  0.1599849E+04  0.7818609E-02  0.8820641E-01
       -2   -1    0    0    0  501  0.00000000000E+00  0.00000000000E+00  0.78640746032E+03  0.78640746033E+03  0.25500000920E-02 0. -1.
        2   -1    0    0  501    0  0.00000000000E+00  0.00000000000E+00 -0.81367433393E+03  0.81367433393E+03  0.25500000920E-02 0.  1.
    10030    2    1    2    0    0  0.00000000000E+00  0.00000000000E+00 -0.27266873603E+02  0.16000817943E+04  0.15998494510E+04 0.  0.
        2    1    3    3  502    0  0.26298427894E+03  0.24892204927E+03  0.69974194211E+03  0.78788432091E+03  0.25500000920E-02 0. -1.
       -2    1    3    3    0  502 -0.26298427894E+03 -0.24892204927E+03 -0.72700881571E+03  0.81219747335E+03  0.25500000920E-02 0.  1.
</event>
<event>
 5   0  0.1126485E-05  0.1596514E+04  0.7818609E-02  0.8822692E-01
       -1   -1    0    0    0  501  0.00000000000E+00  0.00000000000E+00  0.53161314827E+03  0.53161314829E+03  0.50400001928E-02 0.  1.
        1   -1    0    0  501    0  0.00000000000E+00  0.00000000000E+00 -0.11986432759E+04  0.11986432759E+04  0.50400001928E-02 0. -1.
    10030    2    1    2    0    0  0.00000000000E+00  0.00000000000E+00 -0.66703012765E+03  0.17302564242E+04  0.15965143602E+04 0.  0.
        2    1    3    3  502    0  0.54973611237E+03  0.50228694014E+03 -0.21824698479E+02  0.74496864427E+03  0.25500000920E-02 0.  1.
       -2    1    3    3    0  502 -0.54973611237E+03 -0.50228694014E+03 -0.64520542917E+03  0.98528777994E+03  0.25500000920E-02 0. -1.
</event>
<event>
 5   0  0.1081831E-05  0.1600157E+04  0.7818609E-02  0.8820452E-01
       -1   -1    0    0    0  501  0.00000000000E+00  0.00000000000E+00  0.41943531612E+03  0.41943531615E+03  0.50400001928E-02 0. -1.
        1   -1    0    0  501    0  0.00000000000E+00  0.00000000000E+00 -0.15261598868E+04  0.15261598868E+04  0.50400001928E-02 0.  1.
    10030    2    1    2    0    0  0.00000000000E+00  0.00000000000E+00 -0.11067245706E+04  0.19455952029E+04  0.16001566856E+04 0.  0.
        3    1    3    3  502    0 -0.16326679744E+03 -0.71020736479E+03 -0.15180068011E+03  0.74437490878E+03  0.10100000352E+00 0. -1.
       -3    1    3    3    0  502  0.16326679744E+03  0.71020736479E+03 -0.95492389052E+03  0.12012202941E+04  0.10100000352E+00 0.  1.
</event>
<event>
 5   0  0.1994525E-05  0.1599824E+04  0.7818609E-02  0.8820656E-01
       -2   -1    0    0    0  501  0.00000000000E+00  0.00000000000E+00  0.14385944384E+04  0.14385944384E+04  0.25500000920E-02 0. -1.
        2   -1    0    0  501    0  0.00000000000E+00  0.00000000000E+00 -0.44478092575E+03  0.44478092575E+03  0.25500000920E-02 0.  1.
    10030    2    1    2    0    0  0.00000000000E+00  0.00000000000E+00  0.99381351265E+03  0.18833753642E+04  0.15998241980E+04 0.  0.
        5    1    3    3  502    0 -0.58926170423E+03  0.51092403360E+03  0.28775359267E+03  0.83132240694E+03  0.46999998093E+01 0.  1.
       -5    1    3    3    0  502  0.58926170423E+03 -0.51092403360E+03  0.70605991998E+03  0.10520529572E+04  0.46999998093E+01 0. -1.
</event>
<event>
 5   0  0.2046108E-05  0.1599513E+04  0.7818609E-02  0.8820847E-01
        2   -1    0    0  501    0  0.00000000000E+00  0.00000000000E+00  0.24947782692E+04  0.24947782692E+04  0.25500000920E-02 0. -1.
       -2   -1    0    0    0  501  0.00000000000E+00  0.00000000000E+00 -0.25637977200E+03  0.25637977201E+03  0.25500000920E-02 0.  1.
    10030    2    1    2    0    0  0.00000000000E+00  0.00000000000E+00  0.22383984972E+04  0.27511580412E+04  0.15995132808E+04 0.  0.
        1    1    3    3  502    0  0.17679194573E+03 -0.61901155135E+03  0.30300677123E+03  0.71150811395E+03  0.50400001928E-02 0.  1.
       -1    1    3    3    0  502 -0.17679194573E+03  0.61901155135E+03  0.19353917259E+04  0.20396499272E+04  0.50400001928E-02 0. -1.
</event>
<event>
 5   0  0.1090674E-05  0.1599778E+04  0.7818609E-02  0.8820684E-01
       -1   -1    0    0    0  501  0.00000000000E+00  0.00000000000E+00  0.11839174625E+04  0.11839174625E+04  0.50400001928E-02 0.  1.
        1   -1    0    0  501    0  0.00000000000E+00  0.00000000000E+00 -0.54042830085E+03  0.54042830088E+03  0.50400001928E-02 0. -1.
    10030    2    1    2    0    0  0.00000000000E+00  0.00000000000E+00  0.64348916160E+03  0.17243457633E+04  0.15997781129E+04 0.  0.
        4    1    3    3  502    0  0.76724248442E+03 -0.22611664628E+03  0.31573147322E+03  0.85992891782E+03  0.12699999809E+01 0. -1.
       -4    1    3    3    0  502 -0.76724248442E+03  0.22611664628E+03  0.32775768838E+03  0.86441684552E+03  0.12699999809E+01 0.  1.
</event>
<event>
 5   0  0.1090674E-05  0.1602000E+04  0.7818609E-02  0.8819320E-01
       -1   -1    0    0    0  501  0.00000000000E+00  0.00000000000E+00  0.59295994178E+03  0.59295994180E+03  0.50400001928E-02 0.  1.
        1   -1    0    0  501    0  0.00000000000E+00  0.00000000000E+00 -0.10820306594E+04  0.10820306595E+04  0.50400001928E-02 0. -1.
    10030    2    1    2    0    0  0.00000000000E+00  0.00000000000E+00 -0.48907071766E+03  0.16749906013E+04  0.16019997963E+04 0.  0.
        4    1    3    3  502    0 -0.58516824516E+03 -0.36494914221E+03  0.18144560338E+03  0.71311560874E+03  0.12699999809E+01 0.  1.
       -4    1    3    3    0  502  0.58516824516E+03  0.36494914221E+03 -0.67051632103E+03  0.96187499251E+03  0.12699999809E+01 0. -1.
</event>
<event>
 5   0  0.1057506E-05  0.1594556E+04  0.7818609E-02  0.8823899E-01
       -1   -1    0    0    0  501  0.00000000000E+00  0.00000000000E+00  0.11638799226E+04  0.11638799226E+04  0.50400001928E-02 0. -1.
        1   -1    0    0  501    0  0.00000000000E+00  0.00000000000E+00 -0.54614931307E+03  0.54614931309E+03  0.50400001928E-02 0.  1.
    10030    2    1    2    0    0  0.00000000000E+00  0.00000000000E+00  0.61773060948E+03  0.17100292357E+04  0.15945560137E+04 0.  0.
        5    1    3    3  502    0 -0.78763129719E+03 -0.87066454386E+02  0.21484359590E+03  0.82105023506E+03  0.46999998093E+01 0. -1.
       -5    1    3    3    0  502  0.78763129719E+03  0.87066454386E+02  0.40288701359E+03  0.88897900060E+03  0.46999998093E+01 0.  1.
</event>
<event>
 5   0  0.1990948E-05  0.1600129E+04  0.7818609E-02  0.8820469E-01
        2   -1    0    0  501    0  0.00000000000E+00  0.00000000000E+00  0.21726796302E+04  0.21726796302E+04  0.25500000920E-02 0. -1.
       -2   -1    0    0    0  501  0.00000000000E+00  0.00000000000E+00 -0.29461464626E+03  0.29461464627E+03  0.25500000920E-02 0.  1.
    10030    2    1    2    0    0  0.00000000000E+00  0.00000000000E+00  0.18780649839E+04  0.24672942764E+04  0.16001290457E+04 0.  0.
        4    1    3    3  502    0 -0.50802609017E+03  0.48096588551E+03  0.34048587541E+03  0.77804301653E+03  0.12699999809E+01 0.  1.
       -4    1    3    3    0  502  0.50802609017E+03 -0.48096588551E+03  0.15375791085E+04  0.16892512599E+04  0.12699999809E+01 0. -1.
</event>
<event>
 5   0  0.1057506E-05  0.1600205E+04  0.7818609E-02  0.8820422E-01
       -1   -1    0    0    0  501  0.00000000000E+00  0.00000000000E+00  0.10485263407E+04  0.10485263407E+04  0.50400001928E-02 0. -1.
        1   -1    0    0  501    0  0.00000000000E+00  0.00000000000E+00 -0.61053719909E+03  0.61053719911E+03  0.50400001928E-02 0.  1.
    10030    2    1    2    0    0  0.00000000000E+00  0.00000000000E+00  0.43798914159E+03  0.16590635398E+04  0.16002054059E+04 0.  0.
        5    1    3    3  502    0  0.83512331603E+02  0.22751221761E+03  0.10095404658E+04  0.10382341551E+04  0.46999998093E+01 0. -1.
       -5    1    3    3    0  502 -0.83512331603E+02 -0.22751221761E+03 -0.57155132422E+03  0.62082938470E+03  0.46999998093E+01 0.  1.
</event>
<event>
 5   0  0.2125803E-05  0.1600453E+04  0.7818609E-02  0.8820270E-01
       -2   -1    0    0    0  501  0.00000000000E+00  0.00000000000E+00  0.49134105841E+03  0.49134105842E+03  0.25500000920E-02 0. -1.
        2   -1    0    0  501    0  0.00000000000E+00  0.00000000000E+00 -0.13032951626E+04  0.13032951626E+04  0.25500000920E-02 0.  1.
    10030    2    1    2    0    0  0.00000000000E+00  0.00000000000E+00 -0.81195410421E+03  0.17946362210E+04  0.16004529667E+04 0.  0.
        3    1    3    3  502    0  0.90543343775E+02  0.24944359503E+03  0.44056575535E+03  0.51431352227E+03  0.10100000352E+00 0. -1.
       -3    1    3    3    0  502 -0.90543343775E+02 -0.24944359503E+03 -0.12525198596E+04  0.12803226988E+04  0.10100000352E+00 0.  1.
</event>
<event>
 5   0  0.2125803E-05  0.1599578E+04  0.7818609E-02  0.8820808E-01
        2   -1    0    0  501    0  0.00000000000E+00  0.00000000000E+00  0.19085322058E+04  0.19085322058E+04  0.25500000920E-02 0.  1.
       -2   -1    0    0    0  501  0.00000000000E+00  0.00000000000E+00 -0.33515922880E+03  0.33515922881E+03  0.25500000920E-02 0. -1.
    10030    2    1    2    0    0  0.00000000000E+00  0.00000000000E+00  0.15733729770E+04  0.22436914346E+04  0.15995776721E+04 0.  0.
        3    1    3    3  502    0 -0.64079207005E+03 -0.17496813282E+03  0.14115219558E+04  0.15600072328E+04  0.10100000352E+00 0.  1.
       -3    1    3    3    0  502  0.64079207005E+03  0.17496813282E+03  0.16185102121E+03  0.68368420181E+03  0.10100000352E+00 0. -1.
</event>
<event>
 5   0  0.7597000E-06  0.1599340E+04  0.7818609E-02  0.8820954E-01
        3   -1    0    0  501    0  0.00000000000E+00  0.00000000000E+00  0.86982631307E+03  0.86982631893E+03  0.10100000352E+00 0. -1.
       -3   -1    0    0    0  501  0.00000000000E+00  0.00000000000E+00 -0.73517205362E+03  0.73517206055E+03  0.10100000352E+00 0.  1.
    10030    2    1    2    0    0  0.00000000000E+00  0.00000000000E+00  0.13465425945E+03  0.16049983795E+04  0.15993398727E+04 0.  0.
        4    1    3    3  502    0 -0.70848150596E+03  0.32883543805E+03 -0.10471922768E+03  0.78806504754E+03  0.12699999809E+01 0.  1.
       -4    1    3    3    0  502  0.70848150596E+03 -0.32883543805E+03  0.23937348714E+03  0.81693333195E+03  0.12699999809E+01 0. -1.
</event>
<event>
 5   0  0.1057506E-05  0.1599428E+04  0.7818609E-02  0.8820900E-01
       -1   -1    0    0    0  501  0.00000000000E+00  0.00000000000E+00  0.87030752157E+03  0.87030752159E+03  0.50400001928E-02 0. -1.
        1   -1    0    0  501    0  0.00000000000E+00  0.00000000000E+00 -0.73484640192E+03  0.73484640194E+03  0.50400001928E-02 0.  1.
    10030    2    1    2    0    0  0.00000000000E+00  0.00000000000E+00  0.13546111965E+03  0.16051539235E+04  0.15994278362E+04 0.  0.
        5    1    3    3  502    0 -0.62666572658E+03 -0.22809323806E+03 -0.37519266638E+03  0.76519806914E+03  0.46999998093E+01 0. -1.
       -5    1    3    3    0  502  0.62666572658E+03  0.22809323806E+03  0.51065378603E+03  0.83995585438E+03  0.46999998093E+01 0.  1.
</event>
<event>
 5   0  0.2125803E-05  0.1599678E+04  0.7818609E-02  0.8820746E-01
       -2   -1    0    0    0  501  0.00000000000E+00  0.00000000000E+00  0.41911757515E+03  0.41911757516E+03  0.25500000920E-02 0.  1.
        2   -1    0    0  501    0  0.00000000000E+00  0.00000000000E+00 -0.15264031462E+04  0.15264031462E+04  0.25500000920E-02 0. -1.
    10030    2    1    2    0    0  0.00000000000E+00  0.00000000000E+00 -0.11072855711E+04  0.19455207214E+04  0.15996779493E+04 0.  0.
        3    1    3    3  502    0 -0.11107157979E+03 -0.66902110699E+03 -0.10693672764E+04  0.12662829540E+04  0.10100000352E+00 0. -1.
       -3    1    3    3    0  502  0.11107157979E+03  0.66902110699E+03 -0.37918294670E+02  0.67923776744E+03  0.10100000352E+00 0.  1.
</event>
<event>
 5   0  0.7597000E-06  0.1600266E+04  0.7818609E-02  0.8820385E-01
       -3   -1    0    0    0  501  0.00000000000E+00  0.00000000000E+00  0.40425985177E+03  0.40425986439E+03  0.10100000352E+00 0. -1.
        3   -1    0    0  501    0  0.00000000000E+00  0.00000000000E+00 -0.15836663578E+04  0.15836663611E+04  0.10100000352E+00 0.  1.
    10030    2    1    2    0    0  0.00000000000E+00  0.00000000000E+00 -0.11794065061E+04  0.19879262254E+04  0.16002659064E+04 0.  0.
        3    1    3    3  502    0  0.10588377108E+03 -0.35790710106E+02  0.39451457270E+03  0.41004159079E+03  0.10100000352E+00 0. -1.
       -3    1    3    3    0  502 -0.10588377108E+03  0.35790710106E+02 -0.15739210788E+04  0.15778846347E+04  0.10100000352E+00 0.  1.
</event>
<event>
 5   0  0.2147844E-05  0.1600342E+04  0.7818609E-02  0.8820338E-01
        2   -1    0    0  501    0  0.00000000000E+00  0.00000000000E+00  0.13204710105E+04  0.13204710105E+04  0.25500000920E-02 0.  1.
       -2   -1    0    0    0  501  0.00000000000E+00  0.00000000000E+00 -0.48488250981E+03  0.48488250982E+03  0.25500000920E-02 0. -1.
    10030    2    1    2    0    0  0.00000000000E+00  0.00000000000E+00  0.83558850067E+03  0.18053535203E+04  0.16003415857E+04 0.  0.
        2    1    3    3  502    0  0.62346178824E+03  0.21358510526E+03 -0.94159311707E+02  0.66572454857E+03  0.25500000920E-02 0. -1.
       -2    1    3    3    0  502 -0.62346178824E+03 -0.21358510526E+03  0.92974781238E+03  0.11396289717E+04  0.25500000920E-02 0.  1.
</event>
<event>
 5   0  0.2046108E-05  0.1599590E+04  0.7818609E-02  0.8820800E-01
       -2   -1    0    0    0  501  0.00000000000E+00  0.00000000000E+00  0.43554302758E+03  0.43554302759E+03  0.25500000920E-02 0.  1.
        2   -1    0    0  501    0  0.00000000000E+00  0.00000000000E+00 -0.14686773719E+04  0.14686773719E+04  0.25500000920E-02 0. -1.
    10030    2    1    2    0    0  0.00000000000E+00  0.00000000000E+00 -0.10331343443E+04  0.19042203994E+04  0.15995901839E+04 0.  0.
        1    1    3    3  502    0 -0.31103724320E+03 -0.72765629408E+03 -0.37853566565E+03  0.87722123730E+03  0.50400001928E-02 0.  1.
       -1    1    3    3    0  502  0.31103724320E+03  0.72765629408E+03 -0.65459867862E+03  0.10269991621E+04  0.50400001928E-02 0. -1.
</event>
<event>
 5   0  0.1060251E-05  0.1602051E+04  0.7818609E-02  0.8819289E-01
       -1   -1    0    0    0  501  0.00000000000E+00  0.00000000000E+00  0.62644178270E+03  0.62644178272E+03  0.50400001928E-02 0.  1.
        1   -1    0    0  501    0  0.00000000000E+00  0.00000000000E+00 -0.10242638444E+04  0.10242638445E+04  0.50400001928E-02 0. -1.
    10030    2    1    2    0    0  0.00000000000E+00  0.00000000000E+00 -0.39782206175E+03  0.16507056272E+04  0.16020507716E+04 0.  0.
        1    1    3    3  502    0 -0.22108443145E+03 -0.50368629706E+03 -0.79888699064E+03  0.96994774886E+03  0.50400001928E-02 0. -1.
       -1    1    3    3    0  502  0.22108443145E+03  0.50368629706E+03  0.40106492890E+03  0.68075787832E+03  0.50400001928E-02 0.  1.
</event>
<event>
 5   0  0.1990948E-05  0.1600328E+04  0.7818609E-02  0.8820347E-01
       -2   -1    0    0    0  501  0.00000000000E+00  0.00000000000E+00  0.49918766849E+03  0.49918766850E+03  0.25500000920E-02 0.  1.
        2   -1    0    0  501    0  0.00000000000E+00  0.00000000000E+00 -0.12826078719E+04  0.12826078719E+04  0.25500000920E-02 0. -1.
    10030    2    1    2    0    0  0.00000000000E+00  0.00000000000E+00 -0.78342020343E+03  0.17817955404E+04  0.16003275080E+04 0.  0.
        4    1    3    3  502    0 -0.14535918492E+03  0.47922517987E+03  0.30313568814E+03  0.58538784065E+03  0.12699999809E+01 0.  1.
       -4    1    3    3    0  502  0.14535918492E+03 -0.47922517987E+03 -0.10865558916E+04  0.11964076998E+04  0.12699999809E+01 0. -1.
</event>
<event>
 5   0  0.1990948E-05  0.1599145E+04  0.7818609E-02  0.8821073E-01
        2   -1    0    0  501    0  0.00000000000E+00  0.00000000000E+00  0.13110600465E+04  0.13110600465E+04  0.25500000920E-02 0. -1.
       -2   -1    0    0    0  501  0.00000000000E+00  0.00000000000E+00 -0.48763324842E+03  0.48763324843E+03  0.25500000920E-02 0.  1.
    10030    2    1    2    0    0  0.00000000000E+00  0.00000000000E+00  0.82342679807E+03  0.17986932949E+04  0.15991453584E+04 0.  0.
        4    1    3    3  502    0 -0.47976263998E+03 -0.80017758241E+02 -0.30209468460E+03  0.57257125646E+03  0.12699999809E+01 0.  1.
       -4    1    3    3    0  502  0.47976263998E+03  0.80017758241E+02  0.11255214827E+04  0.12261220385E+04  0.12699999809E+01 0. -1.
</event>
<event>
 5   0  0.1994525E-05  0.1592453E+04  0.7818609E-02  0.8825198E-01
       -2   -1    0    0    0  501  0.00000000000E+00  0.00000000000E+00  0.31793383955E+03  0.31793383956E+03  0.25500000920E-02 0.  1.
        2   -1    0    0  501    0  0.00000000000E+00  0.00000000000E+00 -0.19940524943E+04  0.19940524943E+04  0.25500000920E-02 0. -1.
    10030    2    1    2    0    0  0.00000000000E+00  0.00000000000E+00 -0.16761186547E+04  0.23119863338E+04  0.15924531588E+04 0.  0.
        5    1    3    3  502    0  0.98930532778E+02  0.16453239337E+03  0.28380635928E+03  0.34267520825E+03  0.46999998093E+01 0.  1.
       -5    1    3    3    0  502 -0.98930532778E+02 -0.16453239337E+03 -0.19599250140E+04  0.19693111256E+04  0.46999998093E+01 0. -1.
</event>
<event>
 5   0  0.1090674E-05  0.1600922E+04  0.7818609E-02  0.8819982E-01
       -1   -1    0    0    0  501  0.00000000000E+00  0.00000000000E+00  0.77401213859E+03  0.77401213860E+03  0.50400001928E-02 0. -1.
        1   -1    0    0  501    0  0.00000000000E+00  0.00000000000E+00 -0.82781358486E+03  0.82781358487E+03  0.50400001928E-02 0.  1.
    10030    2    1    2    0    0  0.00000000000E+00  0.00000000000E+00 -0.53801446270E+02  0.16018257235E+04  0.16009219384E+04 0.  0.
        4    1    3    3  502    0 -0.39051390639E+03 -0.42055723666E+03  0.53141666620E+03  0.78216033293E+03  0.12699999809E+01 0. -1.
       -4    1    3    3    0  502  0.39051390639E+03  0.42055723666E+03 -0.58521811247E+03  0.81966539055E+03  0.12699999809E+01 0.  1.
</event>
<event>
 5   0  0.1126485E-05  0.1603065E+04  0.7818609E-02  0.8818667E-01
       -1   -1    0    0    0  501  0.00000000000E+00  0.00000000000E+00  0.68141596961E+03  0.68141596963E+03  0.50400001928E-02 0.  1.
        1   -1    0    0  501    0  0.00000000000E+00  0.00000000000E+00 -0.94282284661E+03  0.94282284662E+03  0.50400001928E-02 0. -1.
    10030    2    1    2    0    0  0.00000000000E+00  0.00000000000E+00 -0.26140687700E+03  0.16242388162E+04  0.16030652441E+04 0.  0.
        2    1    3    3  502    0 -0.35497036244E+03  0.71466803685E+03 -0.20720020709E+03  0.82443088669E+03  0.25500000920E-02 0. -1.
       -2    1    3    3    0  502  0.35497036244E+03 -0.71466803685E+03 -0.54206669903E+02  0.79980792955E+03  0.25500000920E-02 0.  1.
</event>
<event>
 5   0  0.2125803E-05  0.1600116E+04  0.7818609E-02  0.8820477E-01
        2   -1    0    0  501    0  0.00000000000E+00  0.00000000000E+00  0.13936975051E+04  0.13936975051E+04  0.25500000920E-02 0. -1.
       -2   -1    0    0    0  501  0.00000000000E+00  0.00000000000E+00 -0.45927645120E+03  0.45927645121E+03  0.25500000920E-02 0.  1.
    10030    2    1    2    0    0  0.00000000000E+00  0.00000000000E+00  0.93442105391E+03  0.18529739563E+04  0.16001155511E+04 0.  0.
        3    1    3    3  502    0 -0.17889494645E+03  0.61458584007E+03  0.10230303347E+04  0.12067767948E+04  0.10100000352E+00 0. -1.
       -3    1    3    3    0  502  0.17889494645E+03 -0.61458584007E+03 -0.88609280756E+02  0.64619716149E+03  0.10100000352E+00 0.  1.
</event>
<event>
 5   0  0.1990948E-05  0.1600732E+04  0.7818609E-02  0.8820098E-01
       -2   -1    0    0    0  501  0.00000000000E+00  0.00000000000E+00  0.66637624160E+03  0.66637624160E+03  0.25500000920E-02 0.  1.
        2   -1    0    0  501    0  0.00000000000E+00  0.00000000000E+00 -0.96129729963E+03  0.96129729963E+03  0.25500000920E-02 0. -1.
    10030    2    1    2    0    0  0.00000000000E+00  0.00000000000E+00 -0.29492105803E+03  0.16276735412E+04  0.16007319346E+04 0.  0.
        4    1    3    3  502    0  0.23770243829E+03 -0.61487117893E+03  0.31406759605E+03  0.73021167043E+03  0.12699999809E+01 0.  1.
       -4    1    3    3    0  502 -0.23770243829E+03  0.61487117893E+03 -0.60898865408E+03  0.89746187080E+03  0.12699999809E+01 0. -1.
</event>
<event>
 5   0  0.1990948E-05  0.1599495E+04  0.7818609E-02  0.8820858E-01
        2   -1    0    0  501    0  0.00000000000E+00  0.00000000000E+00  0.26021417183E+04  0.26021417183E+04  0.25500000920E-02 0. -1.
       -2   -1    0    0    0  501  0.00000000000E+00  0.00000000000E+00 -0.24579606949E+03  0.24579606950E+03  0.25500000920E-02 0.  1.
    10030    2    1    2    0    0  0.00000000000E+00  0.00000000000E+00  0.23563456488E+04  0.28479377878E+04  0.15994951786E+04 0.  0.
        4    1    3    3  502    0 -0.67961359011E+03 -0.20558678435E+03  0.18334779088E+04  0.19661595593E+04  0.12699999809E+01 0. -1.
       -4    1    3    3    0  502  0.67961359011E+03  0.20558678435E+03  0.52286774000E+03  0.88177822847E+03  0.12699999809E+01 0.  1.
</event>
<event>
 5   0  0.1081831E-05  0.1600489E+04  0.7818609E-02  0.8820248E-01
        1   -1    0    0  501    0  0.00000000000E+00  0.00000000000E+00  0.27369288376E+04  0.27369288376E+04  0.50400001928E-02 0.  1.
       -1   -1    0    0    0  501  0.00000000000E+00  0.00000000000E+00 -0.23398160081E+03  0.23398160086E+03  0.50400001928E-02 0. -1.
    10030    2    1    2    0    0  0.00000000000E+00  0.00000000000E+00  0.25029472368E+04  0.29709104385E+04  0.16004886639E+04 0.  0.
        3    1    3    3  502    0 -0.29842874603E+03 -0.71137299790E+03  0.85648113317E+03  0.11526800078E+04  0.10100000352E+00 0. -1.
       -3    1    3    3    0  502  0.29842874603E+03  0.71137299790E+03  0.16464661036E+04  0.18182304307E+04  0.10100000352E+00 0.  1.
</event>
<event>
 5   0  0.1060251E-05  0.1599806E+04  0.7818609E-02  0.8820667E-01
        1   -1    0    0  501    0  0.00000000000E+00  0.00000000000E+00  0.75440957527E+03  0.75440957529E+03  0.50400001928E-02 0.  1.
       -1   -1    0    0    0  501  0.00000000000E+00  0.00000000000E+00 -0.84813980700E+03  0.84813980701E+03  0.50400001928E-02 0. -1.
    10030    2    1    2    0    0  0.00000000000E+00  0.00000000000E+00 -0.93730231729E+02  0.16025493823E+04  0.15998059777E+04 0.  0.
        1    1    3    3  502    0  0.29405265804E+03  0.73575016628E+03 -0.15682365354E+03  0.80770596830E+03  0.50400001928E-02 0.  1.
       -1    1    3    3    0  502 -0.29405265804E+03 -0.73575016628E+03  0.63093421816E+02  0.79484341401E+03  0.50400001928E-02 0. -1.
</event>
<event>
 5   0  0.1090674E-05  0.1599836E+04  0.7818609E-02  0.8820649E-01
       -1   -1    0    0    0  501  0.00000000000E+00  0.00000000000E+00  0.69659227489E+03  0.69659227490E+03  0.50400001928E-02 0.  1.
        1   -1    0    0  501    0  0.00000000000E+00  0.00000000000E+00 -0.91857031945E+03  0.91857031946E+03  0.50400001928E-02 0. -1.
    10030    2    1    2    0    0  0.00000000000E+00  0.00000000000E+00 -0.22197804456E+03  0.16151625944E+04  0.15998362272E+04 0.  0.
        4    1    3    3  502    0 -0.67469470861E+03  0.33575262690E+02  0.32151570130E+03  0.74814049962E+03  0.12699999809E+01 0.  1.
       -4    1    3    3    0  502  0.67469470861E+03 -0.33575262690E+02 -0.54349374587E+03  0.86702209475E+03  0.12699999809E+01 0. -1.
</event>
<event>
 5   0  0.2046108E-05  0.1600557E+04  0.7818609E-02  0.8820206E-01
        2   -1    0    0  501    0  0.00000000000E+00  0.00000000000E+00  0.19131565894E+04  0.19131565894E+04  0.25500000920E-02 0.  1.
       -2   -1    0    0    0  501  0.00000000000E+00  0.00000000000E+00 -0.33475863918E+03  0.33475863919E+03  0.25500000920E-02 0. -1.
    10030    2    1    2    0    0  0.00000000000E+00  0.00000000000E+00  0.15783979502E+04  0.22479152286E+04  0.16005570235E+04 0.  0.
        1    1    3    3  502    0  0.99389928741E+02  0.41064474765E+03  0.17437534782E+04  0.17942083657E+04  0.50400001928E-02 0.  1.
       -1    1    3    3    0  502 -0.99389928741E+02 -0.41064474765E+03 -0.16535552805E+03  0.45370686284E+03  0.50400001928E-02 0. -1.
</event>
<event>
 5   0  0.1990948E-05  0.1602286E+04  0.7818609E-02  0.8819145E-01
        2   -1    0    0  501    0  0.00000000000E+00  0.00000000000E+00  0.69112270936E+03  0.69112270937E+03  0.25500000920E-02 0.  1.
       -2   -1    0    0    0  501  0.00000000000E+00  0.00000000000E+00 -0.92867791316E+03  0.92867791317E+03  0.25500000920E-02 0. -1.
    10030    2    1    2    0    0  0.00000000000E+00  0.00000000000E+00 -0.23755520380E+03  0.16198006225E+04  0.16022863608E+04 0.  0.
        4    1    3    3  502    0  0.58604264896E+03  0.47886062094E+03  0.14691705541E+03  0.77093431287E+03  0.12699999809E+01 0.  1.
       -4    1    3    3    0  502 -0.58604264896E+03 -0.47886062094E+03 -0.38447225921E+03  0.84886630967E+03  0.12699999809E+01 0. -1.
</event>
<event>
 5   0  0.1057506E-05  0.1601085E+04  0.7818609E-02  0.8819882E-01
       -1   -1    0    0    0  501  0.00000000000E+00  0.00000000000E+00  0.86598938427E+03  0.86598938429E+03  0.50400001928E-02 0. -1.
        1   -1    0    0  501    0  0.00000000000E+00  0.00000000000E+00 -0.74004181548E+03  0.74004181550E+03  0.50400001928E-02 0.  1.
    10030    2    1    2    0    0  0.00000000000E+00  0.00000000000E+00  0.12594756879E+03  0.16060311998E+04  0.16010850773E+04 0.  0.
        5    1    3    3  502    0 -0.49781515485E+03  0.29618087183E+03  0.61722322938E+03  0.84648073937E+03  0.46999998093E+01 0. -1.
       -5    1    3    3    0  502  0.49781515485E+03 -0.29618087183E+03 -0.49127566059E+03  0.75955046042E+03  0.46999998093E+01 0.  1.
</event>
<event>
 5   0  0.2046108E-05  0.1606667E+04  0.7818609E-02  0.8816463E-01
        2   -1    0    0  501    0  0.00000000000E+00  0.00000000000E+00  0.82231503620E+03  0.82231503620E+03  0.25500000920E-02 0.  1.
       -2   -1    0    0    0  501  0.00000000000E+00  0.00000000000E+00 -0.78478982205E+03  0.78478982206E+03  0.25500000920E-02 0. -1.
    10030    2    1    2    0    0  0.00000000000E+00  0.00000000000E+00  0.37525214145E+02  0.16071048583E+04  0.16066666996E+04 0.  0.
        1    1    3    3  502    0  0.79163675056E+02  0.17521925261E+03  0.79895980393E+03  0.82176970147E+03  0.50400001928E-02 0.  1.
       -1    1    3    3    0  502 -0.79163675056E+02 -0.17521925261E+03 -0.76143458979E+03  0.78533515679E+03  0.50400001928E-02 0. -1.
</event>
<event>
 5   0  0.1081831E-05  0.1599934E+04  0.7818609E-02  0.8820589E-01
       -1   -1    0    0    0  501  0.00000000000E+00  0.00000000000E+00  0.63813891902E+03  0.63813891904E+03  0.50400001928E-02 0. -1.
        1   -1    0    0  501    0  0.00000000000E+00  0.00000000000E+00 -0.10028331773E+04  0.10028331773E+04  0.50400001928E-02 0.  1.
    10030    2    1    2    0    0  0.00000000000E+00  0.00000000000E+00 -0.36469425827E+03  0.16409720964E+04  0.15999335983E+04 0.  0.
        3    1    3    3  502    0 -0.30657048888E+03  0.60042693524E+03 -0.62403082566E+03  0.91864707629E+03  0.10100000352E+00 0.  1.
       -3    1    3    3    0  502  0.30657048888E+03 -0.60042693524E+03  0.25933656739E+03  0.72232502006E+03  0.10100000352E+00 0. -1.
</event>
<event>
 5   0  0.1057506E-05  0.1600594E+04  0.7818609E-02  0.8820183E-01
       -1   -1    0    0    0  501  0.00000000000E+00  0.00000000000E+00  0.13068179110E+04  0.13068179110E+04  0.50400001928E-02 0.  1.
        1   -1    0    0  501    0  0.00000000000E+00  0.00000000000E+00 -0.49010311677E+03  0.49010311679E+03  0.50400001928E-02 0. -1.
    10030    2    1    2    0    0  0.00000000000E+00  0.00000000000E+00  0.81671479423E+03  0.17969210278E+04  0.16005943037E+04 0.  0.
        5    1    3    3  502    0  0.40097605187E+03  0.67120434666E+03  0.60005402183E+03  0.98558814332E+03  0.46999998093E+01 0.  1.
       -5    1    3    3    0  502 -0.40097605187E+03 -0.67120434666E+03  0.21666077240E+03  0.81133288448E+03  0.46999998093E+01 0. -1.
</event>
<event>
 5   0  0.1057506E-05  0.1601189E+04  0.7818609E-02  0.8819818E-01
       -1   -1    0    0    0  501  0.00000000000E+00  0.00000000000E+00  0.61446169885E+03  0.61446169887E+03  0.50400001928E-02 0. -1.
        1   -1    0    0  501    0  0.00000000000E+00  0.00000000000E+00 -0.10431104703E+04  0.10431104703E+04  0.50400001928E-02 0.  1.
    10030    2    1    2    0    0  0.00000000000E+00  0.00000000000E+00 -0.42864877146E+03  0.16575721692E+04  0.16011888479E+04 0.  0.
        5    1    3    3  502    0  0.16504497418E+03  0.31239908635E+03  0.52937130703E+03  0.63646610543E+03  0.46999998093E+01 0. -1.
       -5    1    3    3    0  502 -0.16504497418E+03 -0.31239908635E+03 -0.95802007850E+03  0.10211060638E+04  0.46999998093E+01 0.  1.
</event>
<event>
 5   0  0.7597000E-06  0.1600347E+04  0.7818609E-02  0.8820335E-01
       -4   -1    0    0    0  501  0.00000000000E+00  0.00000000000E+00  0.54829781562E+03  0.54829928644E+03  0.12699999809E+01 0.  1.
        4   -1    0    0  501    0  0.00000000000E+00  0.00000000000E+00 -0.11677517887E+04  0.11677524793E+04  0.12699999809E+01 0. -1.
    10030    2    1    2    0    0  0.00000000000E+00  0.00000000000E+00 -0.61945397307E+03  0.17160517657E+04  0.16003469742E+04 0.  0.
        4    1    3    3  502    0  0.17623203008E+03 -0.24426180405E+03 -0.11046436328E+04  0.11449719323E+04  0.12699999809E+01 0. -1.
       -4    1    3    3    0  502 -0.17623203008E+03  0.24426180405E+03  0.48518965973E+03  0.57107983343E+03  0.12699999809E+01 0.  1.
</event>
<event>
 5   0  0.1994525E-05  0.1599169E+04  0.7818609E-02  0.8821059E-01
        2   -1    0    0  501    0  0.00000000000E+00  0.00000000000E+00  0.11185431517E+04  0.11185431517E+04  0.25500000920E-02 0.  1.
       -2   -1    0    0    0  501  0.00000000000E+00  0.00000000000E+00 -0.57157843547E+03  0.57157843547E+03  0.25500000920E-02 0. -1.
    10030    2    1    2    0    0  0.00000000000E+00  0.00000000000E+00  0.54696471623E+03  0.16901215872E+04  0.15991687149E+04 0.  0.
        5    1    3    3  502    0  0.57471323666E+03  0.64074958060E+02  0.85707664144E+03  0.10339261888E+04  0.46999998093E+01 0.  1.
       -5    1    3    3    0  502 -0.57471323666E+03 -0.64074958060E+02 -0.31011192521E+03  0.65619539834E+03  0.46999998093E+01 0. -1.
</event>
<event>
 5   0  0.1990948E-05  0.1599951E+04  0.7818609E-02  0.8820578E-01
       -2   -1    0    0    0  501  0.00000000000E+00  0.00000000000E+00  0.73063718928E+03  0.73063718929E+03  0.25500000920E-02 0.  1.
        2   -1    0    0  501    0  0.00000000000E+00  0.00000000000E+00 -0.87589397596E+03  0.87589397597E+03  0.25500000920E-02 0. -1.
    10030    2    1    2    0    0  0.00000000000E+00  0.00000000000E+00 -0.14525678668E+03  0.16065311653E+04  0.15999508901E+04 0.  0.
        4    1    3    3  502    0  0.39425400434E+03  0.40882219224E+03  0.49306000448E+03  0.75211806634E+03  0.12699999809E+01 0.  1.
       -4    1    3    3    0  502 -0.39425400434E+03 -0.40882219224E+03 -0.63831679116E+03  0.85441309891E+03  0.12699999809E+01 0. -1.
</event>
<event>
 5   0  0.1060251E-05  0.1600280E+04  0.7818609E-02  0.8820376E-01
       -1   -1    0    0    0  501  0.00000000000E+00  0.00000000000E+00  0.12436561620E+04  0.12436561620E+04  0.50400001928E-02 0. -1.
        1   -1    0    0  501    0  0.00000000000E+00  0.00000000000E+00 -0.51479180770E+03  0.51479180773E+03  0.50400001928E-02 0.  1.
    10030    2    1    2    0    0  0.00000000000E+00  0.00000000000E+00  0.72886435431E+03  0.17584479698E+04  0.16002799803E+04 0.  0.
        1    1    3    3  502    0 -0.35766080205E+03  0.30665634026E+03  0.10750876873E+04  0.11737857111E+04  0.50400001928E-02 0. -1.
       -1    1    3    3    0  502  0.35766080205E+03 -0.30665634026E+03 -0.34622333295E+03  0.58466225862E+03  0.50400001928E-02 0.  1.
</event>
<event>
 5   0  0.1994525E-05  0.1599973E+04  0.7818609E-02  0.8820564E-01
        2   -1    0    0  501    0  0.00000000000E+00  0.00000000000E+00  0.10503216008E+04  0.10503216008E+04  0.25500000920E-02 0. -1.
       -2   -1    0    0    0  501  0.00000000000E+00  0.00000000000E+00 -0.60931676422E+03  0.60931676423E+03  0.25500000920E-02 0.  1.
    10030    2    1    2    0    0  0.00000000000E+00  0.00000000000E+00  0.44100483661E+03  0.16596383651E+04  0.15999731988E+04 0.  0.
        5    1    3    3  502    0  0.24868248342E+03  0.28365261519E+03  0.95225591522E+03  0.10242632483E+04  0.46999998093E+01 0. -1.
       -5    1    3    3    0  502 -0.24868248342E+03 -0.28365261519E+03 -0.51125107862E+03  0.63537511680E+03  0.46999998093E+01 0.  1.
</event>
<event>
 5   0  0.1057506E-05  0.1591093E+04  0.7818609E-02  0.8826038E-01
        1   -1    0    0  501    0  0.00000000000E+00  0.00000000000E+00  0.41528647808E+03  0.41528647812E+03  0.50400001928E-02 0. -1.
       -1   -1    0    0    0  501  0.00000000000E+00  0.00000000000E+00 -0.15239948350E+04  0.15239948350E+04  0.50400001928E-02 0.  1.
    10030    2    1    2    0    0  0.00000000000E+00  0.00000000000E+00 -0.11087083569E+04  0.19392813131E+04  0.15910932690E+04 0.  0.
        5    1    3    3  502    0 -0.34437149004E+03  0.17269036307E+03  0.29399284767E+03  0.48463137448E+03  0.46999998093E+01 0. -1.
       -5    1    3    3    0  502  0.34437149004E+03 -0.17269036307E+03 -0.14027012046E+04  0.14546499386E+04  0.46999998093E+01 0.  1.
</event>
<event>
 5   0  0.2125803E-05  0.1600906E+04  0.7818609E-02  0.8819992E-01
       -2   -1    0    0    0  501  0.00000000000E+00  0.00000000000E+00  0.39963455859E+03  0.39963455860E+03  0.25500000920E-02 0.  1.
        2   -1    0    0  501    0  0.00000000000E+00  0.00000000000E+00 -0.16032767891E+04  0.16032767891E+04  0.25500000920E-02 0. -1.
    10030    2    1    2    0    0  0.00000000000E+00  0.00000000000E+00 -0.12036422305E+04  0.20029113477E+04  0.16009057585E+04 0.  0.
        3    1    3    3  502    0 -0.20464805297E+03  0.66956880775E+02 -0.15663628461E+04  0.15810934904E+04  0.10100000352E+00 0. -1.
       -3    1    3    3    0  502  0.20464805297E+03 -0.66956880775E+02  0.36272061566E+03  0.42181785725E+03  0.10100000352E+00 0.  1.
</event>
<event>
 5   0  0.1994525E-05  0.1600976E+04  0.7818609E-02  0.8819949E-01
       -2   -1    0    0    0  501  0.00000000000E+00  0.00000000000E+00  0.63283301338E+03  0.63283301339E+03  0.25500000920E-02 0.  1.
        2   -1    0    0  501    0  0.00000000000E+00  0.00000000000E+00 -0.10125594438E+04  0.10125594438E+04  0.25500000920E-02 0. -1.
    10030    2    1    2    0    0  0.00000000000E+00  0.00000000000E+00 -0.37972643038E+03  0.16453924572E+04  0.16009760074E+04 0.  0.
        5    1    3    3  502    0  0.41741041380E+03 -0.11348080213E+03 -0.88208449911E+03  0.98244821725E+03  0.46999998093E+01 0. -1.
       -5    1    3    3    0  502 -0.41741041380E+03  0.11348080213E+03  0.50235806873E+03  0.66294423990E+03  0.46999998093E+01 0.  1.
</event>
<event>
 5   0  0.1090674E-05  0.1600302E+04  0.7818609E-02  0.8820362E-01
        1   -1    0    0  501    0  0.00000000000E+00  0.00000000000E+00  0.57011656898E+03  0.57011656900E+03  0.50400001928E-02 0.  1.
       -1   -1    0    0    0  501  0.00000000000E+00  0.00000000000E+00 -0.11230014867E+04  0.11230014867E+04  0.50400001928E-02 0. -1.
    10030    2    1    2    0    0  0.00000000000E+00  0.00000000000E+00 -0.55288491774E+03  0.16931180557E+04  0.16003021647E+04 0.  0.
        4    1    3    3  502    0 -0.36142547941E+03 -0.59087596486E+03  0.14738796865E+03  0.70815789851E+03  0.12699999809E+01 0.  1.
       -4    1    3    3    0  502  0.36142547941E+03  0.59087596486E+03 -0.70027288639E+03  0.98496015723E+03  0.12699999809E+01 0. -1.
</event>
<event>
 5   0  0.2125803E-05  0.1600031E+04  0.7818609E-02  0.8820529E-01
       -2   -1    0    0    0  501  0.00000000000E+00  0.00000000000E+00  0.37212157522E+03  0.37212157523E+03  0.25500000920E-02 0. -1.
        2   -1    0    0  501    0  0.00000000000E+00  0.00000000000E+00 -0.17199344780E+04  0.17199344780E+04  0.25500000920E-02 0.  1.
    10030    2    1    2    0    0  0.00000000000E+00  0.00000000000E+00 -0.13478129027E+04  0.20920560532E+04  0.16000309087E+04 0.  0.
        3    1    3    3  502    0  0.22422393079E+03 -0.47866934334E+03  0.11127903037E+03  0.54017010672E+03  0.10100000352E+00 0. -1.
       -3    1    3    3    0  502 -0.22422393079E+03  0.47866934334E+03 -0.14590919331E+04  0.15518859465E+04  0.10100000352E+00 0.  1.
</event>
<event>
 5   0  0.2147844E-05  0.1599847E+04  0.7818609E-02  0.8820642E-01
        2   -1    0    0  501    0  0.00000000000E+00  0.00000000000E+00  0.15991324282E+04  0.15991324282E+04  0.25500000920E-02 0.  1.
       -2   -1    0    0    0  501  0.00000000000E+00  0.00000000000E+00 -0.40014028344E+03  0.40014028344E+03  0.25500000920E-02 0. -1.
    10030    2    1    2    0    0  0.00000000000E+00  0.00000000000E+00  0.11989921447E+04  0.19992727116E+04  0.15998466215E+04 0.  0.
        2    1    3    3  502    0  0.29373574142E+03  0.68691649964E+03  0.95678307866E+03  0.12139064309E+04  0.25500000920E-02 0.  1.
       -2    1    3    3    0  502 -0.29373574142E+03 -0.68691649964E+03  0.24220906609E+03  0.78536628077E+03  0.25500000920E-02 0. -1.
</event>
<event>
 5   0  0.1990948E-05  0.1600783E+04  0.7818609E-02  0.8820067E-01
        2   -1    0    0  501    0  0.00000000000E+00  0.00000000000E+00  0.17405104238E+04  0.17405104238E+04  0.25500000920E-02 0. -1.
       -2   -1    0    0    0  501  0.00000000000E+00  0.00000000000E+00 -0.36806824371E+03  0.36806824372E+03  0.25500000920E-02 0.  1.
    10030    2    1    2    0    0  0.00000000000E+00  0.00000000000E+00  0.13724421801E+04  0.21085786675E+04  0.16007830769E+04 0.  0.
        4    1    3    3  502    0  0.41416196322E+03 -0.39775795725E+03 -0.48218610314E+02  0.57625356538E+03  0.12699999809E+01 0.  1.
       -4    1    3    3    0  502 -0.41416196322E+03  0.39775795725E+03  0.14206607904E+04  0.15323251021E+04  0.12699999809E+01 0. -1.
</event>
<event>
 5   0  0.1994525E-05  0.1598892E+04  0.7818609E-02  0.8821229E-01
       -2   -1    0    0    0  501  0.00000000000E+00  0.00000000000E+00  0.23467610313E+03  0.23467610314E+03  0.25500000920E-02 0.  1.
        2   -1    0    0  501    0  0.00000000000E+00  0.00000000000E+00 -0.27233872147E+04  0.27233872147E+04  0.25500000920E-02 0. -1.
    10030    2    1    2    0    0  0.00000000000E+00  0.00000000000E+00 -0.24887111116E+04  0.29580633178E+04  0.15988919899E+04 0.  0.
        5    1    3    3  502    0 -0.26343026953E+03  0.73791807019E+03 -0.95082199953E+03  0.12320727048E+04  0.46999998093E+01 0.  1.
       -5    1    3    3    0  502  0.26343026953E+03 -0.73791807019E+03 -0.15378891120E+04  0.17259906130E+04  0.46999998093E+01 0. -1.
</event>
<event>
 5   0  0.2046108E-05  0.1599623E+04  0.7818609E-02  0.8820780E-01
       -2   -1    0    0    0  501  0.00000000000E+00  0.00000000000E+00  0.61459073476E+03  0.61459073477E+03  0.25500000920E-02 0.  1.
        2   -1    0    0  501    0  0.00000000000E+00  0.00000000000E+00 -0.10408522357E+04  0.10408522357E+04  0.25500000920E-02 0. -1.
    10030    2    1    2    0    0  0.00000000000E+00  0.00000000000E+00 -0.42626150093E+03  0.16554429705E+04  0.15996226309E+04 0.  0.
        1    1    3    3  502    0 -0.64793782680E+03 -0.98163307019E+02 -0.68764907996E+03  0.94990563712E+03  0.50400001928E-02 0. -1.
       -1    1    3    3    0  502  0.64793782680E+03  0.98163307019E+02  0.26138757903E+03  0.70553733334E+03  0.50400001928E-02 0.  1.
</event>
<event>
 5   0  0.2046108E-05  0.1602862E+04  0.7818609E-02  0.8818792E-01
        2   -1    0    0  501    0  0.00000000000E+00  0.00000000000E+00  0.77142365921E+03  0.77142365922E+03  0.25500000920E-02 0.  1.
       -2   -1    0    0    0  501  0.00000000000E+00  0.00000000000E+00 -0.83260584569E+03  0.83260584569E+03  0.25500000920E-02 0. -1.
    10030    2    1    2    0    0  0.00000000000E+00  0.00000000000E+00 -0.61182186474E+02  0.16040295049E+04  0.16028622501E+04 0.  0.
        1    1    3    3  502    0  0.43071119149E+03 -0.54171784033E+03  0.37383375452E+03  0.78658885388E+03  0.50400001928E-02 0.  1.
       -1    1    3    3    0  502 -0.43071119149E+03  0.54171784033E+03 -0.43501594100E+03  0.81744065103E+03  0.50400001928E-02 0. -1.
</event>
<event>
 5   0  0.1060251E-05  0.1599835E+04  0.7818609E-02  0.8820649E-01
        1   -1    0    0  501    0  0.00000000000E+00  0.00000000000E+00  0.98320389312E+03  0.98320389313E+03  0.50400001928E-02 0. -1.
       -1   -1    0    0    0  501  0.00000000000E+00  0.00000000000E+00 -0.65079926557E+03  0.65079926559E+03  0.50400001928E-02 0.  1.
    10030    2    1    2    0    0  0.00000000000E+00  0.00000000000E+00  0.33240462756E+03  0.16340031587E+04  0.15998354560E+04 0.  0.
        1    1    3    3  502    0  0.79393387298E+03  0.24008887561E+02  0.26288631294E+03  0.83666996773E+03  0.50400001928E-02 0.  1.
       -1    1    3    3    0  502 -0.79393387298E+03 -0.24008887561E+02  0.69518314620E+02  0.79733319099E+03  0.50400001928E-02 0. -1.
</event>
<event>
 5   0  0.1126485E-05  0.1598286E+04  0.7818609E-02  0.8821602E-01
       -1   -1    0    0    0  501  0.00000000000E+00  0.00000000000E+00  0.10487705645E+04  0.10487705645E+04  0.50400001928E-02 0.  1.
        1   -1    0    0  501    0  0.00000000000E+00  0.00000000000E+00 -0.60893155405E+03  0.60893155407E+03  0.50400001928E-02 0. -1.
    10030    2    1    2    0    0  0.00000000000E+00  0.00000000000E+00  0.43983901046E+03  0.16577021186E+04  0.15982859440E+04 0.  0.
        2    1    3    3  502    0  0.10099211331E+03 -0.78832722939E+03  0.13332774478E+03  0.80587562010E+03  0.25500000920E-02 0.  1.
       -2    1    3    3    0  502 -0.10099211331E+03  0.78832722939E+03  0.30651126568E+03  0.85182649849E+03  0.25500000920E-02 0. -1.
</event>
<event>
 5   0  0.2046108E-05  0.1599616E+04  0.7818609E-02  0.8820784E-01
        2   -1    0    0  501    0  0.00000000000E+00  0.00000000000E+00  0.91956062968E+03  0.91956062968E+03  0.25500000920E-02 0.  1.
       -2   -1    0    0    0  501  0.00000000000E+00  0.00000000000E+00 -0.69565029018E+03  0.69565029018E+03  0.25500000920E-02 0. -1.
    10030    2    1    2    0    0  0.00000000000E+00  0.00000000000E+00  0.22391033950E+03  0.16152109199E+04  0.15996157274E+04 0.  0.
        1    1    3    3  502    0  0.38957242176E+03 -0.44827602625E+03 -0.42896760777E+03  0.73261946196E+03  0.50400001928E-02 0. -1.
       -1    1    3    3    0  502 -0.38957242176E+03  0.44827602625E+03  0.65287794727E+03  0.88259145790E+03  0.50400001928E-02 0.  1.
</event>
<event>
 5   0  0.1057506E-05  0.1600096E+04  0.7818609E-02  0.8820489E-01
       -1   -1    0    0    0  501  0.00000000000E+00  0.00000000000E+00  0.74311977671E+03  0.74311977673E+03  0.50400001928E-02 0. -1.
        1   -1    0    0  501    0  0.00000000000E+00  0.00000000000E+00 -0.86133758469E+03  0.86133758471E+03  0.50400001928E-02 0.  1.
    10030    2    1    2    0    0  0.00000000000E+00  0.00000000000E+00 -0.11821780798E+03  0.16044573614E+04  0.16000962392E+04 0.  0.
        5    1    3    3  502    0 -0.67453077769E+03  0.38245653000E+03  0.13838001302E+03  0.78767752627E+03  0.46999998093E+01 0. -1.
       -5    1    3    3    0  502  0.67453077769E+03 -0.38245653000E+03 -0.25659782101E+03  0.81677983517E+03  0.46999998093E+01 0.  1.
</event>
<event>
 5   0  0.1994525E-05  0.1600207E+04  0.7818609E-02  0.8820421E-01
        2   -1    0    0  501    0  0.00000000000E+00  0.00000000000E+00  0.13422068932E+04  0.13422068932E+04  0.25500000920E-02 0. -1.
       -2   -1    0    0    0  501  0.00000000000E+00  0.00000000000E+00 -0.47695004904E+03  0.47695004905E+03  0.25500000920E-02 0.  1.
    10030    2    1    2    0    0  0.00000000000E+00  0.00000000000E+00  0.86525684417E+03  0.18191569423E+04  0.16002070411E+04 0.  0.
        5    1    3    3  502    0  0.76598420672E+03  0.16056972185E+03  0.24366512296E+03  0.81970069090E+03  0.46999998093E+01 0.  1.
       -5    1    3    3    0  502 -0.76598420672E+03 -0.16056972185E+03  0.62159172121E+03  0.99945625137E+03  0.46999998093E+01 0. -1.
</event>
<event>
 5   0  0.1081831E-05  0.1599813E+04  0.7818609E-02  0.8820663E-01
       -1   -1    0    0    0  501  0.00000000000E+00  0.00000000000E+00  0.69516661208E+03  0.69516661210E+03  0.50400001928E-02 0.  1.
        1   -1    0    0  501    0  0.00000000000E+00  0.00000000000E+00 -0.92042761373E+03  0.92042761374E+03  0.50400001928E-02 0. -1.
    10030    2    1    2    0    0  0.00000000000E+00  0.00000000000E+00 -0.22526100165E+03  0.16155942258E+04  0.15998131715E+04 0.  0.
        3    1    3    3  502    0 -0.50097614754E+03 -0.26289484057E+03 -0.68368152403E+03  0.88741829714E+03  0.10100000352E+00 0. -1.
       -3    1    3    3    0  502  0.50097614754E+03  0.26289484057E+03  0.45842052238E+03  0.72817592870E+03  0.10100000352E+00 0.  1.
</event>
<event>
 5   0  0.2147844E-05  0.1599997E+04  0.7818609E-02  0.8820550E-01
       -2   -1    0    0    0  501  0.00000000000E+00  0.00000000000E+00  0.10622143391E+04  0.10622143391E+04  0.25500000920E-02 0.  1.
        2   -1    0    0  501    0  0.00000000000E+00  0.00000000000E+00 -0.60251247061E+03  0.60251247062E+03  0.25500000920E-02 0. -1.
    10030    2    1    2    0    0  0.00000000000E+00  0.00000000000E+00  0.45970186851E+03  0.16647268097E+04  0.15999967322E+04 0.  0.
        2    1    3    3  502    0 -0.73790306474E+03 -0.30660026897E+03  0.18965203107E+03  0.82126277815E+03  0.25500000920E-02 0. -1.
       -2    1    3    3    0  502  0.73790306474E+03  0.30660026897E+03  0.27004983744E+03  0.84346403159E+03  0.25500000920E-02 0.  1.
</event>
<event>
 5   0  0.1090674E-05  0.1599445E+04  0.7818609E-02  0.8820889E-01
       -1   -1    0    0    0  501  0.00000000000E+00  0.00000000000E+00  0.50344990397E+03  0.50344990399E+03  0.50400001928E-02 0.  1.
        1   -1    0    0  501    0  0.00000000000E+00  0.00000000000E+00 -0.12703464946E+04  0.12703464946E+04  0.50400001928E-02 0. -1.
    10030    2    1    2    0    0  0.00000000000E+00  0.00000000000E+00 -0.76689659065E+03  0.17737963986E+04  0.15994446796E+04 0.  0.
        4    1    3    3  502    0 -0.59308082670E+03  0.52914414188E+03 -0.48149246275E+03  0.92928735840E+03  0.12699999809E+01 0. -1.
       -4    1    3    3    0  502  0.59308082670E+03 -0.52914414188E+03 -0.28540412789E+03  0.84450904022E+03  0.12699999809E+01 0.  1.
</event>
<event>
 5   0  0.1057506E-05  0.1599819E+04  0.7818609E-02  0.8820659E-01
       -1   -1    0    0    0  501  0.00000000000E+00  0.00000000000E+00  0.44805222878E+03  0.44805222881E+03  0.50400001928E-02 0.  1.
        1   -1    0    0  501    0  0.00000000000E+00  0.00000000000E+00 -0.14280822994E+04  0.14280822994E+04  0.50400001928E-02 0. -1.
    10030    2    1    2    0    0  0.00000000000E+00  0.00000000000E+00 -0.98003007065E+03  0.18761345282E+04  0.15998193113E+04 0.  0.
        5    1    3    3  502    0  0.20661988203E+03  0.72898475566E+03 -0.79065805728E+03  0.10951131463E+04  0.46999998093E+01 0. -1.
       -5    1    3    3    0  502 -0.20661988203E+03 -0.72898475566E+03 -0.18937201337E+03  0.78102138196E+03  0.46999998093E+01 0.  1.
</event>
<event>
 5   0  0.1060251E-05  0.1599780E+04  0.7818609E-02  0.8820683E-01
        1   -1    0    0  501    0  0.00000000000E+00  0.00000000000E+00  0.95484586517E+03  0.95484586519E+03  0.50400001928E-02 0.  1.
       -1   -1    0    0    0  501  0.00000000000E+00  0.00000000000E+00 -0.67008068793E+03  0.67008068795E+03  0.50400001928E-02 0. -1.
    10030    2    1    2    0    0  0.00000000000E+00  0.00000000000E+00  0.28476517724E+03  0.16249265531E+04  0.15997797026E+04 0.  0.
        1    1    3    3  502    0 -0.46485265623E+03 -0.20637246080E+03  0.76945738309E+03  0.92235689893E+03  0.50400001928E-02 0.  1.
       -1    1    3    3    0  502  0.46485265623E+03  0.20637246080E+03 -0.48469220584E+03  0.70256965421E+03  0.50400001928E-02 0. -1.
</event>
<event>
 5   0  0.1126485E-05  0.1599976E+04  0.7818609E-02  0.8820563E-01
       -1   -1    0    0    0  501  0.00000000000E+00  0.00000000000E+00  0.89076417841E+03  0.89076417842E+03  0.50400001928E-02 0.  1.
        1   -1    0    0  501    0  0.00000000000E+00  0.00000000000E+00 -0.71846223624E+03  0.71846223626E+03  0.50400001928E-02 0. -1.
    10030    2    1    2    0    0  0.00000000000E+00  0.00000000000E+00  0.17230194217E+03  0.16092264147E+04  0.15999755293E+04 0.  0.
        2    1    3    3  502    0  0.66726345711E+03 -0.40066312923E+03  0.27217701201E+03  0.82453125483E+03  0.25500000920E-02 0.  1.
       -2    1    3    3    0  502 -0.66726345711E+03  0.40066312923E+03 -0.99875069841E+02  0.78469515985E+03  0.25500000920E-02 0. -1.
</event>
<event>
 5   0  0.2125803E-05  0.1600170E+04  0.7818609E-02  0.8820443E-01
       -2   -1    0    0    0  501  0.00000000000E+00  0.00000000000E+00  0.43784174313E+03  0.43784174314E+03  0.25500000920E-02 0. -1.
        2   -1    0    0  501    0  0.00000000000E+00  0.00000000000E+00 -0.14620263979E+04  0.14620263979E+04  0.25500000920E-02 0.  1.
    10030    2    1    2    0    0  0.00000000000E+00  0.00000000000E+00 -0.10241846548E+04  0.18998681410E+04  0.16001702241E+04 0.  0.
        3    1    3    3  502    0 -0.27109447543E+03  0.55906066039E+03 -0.11105803375E+04  0.12725681643E+04  0.10100000352E+00 0.  1.
       -3    1    3    3    0  502  0.27109447543E+03 -0.55906066039E+03  0.86395682721E+02  0.62729997672E+03  0.10100000352E+00 0. -1.
</event>
<event>
 5   0  0.2046108E-05  0.1600026E+04  0.7818609E-02  0.8820532E-01
        2   -1    0    0  501    0  0.00000000000E+00  0.00000000000E+00  0.19100513882E+04  0.19100513882E+04  0.25500000920E-02 0.  1.
       -2   -1    0    0    0  501  0.00000000000E+00  0.00000000000E+00 -0.33508045975E+03  0.33508045976E+03  0.25500000920E-02 0. -1.
    10030    2    1    2    0    0  0.00000000000E+00  0.00000000000E+00  0.15749709284E+04  0.22451318480E+04  0.16000261214E+04 0.  0.
        1    1    3    3  502    0  0.49605910913E+03  0.41852887895E+03  0.13116125656E+03  0.66215129503E+03  0.50400001928E-02 0. -1.
       -1    1    3    3    0  502 -0.49605910913E+03 -0.41852887895E+03  0.14438096719E+04  0.15829805529E+04  0.50400001928E-02 0.  1.
</event>
<event>
 5   0  0.1126485E-05  0.1599770E+04  0.7818609E-02  0.8820689E-01
       -1   -1    0    0    0  501  0.00000000000E+00  0.00000000000E+00  0.12040480318E+04  0.12040480318E+04  0.50400001928E-02 0.  1.
        1   -1    0    0  501    0  0.00000000000E+00  0.00000000000E+00 -0.53138736301E+03  0.53138736303E+03  0.50400001928E-02 0. -1.
    10030    2    1    2    0    0  0.00000000000E+00  0.00000000000E+00  0.67266066877E+03  0.17354353948E+04  0.15997698692E+04 0.  0.
        2    1    3    3  502    0 -0.41211647515E+03  0.29281871587E+03 -0.33610160905E+03  0.60708078628E+03  0.25500000920E-02 0. -1.
       -2    1    3    3    0  502  0.41211647515E+03 -0.29281871587E+03  0.10087622778E+04  0.11283546085E+04  0.25500000920E-02 0.  1.
</event>
<event>
 5   0  0.1090674E-05  0.1598860E+04  0.7818609E-02  0.8821248E-01
        1   -1    0    0  501    0  0.00000000000E+00  0.00000000000E+00  0.13658915980E+04  0.13658915980E+04  0.50400001928E-02 0.  1.
       -1   -1    0    0    0  501  0.00000000000E+00  0.00000000000E+00 -0.46789123352E+03  0.46789123355E+03  0.50400001928E-02 0. -1.
    10030    2    1    2    0    0  0.00000000000E+00  0.00000000000E+00  0.89800036448E+03  0.18337828316E+04  0.15988604751E+04 0.  0.
        4    1    3    3  502    0  0.63208975355E+03  0.27058968199E+03 -0.18760539946E+02  0.68782977785E+03  0.12699999809E+01 0. -1.
       -4    1    3    3    0  502 -0.63208975355E+03 -0.27058968199E+03  0.91676090442E+03  0.11459530537E+04  0.12699999809E+01 0.  1.
</event>
<event>
 5   0  0.1081831E-05  0.1599763E+04  0.7818609E-02  0.8820693E-01
        1   -1    0    0  501    0  0.00000000000E+00  0.00000000000E+00  0.13110872320E+04  0.13110872320E+04  0.50400001928E-02 0.  1.
       -1   -1    0    0    0  501  0.00000000000E+00  0.00000000000E+00 -0.48800007771E+03  0.48800007774E+03  0.50400001928E-02 0. -1.
    10030    2    1    2    0    0  0.00000000000E+00  0.00000000000E+00  0.82308715429E+03  0.17990873097E+04  0.15997633214E+04 0.  0.
        3    1    3    3  502    0  0.58773921358E+03 -0.32058903105E+03  0.90379804686E+03  0.11247513635E+04  0.10100000352E+00 0.  1.
       -3    1    3    3    0  502 -0.58773921358E+03  0.32058903105E+03 -0.80710892569E+02  0.67433594624E+03  0.10100000352E+00 0. -1.
</event>
<event>
 5   0  0.1090674E-05  0.1600784E+04  0.7818609E-02  0.8820067E-01
        1   -1    0    0  501    0  0.00000000000E+00  0.00000000000E+00  0.72149364270E+03  0.72149364272E+03  0.50400001928E-02 0.  1.
       -1   -1    0    0    0  501  0.00000000000E+00  0.00000000000E+00 -0.88791778436E+03  0.88791778438E+03  0.50400001928E-02 0. -1.
    10030    2    1    2    0    0  0.00000000000E+00  0.00000000000E+00 -0.16642414166E+03  0.16094114271E+04  0.16007836040E+04 0.  0.
        4    1    3    3  502    0  0.60257535297E+03 -0.27532648945E+03 -0.53476941203E+03  0.85139982896E+03  0.12699999809E+01 0. -1.
       -4    1    3    3    0  502 -0.60257535297E+03  0.27532648945E+03  0.36834527037E+03  0.75801159814E+03  0.12699999809E+01 0.  1.
</event>
<event>
 5   0  0.2147844E-05  0.1600244E+04  0.7818609E-02  0.8820398E-01
       -2   -1    0    0    0  501  0.00000000000E+00  0.00000000000E+00  0.15154649037E+04  0.15154649038E+04  0.25500000920E-02 0.  1.
        2   -1    0    0  501    0  0.00000000000E+00  0.00000000000E+00 -0.42244163476E+03  0.42244163477E+03  0.25500000920E-02 0. -1.
    10030    2    1    2    0    0  0.00000000000E+00  0.00000000000E+00  0.10930232690E+04  0.19379065385E+04  0.16002443206E+04 0.  0.
        2    1    3    3  502    0 -0.43995154943E+02  0.84398840416E+02 -0.41556188783E+03  0.42632196817E+03  0.25500000920E-02 0. -1.
       -2    1    3    3    0  502  0.43995154943E+02 -0.84398840416E+02  0.15085851568E+04  0.15115845703E+04  0.25500000920E-02 0.  1.
</event>
<event>
 5   0  0.2046108E-05  0.1600156E+04  0.7818609E-02  0.8820452E-01
        2   -1    0    0  501    0  0.00000000000E+00  0.00000000000E+00  0.16638589194E+04  0.16638589194E+04  0.25500000920E-02 0. -1.
       -2   -1    0    0    0  501  0.00000000000E+00  0.00000000000E+00 -0.38472316701E+03  0.38472316702E+03  0.25500000920E-02 0.  1.
    10030    2    1    2    0    0  0.00000000000E+00  0.00000000000E+00  0.12791357524E+04  0.20485820864E+04  0.16001563335E+04 0.  0.
        1    1    3    3  502    0  0.53977006457E+03 -0.58372156811E+03  0.75437953289E+03  0.10959795032E+04  0.50400001928E-02 0. -1.
       -1    1    3    3    0  502 -0.53977006457E+03  0.58372156811E+03  0.52475621951E+03  0.95260258326E+03  0.50400001928E-02 0.  1.
</event>
<event>
 5   0  0.1060251E-05  0.1599920E+04  0.7818609E-02  0.8820597E-01
       -1   -1    0    0    0  501  0.00000000000E+00  0.00000000000E+00  0.48301745523E+03  0.48301745526E+03  0.50400001928E-02 0. -1.
        1   -1    0    0  501    0  0.00000000000E+00  0.00000000000E+00 -0.13248721936E+04  0.13248721936E+04  0.50400001928E-02 0.  1.
    10030    2    1    2    0    0  0.00000000000E+00  0.00000000000E+00 -0.84185473833E+03  0.18078896488E+04  0.15999204924E+04 0.  0.
        1    1    3    3  502    0  0.15852633217E+03 -0.61525274691E+03 -0.97018699210E+03  0.11597108865E+04  0.50400001928E-02 0.  1.
       -1    1    3    3    0  502 -0.15852633217E+03  0.61525274691E+03  0.12833225377E+03  0.64817876235E+03  0.50400001928E-02 0. -1.
</event>
<event>
 5   0  0.2147844E-05  0.1598777E+04  0.7818609E-02  0.8821300E-01
        2   -1    0    0  501    0  0.00000000000E+00  0.00000000000E+00  0.12297525917E+04  0.12297525917E+04  0.25500000920E-02 0.  1.
       -2   -1    0    0    0  501  0.00000000000E+00  0.00000000000E+00 -0.51963432230E+03  0.51963432231E+03  0.25500000920E-02 0. -1.
    10030    2    1    2    0    0  0.00000000000E+00  0.00000000000E+00  0.71011826939E+03  0.17493869140E+04  0.15987766005E+04 0.  0.
        2    1    3    3  502    0 -0.25493047254E+03 -0.66875839621E+03  0.74468518249E+03  0.10328520511E+04  0.25500000920E-02 0.  1.
       -2    1    3    3    0  502  0.25493047254E+03  0.66875839621E+03 -0.34566913103E+02  0.71653486295E+03  0.25500000920E-02 0. -1.
</event>
<event>
 5   0  0.1081831E-05  0.1600511E+04  0.7818609E-02  0.8820234E-01
       -1   -1    0    0    0  501  0.00000000000E+00  0.00000000000E+00  0.74886340184E+03  0.74886340186E+03  0.50400001928E-02 0.  1.
        1   -1    0    0  501    0  0.00000000000E+00  0.00000000000E+00 -0.85517463491E+03  0.85517463493E+03  0.50400001928E-02 0. -1.
    10030    2    1    2    0    0  0.00000000000E+00  0.00000000000E+00 -0.10631123307E+03  0.16040380368E+04  0.16005111512E+04 0.  0.
        3    1    3    3  502    0  0.15543354061E+03  0.13193443633E+03 -0.82871014194E+03  0.85342064106E+03  0.10100000352E+00 0. -1.
       -3    1    3    3    0  502 -0.15543354061E+03 -0.13193443633E+03  0.72239890887E+03  0.75061739573E+03  0.10100000352E+00 0.  1.
</event>
<event>
 5   0  0.2046108E-05  0.1599580E+04  0.7818609E-02  0.8820806E-01
        2   -1    0    0  501    0  0.00000000000E+00  0.00000000000E+00  0.13047236461E+04  0.13047236461E+04  0.25500000920E-02 0.  1.
       -2   -1    0    0    0  501  0.00000000000E+00  0.00000000000E+00 -0.49026801993E+03  0.49026801994E+03  0.25500000920E-02 0. -1.
    10030    2    1    2    0    0  0.00000000000E+00  0.00000000000E+00  0.81445562613E+03  0.17949916660E+04  0.15995802931E+04 0.  0.
        1    1    3    3  502    0  0.74184451918E+03 -0.26126513076E+03  0.24433410226E+03  0.82358479389E+03  0.50400001928E-02 0. -1.
       -1    1    3    3    0  502 -0.74184451918E+03  0.26126513076E+03  0.57012152388E+03  0.97140687212E+03  0.50400001928E-02 0.  1.
</event>
<event>
 5   0  0.1081831E-05  0.1599265E+04  0.7818609E-02  0.8821000E-01
        1   -1    0    0  501    0  0.00000000000E+00  0.00000000000E+00  0.14878503614E+04  0.14878503614E+04  0.50400001928E-02 0.  1.
       -1   -1    0    0    0  501  0.00000000000E+00  0.00000000000E+00 -0.42975543964E+03  0.42975543967E+03  0.50400001928E-02 0. -1.
    10030    2    1    2    0    0  0.00000000000E+00  0.00000000000E+00  0.10580949218E+04  0.19176058011E+04  0.15992645638E+04 0.  0.
        3    1    3    3  502    0 -0.70175890555E+03 -0.28448549107E+03  0.83712339089E+03  0.11287927790E+04  0.10100000352E+00 0.  1.
       -3    1    3    3    0  502  0.70175890555E+03  0.28448549107E+03  0.22097153087E+03  0.78881302208E+03  0.10100000352E+00 0. -1.
</event>
<event>
 5   0  0.1994525E-05  0.1599861E+04  0.7818609E-02  0.8820633E-01
       -2   -1    0    0    0  501  0.00000000000E+00  0.00000000000E+00  0.19297227438E+04  0.19297227438E+04  0.25500000920E-02 0.  1.
        2   -1    0    0  501    0  0.00000000000E+00  0.00000000000E+00 -0.33159626899E+03  0.33159626900E+03  0.25500000920E-02 0. -1.
    10030    2    1    2    0    0  0.00000000000E+00  0.00000000000E+00  0.15981264748E+04  0.22613190128E+04  0.15998610715E+04 0.  0.
        5    1    3    3  502    0  0.19040454254E+03 -0.11126115944E+03 -0.28776072102E+03  0.36257586514E+03  0.46999998093E+01 0. -1.
       -5    1    3    3    0  502 -0.19040454254E+03  0.11126115944E+03  0.18858871958E+04  0.18987431476E+04  0.46999998093E+01 0.  1.
</event>
<event>
 5   0  0.2046108E-05  0.1600295E+04  0.7818609E-02  0.8820367E-01
        2   -1    0    0  501    0  0.00000000000E+00  0.00000000000E+00  0.26872370958E+04  0.26872370958E+04  0.25500000920E-02 0.  1.
       -2   -1    0    0    0  501  0.00000000000E+00  0.00000000000E+00 -0.23825059490E+03  0.23825059492E+03  0.25500000920E-02 0. -1.
    10030    2    1    2    0    0  0.00000000000E+00  0.00000000000E+00  0.24489865009E+04  0.29254876907E+04  0.16002947688E+04 0.  0.
        1    1    3    3  502    0  0.18584972819E+03 -0.39828247174E+03  0.21744449627E+01  0.43951538881E+03  0.50400001928E-02 0. -1.
       -1    1    3    3    0  502 -0.18584972819E+03  0.39828247174E+03  0.24468120559E+04  0.24859723019E+04  0.50400001928E-02 0.  1.
</event>
<event>
 5   0  0.1126485E-05  0.1600062E+04  0.7818609E-02  0.8820510E-01
       -1   -1    0    0    0  501  0.00000000000E+00  0.00000000000E+00  0.45397387771E+03  0.45397387774E+03  0.50400001928E-02 0.  1.
        1   -1    0    0  501    0  0.00000000000E+00  0.00000000000E+00 -0.14098821050E+04  0.14098821050E+04  0.50400001928E-02 0. -1.
    10030    2    1    2    0    0  0.00000000000E+00  0.00000000000E+00 -0.95590822726E+03  0.18638559827E+04  0.16000620567E+04 0.  0.
        2    1    3    3  502    0 -0.40891228313E+03  0.23246213298E+03  0.27588691051E+03  0.54530861534E+03  0.25500000920E-02 0.  1.
       -2    1    3    3    0  502  0.40891228313E+03 -0.23246213298E+03 -0.12317951378E+04  0.13185473674E+04  0.25500000920E-02 0. -1.
</event>
<event>
 5   0  0.2147844E-05  0.1599364E+04  0.7818609E-02  0.8820939E-01
        2   -1    0    0  501    0  0.00000000000E+00  0.00000000000E+00  0.78417190179E+03  0.78417190179E+03  0.25500000920E-02 0.  1.
       -2   -1    0    0    0  501  0.00000000000E+00  0.00000000000E+00 -0.81549935594E+03  0.81549935595E+03  0.25500000920E-02 0. -1.
    10030    2    1    2    0    0  0.00000000000E+00  0.00000000000E+00 -0.31327454157E+02  0.15996712577E+04  0.15993644749E+04 0.  0.
        2    1    3    3  502    0  0.48637224869E+03 -0.35660783972E+02  0.61822595561E+03  0.78742173453E+03  0.25500000920E-02 0.  1.
       -2    1    3    3    0  502 -0.48637224869E+03  0.35660783972E+02 -0.64955340976E+03  0.81224952321E+03  0.25500000920E-02 0. -1.
</event>
<event>
 5   0  0.2046108E-05  0.1600387E+04  0.7818609E-02  0.8820311E-01
        2   -1    0    0  501    0  0.00000000000E+00  0.00000000000E+00  0.54737689965E+03  0.54737689966E+03  0.25500000920E-02 0. -1.
       -2   -1    0    0    0  501  0.00000000000E+00  0.00000000000E+00 -0.11697776162E+04  0.11697776162E+04  0.25500000920E-02 0.  1.
    10030    2    1    2    0    0  0.00000000000E+00  0.00000000000E+00 -0.62240071658E+03  0.17171545159E+04  0.16003865094E+04 0.  0.
        1    1    3    3  502    0  0.12827320200E+03 -0.70985175725E+03 -0.68283232585E+03  0.99327917369E+03  0.50400001928E-02 0.  1.
       -1    1    3    3    0  502 -0.12827320200E+03  0.70985175725E+03  0.60431609270E+02  0.72387534220E+03  0.50400001928E-02 0. -1.
</event>
<event>
 5   0  0.1126485E-05  0.1601166E+04  0.7818609E-02  0.8819832E-01
       -1   -1    0    0    0  501  0.00000000000E+00  0.00000000000E+00  0.13104636914E+04  0.13104636914E+04  0.50400001928E-02 0.  1.
        1   -1    0    0  501    0  0.00000000000E+00  0.00000000000E+00 -0.48908869470E+03  0.48908869473E+03  0.50400001928E-02 0. -1.
    10030    2    1    2    0    0  0.00000000000E+00  0.00000000000E+00  0.82137499672E+03  0.17995523862E+04  0.16011657957E+04 0.  0.
        2    1    3    3  502    0  0.45453283267E+03  0.65884092035E+03  0.39251216781E+03  0.89148037342E+03  0.25500000920E-02 0. -1.
       -2    1    3    3    0  502 -0.45453283267E+03 -0.65884092035E+03  0.42886282891E+03  0.90807201275E+03  0.25500000920E-02 0.  1.
</event>
<event>
 5   0  0.1090674E-05  0.1602033E+04  0.7818609E-02  0.8819300E-01
       -1   -1    0    0    0  501  0.00000000000E+00  0.00000000000E+00  0.58788184656E+03  0.58788184658E+03  0.50400001928E-02 0.  1.
        1   -1    0    0  501    0  0.00000000000E+00  0.00000000000E+00 -0.10914221366E+04  0.10914221366E+04  0.50400001928E-02 0. -1.
    10030    2    1    2    0    0  0.00000000000E+00  0.00000000000E+00 -0.50354029002E+03  0.16793039832E+04  0.16020327850E+04 0.  0.
        4    1    3    3  502    0 -0.29761698153E+03 -0.30146129324E+03 -0.96439210722E+03  0.10533321074E+04  0.12699999809E+01 0. -1.
       -4    1    3    3    0  502  0.29761698153E+03  0.30146129324E+03  0.46085181719E+03  0.62597187583E+03  0.12699999809E+01 0.  1.
</event>
<event>
 5   0  0.1994525E-05  0.1600011E+04  0.7818609E-02  0.8820541E-01
        2   -1    0    0  501    0  0.00000000000E+00  0.00000000000E+00  0.20497336148E+04  0.20497336148E+04  0.25500000920E-02 0.  1.
       -2   -1    0    0    0  501  0.00000000000E+00  0.00000000000E+00 -0.31224001690E+03  0.31224001691E+03  0.25500000920E-02 0. -1.
    10030    2    1    2    0    0  0.00000000000E+00  0.00000000000E+00  0.17374935979E+04  0.23619736317E+04  0.16000110731E+04 0.  0.
        5    1    3    3  502    0 -0.60598342181E+03 -0.42006550708E+03  0.41060396888E+03  0.84397194682E+03  0.46999998093E+01 0. -1.
       -5    1    3    3    0  502  0.60598342181E+03  0.42006550708E+03  0.13268896290E+04  0.15180016849E+04  0.46999998093E+01 0.  1.
</event>
<event>
 5   0  0.1081831E-05  0.1600237E+04  0.7818609E-02  0.8820402E-01
       -1   -1    0    0    0  501  0.00000000000E+00  0.00000000000E+00  0.84644911983E+03  0.84644911984E+03  0.50400001928E-02 0. -1.
        1   -1    0    0  501    0  0.00000000000E+00  0.00000000000E+00 -0.75632408764E+03  0.75632408765E+03  0.50400001928E-02 0.  1.
    10030    2    1    2    0    0  0.00000000000E+00  0.00000000000E+00  0.90125032192E+02  0.16027732075E+04  0.16002373053E+04 0.  0.
        3    1    3    3  502    0 -0.54592151257E+02  0.56200252985E+02  0.84259761585E+03  0.84623254714E+03  0.10100000352E+00 0. -1.
       -3    1    3    3    0  502  0.54592151257E+02 -0.56200252985E+02 -0.75247258365E+03  0.75654066035E+03  0.10100000352E+00 0.  1.
</event>
<event>
 5   0  0.1081831E-05  0.1600998E+04  0.7818609E-02  0.8819935E-01
       -1   -1    0    0    0  501  0.00000000000E+00  0.00000000000E+00  0.40995456324E+03  0.40995456327E+03  0.50400001928E-02 0. -1.
        1   -1    0    0  501    0  0.00000000000E+00  0.00000000000E+00 -0.15630969927E+04  0.15630969927E+04  0.50400001928E-02 0.  1.
    10030    2    1    2    0    0  0.00000000000E+00  0.00000000000E+00 -0.11531424295E+04  0.19730515560E+04  0.16009981199E+04 0.  0.
        3    1    3    3  502    0 -0.67132688517E+03  0.42865915412E+03 -0.67493308815E+03  0.10440129984E+04  0.10100000352E+00 0. -1.
       -3    1    3    3    0  502  0.67132688517E+03 -0.42865915412E+03 -0.47820934134E+03  0.92903855760E+03  0.10100000352E+00 0.  1.
</event>
<event>
 5   0  0.2125803E-05  0.1599595E+04  0.7818609E-02  0.8820797E-01
        2   -1    0    0  501    0  0.00000000000E+00  0.00000000000E+00  0.13280368552E+04  0.13280368552E+04  0.25500000920E-02 0. -1.
       -2   -1    0    0    0  501  0.00000000000E+00  0.00000000000E+00 -0.48167039938E+03  0.48167039939E+03  0.25500000920E-02 0.  1.
    10030    2    1    2    0    0  0.00000000000E+00  0.00000000000E+00  0.84636645586E+03  0.18097072546E+04  0.15995950018E+04 0.  0.
        3    1    3    3  502    0  0.75292030291E+03 -0.17392529786E+03  0.18984713356E+03  0.79572667172E+03  0.10100000352E+00 0.  1.
       -3    1    3    3    0  502 -0.75292030291E+03  0.17392529786E+03  0.65651932230E+03  0.10139805829E+04  0.10100000352E+00 0. -1.
</event>
<event>
 5   0  0.1994525E-05  0.1600753E+04  0.7818609E-02  0.8820086E-01
       -2   -1    0    0    0  501  0.00000000000E+00  0.00000000000E+00  0.76213853050E+03  0.76213853051E+03  0.25500000920E-02 0. -1.
        2   -1    0    0  501    0  0.00000000000E+00  0.00000000000E+00 -0.84053278144E+03  0.84053278145E+03  0.25500000920E-02 0.  1.
    10030    2    1    2    0    0  0.00000000000E+00  0.00000000000E+00 -0.78394250941E+02  0.16026713120E+04  0.16007528465E+04 0.  0.
        5    1    3    3  502    0  0.22761894875E+03  0.54815254203E+03 -0.57677520038E+03  0.82763114788E+03  0.46999998093E+01 0.  1.
       -5    1    3    3    0  502 -0.22761894875E+03 -0.54815254203E+03  0.49838094944E+03  0.77504016408E+03  0.46999998093E+01 0. -1.
</event>
<event>
 5   0  0.1057506E-05  0.1598777E+04  0.7818609E-02  0.8821300E-01
        1   -1    0    0  501    0  0.00000000000E+00  0.00000000000E+00  0.13469320932E+04  0.13469320932E+04  0.50400001928E-02 0. -1.
       -1   -1    0    0    0  501  0.00000000000E+00  0.00000000000E+00 -0.47442755560E+03  0.47442755563E+03  0.50400001928E-02 0.  1.
    10030    2    1    2    0    0  0.00000000000E+00  0.00000000000E+00  0.87250453758E+03  0.18213596488E+04  0.15987766580E+04 0.  0.
        5    1    3    3  502    0  0.50737804150E+03  0.55585799463E+03  0.74318513044E+03  0.10577130118E+04  0.46999998093E+01 0. -1.
       -5    1    3    3    0  502 -0.50737804150E+03 -0.55585799463E+03  0.12931940714E+03  0.76364663703E+03  0.46999998093E+01 0.  1.
</event>
<event>
 5   0  0.1126485E-05  0.1599571E+04  0.7818609E-02  0.8820812E-01
       -1   -1    0    0    0  501  0.00000000000E+00  0.00000000000E+00  0.96074136416E+03  0.96074136417E+03  0.50400001928E-02 0.  1.
        1   -1    0    0  501    0  0.00000000000E+00  0.00000000000E+00 -0.66579481716E+03  0.66579481718E+03  0.50400001928E-02 0. -1.
    10030    2    1    2    0    0  0.00000000000E+00  0.00000000000E+00  0.29494654699E+03  0.16265361814E+04  0.15995707186E+04 0.  0.
        2    1    3    3  502    0  0.40202375663E+02  0.74184735017E+03  0.44861244925E+03  0.86787490550E+03  0.25500000920E-02 0.  1.
       -2    1    3    3    0  502 -0.40202375663E+02 -0.74184735017E+03 -0.15366590226E+03  0.75866127586E+03  0.25500000920E-02 0. -1.
</event>
<event>
 5   0  0.1990948E-05  0.1598389E+04  0.7818609E-02  0.8821538E-01
       -2   -1    0    0    0  501  0.00000000000E+00  0.00000000000E+00  0.66097916137E+03  0.66097916137E+03  0.25500000920E-02 0. -1.
        2   -1    0    0  501    0  0.00000000000E+00  0.00000000000E+00 -0.96631212657E+03  0.96631212658E+03  0.25500000920E-02 0.  1.
    10030    2    1    2    0    0  0.00000000000E+00  0.00000000000E+00 -0.30533296520E+03  0.16272912879E+04  0.15983894132E+04 0.  0.
        4    1    3    3  502    0  0.34933281416E+03 -0.69371263059E+02  0.57571740202E+03  0.67697705062E+03  0.12699999809E+01 0. -1.
       -4    1    3    3    0  502 -0.34933281416E+03  0.69371263059E+02 -0.88105036722E+03  0.95031423733E+03  0.12699999809E+01 0.  1.
</event>
<event>
 5   0  0.1994525E-05  0.1602509E+04  0.7818609E-02  0.8819008E-01
       -2   -1    0    0    0  501  0.00000000000E+00  0.00000000000E+00  0.38391304358E+03  0.38391304359E+03  0.25500000920E-02 0.  1.
        2   -1    0    0  501    0  0.00000000000E+00  0.00000000000E+00 -0.16722774093E+04  0.16722774093E+04  0.25500000920E-02 0. -1.
    10030    2    1    2    0    0  0.00000000000E+00  0.00000000000E+00 -0.12883643657E+04  0.20561904529E+04  0.16025094195E+04 0.  0.
        5    1    3    3  502    0 -0.10998864431E+02 -0.62588825599E+03 -0.12859021953E+04  0.14301830757E+04  0.46999998093E+01 0. -1.
       -5    1    3    3    0  502  0.10998864431E+02  0.62588825599E+03 -0.24621703486E+01  0.62600737718E+03  0.46999998093E+01 0.  1.
</event>
<event>
 5   0  0.1060251E-05  0.1598916E+04  0.7818609E-02  0.8821214E-01
       -1   -1    0    0    0  501  0.00000000000E+00  0.00000000000E+00  0.69687104344E+03  0.69687104345E+03  0.50400001928E-02 0. -1.
        1   -1    0    0  501    0  0.00000000000E+00  0.00000000000E+00 -0.91714727787E+03  0.91714727788E+03  0.50400001928E-02 0.  1.
    10030    2    1    2    0    0  0.00000000000E+00  0.00000000000E+00 -0.22027623443E+03  0.16140183213E+04  0.15989163587E+04 0.  0.
        1    1    3    3  502    0  0.16945722906E+03  0.71304993006E+02 -0.89551835778E+03  0.91419542968E+03  0.50400001928E-02 0.  1.
       -1    1    3    3    0  502 -0.16945722906E+03 -0.71304993006E+02  0.67524212335E+03  0.69982289165E+03  0.50400001928E-02 0. -1.
</event>
<event>
 5   0  0.2147844E-05  0.1599921E+04  0.7818609E-02  0.8820596E-01
        2   -1    0    0  501    0  0.00000000000E+00  0.00000000000E+00  0.99556085347E+03  0.99556085347E+03  0.25500000920E-02 0.  1.
       -2   -1    0    0    0  501  0.00000000000E+00  0.00000000000E+00 -0.64279049685E+03  0.64279049685E+03  0.25500000920E-02 0. -1.
    10030    2    1    2    0    0  0.00000000000E+00  0.00000000000E+00  0.35277035662E+03  0.16383513503E+04  0.15999213176E+04 0.  0.
        2    1    3    3  502    0  0.14847142308E+03 -0.19451302870E+03 -0.60352415741E+03  0.65124533809E+03  0.25500000920E-02 0. -1.
       -2    1    3    3    0  502 -0.14847142308E+03  0.19451302870E+03  0.95629451403E+03  0.98710601223E+03  0.25500000920E-02 0.  1.
</event>
<event>
 5   0  0.1126485E-05  0.1595124E+04  0.7818609E-02  0.8823549E-01
       -1   -1    0    0    0  501  0.00000000000E+00  0.00000000000E+00  0.76182904233E+03  0.76182904234E+03  0.50400001928E-02 0. -1.
        1   -1    0    0  501    0  0.00000000000E+00  0.00000000000E+00 -0.83497085159E+03  0.83497085160E+03  0.50400001928E-02 0.  1.
    10030    2    1    2    0    0  0.00000000000E+00  0.00000000000E+00 -0.73141809263E+02  0.15967998939E+04  0.15951238751E+04 0.  0.
        2    1    3    3  502    0  0.40668151448E+03 -0.27833264572E+03 -0.66432319721E+03  0.82715429410E+03  0.25500000920E-02 0.  1.
       -2    1    3    3    0  502 -0.40668151448E+03  0.27833264572E+03  0.59118138795E+03  0.76964559984E+03  0.25500000920E-02 0. -1.
</event>
<event>
 5   0  0.2046108E-05  0.1600348E+04  0.7818609E-02  0.8820334E-01
        2   -1    0    0  501    0  0.00000000000E+00  0.00000000000E+00  0.86119675140E+03  0.86119675140E+03  0.25500000920E-02 0. -1.
       -2   -1    0    0    0  501  0.00000000000E+00  0.00000000000E+00 -0.74347500312E+03  0.74347500313E+03  0.25500000920E-02 0.  1.
    10030    2    1    2    0    0  0.00000000000E+00  0.00000000000E+00  0.11772174828E+03  0.16046717545E+04  0.16003477840E+04 0.  0.
        1    1    3    3  502    0 -0.69297404114E+02  0.98005252563E+02  0.85211855091E+03  0.86053075748E+03  0.50400001928E-02 0. -1.
       -1    1    3    3    0  502  0.69297404114E+02 -0.98005252563E+02 -0.73439680263E+03  0.74414099705E+03  0.50400001928E-02 0.  1.
</event>
<event>
 5   0  0.1081831E-05  0.1599938E+04  0.7818609E-02  0.8820586E-01
        1   -1    0    0  501    0  0.00000000000E+00  0.00000000000E+00  0.13472979712E+04  0.13472979713E+04  0.50400001928E-02 0.  1.
       -1   -1    0    0    0  501  0.00000000000E+00  0.00000000000E+00 -0.47498788630E+03  0.47498788632E+03  0.50400001928E-02 0. -1.
    10030    2    1    2    0    0  0.00000000000E+00  0.00000000000E+00  0.87231008494E+03  0.18222858576E+04  0.15999377683E+04 0.  0.
        3    1    3    3  502    0  0.75064192968E+03  0.11986741279E+03  0.15228170684E+03  0.77525559119E+03  0.10100000352E+00 0. -1.
       -3    1    3    3    0  502 -0.75064192968E+03 -0.11986741279E+03  0.72002837811E+03  0.10470302664E+04  0.10100000352E+00 0.  1.
</event>
<event>
 5   0  0.1081831E-05  0.1599894E+04  0.7818609E-02  0.8820613E-01
       -1   -1    0    0    0  501  0.00000000000E+00  0.00000000000E+00  0.66317976135E+03  0.66317976137E+03  0.50400001928E-02 0.  1.
        1   -1    0    0  501    0  0.00000000000E+00  0.00000000000E+00 -0.96492022408E+03  0.96492022409E+03  0.50400001928E-02 0. -1.
    10030    2    1    2    0    0  0.00000000000E+00  0.00000000000E+00 -0.30174046273E+03  0.16280999855E+04  0.15998944515E+04 0.  0.
        3    1    3    3  502    0 -0.45814476504E+03  0.61581338714E+03 -0.38021604565E+03  0.85655531350E+03  0.10100000352E+00 0. -1.
       -3    1    3    3    0  502  0.45814476504E+03 -0.61581338714E+03  0.78475582918E+02  0.77154467196E+03  0.10100000352E+00 0.  1.
</event>
<event>
 5   0  0.1990948E-05  0.1600291E+04  0.7818609E-02  0.8820369E-01
       -2   -1    0    0    0  501  0.00000000000E+00  0.00000000000E+00  0.10662144058E+04  0.10662144058E+04  0.25500000920E-02 0.  1.
        2   -1    0    0  501    0  0.00000000000E+00  0.00000000000E+00 -0.60047295840E+03  0.60047295841E+03  0.25500000920E-02 0. -1.
    10030    2    1    2    0    0  0.00000000000E+00  0.00000000000E+00  0.46574144736E+03  0.16666873642E+04  0.16002911217E+04 0.  0.
        4    1    3    3  502    0  0.59373502065E+03 -0.39303781635E+02  0.79000976125E+03  0.98903139373E+03  0.12699999809E+01 0.  1.
       -4    1    3    3    0  502 -0.59373502065E+03  0.39303781635E+02 -0.32426831389E+03  0.67765597045E+03  0.12699999809E+01 0. -1.
</event>
<event>
 5   0  0.2046108E-05  0.1599620E+04  0.7818609E-02  0.8820782E-01
       -2   -1    0    0    0  501  0.00000000000E+00  0.00000000000E+00  0.30982223866E+03  0.30982223867E+03  0.25500000920E-02 0.  1.
        2   -1    0    0  501    0  0.00000000000E+00  0.00000000000E+00 -0.20647186317E+04  0.20647186317E+04  0.25500000920E-02 0. -1.
    10030    2    1    2    0    0  0.00000000000E+00  0.00000000000E+00 -0.17548963930E+04  0.23745408703E+04  0.15996196406E+04 0.  0.
        1    1    3    3  502    0  0.78269242766E+02  0.39740783796E+03 -0.19012139384E+04  0.19438810415E+04  0.50400001928E-02 0. -1.
       -1    1    3    3    0  502 -0.78269242766E+02 -0.39740783796E+03  0.14631754540E+03  0.43065982881E+03  0.50400001928E-02 0.  1.
</event>
<event>
 5   0  0.7597000E-06  0.1598993E+04  0.7818609E-02  0.8821167E-01
        4   -1    0    0  501    0  0.00000000000E+00  0.00000000000E+00  0.75783574595E+03  0.75783681010E+03  0.12699999809E+01 0.  1.
       -4   -1    0    0    0  501  0.00000000000E+00  0.00000000000E+00 -0.84344565637E+03  0.84344661251E+03  0.12699999809E+01 0. -1.
    10030    2    1    2    0    0  0.00000000000E+00  0.00000000000E+00 -0.85609910417E+02  0.16012834226E+04  0.15989932904E+04 0.  0.
        3    1    3    3  502    0 -0.21574224626E+03 -0.22650401845E+01  0.72813204378E+03  0.75942486831E+03  0.10100000352E+00 0.  1.
       -3    1    3    3    0  502  0.21574224626E+03  0.22650401845E+01 -0.81374195420E+03  0.84185855430E+03  0.10100000352E+00 0. -1.
</event>
<event>
 5   0  0.1090674E-05  0.1600046E+04  0.7818609E-02  0.8820520E-01
       -1   -1    0    0    0  501  0.00000000000E+00  0.00000000000E+00  0.70855567381E+03  0.70855567383E+03  0.50400001928E-02 0.  1.
        1   -1    0    0  501    0  0.00000000000E+00  0.00000000000E+00 -0.90329776085E+03  0.90329776086E+03  0.50400001928E-02 0. -1.
    10030    2    1    2    0    0  0.00000000000E+00  0.00000000000E+00 -0.19474208704E+03  0.16118534347E+04  0.16000459414E+04 0.  0.
        4    1    3    3  502    0  0.68512819874E+03 -0.40427112148E+03 -0.11895905439E+02  0.79559971961E+03  0.12699999809E+01 0.  1.
       -4    1    3    3    0  502 -0.68512819874E+03  0.40427112148E+03 -0.18284618160E+03  0.81625371509E+03  0.12699999809E+01 0. -1.
</event>
<event>
 5   0  0.1057506E-05  0.1599095E+04  0.7818609E-02  0.8821104E-01
        1   -1    0    0  501    0  0.00000000000E+00  0.00000000000E+00  0.95134969441E+03  0.95134969442E+03  0.50400001928E-02 0. -1.
       -1   -1    0    0    0  501  0.00000000000E+00  0.00000000000E+00 -0.67196723882E+03  0.67196723884E+03  0.50400001928E-02 0.  1.
    10030    2    1    2    0    0  0.00000000000E+00  0.00000000000E+00  0.27938245559E+03  0.16233169333E+04  0.15990945280E+04 0.  0.
        5    1    3    3  502    0  0.67246661309E+03  0.41450954924E+03  0.14435734507E+02  0.79010125462E+03  0.46999998093E+01 0. -1.
       -5    1    3    3    0  502 -0.67246661309E+03 -0.41450954924E+03  0.26494672108E+03  0.83321567864E+03  0.46999998093E+01 0.  1.
</event>
<event>
 5   0  0.2147844E-05  0.1600564E+04  0.7818609E-02  0.8820202E-01
       -2   -1    0    0    0  501  0.00000000000E+00  0.00000000000E+00  0.29316500135E+03  0.29316500136E+03  0.25500000920E-02 0. -1.
        2   -1    0    0  501    0  0.00000000000E+00  0.00000000000E+00 -0.21846096998E+04  0.21846096998E+04  0.25500000920E-02 0.  1.
    10030    2    1    2    0    0  0.00000000000E+00  0.00000000000E+00 -0.18914446985E+04  0.24777747012E+04  0.16005637827E+04 0.  0.
        2    1    3    3  502    0 -0.44038999245E+03 -0.33097202259E+03 -0.47091328368E+02  0.55290452919E+03  0.25500000920E-02 0. -1.
       -2    1    3    3    0  502  0.44038999245E+03  0.33097202259E+03 -0.18443533701E+04  0.19248701720E+04  0.25500000920E-02 0.  1.
</event>
<event>
 5   0  0.1090674E-05  0.1599297E+04  0.7818609E-02  0.8820980E-01
       -1   -1    0    0    0  501  0.00000000000E+00  0.00000000000E+00  0.26818191863E+03  0.26818191867E+03  0.50400001928E-02 0.  1.
        1   -1    0    0  501    0  0.00000000000E+00  0.00000000000E+00 -0.23843418559E+04  0.23843418559E+04  0.50400001928E-02 0. -1.
    10030    2    1    2    0    0  0.00000000000E+00  0.00000000000E+00 -0.21161599373E+04  0.26525237746E+04  0.15992965624E+04 0.  0.
        4    1    3    3  502    0 -0.53892400129E+03  0.24483490116E+03 -0.19497798031E+04  0.20376521051E+04  0.12699999809E+01 0. -1.
       -4    1    3    3    0  502  0.53892400129E+03 -0.24483490116E+03 -0.16638013420E+03  0.61487166950E+03  0.12699999809E+01 0.  1.
</event>
<event>
 5   0  0.1994525E-05  0.1600115E+04  0.7818609E-02  0.8820478E-01
        2   -1    0    0  501    0  0.00000000000E+00  0.00000000000E+00  0.24786863406E+04  0.24786863406E+04  0.25500000920E-02 0.  1.
       -2   -1    0    0    0  501  0.00000000000E+00  0.00000000000E+00 -0.25823826055E+03  0.25823826056E+03  0.25500000920E-02 0. -1.
    10030    2    1    2    0    0  0.00000000000E+00  0.00000000000E+00  0.22204480801E+04  0.27369246012E+04  0.16001145572E+04 0.  0.
        5    1    3    3  502    0 -0.33304642143E+03  0.62128826486E+03  0.17573789351E+04  0.18934946101E+04  0.46999998093E+01 0.  1.
       -5    1    3    3    0  502  0.33304642143E+03 -0.62128826486E+03  0.46306914499E+03  0.84342999112E+03  0.46999998093E+01 0. -1.
</event>
<event>
 5   0  0.1057506E-05  0.1600183E+04  0.7818609E-02  0.8820436E-01
       -1   -1    0    0    0  501  0.00000000000E+00  0.00000000000E+00  0.58737080275E+03  0.58737080277E+03  0.50400001928E-02 0.  1.
        1   -1    0    0  501    0  0.00000000000E+00  0.00000000000E+00 -0.10898507790E+04  0.10898507790E+04  0.50400001928E-02 0. -1.
    10030    2    1    2    0    0  0.00000000000E+00  0.00000000000E+00 -0.50247997621E+03  0.16772215817E+04  0.16001831482E+04 0.  0.
        5    1    3    3  502    0 -0.70590156765E+03 -0.27021364898E+03  0.23709447469E+02  0.75623849889E+03  0.46999998093E+01 0. -1.
       -5    1    3    3    0  502  0.70590156765E+03  0.27021364898E+03 -0.52618942368E+03  0.92098308285E+03  0.46999998093E+01 0.  1.
</event>
<event>
 5   0  0.1060251E-05  0.1600070E+04  0.7818609E-02  0.8820505E-01
       -1   -1    0    0    0  501  0.00000000000E+00  0.00000000000E+00  0.96635142552E+03  0.96635142553E+03  0.50400001928E-02 0.  1.
        1   -1    0    0  501    0  0.00000000000E+00  0.00000000000E+00 -0.66234290636E+03  0.66234290638E+03  0.50400001928E-02 0. -1.
    10030    2    1    2    0    0  0.00000000000E+00  0.00000000000E+00  0.30400851916E+03  0.16286943319E+04  0.16000700132E+04 0.  0.
        1    1    3    3  502    0 -0.34423592095E+02  0.79840567840E+03  0.19035317752E+03  0.82150529104E+03  0.50400001928E-02 0. -1.
       -1    1    3    3    0  502  0.34423592095E+02 -0.79840567840E+03  0.11365534164E+03  0.80718904087E+03  0.50400001928E-02 0.  1.
</event>
<event>
 5   0  0.2147844E-05  0.1600436E+04  0.7818609E-02  0.8820280E-01
       -2   -1    0    0    0  501  0.00000000000E+00  0.00000000000E+00  0.64002826436E+03  0.64002826436E+03  0.25500000920E-02 0. -1.
        2   -1    0    0  501    0  0.00000000000E+00  0.00000000000E+00 -0.10005003567E+04  0.10005003567E+04  0.25500000920E-02 0.  1.
    10030    2    1    2    0    0  0.00000000000E+00  0.00000000000E+00 -0.36047209238E+03  0.16405286211E+04  0.16004355742E+04 0.  0.
        2    1    3    3  502    0  0.79415060311E+03  0.27304849821E+02 -0.27708995451E+03  0.84154594535E+03  0.25500000920E-02 0. -1.
       -2    1    3    3    0  502 -0.79415060311E+03 -0.27304849821E+02 -0.83382137878E+02  0.79898267576E+03  0.25500000920E-02 0.  1.
</event>
<event>
 5   0  0.1057506E-05  0.1598734E+04  0.7818609E-02  0.8821326E-01
       -1   -1    0    0    0  501  0.00000000000E+00  0.00000000000E+00  0.12462497030E+04  0.12462497030E+04  0.50400001928E-02 0. -1.
        1   -1    0    0  501    0  0.00000000000E+00  0.00000000000E+00 -0.51272862648E+03  0.51272862650E+03  0.50400001928E-02 0.  1.
    10030    2    1    2    0    0  0.00000000000E+00  0.00000000000E+00  0.73352107654E+03  0.17589783295E+04  0.15987343726E+04 0.  0.
        5    1    3    3  502    0  0.76515144927E+03  0.55562425468E+02  0.61381557694E+03  0.98251492403E+03  0.46999998093E+01 0. -1.
       -5    1    3    3    0  502 -0.76515144927E+03 -0.55562425468E+02  0.11970549960E+03  0.77646340550E+03  0.46999998093E+01 0.  1.
</event>
<event>
 5   0  0.2046108E-05  0.1600020E+04  0.7818609E-02  0.8820536E-01
        2   -1    0    0  501    0  0.00000000000E+00  0.00000000000E+00  0.14268180336E+04  0.14268180336E+04  0.25500000920E-02 0. -1.
       -2   -1    0    0    0  501  0.00000000000E+00  0.00000000000E+00 -0.44856191626E+03  0.44856191627E+03  0.25500000920E-02 0.  1.
    10030    2    1    2    0    0  0.00000000000E+00  0.00000000000E+00  0.97825611734E+03  0.18753799499E+04  0.16000202890E+04 0.  0.
        1    1    3    3  502    0  0.50438979577E+03 -0.60762000993E+03  0.33900304123E+03  0.85938012807E+03  0.50400001928E-02 0.  1.
       -1    1    3    3    0  502 -0.50438979577E+03  0.60762000993E+03  0.63925307611E+03  0.10159998218E+04  0.50400001928E-02 0. -1.
</event>
<event>
 5   0  0.1060251E-05  0.1600070E+04  0.7818609E-02  0.8820505E-01
       -1   -1    0    0    0  501  0.00000000000E+00  0.00000000000E+00  0.43546997833E+03  0.43546997836E+03  0.50400001928E-02 0.  1.
        1   -1    0    0  501    0  0.00000000000E+00  0.00000000000E+00 -0.14698049106E+04  0.14698049106E+04  0.50400001928E-02 0. -1.
    10030    2    1    2    0    0  0.00000000000E+00  0.00000000000E+00 -0.10343349322E+04  0.19052748889E+04  0.16000698892E+04 0.  0.
        1    1    3    3  502    0 -0.16917223080E+03  0.33054745866E+03 -0.13609805503E+04  0.14107263818E+04  0.50400001928E-02 0. -1.
       -1    1    3    3    0  502  0.16917223080E+03 -0.33054745866E+03  0.32664561802E+03  0.49454850713E+03  0.50400001928E-02 0.  1.
</event>
<event>
 5   0  0.1126485E-05  0.1599817E+04  0.7818609E-02  0.8820660E-01
        1   -1    0    0  501    0  0.00000000000E+00  0.00000000000E+00  0.85482540272E+03  0.85482540273E+03  0.50400001928E-02 0. -1.
       -1   -1    0    0    0  501  0.00000000000E+00  0.00000000000E+00 -0.74851984138E+03  0.74851984140E+03  0.50400001928E-02 0.  1.
    10030    2    1    2    0    0  0.00000000000E+00  0.00000000000E+00  0.10630556134E+03  0.16033452441E+04  0.15998172082E+04 0.  0.
        2    1    3    3  502    0 -0.24255409907E+03  0.36131741413E+03 -0.61949870805E+03  0.75707424604E+03  0.25500000920E-02 0.  1.
       -2    1    3    3    0  502  0.24255409907E+03 -0.36131741413E+03  0.72580426939E+03  0.84627099809E+03  0.25500000920E-02 0. -1.
</event>
<event>
 5   0  0.1990948E-05  0.1599615E+04  0.7818609E-02  0.8820785E-01
        2   -1    0    0  501    0  0.00000000000E+00  0.00000000000E+00  0.21854738752E+04  0.21854738752E+04  0.25500000920E-02 0. -1.
       -2   -1    0    0    0  501  0.00000000000E+00  0.00000000000E+00 -0.29270160414E+03  0.29270160415E+03  0.25500000920E-02 0.  1.
    10030    2    1    2    0    0  0.00000000000E+00  0.00000000000E+00  0.18927722711E+04  0.24781754794E+04  0.15996145900E+04 0.  0.
        4    1    3    3  502    0 -0.68727374695E+03 -0.24755190512E+03  0.44184271834E+03  0.85372931871E+03  0.12699999809E+01 0.  1.
       -4    1    3    3    0  502  0.68727374695E+03  0.24755190512E+03  0.14509295527E+04  0.16244461607E+04  0.12699999809E+01 0. -1.
</event>
<event>
 5   0  0.2147844E-05  0.1600249E+04  0.7818609E-02  0.8820395E-01
       -2   -1    0    0    0  501  0.00000000000E+00  0.00000000000E+00  0.94466344690E+03  0.94466344690E+03  0.25500000920E-02 0. -1.
        2   -1    0    0  501    0  0.00000000000E+00  0.00000000000E+00 -0.67770075240E+03  0.67770075240E+03  0.25500000920E-02 0.  1.
    10030    2    1    2    0    0  0.00000000000E+00  0.00000000000E+00  0.26696269451E+03  0.16223641993E+04  0.16002488916E+04 0.  0.
        2    1    3    3  502    0 -0.57066869587E+03 -0.32653029191E+03  0.59575914719E+03  0.88725067115E+03  0.25500000920E-02 0. -1.
       -2    1    3    3    0  502  0.57066869587E+03  0.32653029191E+03 -0.32879645269E+03  0.73511352816E+03  0.25500000920E-02 0.  1.
</event>
<event>
 5   0  0.1990948E-05  0.1595740E+04  0.7818609E-02  0.8823169E-01
       -2   -1    0    0    0  501  0.00000000000E+00  0.00000000000E+00  0.44744720947E+03  0.44744720948E+03  0.25500000920E-02 0. -1.
        2   -1    0    0  501    0  0.00000000000E+00  0.00000000000E+00 -0.14227303027E+04  0.14227303027E+04  0.25500000920E-02 0.  1.
    10030    2    1    2    0    0  0.00000000000E+00  0.00000000000E+00 -0.97528309322E+03  0.18701775122E+04  0.15957402092E+04 0.  0.
        4    1    3    3  502    0  0.56100094936E+03 -0.35416018332E+03  0.31803457277E+02  0.66420220824E+03  0.12699999809E+01 0. -1.
       -4    1    3    3    0  502 -0.56100094936E+03  0.35416018332E+03 -0.10070865505E+04  0.12059753039E+04  0.12699999809E+01 0.  1.
</event>
<event>
 5   0  0.1126485E-05  0.1600294E+04  0.7818609E-02  0.8820367E-01
        1   -1    0    0  501    0  0.00000000000E+00  0.00000000000E+00  0.13926220015E+04  0.13926220015E+04  0.50400001928E-02 0.  1.
       -1   -1    0    0    0  501  0.00000000000E+00  0.00000000000E+00 -0.45973386316E+03  0.45973386319E+03  0.50400001928E-02 0. -1.
    10030    2    1    2    0    0  0.00000000000E+00  0.00000000000E+00  0.93288813832E+03  0.18523558647E+04  0.16002943388E+04 0.  0.
        2    1    3    3  502    0 -0.31238220356E+03 -0.30177004087E+03 -0.31140548147E+03  0.53443537735E+03  0.25500000920E-02 0. -1.
       -2    1    3    3    0  502  0.31238220356E+03  0.30177004087E+03  0.12442936198E+04  0.13179204873E+04  0.25500000920E-02 0.  1.
</event>
<event>
 5   0  0.2046108E-05  0.1599928E+04  0.7818609E-02  0.8820593E-01
       -2   -1    0    0    0  501  0.00000000000E+00  0.00000000000E+00  0.98909295303E+03  0.98909295304E+03  0.25500000920E-02 0.  1.
        2   -1    0    0  501    0  0.00000000000E+00  0.00000000000E+00 -0.64699884839E+03  0.64699884839E+03  0.25500000920E-02 0. -1.
    10030    2    1    2    0    0  0.00000000000E+00  0.00000000000E+00  0.34209410465E+03  0.16360918014E+04  0.15999275003E+04 0.  0.
        1    1    3    3  502    0 -0.33431655453E+03 -0.60452539209E+03  0.58355516530E+03  0.90429814735E+03  0.50400001928E-02 0.  1.
       -1    1    3    3    0  502  0.33431655453E+03  0.60452539209E+03 -0.24146106066E+03  0.73179365408E+03  0.50400001928E-02 0. -1.
</event>
<event>
 5   0  0.1090674E-05  0.1601739E+04  0.7818609E-02  0.8819481E-01
       -1   -1    0    0    0  501  0.00000000000E+00  0.00000000000E+00  0.31474642895E+03  0.31474642899E+03  0.50400001928E-02 0.  1.
        1   -1    0    0  501    0  0.00000000000E+00  0.00000000000E+00 -0.20378046442E+04  0.20378046442E+04  0.50400001928E-02 0. -1.
    10030    2    1    2    0    0  0.00000000000E+00  0.00000000000E+00 -0.17230582153E+04  0.23525510732E+04  0.16017387237E+04 0.  0.
        4    1    3    3  502    0 -0.24111198648E+03  0.29472268598E+03  0.17328062056E+03  0.41835898223E+03  0.12699999809E+01 0.  1.
       -4    1    3    3    0  502  0.24111198648E+03 -0.29472268598E+03 -0.18963388358E+04  0.19341920910E+04  0.12699999809E+01 0. -1.
</event>
<event>
 5   0  0.1126485E-05  0.1599888E+04  0.7818609E-02  0.8820617E-01
       -1   -1    0    0    0  501  0.00000000000E+00  0.00000000000E+00  0.67400205888E+03  0.67400205890E+03  0.50400001928E-02 0. -1.
        1   -1    0    0  501    0  0.00000000000E+00  0.00000000000E+00 -0.94941870880E+03  0.94941870881E+03  0.50400001928E-02 0.  1.
    10030    2    1    2    0    0  0.00000000000E+00  0.00000000000E+00 -0.27541664992E+03  0.16234207677E+04  0.15998877017E+04 0.  0.
        2    1    3    3  502    0 -0.18737903124E+03 -0.74454765270E+03 -0.36561855273E+03  0.85037581962E+03  0.25500000920E-02 0.  1.
       -2    1    3    3    0  502  0.18737903124E+03  0.74454765270E+03  0.90201902814E+02  0.77304494809E+03  0.25500000920E-02 0. -1.
</event>
<event>
 5   0  0.1060251E-05  0.1600666E+04  0.7818609E-02  0.8820139E-01
        1   -1    0    0  501    0  0.00000000000E+00  0.00000000000E+00  0.72853440351E+03  0.72853440353E+03  0.50400001928E-02 0. -1.
       -1   -1    0    0    0  501  0.00000000000E+00  0.00000000000E+00 -0.87920783557E+03  0.87920783559E+03  0.50400001928E-02 0.  1.
    10030    2    1    2    0    0  0.00000000000E+00  0.00000000000E+00 -0.15067343206E+03  0.16077422391E+04  0.16006663064E+04 0.  0.
        1    1    3    3  502    0 -0.28869803913E+03 -0.62402641076E+03  0.33608068391E+03  0.76531414808E+03  0.50400001928E-02 0. -1.
       -1    1    3    3    0  502  0.28869803913E+03  0.62402641076E+03 -0.48675411597E+03  0.84242809104E+03  0.50400001928E-02 0.  1.
</event>
<event>
 5   0  0.2046108E-05  0.1599523E+04  0.7818609E-02  0.8820841E-01
       -2   -1    0    0    0  501  0.00000000000E+00  0.00000000000E+00  0.44113259567E+03  0.44113259568E+03  0.25500000920E-02 0.  1.
        2   -1    0    0  501    0  0.00000000000E+00  0.00000000000E+00 -0.14499468151E+04  0.14499468151E+04  0.25500000920E-02 0. -1.
    10030    2    1    2    0    0  0.00000000000E+00  0.00000000000E+00 -0.10088142194E+04  0.18910794108E+04  0.15995234317E+04 0.  0.
        1    1    3    3  502    0 -0.34538369879E+03 -0.87049659227E+02  0.34218170786E+03  0.49391888381E+03  0.50400001928E-02 0.  1.
       -1    1    3    3    0  502  0.34538369879E+03  0.87049659227E+02 -0.13509959273E+04  0.13971605270E+04  0.50400001928E-02 0. -1.
</event>
<event>
 5   0  0.1081831E-05  0.1599914E+04  0.7818609E-02  0.8820601E-01
       -1   -1    0    0    0  501  0.00000000000E+00  0.00000000000E+00  0.61899361596E+03  0.61899361598E+03  0.50400001928E-02 0. -1.
        1   -1    0    0  501    0  0.00000000000E+00  0.00000000000E+00 -0.10338254579E+04  0.10338254579E+04  0.50400001928E-02 0.  1.
    10030    2    1    2    0    0  0.00000000000E+00  0.00000000000E+00 -0.41483184197E+03  0.16528190739E+04  0.15999141958E+04 0.  0.
        3    1    3    3  502    0 -0.25042444401E+03 -0.32287094299E+03 -0.91788787179E+03  0.10047269298E+04  0.10100000352E+00 0.  1.
       -3    1    3    3    0  502  0.25042444401E+03  0.32287094299E+03  0.50305602982E+03  0.64809214416E+03  0.10100000352E+00 0. -1.
</event>
<event>
 5   0  0.1057506E-05  0.1600821E+04  0.7818609E-02  0.8820043E-01
        1   -1    0    0  501    0  0.00000000000E+00  0.00000000000E+00  0.11120619971E+04  0.11120619971E+04  0.50400001928E-02 0.  1.
       -1   -1    0    0    0  501  0.00000000000E+00  0.00000000000E+00 -0.57609859558E+03  0.57609859561E+03  0.50400001928E-02 0. -1.
    10030    2    1    2    0    0  0.00000000000E+00  0.00000000000E+00  0.53596340154E+03  0.16881605927E+04  0.16008214826E+04 0.  0.
        5    1    3    3  502    0  0.41371279426E+03  0.67316331278E+03  0.40273495175E+03  0.88686225152E+03  0.46999998093E+01 0. -1.
       -5    1    3    3    0  502 -0.41371279426E+03 -0.67316331278E+03  0.13322844979E+03  0.80129834122E+03  0.46999998093E+01 0.  1.
</event>
<event>
 5   0  0.1081831E-05  0.1601795E+04  0.7818609E-02  0.8819446E-01
        1   -1    0    0  501    0  0.00000000000E+00  0.00000000000E+00  0.45030118840E+03  0.45030118843E+03  0.50400001928E-02 0. -1.
       -1   -1    0    0    0  501  0.00000000000E+00  0.00000000000E+00 -0.14244609899E+04  0.14244609899E+04  0.50400001928E-02 0.  1.
    10030    2    1    2    0    0  0.00000000000E+00  0.00000000000E+00 -0.97415980146E+03  0.18747621783E+04  0.16017945893E+04 0.  0.
        3    1    3    3  502    0  0.29844532600E+03  0.26710969476E+02  0.38222574863E+03  0.48567439877E+03  0.10100000352E+00 0. -1.
       -3    1    3    3    0  502 -0.29844532600E+03 -0.26710969476E+02 -0.13563855501E+04  0.13890877795E+04  0.10100000352E+00 0.  1.
</event>
<event>
 5   0  0.2147844E-05  0.1600409E+04  0.7818609E-02  0.8820297E-01
        2   -1    0    0  501    0  0.00000000000E+00  0.00000000000E+00  0.88101556143E+03  0.88101556144E+03  0.25500000920E-02 0.  1.
       -2   -1    0    0    0  501  0.00000000000E+00  0.00000000000E+00 -0.72680562105E+03  0.72680562105E+03  0.25500000920E-02 0. -1.
    10030    2    1    2    0    0  0.00000000000E+00  0.00000000000E+00  0.15420994039E+03  0.16078211825E+04  0.16004087756E+04 0.  0.
        2    1    3    3  502    0 -0.84949244027E+02 -0.27469744152E+03 -0.67311471494E+03  0.73195524311E+03  0.25500000920E-02 0. -1.
       -2    1    3    3    0  502  0.84949244027E+02  0.27469744152E+03  0.82732465533E+03  0.87586593938E+03  0.25500000920E-02 0.  1.
</event>
<event>
 5   0  0.1990948E-05  0.1594948E+04  0.7818609E-02  0.8823657E-01
        2   -1    0    0  501    0  0.00000000000E+00  0.00000000000E+00  0.13498289009E+04  0.13498289009E+04  0.25500000920E-02 0. -1.
       -2   -1    0    0    0  501  0.00000000000E+00  0.00000000000E+00 -0.47114494647E+03  0.47114494647E+03  0.25500000920E-02 0.  1.
    10030    2    1    2    0    0  0.00000000000E+00  0.00000000000E+00  0.87868395440E+03  0.18209738473E+04  0.15949483568E+04 0.  0.
        4    1    3    3  502    0  0.59183447257E+03  0.44524941228E+03  0.77696569135E+03  0.10734022454E+04  0.12699999809E+01 0.  1.
       -4    1    3    3    0  502 -0.59183447257E+03 -0.44524941228E+03  0.10171826305E+03  0.74757160192E+03  0.12699999809E+01 0. -1.
</event>
<event>
 5   0  0.1990948E-05  0.1602974E+04  0.7818609E-02  0.8818723E-01
       -2   -1    0    0    0  501  0.00000000000E+00  0.00000000000E+00  0.31831417409E+03  0.31831417410E+03  0.25500000920E-02 0.  1.
        2   -1    0    0  501    0  0.00000000000E+00  0.00000000000E+00 -0.20180738941E+04  0.20180738941E+04  0.25500000920E-02 0. -1.
    10030    2    1    2    0    0  0.00000000000E+00  0.00000000000E+00 -0.16997597200E+04  0.23363880682E+04  0.16029741419E+04 0.  0.
        4    1    3    3  502    0  0.24971837355E+03  0.47824886362E+03  0.14006697043E+02  0.53970273494E+03  0.12699999809E+01 0.  1.
       -4    1    3    3    0  502 -0.24971837355E+03 -0.47824886362E+03 -0.17137664170E+04  0.17966853333E+04  0.12699999809E+01 0. -1.
</event>
<event>
 5   0  0.7597000E-06  0.1600996E+04  0.7818609E-02  0.8819937E-01
       -3   -1    0    0    0  501  0.00000000000E+00  0.00000000000E+00  0.10618105554E+04  0.10618105602E+04  0.10100000352E+00 0. -1.
        3   -1    0    0  501    0  0.00000000000E+00  0.00000000000E+00 -0.60349432465E+03  0.60349433310E+03  0.10100000352E+00 0.  1.
    10030    2    1    2    0    0  0.00000000000E+00  0.00000000000E+00  0.45831623077E+03  0.16653048933E+04  0.16009955092E+04 0.  0.
        4    1    3    3  502    0 -0.61764780219E+03  0.41889892006E+03  0.53032221106E+03  0.91553720472E+03  0.12699999809E+01 0. -1.
       -4    1    3    3    0  502  0.61764780219E+03 -0.41889892006E+03 -0.72005980297E+02  0.74976768860E+03  0.12699999809E+01 0.  1.
</event>
<event>
 5   0  0.1081831E-05  0.1599162E+04  0.7818609E-02  0.8821063E-01
       -1   -1    0    0    0  501  0.00000000000E+00  0.00000000000E+00  0.41859556167E+03  0.41859556170E+03  0.50400001928E-02 0. -1.
        1   -1    0    0  501    0  0.00000000000E+00  0.00000000000E+00 -0.15273202328E+04  0.15273202328E+04  0.50400001928E-02 0.  1.
    10030    2    1    2    0    0  0.00000000000E+00  0.00000000000E+00 -0.11087246711E+04  0.19459157945E+04  0.15991616188E+04 0.  0.
        3    1    3    3  502    0  0.29979737734E+03  0.26270290903E+03  0.28907037379E+03  0.49239514323E+03  0.10100000352E+00 0. -1.
       -3    1    3    3    0  502 -0.29979737734E+03 -0.26270290903E+03 -0.13977950449E+04  0.14535206513E+04  0.10100000352E+00 0.  1.
</event>
<event>
 5   0  0.1090674E-05  0.1599236E+04  0.7818609E-02  0.8821018E-01
        1   -1    0    0  501    0  0.00000000000E+00  0.00000000000E+00  0.79765143328E+03  0.79765143330E+03  0.50400001928E-02 0.  1.
       -1   -1    0    0    0  501  0.00000000000E+00  0.00000000000E+00 -0.80158915817E+03  0.80158915819E+03  0.50400001928E-02 0. -1.
    10030    2    1    2    0    0  0.00000000000E+00  0.00000000000E+00 -0.39377248897E+01  0.15992405915E+04  0.15992357437E+04 0.  0.
        4    1    3    3  502    0  0.24286630311E+03 -0.56781748131E+03  0.50595628841E+03  0.79836965871E+03  0.12699999809E+01 0.  1.
       -4    1    3    3    0  502 -0.24286630311E+03  0.56781748131E+03 -0.50989401330E+03  0.80087093278E+03  0.12699999809E+01 0. -1.
</event>
<event>
 5   0  0.1994525E-05  0.1599628E+04  0.7818609E-02  0.8820777E-01
        2   -1    0    0  501    0  0.00000000000E+00  0.00000000000E+00  0.79756889125E+03  0.79756889126E+03  0.25500000920E-02 0.  1.
       -2   -1    0    0    0  501  0.00000000000E+00  0.00000000000E+00 -0.80206513534E+03  0.80206513534E+03  0.25500000920E-02 0. -1.
    10030    2    1    2    0    0  0.00000000000E+00  0.00000000000E+00 -0.44962440883E+01  0.15996340266E+04  0.15996277076E+04 0.  0.
        5    1    3    3  502    0  0.26653322565E+03 -0.30277743998E+01 -0.75632734564E+03  0.80193657577E+03  0.46999998093E+01 0. -1.
       -5    1    3    3    0  502 -0.26653322565E+03  0.30277743998E+01  0.75183110155E+03  0.79769745083E+03  0.46999998093E+01 0.  1.
</event>
<event>
 5   0  0.1057506E-05  0.1601409E+04  0.7818609E-02  0.8819683E-01
        1   -1    0    0  501    0  0.00000000000E+00  0.00000000000E+00  0.34662642051E+03  0.34662642055E+03  0.50400001928E-02 0.  1.
       -1   -1    0    0    0  501  0.00000000000E+00  0.00000000000E+00 -0.18496223109E+04  0.18496223109E+04  0.50400001928E-02 0. -1.
    10030    2    1    2    0    0  0.00000000000E+00  0.00000000000E+00 -0.15029958904E+04  0.21962487315E+04  0.16014093305E+04 0.  0.
        5    1    3    3  502    0 -0.61335993534E+03  0.28062660910E+03 -0.13432011001E+04  0.15030545530E+04  0.46999998093E+01 0. -1.
       -5    1    3    3    0  502  0.61335993534E+03 -0.28062660910E+03 -0.15979479028E+03  0.69319417844E+03  0.46999998093E+01 0.  1.
</event>
<event>
 5   0  0.1126485E-05  0.1600068E+04  0.7818609E-02  0.8820506E-01
       -1   -1    0    0    0  501  0.00000000000E+00  0.00000000000E+00  0.48537536181E+03  0.48537536184E+03  0.50400001928E-02 0. -1.
        1   -1    0    0  501    0  0.00000000000E+00  0.00000000000E+00 -0.13186794342E+04  0.13186794342E+04  0.50400001928E-02 0.  1.
    10030    2    1    2    0    0  0.00000000000E+00  0.00000000000E+00 -0.83330407241E+03  0.18040547961E+04  0.16000681330E+04 0.  0.
        2    1    3    3  502    0 -0.48437853939E+03  0.62557634344E+03 -0.55046796528E+03  0.96383780363E+03  0.25500000920E-02 0.  1.
       -2    1    3    3    0  502  0.48437853939E+03 -0.62557634344E+03 -0.28283610713E+03  0.84021699245E+03  0.25500000920E-02 0. -1.
</event>
<event>
 5   0  0.2125803E-05  0.1599533E+04  0.7818609E-02  0.8820835E-01
        2   -1    0    0  501    0  0.00000000000E+00  0.00000000000E+00  0.10275487710E+04  0.10275487710E+04  0.25500000920E-02 0.  1.
       -2   -1    0    0    0  501  0.00000000000E+00  0.00000000000E+00 -0.62247760701E+03  0.62247760701E+03  0.25500000920E-02 0. -1.
    10030    2    1    2    0    0  0.00000000000E+00  0.00000000000E+00  0.40507116401E+03  0.16500263780E+04  0.15995325568E+04 0.  0.
        3    1    3    3  502    0  0.69959326047E+03  0.33081030941E+03  0.41079965250E+03  0.87614071678E+03  0.10100000352E+00 0.  1.
       -3    1    3    3    0  502 -0.69959326047E+03 -0.33081030941E+03 -0.57284884893E+01  0.77388566125E+03  0.10100000352E+00 0. -1.
</event>
<event>
 5   0  0.1081831E-05  0.1600633E+04  0.7818609E-02  0.8820159E-01
        1   -1    0    0  501    0  0.00000000000E+00  0.00000000000E+00  0.87634307106E+03  0.87634307108E+03  0.50400001928E-02 0.  1.
       -1   -1    0    0    0  501  0.00000000000E+00  0.00000000000E+00 -0.73088522357E+03  0.73088522359E+03  0.50400001928E-02 0. -1.
    10030    2    1    2    0    0  0.00000000000E+00  0.00000000000E+00  0.14545784750E+03  0.16072282947E+04  0.16006326267E+04 0.  0.
        3    1    3    3  502    0  0.71622090540E+02  0.90155483300E+02 -0.72252478800E+03  0.73164186218E+03  0.10100000352E+00 0. -1.
       -3    1    3    3    0  502 -0.71622090540E+02 -0.90155483300E+02  0.86798263549E+03  0.87558643248E+03  0.10100000352E+00 0.  1.
</event>
<event>
 5   0  0.1081831E-05  0.1600347E+04  0.7818609E-02  0.8820335E-01
       -1   -1    0    0    0  501  0.00000000000E+00  0.00000000000E+00  0.10909899916E+04  0.10909899916E+04  0.50400001928E-02 0. -1.
        1   -1    0    0  501    0  0.00000000000E+00  0.00000000000E+00 -0.58687733191E+03  0.58687733193E+03  0.50400001928E-02 0.  1.
    10030    2    1    2    0    0  0.00000000000E+00  0.00000000000E+00  0.50411265973E+03  0.16778673236E+04  0.16003465818E+04 0.  0.
        3    1    3    3  502    0 -0.60892037846E+03 -0.17403998304E+03 -0.26071908121E+03  0.68487107729E+03  0.10100000352E+00 0.  1.
       -3    1    3    3    0  502  0.60892037846E+03  0.17403998304E+03  0.76483174094E+03  0.99299624629E+03  0.10100000352E+00 0. -1.
</event>
<event>
 5   0  0.1081831E-05  0.1599128E+04  0.7818609E-02  0.8821084E-01
       -1   -1    0    0    0  501  0.00000000000E+00  0.00000000000E+00  0.47986920368E+03  0.47986920370E+03  0.50400001928E-02 0.  1.
        1   -1    0    0  501    0  0.00000000000E+00  0.00000000000E+00 -0.13322434159E+04  0.13322434159E+04  0.50400001928E-02 0. -1.
    10030    2    1    2    0    0  0.00000000000E+00  0.00000000000E+00 -0.85237421223E+03  0.18121126196E+04  0.15991279963E+04 0.  0.
        3    1    3    3  502    0 -0.28062555881E+03  0.73284669963E+01 -0.12745644386E+04  0.13051126116E+04  0.10100000352E+00 0. -1.
       -3    1    3    3    0  502  0.28062555881E+03 -0.73284669963E+01  0.42219022635E+03  0.50700000801E+03  0.10100000352E+00 0.  1.
</event>
<event>
 5   0  0.7597000E-06  0.1598510E+04  0.7818609E-02  0.8821464E-01
        4   -1    0    0  501    0  0.00000000000E+00  0.00000000000E+00  0.69269392565E+03  0.69269508987E+03  0.12699999809E+01 0. -1.
       -4   -1    0    0    0  501  0.00000000000E+00  0.00000000000E+00 -0.92220650028E+03  0.92220737475E+03  0.12699999809E+01 0.  1.
    10030    2    1    2    0    0  0.00000000000E+00  0.00000000000E+00 -0.22951257463E+03  0.16149024646E+04  0.15985099150E+04 0.  0.
        3    1    3    3  502    0  0.15317305570E+03  0.51510693133E+03  0.48292825133E+03  0.72250732995E+03  0.10100000352E+00 0. -1.
       -3    1    3    3    0  502 -0.15317305570E+03 -0.51510693133E+03 -0.71244082596E+03  0.89239513468E+03  0.10100000352E+00 0.  1.
</event>
<event>
 5   0  0.1090674E-05  0.1599323E+04  0.7818609E-02  0.8820964E-01
       -1   -1    0    0    0  501  0.00000000000E+00  0.00000000000E+00  0.14684785757E+04  0.14684785757E+04  0.50400001928E-02 0. -1.
        1   -1    0    0  501    0  0.00000000000E+00  0.00000000000E+00 -0.43545642149E+03  0.43545642152E+03  0.50400001928E-02 0.  1.
    10030    2    1    2    0    0  0.00000000000E+00  0.00000000000E+00  0.10330221542E+04  0.19039349973E+04  0.15993228888E+04 0.  0.
        4    1    3    3  502    0 -0.44548092166E+03 -0.65160918879E+02 -0.27023793730E+03  0.52509937399E+03  0.12699999809E+01 0.  1.
       -4    1    3    3    0  502  0.44548092166E+03  0.65160918879E+02  0.13032600915E+04  0.13788356233E+04  0.12699999809E+01 0. -1.
</event>
<event>
 5   0  0.1090674E-05  0.1599311E+04  0.7818609E-02  0.8820971E-01
        1   -1    0    0  501    0  0.00000000000E+00  0.00000000000E+00  0.10488360610E+04  0.10488360610E+04  0.50400001928E-02 0. -1.
       -1   -1    0    0    0  501  0.00000000000E+00  0.00000000000E+00 -0.60967515744E+03  0.60967515746E+03  0.50400001928E-02 0.  1.
    10030    2    1    2    0    0  0.00000000000E+00  0.00000000000E+00  0.43916090359E+03  0.16585112185E+04  0.15993114652E+04 0.  0.
        4    1    3    3  502    0 -0.49919843103E+03  0.38782966045E+03  0.72743954863E+03  0.96373275801E+03  0.12699999809E+01 0. -1.
       -4    1    3    3    0  502  0.49919843103E+03 -0.38782966045E+03 -0.28827864504E+03  0.69477846048E+03  0.12699999809E+01 0.  1.
</event>
<event>
 5   0  0.2125803E-05  0.1600219E+04  0.7818609E-02  0.8820414E-01
       -2   -1    0    0    0  501  0.00000000000E+00  0.00000000000E+00  0.53018479177E+03  0.53018479178E+03  0.25500000920E-02 0.  1.
        2   -1    0    0  501    0  0.00000000000E+00  0.00000000000E+00 -0.12074563366E+04  0.12074563366E+04  0.25500000920E-02 0. -1.
    10030    2    1    2    0    0  0.00000000000E+00  0.00000000000E+00 -0.67727154479E+03  0.17376411283E+04  0.16002187180E+04 0.  0.
        3    1    3    3  502    0  0.83341591967E+02  0.12064051199E+03  0.51547073846E+03  0.53591981350E+03  0.10100000352E+00 0.  1.
       -3    1    3    3    0  502 -0.83341591967E+02 -0.12064051199E+03 -0.11927422833E+04  0.12017213148E+04  0.10100000352E+00 0. -1.
</event>
<event>
 5   0  0.1990948E-05  0.1600736E+04  0.7818609E-02  0.8820096E-01
       -2   -1    0    0    0  501  0.00000000000E+00  0.00000000000E+00  0.28777966896E+03  0.28777966897E+03  0.25500000920E-02 0. -1.
        2   -1    0    0  501    0  0.00000000000E+00  0.00000000000E+00 -0.22259709729E+04  0.22259709729E+04  0.25500000920E-02 0.  1.
    10030    2    1    2    0    0  0.00000000000E+00  0.00000000000E+00 -0.19381913040E+04  0.25137506419E+04  0.16007363177E+04 0.  0.
        4    1    3    3  502    0 -0.12573382909E+03  0.78679392509E+03 -0.85018316262E+03  0.11651895551E+04  0.12699999809E+01 0.  1.
       -4    1    3    3    0  502  0.12573382909E+03 -0.78679392509E+03 -0.10880081413E+04  0.13485610868E+04  0.12699999809E+01 0. -1.
</event>
<event>
 5   0  0.1990948E-05  0.1599967E+04  0.7818609E-02  0.8820568E-01
       -2   -1    0    0    0  501  0.00000000000E+00  0.00000000000E+00  0.40413048279E+03  0.40413048280E+03  0.25500000920E-02 0.  1.
        2   -1    0    0  501    0  0.00000000000E+00  0.00000000000E+00 -0.15835824927E+04  0.15835824927E+04  0.25500000920E-02 0. -1.
    10030    2    1    2    0    0  0.00000000000E+00  0.00000000000E+00 -0.11794520099E+04  0.19877129755E+04  0.15999674463E+04 0.  0.
        4    1    3    3  502    0 -0.64791415289E+03  0.15426730093E+03 -0.39181445408E+02  0.66717909756E+03  0.12699999809E+01 0.  1.
       -4    1    3    3    0  502  0.64791415289E+03 -0.15426730093E+03 -0.11402705645E+04  0.13205338780E+04  0.12699999809E+01 0. -1.
</event>
<event>
 5   0  0.1057506E-05  0.1601507E+04  0.7818609E-02  0.8819623E-01
       -1   -1    0    0    0  501  0.00000000000E+00  0.00000000000E+00  0.84455364106E+03  0.84455364107E+03  0.50400001928E-02 0.  1.
        1   -1    0    0  501    0  0.00000000000E+00  0.00000000000E+00 -0.75922484172E+03  0.75922484173E+03  0.50400001928E-02 0. -1.
    10030    2    1    2    0    0  0.00000000000E+00  0.00000000000E+00  0.85328799343E+02  0.16037784828E+04  0.16015069210E+04 0.  0.
        5    1    3    3  502    0  0.23312794541E+03  0.48643148304E+03 -0.54996869856E+03  0.77035828419E+03  0.46999998093E+01 0. -1.
       -5    1    3    3    0  502 -0.23312794541E+03 -0.48643148304E+03  0.63529749790E+03  0.83342019862E+03  0.46999998093E+01 0.  1.
</event>
<event>
 5   0  0.1081831E-05  0.1600398E+04  0.7818609E-02  0.8820303E-01
       -1   -1    0    0    0  501  0.00000000000E+00  0.00000000000E+00  0.37423504776E+03  0.37423504779E+03  0.50400001928E-02 0. -1.
        1   -1    0    0  501    0  0.00000000000E+00  0.00000000000E+00 -0.17110070777E+04  0.17110070777E+04  0.50400001928E-02 0.  1.
    10030    2    1    2    0    0  0.00000000000E+00  0.00000000000E+00 -0.13367720299E+04  0.20852421255E+04  0.16003984697E+04 0.  0.
        3    1    3    3  502    0 -0.52821991216E+03  0.83879189703E+02  0.10713504597E+03  0.54546303481E+03  0.10100000352E+00 0. -1.
       -3    1    3    3    0  502  0.52821991216E+03 -0.83879189703E+02 -0.14439070759E+04  0.15397790907E+04  0.10100000352E+00 0.  1.
</event>
<event>
 5   0  0.1990948E-05  0.1600201E+04  0.7818609E-02  0.8820424E-01
       -2   -1    0    0    0  501  0.00000000000E+00  0.00000000000E+00  0.13105427412E+04  0.13105427412E+04  0.25500000920E-02 0.  1.
        2   -1    0    0  501    0  0.00000000000E+00  0.00000000000E+00 -0.48847027779E+03  0.48847027780E+03  0.25500000920E-02 0. -1.
    10030    2    1    2    0    0  0.00000000000E+00  0.00000000000E+00  0.82207246343E+03  0.17990130190E+04  0.16002014584E+04 0.  0.
        4    1    3    3  502    0  0.23467538822E+03  0.22866459590E+03 -0.40958275371E+03  0.52451852235E+03  0.12699999809E+01 0. -1.
       -4    1    3    3    0  502 -0.23467538822E+03 -0.22866459590E+03  0.12316552171E+04  0.12744944967E+04  0.12699999809E+01 0.  1.
</event>
<event>
 5   0  0.1994525E-05  0.1599762E+04  0.7818609E-02  0.8820694E-01
        2   -1    0    0  501    0  0.00000000000E+00  0.00000000000E+00  0.25316612592E+04  0.25316612592E+04  0.25500000920E-02 0.  1.
       -2   -1    0    0    0  501  0.00000000000E+00  0.00000000000E+00 -0.25272326930E+03  0.25272326931E+03  0.25500000920E-02 0. -1.
    10030    2    1    2    0    0  0.00000000000E+00  0.00000000000E+00  0.22789379899E+04  0.27843845285E+04  0.15997621200E+04 0.  0.
        5    1    3    3  502    0 -0.39938911889E+03  0.17519411863E+03 -0.27552163727E+02  0.43701928929E+03  0.46999998093E+01 0. -1.
       -5    1    3    3    0  502  0.39938911889E+03 -0.17519411863E+03  0.23064901536E+04  0.23473652392E+04  0.46999998093E+01 0.  1.
</event>
<event>
 5   0  0.1057506E-05  0.1600724E+04  0.7818609E-02  0.8820103E-01
       -1   -1    0    0    0  501  0.00000000000E+00  0.00000000000E+00  0.49348826584E+03  0.49348826587E+03  0.50400001928E-02 0.  1.
        1   -1    0    0  501    0  0.00000000000E+00  0.00000000000E+00 -0.12980636407E+04  0.12980636408E+04  0.50400001928E-02 0. -1.
    10030    2    1    2    0    0  0.00000000000E+00  0.00000000000E+00 -0.80457537490E+03  0.17915519066E+04  0.16007238051E+04 0.  0.
        5    1    3    3  502    0 -0.17793708776E+03 -0.67546933110E+03 -0.83955037511E+03  0.10921480425E+04  0.46999998093E+01 0. -1.
       -5    1    3    3    0  502  0.17793708776E+03  0.67546933110E+03  0.34975000206E+02  0.69940386409E+03  0.46999998093E+01 0.  1.
</event>
<event>
 5   0  0.1081831E-05  0.1600499E+04  0.7818609E-02  0.8820241E-01
        1   -1    0    0  501    0  0.00000000000E+00  0.00000000000E+00  0.21013931317E+04  0.21013931317E+04  0.50400001928E-02 0.  1.
       -1   -1    0    0    0  501  0.00000000000E+00  0.00000000000E+00 -0.30474994288E+03  0.30474994293E+03  0.50400001928E-02 0. -1.
    10030    2    1    2    0    0  0.00000000000E+00  0.00000000000E+00  0.17966431888E+04  0.24061430747E+04  0.16004992183E+04 0.  0.
        3    1    3    3  502    0  0.22122336578E+03  0.37702304129E+03 -0.10940009667E+03  0.45061573717E+03  0.10100000352E+00 0. -1.
       -3    1    3    3    0  502 -0.22122336578E+03 -0.37702304129E+03  0.19060432855E+04  0.19555273375E+04  0.10100000352E+00 0.  1.
</event>
<event>
 5   0  0.2147844E-05  0.1600426E+04  0.7818609E-02  0.8820287E-01
       -2   -1    0    0    0  501  0.00000000000E+00  0.00000000000E+00  0.58468923324E+03  0.58468923324E+03  0.25500000920E-02 0.  1.
        2   -1    0    0  501    0  0.00000000000E+00  0.00000000000E+00 -0.10951811185E+04  0.10951811185E+04  0.25500000920E-02 0. -1.
    10030    2    1    2    0    0  0.00000000000E+00  0.00000000000E+00 -0.51049188522E+03  0.16798703517E+04  0.16004257039E+04 0.  0.
        2    1    3    3  502    0  0.76124428166E+03 -0.14112216289E+03 -0.42885680024E+02  0.77540151069E+03  0.25500000920E-02 0.  1.
       -2    1    3    3    0  502 -0.76124428166E+03  0.14112216289E+03 -0.46760620520E+03  0.90446884101E+03  0.25500000920E-02 0. -1.
</event>
<event>
 5   0  0.1994525E-05  0.1599284E+04  0.7818609E-02  0.8820988E-01
        2   -1    0    0  501    0  0.00000000000E+00  0.00000000000E+00  0.20285245274E+04  0.20285245274E+04  0.25500000920E-02 0.  1.
       -2   -1    0    0    0  501  0.00000000000E+00  0.00000000000E+00 -0.31521784959E+03  0.31521784960E+03  0.25500000920E-02 0. -1.
    10030    2    1    2    0    0  0.00000000000E+00  0.00000000000E+00  0.17133066778E+04  0.23437423770E+04  0.15992837639E+04 0.  0.
        5    1    3    3  502    0  0.49069687272E+03 -0.46822963286E+03  0.14773430541E+04  0.16256035800E+04  0.46999998093E+01 0.  1.
       -5    1    3    3    0  502 -0.49069687272E+03  0.46822963286E+03  0.23596362373E+03  0.71813879697E+03  0.46999998093E+01 0. -1.
</event>
<event>
 5   0  0.2046108E-05  0.1600480E+04  0.7818609E-02  0.8820253E-01
       -2   -1    0    0    0  501  0.00000000000E+00  0.00000000000E+00  0.51424180059E+03  0.51424180060E+03  0.25500000920E-02 0. -1.
        2   -1    0    0  501    0  0.00000000000E+00  0.00000000000E+00 -0.12452974148E+04  0.12452974148E+04  0.25500000920E-02 0.  1.
    10030    2    1    2    0    0  0.00000000000E+00  0.00000000000E+00 -0.73105561421E+03  0.17595392154E+04  0.16004799091E+04 0.  0.
        1    1    3    3  502    0 -0.10276568066E+03 -0.71553986002E+03  0.11843713821E+02  0.72297880327E+03  0.50400001928E-02 0. -1.
       -1    1    3    3    0  502  0.10276568066E+03  0.71553986002E+03 -0.74289932804E+03  0.10365604121E+04  0.50400001928E-02 0.  1.
</event>
<event>
 5   0  0.1990948E-05  0.1600302E+04  0.7818609E-02  0.8820363E-01
        2   -1    0    0  501    0  0.00000000000E+00  0.00000000000E+00  0.14085394191E+04  0.14085394191E+04  0.25500000920E-02 0. -1.
       -2   -1    0    0    0  501  0.00000000000E+00  0.00000000000E+00 -0.45454264346E+03  0.45454264346E+03  0.25500000920E-02 0.  1.
    10030    2    1    2    0    0  0.00000000000E+00  0.00000000000E+00  0.95399677561E+03  0.18630820625E+04  0.16003015103E+04 0.  0.
        4    1    3    3  502    0  0.63631493949E+03  0.34969435016E+03  0.86845034633E+03  0.11319851844E+04  0.12699999809E+01 0.  1.
       -4    1    3    3    0  502 -0.63631493949E+03 -0.34969435016E+03  0.85546429280E+02  0.73109687813E+03  0.12699999809E+01 0. -1.
</event>
<event>
 5   0  0.1994525E-05  0.1599743E+04  0.7818609E-02  0.8820706E-01
        2   -1    0    0  501    0  0.00000000000E+00  0.00000000000E+00  0.58131573447E+03  0.58131573447E+03  0.25500000920E-02 0. -1.
       -2   -1    0    0    0  501  0.00000000000E+00  0.00000000000E+00 -0.11005973920E+04  0.11005973920E+04  0.25500000920E-02 0.  1.
    10030    2    1    2    0    0  0.00000000000E+00  0.00000000000E+00 -0.51928165756E+03  0.16819131265E+04  0.15997432060E+04 0.  0.
        5    1    3    3  502    0 -0.50927939403E+03  0.40470122367E+03 -0.74897605464E+03  0.99203618989E+03  0.46999998093E+01 0.  1.
       -5    1    3    3    0  502  0.50927939403E+03 -0.40470122367E+03  0.22969439708E+03  0.68987693661E+03  0.46999998093E+01 0. -1.
</event>
<event>
 5   0  0.2125803E-05  0.1599393E+04  0.7818609E-02  0.8820921E-01
       -2   -1    0    0    0  501  0.00000000000E+00  0.00000000000E+00  0.55672349612E+03  0.55672349613E+03  0.25500000920E-02 0. -1.
        2   -1    0    0  501    0  0.00000000000E+00  0.00000000000E+00 -0.11487106071E+04  0.11487106071E+04  0.25500000920E-02 0.  1.
    10030    2    1    2    0    0  0.00000000000E+00  0.00000000000E+00 -0.59198711100E+03  0.17054341032E+04  0.15993926163E+04 0.  0.
        3    1    3    3  502    0  0.65788866871E+03 -0.41551497365E+03 -0.99250220854E+02  0.78442387157E+03  0.10100000352E+00 0. -1.
       -3    1    3    3    0  502 -0.65788866871E+03  0.41551497365E+03 -0.49273689014E+03  0.92101023168E+03  0.10100000352E+00 0.  1.
</event>
<event>
 5   0  0.1090674E-05  0.1601403E+04  0.7818609E-02  0.8819687E-01
        1   -1    0    0  501    0  0.00000000000E+00  0.00000000000E+00  0.12359862149E+04  0.12359862150E+04  0.50400001928E-02 0.  1.
       -1   -1    0    0    0  501  0.00000000000E+00  0.00000000000E+00 -0.51871363330E+03  0.51871363332E+03  0.50400001928E-02 0. -1.
    10030    2    1    2    0    0  0.00000000000E+00  0.00000000000E+00  0.71727258165E+03  0.17546998483E+04  0.16014030102E+04 0.  0.
        4    1    3    3  502    0 -0.71686225937E+03 -0.87177268042E+02  0.73762135121E+03  0.10322684949E+04  0.12699999809E+01 0. -1.
       -4    1    3    3    0  502  0.71686225937E+03  0.87177268042E+02 -0.20348769568E+02  0.72243135334E+03  0.12699999809E+01 0.  1.
</event>
<event>
 5   0  0.1994525E-05  0.1600064E+04  0.7818609E-02  0.8820508E-01
        2   -1    0    0  501    0  0.00000000000E+00  0.00000000000E+00  0.10295184909E+04  0.10295184909E+04  0.25500000920E-02 0. -1.
       -2   -1    0    0    0  501  0.00000000000E+00  0.00000000000E+00 -0.62169985809E+03  0.62169985809E+03  0.25500000920E-02 0.  1.
    10030    2    1    2    0    0  0.00000000000E+00  0.00000000000E+00  0.40781863277E+03  0.16512183490E+04  0.16000643733E+04 0.  0.
        5    1    3    3  502    0  0.29979665188E+03  0.65038789854E+03  0.57188577777E+03  0.91649216247E+03  0.46999998093E+01 0. -1.
       -5    1    3    3    0  502 -0.29979665188E+03 -0.65038789854E+03 -0.16406714501E+03  0.73472618649E+03  0.46999998093E+01 0.  1.
</event>
<event>
 5   0  0.1057506E-05  0.1600281E+04  0.7818609E-02  0.8820375E-01
        1   -1    0    0  501    0  0.00000000000E+00  0.00000000000E+00  0.85042951497E+03  0.85042951499E+03  0.50400001928E-02 0. -1.
       -1   -1    0    0    0  501  0.00000000000E+00  0.00000000000E+00 -0.75282522684E+03  0.75282522685E+03  0.50400001928E-02 0.  1.
    10030    2    1    2    0    0  0.00000000000E+00  0.00000000000E+00  0.97604288134E+02  0.16032547418E+04  0.16002809660E+04 0.  0.
        5    1    3    3  502    0 -0.76708960079E+03  0.22202477895E+03 -0.11025122070E+01  0.79858923336E+03  0.46999998093E+01 0. -1.
       -5    1    3    3    0  502  0.76708960079E+03 -0.22202477895E+03  0.98706800341E+02  0.80466550848E+03  0.46999998093E+01 0.  1.
</event>
<event>
 5   0  0.1057506E-05  0.1599335E+04  0.7818609E-02  0.8820957E-01
        1   -1    0    0  501    0  0.00000000000E+00  0.00000000000E+00  0.10303916798E+04  0.10303916798E+04  0.50400001928E-02 0. -1.
       -1   -1    0    0    0  501  0.00000000000E+00  0.00000000000E+00 -0.62060657214E+03  0.62060657216E+03  0.50400001928E-02 0.  1.
    10030    2    1    2    0    0  0.00000000000E+00  0.00000000000E+00  0.40978510764E+03  0.16509982520E+04  0.15993346722E+04 0.  0.
        5    1    3    3  502    0  0.58308917913E+03 -0.35728323429E+03 -0.22298616194E+03  0.71929772608E+03  0.46999998093E+01 0.  1.
       -5    1    3    3    0  502 -0.58308917913E+03  0.35728323429E+03  0.63277126959E+03  0.93170052589E+03  0.46999998093E+01 0. -1.
</event>
<event>
 5   0  0.1057506E-05  0.1599434E+04  0.7818609E-02  0.8820896E-01
       -1   -1    0    0    0  501  0.00000000000E+00  0.00000000000E+00  0.70999411950E+03  0.70999411952E+03  0.50400001928E-02 0. -1.
        1   -1    0    0  501    0  0.00000000000E+00  0.00000000000E+00 -0.90077784074E+03  0.90077784076E+03  0.50400001928E-02 0.  1.
    10030    2    1    2    0    0  0.00000000000E+00  0.00000000000E+00 -0.19078372124E+03  0.16107719603E+04  0.15994336122E+04 0.  0.
        5    1    3    3  502    0 -0.47865247496E+03  0.94704299269E+02 -0.73348250173E+03  0.88096297676E+03  0.46999998093E+01 0.  1.
       -5    1    3    3    0  502  0.47865247496E+03 -0.94704299269E+02  0.54269878049E+03  0.72980898352E+03  0.46999998093E+01 0. -1.
</event>
<event>
 5   0  0.1060251E-05  0.1600398E+04  0.7818609E-02  0.8820304E-01
       -1   -1    0    0    0  501  0.00000000000E+00  0.00000000000E+00  0.73558926295E+03  0.73558926296E+03  0.50400001928E-02 0. -1.
        1   -1    0    0  501    0  0.00000000000E+00  0.00000000000E+00 -0.87048356649E+03  0.87048356651E+03  0.50400001928E-02 0.  1.
    10030    2    1    2    0    0  0.00000000000E+00  0.00000000000E+00 -0.13489430354E+03  0.16060728295E+04  0.16003979069E+04 0.  0.
        1    1    3    3  502    0 -0.14672618187E+03  0.61229531051E+03 -0.56304468205E+03  0.84466172740E+03  0.50400001928E-02 0.  1.
       -1    1    3    3    0  502  0.14672618187E+03 -0.61229531051E+03  0.42815037850E+03  0.76141110207E+03  0.50400001928E-02 0. -1.
</event>
<event>
 5   0  0.2125803E-05  0.1600508E+04  0.7818609E-02  0.8820236E-01
       -2   -1    0    0    0  501  0.00000000000E+00  0.00000000000E+00  0.74580394533E+03  0.74580394533E+03  0.25500000920E-02 0. -1.
        2   -1    0    0  501    0  0.00000000000E+00  0.00000000000E+00 -0.85867968918E+03  0.85867968918E+03  0.25500000920E-02 0.  1.
    10030    2    1    2    0    0  0.00000000000E+00  0.00000000000E+00 -0.11287574385E+03  0.16044836345E+04  0.16005082942E+04 0.  0.
        3    1    3    3  502    0  0.44905811558E+03 -0.54859635284E+03 -0.42856809522E+03  0.82842125272E+03  0.10100000352E+00 0.  1.
       -3    1    3    3    0  502 -0.44905811558E+03  0.54859635284E+03  0.31569235137E+03  0.77606238179E+03  0.10100000352E+00 0. -1.
</event>
<event>
 5   0  0.7597000E-06  0.1599720E+04  0.7818609E-02  0.8820720E-01
        4   -1    0    0  501    0  0.00000000000E+00  0.00000000000E+00  0.70720701696E+03  0.70720815729E+03  0.12699999809E+01 0.  1.
       -4   -1    0    0    0  501  0.00000000000E+00  0.00000000000E+00 -0.90464983515E+03  0.90465072660E+03  0.12699999809E+01 0. -1.
    10030    2    1    2    0    0  0.00000000000E+00  0.00000000000E+00 -0.19744281820E+03  0.16118588839E+04  0.15997204115E+04 0.  0.
        4    1    3    3  502    0 -0.37170223487E+03 -0.47513182214E+03 -0.62793235823E+03  0.87075453443E+03  0.12699999809E+01 0. -1.
       -4    1    3    3    0  502  0.37170223487E+03  0.47513182214E+03  0.43048954003E+03  0.74110434946E+03  0.12699999809E+01 0.  1.
</event>
<event>
 5   0  0.1090674E-05  0.1600230E+04  0.7818609E-02  0.8820407E-01
       -1   -1    0    0    0  501  0.00000000000E+00  0.00000000000E+00  0.74390405284E+03  0.74390405286E+03  0.50400001928E-02 0.  1.
        1   -1    0    0  501    0  0.00000000000E+00  0.00000000000E+00 -0.86057331201E+03  0.86057331202E+03  0.50400001928E-02 0. -1.
    10030    2    1    2    0    0  0.00000000000E+00  0.00000000000E+00 -0.11666925917E+03  0.16044773649E+04  0.16002299517E+04 0.  0.
        4    1    3    3  502    0  0.41952354121E+02  0.75373802389E+03  0.20751315257E+03  0.78290761273E+03  0.12699999809E+01 0.  1.
       -4    1    3    3    0  502 -0.41952354121E+02 -0.75373802389E+03 -0.32418241174E+03  0.82156975216E+03  0.12699999809E+01 0. -1.
</event>
<event>
 5   0  0.1990948E-05  0.1599990E+04  0.7818609E-02  0.8820554E-01
        2   -1    0    0  501    0  0.00000000000E+00  0.00000000000E+00  0.13602771592E+04  0.13602771592E+04  0.25500000920E-02 0.  1.
       -2   -1    0    0    0  501  0.00000000000E+00  0.00000000000E+00 -0.47048674146E+03  0.47048674147E+03  0.25500000920E-02 0. -1.
    10030    2    1    2    0    0  0.00000000000E+00  0.00000000000E+00  0.88979041769E+03  0.18307639006E+04  0.15999904601E+04 0.  0.
        4    1    3    3  502    0 -0.50419098664E+03 -0.55165075687E+03  0.77148068773E+03  0.10741094791E+04  0.12699999809E+01 0.  1.
       -4    1    3    3    0  502  0.50419098664E+03  0.55165075687E+03  0.11830972996E+03  0.75665442156E+03  0.12699999809E+01 0. -1.
</event>
<event>
 5   0  0.2147844E-05  0.1599529E+04  0.7818609E-02  0.8820837E-01
        2   -1    0    0  501    0  0.00000000000E+00  0.00000000000E+00  0.34994385701E+03  0.34994385702E+03  0.25500000920E-02 0. -1.
       -2   -1    0    0    0  501  0.00000000000E+00  0.00000000000E+00 -0.18277886613E+04  0.18277886613E+04  0.25500000920E-02 0.  1.
    10030    2    1    2    0    0  0.00000000000E+00  0.00000000000E+00 -0.14778448043E+04  0.21777325183E+04  0.15995291982E+04 0.  0.
        2    1    3    3  502    0  0.92714445296E+02 -0.79412710237E+03 -0.71204936585E+03  0.10706297784E+04  0.25500000920E-02 0.  1.
       -2    1    3    3    0  502 -0.92714445296E+02  0.79412710237E+03 -0.76579543842E+03  0.11071027399E+04  0.25500000920E-02 0. -1.
</event>
<event>
 5   0  0.1060251E-05  0.1600115E+04  0.7818609E-02  0.8820477E-01
        1   -1    0    0  501    0  0.00000000000E+00  0.00000000000E+00  0.96714353731E+03  0.96714353732E+03  0.50400001928E-02 0.  1.
       -1   -1    0    0    0  501  0.00000000000E+00  0.00000000000E+00 -0.66183801013E+03  0.66183801015E+03  0.50400001928E-02 0. -1.
    10030    2    1    2    0    0  0.00000000000E+00  0.00000000000E+00  0.30530552717E+03  0.16289815475E+04  0.16001154387E+04 0.  0.
        1    1    3    3  502    0  0.43273494401E+03  0.19804601406E+03 -0.50207488141E+03  0.69178099282E+03  0.50400001928E-02 0. -1.
       -1    1    3    3    0  502 -0.43273494401E+03 -0.19804601406E+03  0.80738040859E+03  0.93720055466E+03  0.50400001928E-02 0.  1.
</event>
<event>
 5   0  0.1994525E-05  0.1597993E+04  0.7818609E-02  0.8821782E-01
        2   -1    0    0  501    0  0.00000000000E+00  0.00000000000E+00  0.19945378826E+04  0.19945378826E+04  0.25500000920E-02 0.  1.
       -2   -1    0    0    0  501  0.00000000000E+00  0.00000000000E+00 -0.32007176240E+03  0.32007176241E+03  0.25500000920E-02 0. -1.
    10030    2    1    2    0    0  0.00000000000E+00  0.00000000000E+00  0.16744661202E+04  0.23146096450E+04  0.15979928101E+04 0.  0.
        5    1    3    3  502    0  0.81646796611E+01  0.30234710549E+03 -0.23392611738E+03  0.38239240654E+03  0.46999998093E+01 0. -1.
       -5    1    3    3    0  502 -0.81646796611E+01 -0.30234710549E+03  0.19083922376E+04  0.19322172385E+04  0.46999998093E+01 0.  1.
</event>
<event>
 5   0  0.1081831E-05  0.1601165E+04  0.7818609E-02  0.8819833E-01
        1   -1    0    0  501    0  0.00000000000E+00  0.00000000000E+00  0.50570689725E+03  0.50570689727E+03  0.50400001928E-02 0.  1.
       -1   -1    0    0    0  501  0.00000000000E+00  0.00000000000E+00 -0.12673987413E+04  0.12673987413E+04  0.50400001928E-02 0. -1.
    10030    2    1    2    0    0  0.00000000000E+00  0.00000000000E+00 -0.76169184405E+03  0.17731056386E+04  0.16011649323E+04 0.  0.
        3    1    3    3  502    0  0.79855371449E+03 -0.37548835346E+02 -0.42827412534E+03  0.90692705693E+03  0.10100000352E+00 0. -1.
       -3    1    3    3    0  502 -0.79855371449E+03  0.37548835346E+02 -0.33341771871E+03  0.86617858165E+03  0.10100000352E+00 0.  1.
</event>
<event>
 5   0  0.1990948E-05  0.1600221E+04  0.7818609E-02  0.8820413E-01
       -2   -1    0    0    0  501  0.00000000000E+00  0.00000000000E+00  0.11928390402E+04  0.11928390402E+04  0.25500000920E-02 0.  1.
        2   -1    0    0  501    0  0.00000000000E+00  0.00000000000E+00 -0.53668301799E+03  0.53668301799E+03  0.25500000920E-02 0. -1.
    10030    2    1    2    0    0  0.00000000000E+00  0.00000000000E+00  0.65615602222E+03  0.17295220582E+04  0.16002205549E+04 0.  0.
        4    1    3    3  502    0 -0.13791907947E+03 -0.74440271366E+03  0.60787384844E+03  0.97091158254E+03  0.12699999809E+01 0.  1.
       -4    1    3    3    0  502  0.13791907947E+03  0.74440271366E+03  0.48282173781E+02  0.75861047567E+03  0.12699999809E+01 0. -1.
</event>
<event>
 5   0  0.7597000E-06  0.1600761E+04  0.7818609E-02  0.8820081E-01
       -3   -1    0    0    0  501  0.00000000000E+00  0.00000000000E+00  0.10916595166E+04  0.10916595212E+04  0.10100000352E+00 0.  1.
        3   -1    0    0  501    0  0.00000000000E+00  0.00000000000E+00 -0.58682088278E+03  0.58682089147E+03  0.10100000352E+00 0. -1.
    10030    2    1    2    0    0  0.00000000000E+00  0.00000000000E+00  0.50483863379E+03  0.16784804127E+04  0.16007605848E+04 0.  0.
        5    1    3    3  502    0 -0.40748870938E+03 -0.57252051230E+03  0.65411147918E+03  0.96005765581E+03  0.46999998093E+01 0.  1.
       -5    1    3    3    0  502  0.40748870938E+03  0.57252051230E+03 -0.14927284539E+03  0.71842275691E+03  0.46999998093E+01 0. -1.
</event>
<event>
 5   0  0.7597000E-06  0.1600861E+04  0.7818609E-02  0.8820020E-01
       -4   -1    0    0    0  501  0.00000000000E+00  0.00000000000E+00  0.91239168899E+03  0.91239257288E+03  0.12699999809E+01 0.  1.
        4   -1    0    0  501    0  0.00000000000E+00  0.00000000000E+00 -0.70220605204E+03  0.70220720049E+03  0.12699999809E+01 0. -1.
    10030    2    1    2    0    0  0.00000000000E+00  0.00000000000E+00  0.21018563695E+03  0.16145997734E+04  0.16008605268E+04 0.  0.
        1    1    3    3  502    0 -0.47739704862E+02 -0.64537548176E+03  0.58019831683E+03  0.86914824901E+03  0.50400001928E-02 0. -1.
       -1    1    3    3    0  502  0.47739704862E+02  0.64537548176E+03 -0.37001267988E+03  0.74545152436E+03  0.50400001928E-02 0.  1.
</event>
<event>
 5   0  0.1060251E-05  0.1599192E+04  0.7818609E-02  0.8821044E-01
        1   -1    0    0  501    0  0.00000000000E+00  0.00000000000E+00  0.16471275580E+04  0.16471275580E+04  0.50400001928E-02 0. -1.
       -1   -1    0    0    0  501  0.00000000000E+00  0.00000000000E+00 -0.38816299191E+03  0.38816299194E+03  0.50400001928E-02 0.  1.
    10030    2    1    2    0    0  0.00000000000E+00  0.00000000000E+00  0.12589645660E+04  0.20352905499E+04  0.15991922473E+04 0.  0.
        1    1    3    3  502    0 -0.77181930811E+03  0.17634239854E+03  0.77207159202E+03  0.11058463859E+04  0.50400001928E-02 0.  1.
       -1    1    3    3    0  502  0.77181930811E+03 -0.17634239854E+03  0.48689297402E+03  0.92944416404E+03  0.50400001928E-02 0. -1.
</event>
<event>
 5   0  0.1060251E-05  0.1599954E+04  0.7818609E-02  0.8820576E-01
       -1   -1    0    0    0  501  0.00000000000E+00  0.00000000000E+00  0.70558064218E+03  0.70558064220E+03  0.50400001928E-02 0.  1.
        1   -1    0    0  501    0  0.00000000000E+00  0.00000000000E+00 -0.90700179275E+03  0.90700179277E+03  0.50400001928E-02 0. -1.
    10030    2    1    2    0    0  0.00000000000E+00  0.00000000000E+00 -0.20142115057E+03  0.16125824350E+04  0.15999536336E+04 0.  0.
        1    1    3    3  502    0 -0.29696594849E+03 -0.71228502603E+03 -0.31314466555E+03  0.83282550060E+03  0.50400001928E-02 0.  1.
       -1    1    3    3    0  502  0.29696594849E+03  0.71228502603E+03  0.11172351498E+03  0.77975693437E+03  0.50400001928E-02 0. -1.
</event>
<event>
 5   0  0.1081831E-05  0.1599962E+04  0.7818609E-02  0.8820572E-01
        1   -1    0    0  501    0  0.00000000000E+00  0.00000000000E+00  0.91571601229E+03  0.91571601230E+03  0.50400001928E-02 0. -1.
       -1   -1    0    0    0  501  0.00000000000E+00  0.00000000000E+00 -0.69887310382E+03  0.69887310384E+03  0.50400001928E-02 0.  1.
    10030    2    1    2    0    0  0.00000000000E+00  0.00000000000E+00  0.21684290846E+03  0.16145891161E+04  0.15999616142E+04 0.  0.
        3    1    3    3  502    0 -0.18612976666E+03 -0.45562510948E+02 -0.67537046251E+03  0.70202956083E+03  0.10100000352E+00 0.  1.
       -3    1    3    3    0  502  0.18612976666E+03  0.45562510948E+02  0.89221337098E+03  0.91255955531E+03  0.10100000352E+00 0. -1.
</event>
<event>
 5   0  0.1990948E-05  0.1600277E+04  0.7818609E-02  0.8820378E-01
        2   -1    0    0  501    0  0.00000000000E+00  0.00000000000E+00  0.55312248056E+03  0.55312248057E+03  0.25500000920E-02 0. -1.
       -2   -1    0    0    0  501  0.00000000000E+00  0.00000000000E+00 -0.11574678461E+04  0.11574678461E+04  0.25500000920E-02 0.  1.
    10030    2    1    2    0    0  0.00000000000E+00  0.00000000000E+00 -0.60434536554E+03  0.17105903267E+04  0.16002768338E+04 0.  0.
        4    1    3    3  502    0 -0.10446863453E+03 -0.70659154484E+03  0.83288190123E+02  0.71911323333E+03  0.12699999809E+01 0. -1.
       -4    1    3    3    0  502  0.10446863453E+03  0.70659154484E+03 -0.68763355566E+03  0.99147709334E+03  0.12699999809E+01 0.  1.
</event>
<event>
 5   0  0.2046108E-05  0.1600184E+04  0.7818609E-02  0.8820435E-01
        2   -1    0    0  501    0  0.00000000000E+00  0.00000000000E+00  0.17309828970E+04  0.17309828970E+04  0.25500000920E-02 0. -1.
       -2   -1    0    0    0  501  0.00000000000E+00  0.00000000000E+00 -0.36981697795E+03  0.36981697796E+03  0.25500000920E-02 0.  1.
    10030    2    1    2    0    0  0.00000000000E+00  0.00000000000E+00  0.13611659191E+04  0.21007998750E+04  0.16001835693E+04 0.  0.
        1    1    3    3  502    0 -0.33549718786E+03  0.10655674283E+03  0.16238577900E+04  0.16615735989E+04  0.50400001928E-02 0. -1.
       -1    1    3    3    0  502  0.33549718786E+03 -0.10655674283E+03 -0.26269187092E+03  0.43922627605E+03  0.50400001928E-02 0.  1.
</event>
<event>
 5   0  0.7597000E-06  0.1599748E+04  0.7818609E-02  0.8820703E-01
       -4   -1    0    0    0  501  0.00000000000E+00  0.00000000000E+00  0.39237833530E+03  0.39238039059E+03  0.12699999809E+01 0. -1.
        4   -1    0    0  501    0  0.00000000000E+00  0.00000000000E+00 -0.16305575086E+04  0.16305580032E+04  0.12699999809E+01 0.  1.
    10030    2    1    2    0    0  0.00000000000E+00  0.00000000000E+00 -0.12381791733E+04  0.20229383937E+04  0.15997475050E+04 0.  0.
        1    1    3    3  502    0  0.70407338452E+03 -0.37927107890E+03 -0.63835614675E+03  0.10232616734E+04  0.50400001928E-02 0. -1.
       -1    1    3    3    0  502 -0.70407338452E+03  0.37927107890E+03 -0.59982302652E+03  0.99967672037E+03  0.50400001928E-02 0.  1.
</event>
<event>
 5   0  0.1126485E-05  0.1600361E+04  0.7818609E-02  0.8820326E-01
       -1   -1    0    0    0  501  0.00000000000E+00  0.00000000000E+00  0.52883729939E+03  0.52883729941E+03  0.50400001928E-02 0.  1.
        1   -1    0    0  501    0  0.00000000000E+00  0.00000000000E+00 -0.12107481886E+04  0.12107481886E+04  0.50400001928E-02 0. -1.
    10030    2    1    2    0    0  0.00000000000E+00  0.00000000000E+00 -0.68191088923E+03  0.17395854880E+04  0.16003609622E+04 0.  0.
        2    1    3    3  502    0 -0.24584112510E+03 -0.34920288698E+03 -0.10765137079E+04  0.11581287832E+04  0.25500000920E-02 0. -1.
       -2    1    3    3    0  502  0.24584112510E+03  0.34920288698E+03  0.39460281871E+03  0.58145670485E+03  0.25500000920E-02 0.  1.
</event>
<event>
 5   0  0.1057506E-05  0.1598701E+04  0.7818609E-02  0.8821346E-01
       -1   -1    0    0    0  501  0.00000000000E+00  0.00000000000E+00  0.32008304173E+03  0.32008304177E+03  0.50400001928E-02 0. -1.
        1   -1    0    0  501    0  0.00000000000E+00  0.00000000000E+00 -0.19962362196E+04  0.19962362196E+04  0.50400001928E-02 0.  1.
    10030    2    1    2    0    0  0.00000000000E+00  0.00000000000E+00 -0.16761531779E+04  0.23163192614E+04  0.15987011744E+04 0.  0.
        5    1    3    3  502    0 -0.17826333727E+03  0.28452533311E+03  0.21293946047E+03  0.39761512348E+03  0.46999998093E+01 0. -1.
       -5    1    3    3    0  502  0.17826333727E+03 -0.28452533311E+03 -0.18890926384E+04  0.19187041379E+04  0.46999998093E+01 0.  1.
</event>
<event>
 5   0  0.1990948E-05  0.1600440E+04  0.7818609E-02  0.8820278E-01
       -2   -1    0    0    0  501  0.00000000000E+00  0.00000000000E+00  0.30911441333E+03  0.30911441334E+03  0.25500000920E-02 0.  1.
        2   -1    0    0  501    0  0.00000000000E+00  0.00000000000E+00 -0.20715702840E+04  0.20715702840E+04  0.25500000920E-02 0. -1.
    10030    2    1    2    0    0  0.00000000000E+00  0.00000000000E+00 -0.17624558707E+04  0.23806846974E+04  0.16004402307E+04 0.  0.
        4    1    3    3  502    0  0.20817079583E+03 -0.18411379167E+03 -0.19974792698E+04  0.20167196172E+04  0.12699999809E+01 0. -1.
       -4    1    3    3    0  502 -0.20817079583E+03  0.18411379167E+03  0.23502339909E+03  0.36396508011E+03  0.12699999809E+01 0.  1.
</event>
<event>
 5   0  0.1081831E-05  0.1600003E+04  0.7818609E-02  0.8820546E-01
        1   -1    0    0  501    0  0.00000000000E+00  0.00000000000E+00  0.20202159599E+04  0.20202159599E+04  0.50400001928E-02 0.  1.
       -1   -1    0    0    0  501  0.00000000000E+00  0.00000000000E+00 -0.31679895975E+03  0.31679895979E+03  0.50400001928E-02 0. -1.
    10030    2    1    2    0    0  0.00000000000E+00  0.00000000000E+00  0.17034170002E+04  0.23370149197E+04  0.16000028933E+04 0.  0.
        3    1    3    3  502    0  0.14493846250E+03  0.60223214807E+03  0.11223121811E+03  0.62951296619E+03  0.10100000352E+00 0. -1.
       -3    1    3    3    0  502 -0.14493846250E+03 -0.60223214807E+03  0.15911857821E+04  0.17075019535E+04  0.10100000352E+00 0.  1.
</event>
<event>
 5   0  0.1990948E-05  0.1600901E+04  0.7818609E-02  0.8819994E-01
       -2   -1    0    0    0  501  0.00000000000E+00  0.00000000000E+00  0.91096792011E+03  0.91096792012E+03  0.25500000920E-02 0. -1.
        2   -1    0    0  501    0  0.00000000000E+00  0.00000000000E+00 -0.70334117977E+03  0.70334117977E+03  0.25500000920E-02 0.  1.
    10030    2    1    2    0    0  0.00000000000E+00  0.00000000000E+00  0.20762674035E+03  0.16143090999E+04  0.16009013107E+04 0.  0.
        4    1    3    3  502    0  0.70325430878E+03 -0.37073392254E+02 -0.27987116106E+03  0.75780639937E+03  0.12699999809E+01 0.  1.
       -4    1    3    3    0  502 -0.70325430878E+03  0.37073392254E+02  0.48749790140E+03  0.85650270052E+03  0.12699999809E+01 0. -1.
</event>
<event>
 5   0  0.1081831E-05  0.1599937E+04  0.7818609E-02  0.8820587E-01
       -1   -1    0    0    0  501  0.00000000000E+00  0.00000000000E+00  0.21510821739E+03  0.21510821745E+03  0.50400001928E-02 0.  1.
        1   -1    0    0  501    0  0.00000000000E+00  0.00000000000E+00 -0.29750108344E+04  0.29750108344E+04  0.50400001928E-02 0. -1.
    10030    2    1    2    0    0  0.00000000000E+00  0.00000000000E+00 -0.27599026170E+04  0.31901190519E+04  0.15999365955E+04 0.  0.
        3    1    3    3  502    0 -0.47396130149E+03  0.64442969333E+03 -0.13709627533E+04  0.15872831588E+04  0.10100000352E+00 0.  1.
       -3    1    3    3    0  502  0.47396130149E+03 -0.64442969333E+03 -0.13889398638E+04  0.16028358931E+04  0.10100000352E+00 0. -1.
</event>
<event>
 5   0  0.1081831E-05  0.1599560E+04  0.7818609E-02  0.8820818E-01
        1   -1    0    0  501    0  0.00000000000E+00  0.00000000000E+00  0.58284109485E+03  0.58284109487E+03  0.50400001928E-02 0. -1.
       -1   -1    0    0    0  501  0.00000000000E+00  0.00000000000E+00 -0.10974657355E+04  0.10974657355E+04  0.50400001928E-02 0.  1.
    10030    2    1    2    0    0  0.00000000000E+00  0.00000000000E+00 -0.51462464067E+03  0.16803068304E+04  0.15995601031E+04 0.  0.
        3    1    3    3  502    0  0.46375537136E+03 -0.10133805377E+02  0.42709523492E+03  0.63054110760E+03  0.10100000352E+00 0. -1.
       -3    1    3    3    0  502 -0.46375537136E+03  0.10133805377E+02 -0.94171987559E+03  0.10497657228E+04  0.10100000352E+00 0.  1.
</event>
<event>
 5   0  0.1990948E-05  0.1599642E+04  0.7818609E-02  0.8820768E-01
        2   -1    0    0  501    0  0.00000000000E+00  0.00000000000E+00  0.19115266388E+04  0.19115266388E+04  0.25500000920E-02 0.  1.
       -2   -1    0    0    0  501  0.00000000000E+00  0.00000000000E+00 -0.33466131999E+03  0.33466132000E+03  0.25500000920E-02 0. -1.
    10030    2    1    2    0    0  0.00000000000E+00  0.00000000000E+00  0.15768653188E+04  0.22461879588E+04  0.15996424952E+04 0.  0.
        4    1    3    3  502    0  0.71775070109E+03 -0.25383028418E+03  0.44414605477E+03  0.88139844165E+03  0.12699999809E+01 0.  1.
       -4    1    3    3    0  502 -0.71775070109E+03  0.25383028418E+03  0.11327192640E+04  0.13647895171E+04  0.12699999809E+01 0. -1.
</event>
<event>
 5   0  0.2046108E-05  0.1600074E+04  0.7818609E-02  0.8820503E-01
       -2   -1    0    0    0  501  0.00000000000E+00  0.00000000000E+00  0.69061791909E+03  0.69061791910E+03  0.25500000920E-02 0. -1.
        2   -1    0    0  501    0  0.00000000000E+00  0.00000000000E+00 -0.92679169694E+03  0.92679169694E+03  0.25500000920E-02 0.  1.
    10030    2    1    2    0    0  0.00000000000E+00  0.00000000000E+00 -0.23617377785E+03  0.16174096160E+04  0.16000736898E+04 0.  0.
        1    1    3    3  502    0  0.46789631828E+03  0.64659380709E+03 -0.62276036246E+02  0.80055532023E+03  0.50400001928E-02 0. -1.
       -1    1    3    3    0  502 -0.46789631828E+03 -0.64659380709E+03 -0.17389774160E+03  0.81685429581E+03  0.50400001928E-02 0.  1.
</event>
<event>
 5   0  0.1990948E-05  0.1603652E+04  0.7818609E-02  0.8818307E-01
       -2   -1    0    0    0  501  0.00000000000E+00  0.00000000000E+00  0.18941392069E+04  0.18941392069E+04  0.25500000920E-02 0. -1.
        2   -1    0    0  501    0  0.00000000000E+00  0.00000000000E+00 -0.33942864194E+03  0.33942864195E+03  0.25500000920E-02 0.  1.
    10030    2    1    2    0    0  0.00000000000E+00  0.00000000000E+00  0.15547105650E+04  0.22335678489E+04  0.16036522050E+04 0.  0.
        4    1    3    3  502    0 -0.32988576004E+03 -0.43024028505E+02  0.17934773961E+04  0.18240719462E+04  0.12699999809E+01 0. -1.
       -4    1    3    3    0  502  0.32988576004E+03  0.43024028505E+02 -0.23876683116E+03  0.40949590263E+03  0.12699999809E+01 0.  1.
</event>
<event>
 5   0  0.1990948E-05  0.1599472E+04  0.7818609E-02  0.8820872E-01
        2   -1    0    0  501    0  0.00000000000E+00  0.00000000000E+00  0.16820672932E+04  0.16820672932E+04  0.25500000920E-02 0.  1.
       -2   -1    0    0    0  501  0.00000000000E+00  0.00000000000E+00 -0.38023326852E+03  0.38023326853E+03  0.25500000920E-02 0. -1.
    10030    2    1    2    0    0  0.00000000000E+00  0.00000000000E+00  0.13018340247E+04  0.20623005617E+04  0.15994723439E+04 0.  0.
        4    1    3    3  502    0  0.30825003363E+03 -0.41281657527E+03  0.14395822813E+04  0.15289978305E+04  0.12699999809E+01 0.  1.
       -4    1    3    3    0  502 -0.30825003363E+03  0.41281657527E+03 -0.13774825663E+03  0.53330273125E+03  0.12699999809E+01 0. -1.
</event>
<event>
 5   0  0.1060251E-05  0.1599531E+04  0.7818609E-02  0.8820836E-01
       -1   -1    0    0    0  501  0.00000000000E+00  0.00000000000E+00  0.37796249247E+03  0.37796249251E+03  0.50400001928E-02 0.  1.
        1   -1    0    0  501    0  0.00000000000E+00  0.00000000000E+00 -0.16922971333E+04  0.16922971333E+04  0.50400001928E-02 0. -1.
    10030    2    1    2    0    0  0.00000000000E+00  0.00000000000E+00 -0.13143346409E+04  0.20702596258E+04  0.15995309845E+04 0.  0.
        1    1    3    3  502    0  0.63171462375E+03 -0.39824608431E+03 -0.28662553327E+03  0.79988593304E+03  0.50400001928E-02 0.  1.
       -1    1    3    3    0  502 -0.63171462375E+03  0.39824608431E+03 -0.10277091076E+04  0.12703736928E+04  0.50400001928E-02 0. -1.
</event>
<event>
 5   0  0.1081831E-05  0.1599677E+04  0.7818609E-02  0.8820747E-01
        1   -1    0    0  501    0  0.00000000000E+00  0.00000000000E+00  0.16058390979E+04  0.16058390979E+04  0.50400001928E-02 0.  1.
       -1   -1    0    0    0  501  0.00000000000E+00  0.00000000000E+00 -0.39838450995E+03  0.39838450998E+03  0.50400001928E-02 0. -1.
    10030    2    1    2    0    0  0.00000000000E+00  0.00000000000E+00  0.12074545880E+04  0.20042236079E+04  0.15996767450E+04 0.  0.
        3    1    3    3  502    0 -0.32699119342E+03 -0.72117667337E+03  0.46240910133E+03  0.91697394837E+03  0.10100000352E+00 0.  1.
       -3    1    3    3    0  502  0.32699119342E+03  0.72117667337E+03  0.74504548664E+03  0.10872496595E+04  0.10100000352E+00 0. -1.
</event>
<event>
 5   0  0.2147844E-05  0.1598603E+04  0.7818609E-02  0.8821406E-01
        2   -1    0    0  501    0  0.00000000000E+00  0.00000000000E+00  0.17812373519E+04  0.17812373519E+04  0.25500000920E-02 0. -1.
       -2   -1    0    0    0  501  0.00000000000E+00  0.00000000000E+00 -0.35867385701E+03  0.35867385701E+03  0.25500000920E-02 0.  1.
    10030    2    1    2    0    0  0.00000000000E+00  0.00000000000E+00  0.14225634949E+04  0.21399112090E+04  0.15986034796E+04 0.  0.
        2    1    3    3  502    0 -0.15047954077E+03  0.33402168879E+03 -0.23966934279E+03  0.43778530657E+03  0.25500000920E-02 0.  1.
       -2    1    3    3    0  502  0.15047954077E+03 -0.33402168879E+03  0.16622328377E+04  0.17021259024E+04  0.25500000920E-02 0. -1.
</event>
<event>
 5   0  0.1126485E-05  0.1600419E+04  0.7818609E-02  0.8820291E-01
       -1   -1    0    0    0  501  0.00000000000E+00  0.00000000000E+00  0.18535605388E+04  0.18535605388E+04  0.50400001928E-02 0. -1.
        1   -1    0    0  501    0  0.00000000000E+00  0.00000000000E+00 -0.34546223622E+03  0.34546223626E+03  0.50400001928E-02 0.  1.
    10030    2    1    2    0    0  0.00000000000E+00  0.00000000000E+00  0.15080983026E+04  0.21990227751E+04  0.16004189061E+04 0.  0.
        2    1    3    3  502    0  0.62041906628E+03  0.37956743230E+03  0.29555975229E+03  0.78507758894E+03  0.25500000920E-02 0.  1.
       -2    1    3    3    0  502 -0.62041906628E+03 -0.37956743230E+03  0.12125385503E+04  0.14139451862E+04  0.25500000920E-02 0. -1.
</event>
<event>
 5   0  0.1090674E-05  0.1600039E+04  0.7818609E-02  0.8820524E-01
        1   -1    0    0  501    0  0.00000000000E+00  0.00000000000E+00  0.12836699912E+04  0.12836699912E+04  0.50400001928E-02 0.  1.
       -1   -1    0    0    0  501  0.00000000000E+00  0.00000000000E+00 -0.49859450792E+03  0.49859450795E+03  0.50400001928E-02 0. -1.
    10030    2    1    2    0    0  0.00000000000E+00  0.00000000000E+00  0.78507548325E+03  0.17822644991E+04  0.16000385091E+04 0.  0.
        4    1    3    3  502    0  0.70231173325E+03 -0.33593619140E+03  0.59773009131E+03  0.98151809475E+03  0.12699999809E+01 0.  1.
       -4    1    3    3    0  502 -0.70231173325E+03  0.33593619140E+03  0.18734539194E+03  0.80074640439E+03  0.12699999809E+01 0. -1.
</event>
<event>
 5   0  0.1090674E-05  0.1598783E+04  0.7818609E-02  0.8821296E-01
       -1   -1    0    0    0  501  0.00000000000E+00  0.00000000000E+00  0.45916263679E+03  0.45916263681E+03  0.50400001928E-02 0. -1.
        1   -1    0    0  501    0  0.00000000000E+00  0.00000000000E+00 -0.13917215435E+04  0.13917215435E+04  0.50400001928E-02 0.  1.
    10030    2    1    2    0    0  0.00000000000E+00  0.00000000000E+00 -0.93255890672E+03  0.18508841803E+04  0.15987827040E+04 0.  0.
        4    1    3    3  502    0  0.59337386282E+03  0.75361445277E+02 -0.10802370945E+04  0.12347816332E+04  0.12699999809E+01 0.  1.
       -4    1    3    3    0  502 -0.59337386282E+03 -0.75361445277E+02  0.14767818777E+03  0.61610254711E+03  0.12699999809E+01 0. -1.
</event>
<event>
 5   0  0.2147844E-05  0.1600135E+04  0.7818609E-02  0.8820465E-01
        2   -1    0    0  501    0  0.00000000000E+00  0.00000000000E+00  0.24474562363E+04  0.24474562364E+04  0.25500000920E-02 0.  1.
       -2   -1    0    0    0  501  0.00000000000E+00  0.00000000000E+00 -0.26154015247E+03  0.26154015248E+03  0.25500000920E-02 0. -1.
    10030    2    1    2    0    0  0.00000000000E+00  0.00000000000E+00  0.21859160839E+04  0.27089963888E+04  0.16001350908E+04 0.  0.
        2    1    3    3  502    0  0.75446352670E+03  0.10761818069E+03  0.15052644648E+04  0.16871923409E+04  0.25500000920E-02 0.  1.
       -2    1    3    3    0  502 -0.75446352670E+03 -0.10761818069E+03  0.68065161905E+03  0.10218040480E+04  0.25500000920E-02 0. -1.
</event>
<event>
 5   0  0.1060251E-05  0.1600083E+04  0.7818609E-02  0.8820497E-01
       -1   -1    0    0    0  501  0.00000000000E+00  0.00000000000E+00  0.52128912530E+03  0.52128912533E+03  0.50400001928E-02 0. -1.
        1   -1    0    0  501    0  0.00000000000E+00  0.00000000000E+00 -0.12278528957E+04  0.12278528957E+04  0.50400001928E-02 0.  1.
    10030    2    1    2    0    0  0.00000000000E+00  0.00000000000E+00 -0.70656377040E+03  0.17491420210E+04  0.16000829504E+04 0.  0.
        1    1    3    3  502    0 -0.78465140476E+03  0.13673393556E+03 -0.43575814901E+03  0.90788719595E+03  0.50400001928E-02 0.  1.
       -1    1    3    3    0  502  0.78465140476E+03 -0.13673393556E+03 -0.27080562139E+03  0.84125482508E+03  0.50400001928E-02 0. -1.
</event>
<event>
 5   0  0.2147844E-05  0.1600043E+04  0.7818609E-02  0.8820522E-01
       -2   -1    0    0    0  501  0.00000000000E+00  0.00000000000E+00  0.71979831296E+03  0.71979831297E+03  0.25500000920E-02 0. -1.
        2   -1    0    0  501    0  0.00000000000E+00  0.00000000000E+00 -0.88918526876E+03  0.88918526876E+03  0.25500000920E-02 0.  1.
    10030    2    1    2    0    0  0.00000000000E+00  0.00000000000E+00 -0.16938695579E+03  0.16089835817E+04  0.16000425699E+04 0.  0.
        2    1    3    3  502    0 -0.11012952137E+02 -0.60942269379E+03 -0.60577511315E+03  0.85934905163E+03  0.25500000920E-02 0.  1.
       -2    1    3    3    0  502  0.11012952137E+02  0.60942269379E+03  0.43638815735E+03  0.74963453009E+03  0.25500000920E-02 0. -1.
</event>
<event>
 5   0  0.2147844E-05  0.1599432E+04  0.7818609E-02  0.8820897E-01
       -2   -1    0    0    0  501  0.00000000000E+00  0.00000000000E+00  0.48426904583E+03  0.48426904584E+03  0.25500000920E-02 0.  1.
        2   -1    0    0  501    0  0.00000000000E+00  0.00000000000E+00 -0.13206419273E+04  0.13206419273E+04  0.25500000920E-02 0. -1.
    10030    2    1    2    0    0  0.00000000000E+00  0.00000000000E+00 -0.83637288146E+03  0.18049109731E+04  0.15994324069E+04 0.  0.
        2    1    3    3  502    0 -0.12412366802E+02 -0.57659658174E+03  0.20699830946E+03  0.61275279278E+03  0.25500000920E-02 0.  1.
       -2    1    3    3    0  502  0.12412366802E+02  0.57659658174E+03 -0.10433711909E+04  0.11921581804E+04  0.25500000920E-02 0. -1.
</event>
<event>
 5   0  0.2147844E-05  0.1599849E+04  0.7818609E-02  0.8820641E-01
       -2   -1    0    0    0  501  0.00000000000E+00  0.00000000000E+00  0.87467843332E+03  0.87467843332E+03  0.25500000920E-02 0. -1.
        2   -1    0    0  501    0  0.00000000000E+00  0.00000000000E+00 -0.73155916102E+03  0.73155916102E+03  0.25500000920E-02 0.  1.
    10030    2    1    2    0    0  0.00000000000E+00  0.00000000000E+00  0.14311927230E+03  0.16062375943E+04  0.15998487689E+04 0.  0.
        2    1    3    3  502    0 -0.35351175798E+03 -0.71756776899E+03  0.73794442687E+02  0.80331792331E+03  0.25500000920E-02 0.  1.
       -2    1    3    3    0  502  0.35351175798E+03  0.71756776899E+03  0.69324829614E+02  0.80291967104E+03  0.25500000920E-02 0. -1.
</event>
<event>
 5   0  0.2046108E-05  0.1600317E+04  0.7818609E-02  0.8820353E-01
       -2   -1    0    0    0  501  0.00000000000E+00  0.00000000000E+00  0.44138004076E+03  0.44138004077E+03  0.25500000920E-02 0.  1.
        2   -1    0    0  501    0  0.00000000000E+00  0.00000000000E+00 -0.14505729239E+04  0.14505729239E+04  0.25500000920E-02 0. -1.
    10030    2    1    2    0    0  0.00000000000E+00  0.00000000000E+00 -0.10091928832E+04  0.18919529647E+04  0.16003173889E+04 0.  0.
        1    1    3    3  502    0 -0.19135019983E+03  0.38057736325E+03  0.29618845252E+03  0.51882716566E+03  0.50400001928E-02 0.  1.
       -1    1    3    3    0  502  0.19135019983E+03 -0.38057736325E+03 -0.13053813357E+04  0.13731257990E+04  0.50400001928E-02 0. -1.
</event>
<event>
 5   0  0.1126485E-05  0.1600028E+04  0.7818609E-02  0.8820531E-01
        1   -1    0    0  501    0  0.00000000000E+00  0.00000000000E+00  0.11479936535E+04  0.11479936535E+04  0.50400001928E-02 0. -1.
       -1   -1    0    0    0  501  0.00000000000E+00  0.00000000000E+00 -0.55751421103E+03  0.55751421105E+03  0.50400001928E-02 0.  1.
    10030    2    1    2    0    0  0.00000000000E+00  0.00000000000E+00  0.59047944245E+03  0.17055078645E+04  0.16000284698E+04 0.  0.
        2    1    3    3  502    0 -0.63497965570E+03 -0.15295733234E+03 -0.19719807041E+03  0.68226255038E+03  0.25500000920E-02 0.  1.
       -2    1    3    3    0  502  0.63497965570E+03  0.15295733234E+03  0.78767751286E+03  0.10232453142E+04  0.25500000920E-02 0. -1.
</event>
<event>
 5   0  0.1990948E-05  0.1598014E+04  0.7818609E-02  0.8821769E-01
        2   -1    0    0  501    0  0.00000000000E+00  0.00000000000E+00  0.10301979301E+04  0.10301979301E+04  0.25500000920E-02 0.  1.
       -2   -1    0    0    0  501  0.00000000000E+00  0.00000000000E+00 -0.61969883583E+03  0.61969883583E+03  0.25500000920E-02 0. -1.
    10030    2    1    2    0    0  0.00000000000E+00  0.00000000000E+00  0.41049909428E+03  0.16498967659E+04  0.15980143403E+04 0.  0.
        4    1    3    3  502    0 -0.70755024003E+03  0.99394713174E+01 -0.17785645466E+03  0.72963050006E+03  0.12699999809E+01 0. -1.
       -4    1    3    3    0  502  0.70755024003E+03 -0.99394713174E+01  0.58835554894E+03  0.92026626588E+03  0.12699999809E+01 0.  1.
</event>
<event>
 5   0  0.1994525E-05  0.1598846E+04  0.7818609E-02  0.8821257E-01
        2   -1    0    0  501    0  0.00000000000E+00  0.00000000000E+00  0.63637845328E+03  0.63637845329E+03  0.25500000920E-02 0. -1.
       -2   -1    0    0    0  501  0.00000000000E+00  0.00000000000E+00 -0.10042411536E+04  0.10042411536E+04  0.25500000920E-02 0.  1.
    10030    2    1    2    0    0  0.00000000000E+00  0.00000000000E+00 -0.36786270036E+03  0.16406196069E+04  0.15988463742E+04 0.  0.
        5    1    3    3  502    0  0.16622294781E+03  0.53872731821E+03  0.39761947849E+03  0.68991342315E+03  0.46999998093E+01 0. -1.
       -5    1    3    3    0  502 -0.16622294781E+03 -0.53872731821E+03 -0.76548217885E+03  0.95070618379E+03  0.46999998093E+01 0.  1.
</event>
<event>
 5   0  0.1081831E-05  0.1600621E+04  0.7818609E-02  0.8820167E-01
       -1   -1    0    0    0  501  0.00000000000E+00  0.00000000000E+00  0.14587803424E+04  0.14587803425E+04  0.50400001928E-02 0. -1.
        1   -1    0    0  501    0  0.00000000000E+00  0.00000000000E+00 -0.43906322227E+03  0.43906322230E+03  0.50400001928E-02 0.  1.
    10030    2    1    2    0    0  0.00000000000E+00  0.00000000000E+00  0.10197171202E+04  0.18978435648E+04  0.16006208767E+04 0.  0.
        3    1    3    3  502    0  0.63609174745E+03 -0.19123049311E+03  0.10392073190E+04  0.12333424807E+04  0.10100000352E+00 0. -1.
       -3    1    3    3    0  502 -0.63609174745E+03  0.19123049311E+03 -0.19490198781E+02  0.66450108407E+03  0.10100000352E+00 0.  1.
</event>
<event>
 5   0  0.1994525E-05  0.1601899E+04  0.7818609E-02  0.8819382E-01
       -2   -1    0    0    0  501  0.00000000000E+00  0.00000000000E+00  0.89572580630E+03  0.89572580630E+03  0.25500000920E-02 0. -1.
        2   -1    0    0  501    0  0.00000000000E+00  0.00000000000E+00 -0.71620162261E+03  0.71620162262E+03  0.25500000920E-02 0.  1.
    10030    2    1    2    0    0  0.00000000000E+00  0.00000000000E+00  0.17952418368E+03  0.16119274289E+04  0.16018992177E+04 0.  0.
        5    1    3    3  502    0  0.15373152570E+02 -0.51400128918E+03  0.70766200569E+03  0.87478069445E+03  0.46999998093E+01 0. -1.
       -5    1    3    3    0  502 -0.15373152570E+02  0.51400128918E+03 -0.52813782200E+03  0.73714673446E+03  0.46999998093E+01 0.  1.
</event>
<event>
 5   0  0.1057506E-05  0.1599760E+04  0.7818609E-02  0.8820695E-01
       -1   -1    0    0    0  501  0.00000000000E+00  0.00000000000E+00  0.66202342693E+03  0.66202342695E+03  0.50400001928E-02 0.  1.
        1   -1    0    0  501    0  0.00000000000E+00  0.00000000000E+00 -0.96644369779E+03  0.96644369780E+03  0.50400001928E-02 0. -1.
    10030    2    1    2    0    0  0.00000000000E+00  0.00000000000E+00 -0.30442027086E+03  0.16284671248E+04  0.15997604430E+04 0.  0.
        5    1    3    3  502    0  0.43391869472E+03  0.36385865103E+03 -0.72724304718E+03  0.92172831746E+03  0.46999998093E+01 0. -1.
       -5    1    3    3    0  502 -0.43391869472E+03 -0.36385865103E+03  0.42282277632E+03  0.70673880729E+03  0.46999998093E+01 0.  1.
</event>
<event>
 5   0  0.1994525E-05  0.1600166E+04  0.7818609E-02  0.8820446E-01
       -2   -1    0    0    0  501  0.00000000000E+00  0.00000000000E+00  0.21493822896E+03  0.21493822897E+03  0.25500000920E-02 0.  1.
        2   -1    0    0  501    0  0.00000000000E+00  0.00000000000E+00 -0.29782158286E+04  0.29782158286E+04  0.25500000920E-02 0. -1.
    10030    2    1    2    0    0  0.00000000000E+00  0.00000000000E+00 -0.27632775996E+04  0.31931540576E+04  0.16001655360E+04 0.  0.
        5    1    3    3  502    0 -0.16530741688E+03  0.29815289109E+03  0.62717890441E+02  0.34666599533E+03  0.46999998093E+01 0.  1.
       -5    1    3    3    0  502  0.16530741688E+03 -0.29815289109E+03 -0.28259954901E+04  0.28464880622E+04  0.46999998093E+01 0. -1.
</event>
<event>
 5   0  0.2147844E-05  0.1599699E+04  0.7818609E-02  0.8820733E-01
        2   -1    0    0  501    0  0.00000000000E+00  0.00000000000E+00  0.62325428579E+03  0.62325428579E+03  0.25500000920E-02 0. -1.
       -2   -1    0    0    0  501  0.00000000000E+00  0.00000000000E+00 -0.10264818866E+04  0.10264818866E+04  0.25500000920E-02 0.  1.
    10030    2    1    2    0    0  0.00000000000E+00  0.00000000000E+00 -0.40322760076E+03  0.16497361723E+04  0.15996990155E+04 0.  0.
        2    1    3    3  502    0  0.51027525989E+03 -0.27628813297E+03  0.36609880236E+03  0.68610808651E+03  0.25500000920E-02 0. -1.
       -2    1    3    3    0  502 -0.51027525989E+03  0.27628813297E+03 -0.76932640312E+03  0.96362808584E+03  0.25500000920E-02 0.  1.
</event>
<event>
 5   0  0.1060251E-05  0.1600011E+04  0.7818609E-02  0.8820542E-01
       -1   -1    0    0    0  501  0.00000000000E+00  0.00000000000E+00  0.61058443805E+03  0.61058443807E+03  0.50400001928E-02 0. -1.
        1   -1    0    0  501    0  0.00000000000E+00  0.00000000000E+00 -0.10481898923E+04  0.10481898923E+04  0.50400001928E-02 0.  1.
    10030    2    1    2    0    0  0.00000000000E+00  0.00000000000E+00 -0.43760545420E+03  0.16587743303E+04  0.16000105454E+04 0.  0.
        1    1    3    3  502    0  0.46547343769E+03 -0.40301897191E+03 -0.74836495457E+03  0.96909231664E+03  0.50400001928E-02 0.  1.
       -1    1    3    3    0  502 -0.46547343769E+03  0.40301897191E+03  0.31075950037E+03  0.68968201370E+03  0.50400001928E-02 0. -1.
</event>
<event>
 5   0  0.1081831E-05  0.1599562E+04  0.7818609E-02  0.8820817E-01
        1   -1    0    0  501    0  0.00000000000E+00  0.00000000000E+00  0.69729465942E+03  0.69729465944E+03  0.50400001928E-02 0.  1.
       -1   -1    0    0    0  501  0.00000000000E+00  0.00000000000E+00 -0.91733097770E+03  0.91733097771E+03  0.50400001928E-02 0. -1.
    10030    2    1    2    0    0  0.00000000000E+00  0.00000000000E+00 -0.22003631827E+03  0.16146256372E+04  0.15995624298E+04 0.  0.
        3    1    3    3  502    0  0.25665942738E+03  0.54372701321E+03 -0.64237142016E+03  0.87986031744E+03  0.10100000352E+00 0. -1.
       -3    1    3    3    0  502 -0.25665942738E+03 -0.54372701321E+03  0.42233510189E+03  0.73476531971E+03  0.10100000352E+00 0.  1.
</event>
<event>
 5   0  0.1990948E-05  0.1599861E+04  0.7818609E-02  0.8820634E-01
        2   -1    0    0  501    0  0.00000000000E+00  0.00000000000E+00  0.11014533037E+04  0.11014533037E+04  0.25500000920E-02 0.  1.
       -2   -1    0    0    0  501  0.00000000000E+00  0.00000000000E+00 -0.58094930657E+03  0.58094930658E+03  0.25500000920E-02 0. -1.
    10030    2    1    2    0    0  0.00000000000E+00  0.00000000000E+00  0.52050399712E+03  0.16824026103E+04  0.15998606602E+04 0.  0.
        4    1    3    3  502    0 -0.18748012492E+03  0.49287696719E+03 -0.37228845844E+03  0.64550508225E+03  0.12699999809E+01 0. -1.
       -4    1    3    3    0  502  0.18748012492E+03 -0.49287696719E+03  0.89279245556E+03  0.10368975280E+04  0.12699999809E+01 0.  1.
</event>
<event>
 5   0  0.1990948E-05  0.1600113E+04  0.7818609E-02  0.8820479E-01
       -2   -1    0    0    0  501  0.00000000000E+00  0.00000000000E+00  0.72803714537E+03  0.72803714537E+03  0.25500000920E-02 0.  1.
        2   -1    0    0  501    0  0.00000000000E+00  0.00000000000E+00 -0.87920003579E+03  0.87920003580E+03  0.25500000920E-02 0. -1.
    10030    2    1    2    0    0  0.00000000000E+00  0.00000000000E+00 -0.15116289043E+03  0.16072371812E+04  0.16001128514E+04 0.  0.
        4    1    3    3  502    0 -0.48177923328E+03 -0.62235288020E+03 -0.21993748453E+03  0.81719547669E+03  0.12699999809E+01 0. -1.
       -4    1    3    3    0  502  0.48177923328E+03  0.62235288020E+03  0.68774594100E+02  0.79004170448E+03  0.12699999809E+01 0.  1.
</event>
<event>
 5   0  0.2046108E-05  0.1600086E+04  0.7818609E-02  0.8820495E-01
        2   -1    0    0  501    0  0.00000000000E+00  0.00000000000E+00  0.13002070478E+04  0.13002070478E+04  0.25500000920E-02 0. -1.
       -2   -1    0    0    0  501  0.00000000000E+00  0.00000000000E+00 -0.49228191992E+03  0.49228191993E+03  0.25500000920E-02 0.  1.
    10030    2    1    2    0    0  0.00000000000E+00  0.00000000000E+00  0.80792512783E+03  0.17924889677E+04  0.16000855249E+04 0.  0.
        1    1    3    3  502    0 -0.71719618476E+03 -0.62990303673E+02  0.13110330244E+02  0.72007640329E+03  0.50400001928E-02 0.  1.
       -1    1    3    3    0  502  0.71719618476E+03  0.62990303673E+02  0.79481479759E+03  0.10724125644E+04  0.50400001928E-02 0. -1.
</event>
<event>
 5   0  0.7597000E-06  0.1599012E+04  0.7818609E-02  0.8821155E-01
        4   -1    0    0  501    0  0.00000000000E+00  0.00000000000E+00  0.88844249725E+03  0.88844340496E+03  0.12699999809E+01 0. -1.
       -4   -1    0    0    0  501  0.00000000000E+00  0.00000000000E+00 -0.71947023925E+03  0.71947136014E+03  0.12699999809E+01 0.  1.
    10030    2    1    2    0    0  0.00000000000E+00  0.00000000000E+00  0.16897225800E+03  0.16079147651E+04  0.15990116534E+04 0.  0.
        2    1    3    3  502    0  0.16071359808E+03 -0.86006575264E+02  0.86726991419E+03  0.88621842436E+03  0.25500000920E-02 0. -1.
       -2    1    3    3    0  502 -0.16071359808E+03  0.86006575264E+02 -0.69829765619E+03  0.72169634075E+03  0.25500000920E-02 0.  1.
</event>
<event>
 5   0  0.1081831E-05  0.1600322E+04  0.7818609E-02  0.8820350E-01
       -1   -1    0    0    0  501  0.00000000000E+00  0.00000000000E+00  0.93537231469E+03  0.93537231470E+03  0.50400001928E-02 0. -1.
        1   -1    0    0  501    0  0.00000000000E+00  0.00000000000E+00 -0.68449487337E+03  0.68449487339E+03  0.50400001928E-02 0.  1.
    10030    2    1    2    0    0  0.00000000000E+00  0.00000000000E+00  0.25087744131E+03  0.16198671881E+04  0.16003219103E+04 0.  0.
        3    1    3    3  502    0 -0.62156758454E+03  0.39283760621E+03 -0.19399421930E+03  0.76046131679E+03  0.10100000352E+00 0. -1.
       -3    1    3    3    0  502  0.62156758454E+03 -0.39283760621E+03  0.44487166061E+03  0.85940587130E+03  0.10100000352E+00 0.  1.
</event>
<event>
 5   0  0.1060251E-05  0.1601066E+04  0.7818609E-02  0.8819893E-01
       -1   -1    0    0    0  501  0.00000000000E+00  0.00000000000E+00  0.60629076781E+03  0.60629076783E+03  0.50400001928E-02 0.  1.
        1   -1    0    0  501    0  0.00000000000E+00  0.00000000000E+00 -0.10570066280E+04  0.10570066280E+04  0.50400001928E-02 0. -1.
    10030    2    1    2    0    0  0.00000000000E+00  0.00000000000E+00 -0.45071586018E+03  0.16632973958E+04  0.16010663448E+04 0.  0.
        1    1    3    3  502    0 -0.47441225162E+03 -0.62022044822E+03 -0.40860258790E+03  0.88130384304E+03  0.50400001928E-02 0. -1.
       -1    1    3    3    0  502  0.47441225162E+03  0.62022044822E+03 -0.42113272273E+02  0.78199355279E+03  0.50400001928E-02 0.  1.
</event>
<event>
 5   0  0.2147844E-05  0.1599885E+04  0.7818609E-02  0.8820619E-01
       -2   -1    0    0    0  501  0.00000000000E+00  0.00000000000E+00  0.63450555339E+03  0.63450555340E+03  0.25500000920E-02 0.  1.
        2   -1    0    0  501    0  0.00000000000E+00  0.00000000000E+00 -0.10085141032E+04  0.10085141032E+04  0.25500000920E-02 0. -1.
    10030    2    1    2    0    0  0.00000000000E+00  0.00000000000E+00 -0.37400854980E+03  0.16430196566E+04  0.15998847448E+04 0.  0.
        2    1    3    3  502    0  0.40337212780E+03 -0.48241737015E+03  0.32076779432E+03  0.70592320432E+03  0.25500000920E-02 0.  1.
       -2    1    3    3    0  502 -0.40337212780E+03  0.48241737015E+03 -0.69477634412E+03  0.93709645227E+03  0.25500000920E-02 0. -1.
</event>
<event>
 5   0  0.1057506E-05  0.1600598E+04  0.7818609E-02  0.8820181E-01
        1   -1    0    0  501    0  0.00000000000E+00  0.00000000000E+00  0.20624007070E+04  0.20624007070E+04  0.50400001928E-02 0.  1.
       -1   -1    0    0    0  501  0.00000000000E+00  0.00000000000E+00 -0.31055003644E+03  0.31055003648E+03  0.50400001928E-02 0. -1.
    10030    2    1    2    0    0  0.00000000000E+00  0.00000000000E+00  0.17518506705E+04  0.23729507435E+04  0.16005981567E+04 0.  0.
        5    1    3    3  502    0 -0.68295873598E+03 -0.20478541990E+03  0.33711470442E+03  0.78869393125E+03  0.46999998093E+01 0. -1.
       -5    1    3    3    0  502  0.68295873598E+03  0.20478541990E+03  0.14147359661E+04  0.15842568122E+04  0.46999998093E+01 0.  1.
</event>
<event>
 5   0  0.1081831E-05  0.1600547E+04  0.7818609E-02  0.8820212E-01
        1   -1    0    0  501    0  0.00000000000E+00  0.00000000000E+00  0.86582723198E+03  0.86582723200E+03  0.50400001928E-02 0.  1.
       -1   -1    0    0    0  501  0.00000000000E+00  0.00000000000E+00 -0.73968290260E+03  0.73968290261E+03  0.50400001928E-02 0. -1.
    10030    2    1    2    0    0  0.00000000000E+00  0.00000000000E+00  0.12614432939E+03  0.16055101346E+04  0.16005469067E+04 0.  0.
        3    1    3    3  502    0  0.61218030639E+03 -0.31271719689E+03 -0.34793101541E+03  0.77046270153E+03  0.10100000352E+00 0. -1.
       -3    1    3    3    0  502 -0.61218030639E+03  0.31271719689E+03  0.47407534480E+03  0.83504743309E+03  0.10100000352E+00 0.  1.
</event>
<event>
 5   0  0.1126485E-05  0.1600805E+04  0.7818609E-02  0.8820054E-01
        1   -1    0    0  501    0  0.00000000000E+00  0.00000000000E+00  0.96651621782E+03  0.96651621783E+03  0.50400001928E-02 0. -1.
       -1   -1    0    0    0  501  0.00000000000E+00  0.00000000000E+00 -0.66283859175E+03  0.66283859177E+03  0.50400001928E-02 0.  1.
    10030    2    1    2    0    0  0.00000000000E+00  0.00000000000E+00  0.30367762607E+03  0.16293548096E+04  0.16008051084E+04 0.  0.
        2    1    3    3  502    0 -0.29681651624E+03  0.17843157332E+03 -0.58263049811E+03  0.67778770128E+03  0.25500000920E-02 0.  1.
       -2    1    3    3    0  502  0.29681651624E+03 -0.17843157332E+03  0.88630812417E+03  0.95156710833E+03  0.25500000920E-02 0. -1.
</event>
<event>
 5   0  0.2147844E-05  0.1600805E+04  0.7818609E-02  0.8820054E-01
        2   -1    0    0  501    0  0.00000000000E+00  0.00000000000E+00  0.24654634930E+04  0.24654634930E+04  0.25500000920E-02 0. -1.
       -2   -1    0    0    0  501  0.00000000000E+00  0.00000000000E+00 -0.25984739284E+03  0.25984739286E+03  0.25500000920E-02 0.  1.
    10030    2    1    2    0    0  0.00000000000E+00  0.00000000000E+00  0.22056161002E+04  0.27253108859E+04  0.16008051235E+04 0.  0.
        2    1    3    3  502    0  0.29062695621E+03 -0.73095377955E+03  0.13546736022E+04  0.15664922674E+04  0.25500000920E-02 0.  1.
       -2    1    3    3    0  502 -0.29062695621E+03  0.73095377955E+03  0.85094249802E+03  0.11588186184E+04  0.25500000920E-02 0. -1.
</event>
<event>
 5   0  0.2125803E-05  0.1599764E+04  0.7818609E-02  0.8820693E-01
       -2   -1    0    0    0  501  0.00000000000E+00  0.00000000000E+00  0.69459313557E+03  0.69459313557E+03  0.25500000920E-02 0.  1.
        2   -1    0    0  501    0  0.00000000000E+00  0.00000000000E+00 -0.92113121496E+03  0.92113121497E+03  0.25500000920E-02 0. -1.
    10030    2    1    2    0    0  0.00000000000E+00  0.00000000000E+00 -0.22653807939E+03  0.16157243505E+04  0.15997642562E+04 0.  0.
        3    1    3    3  502    0  0.45803050710E+03 -0.81336132376E+02 -0.77045565025E+03  0.90000523947E+03  0.10100000352E+00 0. -1.
       -3    1    3    3    0  502 -0.45803050710E+03  0.81336132376E+02  0.54391757086E+03  0.71571911107E+03  0.10100000352E+00 0.  1.
</event>
<event>
 5   0  0.1057506E-05  0.1588960E+04  0.7818609E-02  0.8827359E-01
        1   -1    0    0  501    0  0.00000000000E+00  0.00000000000E+00  0.10647496110E+04  0.10647496110E+04  0.50400001928E-02 0. -1.
       -1   -1    0    0    0  501  0.00000000000E+00  0.00000000000E+00 -0.59281373122E+03  0.59281373125E+03  0.50400001928E-02 0.  1.
    10030    2    1    2    0    0  0.00000000000E+00  0.00000000000E+00  0.47193587976E+03  0.16575633422E+04  0.15889596467E+04 0.  0.
        5    1    3    3  502    0  0.16143790347E+03  0.51859533849E+03 -0.36886931974E+03  0.65657443357E+03  0.46999998093E+01 0.  1.
       -5    1    3    3    0  502 -0.16143790347E+03 -0.51859533849E+03  0.84080519950E+03  0.10009889087E+04  0.46999998093E+01 0. -1.
</event>
<event>
 5   0  0.1060251E-05  0.1600233E+04  0.7818609E-02  0.8820405E-01
       -1   -1    0    0    0  501  0.00000000000E+00  0.00000000000E+00  0.93418374093E+03  0.93418374095E+03  0.50400001928E-02 0.  1.
        1   -1    0    0  501    0  0.00000000000E+00  0.00000000000E+00 -0.68528989404E+03  0.68528989406E+03  0.50400001928E-02 0. -1.
    10030    2    1    2    0    0  0.00000000000E+00  0.00000000000E+00  0.24889384689E+03  0.16194736350E+04  0.16002333291E+04 0.  0.
        1    1    3    3  502    0 -0.58469235863E+02  0.79295478401E+03  0.21491262526E+03  0.82364032050E+03  0.50400001928E-02 0.  1.
       -1    1    3    3    0  502  0.58469235863E+02 -0.79295478401E+03  0.33981221635E+02  0.79583331451E+03  0.50400001928E-02 0. -1.
</event>
<event>
 5   0  0.1081831E-05  0.1598782E+04  0.7818609E-02  0.8821297E-01
       -1   -1    0    0    0  501  0.00000000000E+00  0.00000000000E+00  0.35112220953E+03  0.35112220957E+03  0.50400001928E-02 0.  1.
        1   -1    0    0  501    0  0.00000000000E+00  0.00000000000E+00 -0.18199534569E+04  0.18199534570E+04  0.50400001928E-02 0. -1.
    10030    2    1    2    0    0  0.00000000000E+00  0.00000000000E+00 -0.14688312474E+04  0.21710756665E+04  0.15987821354E+04 0.  0.
        3    1    3    3  502    0 -0.58326505774E+03  0.49505462060E+03 -0.10492414251E+04  0.12985317799E+04  0.10100000352E+00 0. -1.
       -3    1    3    3    0  502  0.58326505774E+03 -0.49505462060E+03 -0.41958982230E+03  0.87254388665E+03  0.10100000352E+00 0.  1.
</event>
<event>
 5   0  0.1994525E-05  0.1599690E+04  0.7818609E-02  0.8820738E-01
       -2   -1    0    0    0  501  0.00000000000E+00  0.00000000000E+00  0.10851281011E+04  0.10851281011E+04  0.25500000920E-02 0. -1.
        2   -1    0    0  501    0  0.00000000000E+00  0.00000000000E+00 -0.58956395157E+03  0.58956395158E+03  0.25500000920E-02 0.  1.
    10030    2    1    2    0    0  0.00000000000E+00  0.00000000000E+00  0.49556414950E+03  0.16746920527E+04  0.15996904841E+04 0.  0.
        5    1    3    3  502    0 -0.10260882725E+03  0.59899000576E+03  0.79217510771E+03  0.99843932700E+03  0.46999998093E+01 0. -1.
       -5    1    3    3    0  502  0.10260882725E+03 -0.59899000576E+03 -0.29661095820E+03  0.67625272566E+03  0.46999998093E+01 0.  1.
</event>
<event>
 5   0  0.7597000E-06  0.1599742E+04  0.7818609E-02  0.8820706E-01
        3   -1    0    0  501    0  0.00000000000E+00  0.00000000000E+00  0.10790201601E+04  0.10790201648E+04  0.10100000352E+00 0.  1.
       -3   -1    0    0    0  501  0.00000000000E+00  0.00000000000E+00 -0.59293975927E+03  0.59293976787E+03  0.10100000352E+00 0. -1.
    10030    2    1    2    0    0  0.00000000000E+00  0.00000000000E+00  0.48608040080E+03  0.16719599327E+04  0.15997424357E+04 0.  0.
        1    1    3    3  502    0  0.37433997667E+03 -0.67913932740E+03  0.44793444367E+03  0.89554782675E+03  0.50400001928E-02 0.  1.
       -1    1    3    3    0  502 -0.37433997667E+03  0.67913932740E+03  0.38145957130E+02  0.77641210592E+03  0.50400001928E-02 0. -1.
</event>
<event>
 5   0  0.2147844E-05  0.1600695E+04  0.7818609E-02  0.8820121E-01
        2   -1    0    0  501    0  0.00000000000E+00  0.00000000000E+00  0.16805892120E+04  0.16805892120E+04  0.25500000920E-02 0. -1.
       -2   -1    0    0    0  501  0.00000000000E+00  0.00000000000E+00 -0.38114984515E+03  0.38114984516E+03  0.25500000920E-02 0.  1.
    10030    2    1    2    0    0  0.00000000000E+00  0.00000000000E+00  0.12994393669E+04  0.20617390572E+04  0.16006952464E+04 0.  0.
        2    1    3    3  502    0  0.15713831134E+03  0.77381258752E+03  0.48139690480E+03  0.92478178478E+03  0.25500000920E-02 0.  1.
       -2    1    3    3    0  502 -0.15713831134E+03 -0.77381258752E+03  0.81804246206E+03  0.11369572724E+04  0.25500000920E-02 0. -1.
</event>
<event>
 5   0  0.2147844E-05  0.1600062E+04  0.7818609E-02  0.8820510E-01
       -2   -1    0    0    0  501  0.00000000000E+00  0.00000000000E+00  0.26612512664E+03  0.26612512666E+03  0.25500000920E-02 0. -1.
        2   -1    0    0  501    0  0.00000000000E+00  0.00000000000E+00 -0.24050694232E+04  0.24050694232E+04  0.25500000920E-02 0.  1.
    10030    2    1    2    0    0  0.00000000000E+00  0.00000000000E+00 -0.21389442965E+04  0.26711945498E+04  0.16000617549E+04 0.  0.
        2    1    3    3  502    0  0.35895609092E+03  0.70659056370E+03 -0.88713144478E+03  0.11895889627E+04  0.25500000920E-02 0. -1.
       -2    1    3    3    0  502 -0.35895609092E+03 -0.70659056370E+03 -0.12518128518E+04  0.14816055871E+04  0.25500000920E-02 0.  1.
</event>
<event>
 5   0  0.1994525E-05  0.1600224E+04  0.7818609E-02  0.8820410E-01
       -2   -1    0    0    0  501  0.00000000000E+00  0.00000000000E+00  0.75760130415E+03  0.75760130415E+03  0.25500000920E-02 0.  1.
        2   -1    0    0  501    0  0.00000000000E+00  0.00000000000E+00 -0.84500806791E+03  0.84500806791E+03  0.25500000920E-02 0. -1.
    10030    2    1    2    0    0  0.00000000000E+00  0.00000000000E+00 -0.87406763757E+02  0.16026093721E+04  0.16002240022E+04 0.  0.
        5    1    3    3  502    0  0.28833351420E+03  0.46891106496E+03 -0.62520935335E+03  0.83302018449E+03  0.46999998093E+01 0. -1.
       -5    1    3    3    0  502 -0.28833351420E+03 -0.46891106496E+03  0.53780258959E+03  0.76958918757E+03  0.46999998093E+01 0.  1.
</event>
<event>
 5   0  0.2046108E-05  0.1599481E+04  0.7818609E-02  0.8820867E-01
       -2   -1    0    0    0  501  0.00000000000E+00  0.00000000000E+00  0.70659867359E+03  0.70659867360E+03  0.25500000920E-02 0. -1.
        2   -1    0    0  501    0  0.00000000000E+00  0.00000000000E+00 -0.90515960472E+03  0.90515960473E+03  0.25500000920E-02 0.  1.
    10030    2    1    2    0    0  0.00000000000E+00  0.00000000000E+00 -0.19856093113E+03  0.16117582783E+04  0.15994806358E+04 0.  0.
        1    1    3    3  502    0  0.44860531370E+02  0.75904162516E+03  0.15046857476E+03  0.77511124880E+03  0.50400001928E-02 0. -1.
       -1    1    3    3    0  502 -0.44860531370E+02 -0.75904162516E+03 -0.34902950589E+03  0.83664702952E+03  0.50400001928E-02 0.  1.
</event>
<event>
 5   0  0.2147844E-05  0.1599857E+04  0.7818609E-02  0.8820636E-01
       -2   -1    0    0    0  501  0.00000000000E+00  0.00000000000E+00  0.51795661417E+03  0.51795661418E+03  0.25500000920E-02 0. -1.
        2   -1    0    0  501    0  0.00000000000E+00  0.00000000000E+00 -0.12354034204E+04  0.12354034204E+04  0.25500000920E-02 0.  1.
    10030    2    1    2    0    0  0.00000000000E+00  0.00000000000E+00 -0.71744680624E+03  0.17533600346E+04  0.15998567096E+04 0.  0.
        2    1    3    3  502    0  0.78854809290E+03 -0.10098088015E+03 -0.26143591792E+03  0.83687153862E+03  0.25500000920E-02 0. -1.
       -2    1    3    3    0  502 -0.78854809290E+03  0.10098088015E+03 -0.45601088832E+03  0.91648849597E+03  0.25500000920E-02 0.  1.
</event>
<event>
 5   0  0.2046108E-05  0.1603441E+04  0.7818609E-02  0.8818437E-01
       -2   -1    0    0    0  501  0.00000000000E+00  0.00000000000E+00  0.68309989881E+03  0.68309989881E+03  0.25500000920E-02 0.  1.
        2   -1    0    0  501    0  0.00000000000E+00  0.00000000000E+00 -0.94093996560E+03  0.94093996560E+03  0.25500000920E-02 0. -1.
    10030    2    1    2    0    0  0.00000000000E+00  0.00000000000E+00 -0.25784006679E+03  0.16240398644E+04  0.16034412933E+04 0.  0.
        1    1    3    3  502    0 -0.28102832556E+03  0.15693309534E+03  0.61478181527E+03  0.69394639317E+03  0.50400001928E-02 0.  1.
       -1    1    3    3    0  502  0.28102832556E+03 -0.15693309534E+03 -0.87262188206E+03  0.93009347124E+03  0.50400001928E-02 0. -1.
</event>
<event>
 5   0  0.1090674E-05  0.1600048E+04  0.7818609E-02  0.8820519E-01
       -1   -1    0    0    0  501  0.00000000000E+00  0.00000000000E+00  0.50426822016E+03  0.50426822018E+03  0.50400001928E-02 0. -1.
        1   -1    0    0  501    0  0.00000000000E+00  0.00000000000E+00 -0.12692417944E+04  0.12692417944E+04  0.50400001928E-02 0.  1.
    10030    2    1    2    0    0  0.00000000000E+00  0.00000000000E+00 -0.76497357425E+03  0.17735100146E+04  0.16000478751E+04 0.  0.
        4    1    3    3  502    0  0.31444426244E+03  0.65648154368E+03 -0.75042814770E+03  0.10454602953E+04  0.12699999809E+01 0.  1.
       -4    1    3    3    0  502 -0.31444426244E+03 -0.65648154368E+03 -0.14545426554E+02  0.72804971926E+03  0.12699999809E+01 0. -1.
</event>
<event>
 5   0  0.1090674E-05  0.1600265E+04  0.7818609E-02  0.8820385E-01
        1   -1    0    0  501    0  0.00000000000E+00  0.00000000000E+00  0.74413051727E+03  0.74413051729E+03  0.50400001928E-02 0. -1.
       -1   -1    0    0    0  501  0.00000000000E+00  0.00000000000E+00 -0.86034862041E+03  0.86034862042E+03  0.50400001928E-02 0.  1.
    10030    2    1    2    0    0  0.00000000000E+00  0.00000000000E+00 -0.11621810314E+03  0.16044791377E+04  0.16002645581E+04 0.  0.
        4    1    3    3  502    0  0.77705014851E+03 -0.16787797457E+03 -0.14901261929E+03  0.80882403603E+03  0.12699999809E+01 0.  1.
       -4    1    3    3    0  502 -0.77705014851E+03  0.16787797457E+03  0.32794516155E+02  0.79565510169E+03  0.12699999809E+01 0. -1.
</event>
<event>
 5   0  0.1090674E-05  0.1600047E+04  0.7818609E-02  0.8820519E-01
       -1   -1    0    0    0  501  0.00000000000E+00  0.00000000000E+00  0.42380580006E+03  0.42380580009E+03  0.50400001928E-02 0.  1.
        1   -1    0    0  501    0  0.00000000000E+00  0.00000000000E+00 -0.15102141455E+04  0.15102141455E+04  0.50400001928E-02 0. -1.
    10030    2    1    2    0    0  0.00000000000E+00  0.00000000000E+00 -0.10864083455E+04  0.19340199456E+04  0.16000468921E+04 0.  0.
        4    1    3    3  502    0 -0.12898256340E+01  0.57532640552E+03  0.12873692487E+03  0.58955656663E+03  0.12699999809E+01 0.  1.
       -4    1    3    3    0  502  0.12898256340E+01 -0.57532640552E+03 -0.12151452703E+04  0.13444633790E+04  0.12699999809E+01 0. -1.
</event>
<event>
 5   0  0.1990948E-05  0.1600077E+04  0.7818609E-02  0.8820500E-01
       -2   -1    0    0    0  501  0.00000000000E+00  0.00000000000E+00  0.68102895238E+03  0.68102895238E+03  0.25500000920E-02 0. -1.
        2   -1    0    0  501    0  0.00000000000E+00  0.00000000000E+00 -0.93984532978E+03  0.93984532978E+03  0.25500000920E-02 0.  1.
    10030    2    1    2    0    0  0.00000000000E+00  0.00000000000E+00 -0.25881637740E+03  0.16208742822E+04  0.16000773486E+04 0.  0.
        4    1    3    3  502    0 -0.23876591657E+03 -0.47486111613E+03  0.47632534790E+03  0.71371541421E+03  0.12699999809E+01 0. -1.
       -4    1    3    3    0  502  0.23876591657E+03  0.47486111613E+03 -0.73514172530E+03  0.90715886795E+03  0.12699999809E+01 0.  1.
</event>
<event>
 5   0  0.1057506E-05  0.1600064E+04  0.7818609E-02  0.8820509E-01
        1   -1    0    0  501    0  0.00000000000E+00  0.00000000000E+00  0.23874438165E+04  0.23874438165E+04  0.50400001928E-02 0.  1.
       -1   -1    0    0    0  501  0.00000000000E+00  0.00000000000E+00 -0.26809067342E+03  0.26809067347E+03  0.50400001928E-02 0. -1.
    10030    2    1    2    0    0  0.00000000000E+00  0.00000000000E+00  0.21193531431E+04  0.26555344900E+04  0.16000642745E+04 0.  0.
        5    1    3    3  502    0  0.46621221906E+03 -0.51231203344E+03  0.17239729322E+04  0.18579349326E+04  0.46999998093E+01 0.  1.
       -5    1    3    3    0  502 -0.46621221906E+03  0.51231203344E+03  0.39538021094E+03  0.79759955743E+03  0.46999998093E+01 0. -1.
</event>
<event>
 5   0  0.1126485E-05  0.1600467E+04  0.7818609E-02  0.8820261E-01
        1   -1    0    0  501    0  0.00000000000E+00  0.00000000000E+00  0.66216042834E+03  0.66216042836E+03  0.50400001928E-02 0.  1.
       -1   -1    0    0    0  501  0.00000000000E+00  0.00000000000E+00 -0.96709723560E+03  0.96709723561E+03  0.50400001928E-02 0. -1.
    10030    2    1    2    0    0  0.00000000000E+00  0.00000000000E+00 -0.30493680726E+03  0.16292576640E+04  0.16004668316E+04 0.  0.
        2    1    3    3  502    0 -0.77175867688E+03  0.20833274095E+03 -0.11493326273E+03  0.80760364114E+03  0.25500000920E-02 0.  1.
       -2    1    3    3    0  502  0.77175867688E+03 -0.20833274095E+03 -0.19000354453E+03  0.82165402283E+03  0.25500000920E-02 0. -1.
</event>
<event>
 5   0  0.1090674E-05  0.1599407E+04  0.7818609E-02  0.8820912E-01
        1   -1    0    0  501    0  0.00000000000E+00  0.00000000000E+00  0.13969015330E+04  0.13969015330E+04  0.50400001928E-02 0.  1.
       -1   -1    0    0    0  501  0.00000000000E+00  0.00000000000E+00 -0.45781743462E+03  0.45781743465E+03  0.50400001928E-02 0. -1.
    10030    2    1    2    0    0  0.00000000000E+00  0.00000000000E+00  0.93908409839E+03  0.18547189677E+04  0.15994072356E+04 0.  0.
        4    1    3    3  502    0 -0.70053489977E+03  0.24450902879E+03  0.12361002795E+03  0.75220666234E+03  0.12699999809E+01 0. -1.
       -4    1    3    3    0  502  0.70053489977E+03 -0.24450902879E+03  0.81547407044E+03  0.11025123053E+04  0.12699999809E+01 0.  1.
</event>
<event>
 5   0  0.1090674E-05  0.1600211E+04  0.7818609E-02  0.8820418E-01
       -1   -1    0    0    0  501  0.00000000000E+00  0.00000000000E+00  0.12690236962E+04  0.12690236963E+04  0.50400001928E-02 0.  1.
        1   -1    0    0  501    0  0.00000000000E+00  0.00000000000E+00 -0.50445801308E+03  0.50445801311E+03  0.50400001928E-02 0. -1.
    10030    2    1    2    0    0  0.00000000000E+00  0.00000000000E+00  0.76456568316E+03  0.17734817094E+04  0.16002114515E+04 0.  0.
        4    1    3    3  502    0 -0.77627428639E+03  0.19373463655E+03  0.38861871047E+03  0.88947231106E+03  0.12699999809E+01 0. -1.
       -4    1    3    3    0  502  0.77627428639E+03 -0.19373463655E+03  0.37594697269E+03  0.88400939830E+03  0.12699999809E+01 0.  1.
</event>
<event>
 5   0  0.2125803E-05  0.1599620E+04  0.7818609E-02  0.8820781E-01
        2   -1    0    0  501    0  0.00000000000E+00  0.00000000000E+00  0.20259255077E+04  0.20259255077E+04  0.25500000920E-02 0. -1.
       -2   -1    0    0    0  501  0.00000000000E+00  0.00000000000E+00 -0.31575502097E+03  0.31575502098E+03  0.25500000920E-02 0.  1.
    10030    2    1    2    0    0  0.00000000000E+00  0.00000000000E+00  0.17101704867E+04  0.23416805286E+04  0.15996201439E+04 0.  0.
        3    1    3    3  502    0 -0.21195052612E+03 -0.20582509404E+03  0.19431160957E+04  0.19654483373E+04  0.10100000352E+00 0. -1.
       -3    1    3    3    0  502  0.21195052612E+03  0.20582509404E+03 -0.23294560902E+03  0.37623219137E+03  0.10100000352E+00 0.  1.
</event>
<event>
 5   0  0.1126485E-05  0.1599934E+04  0.7818609E-02  0.8820589E-01
        1   -1    0    0  501    0  0.00000000000E+00  0.00000000000E+00  0.11106541155E+04  0.11106541155E+04  0.50400001928E-02 0.  1.
       -1   -1    0    0    0  501  0.00000000000E+00  0.00000000000E+00 -0.57618921477E+03  0.57618921479E+03  0.50400001928E-02 0. -1.
    10030    2    1    2    0    0  0.00000000000E+00  0.00000000000E+00  0.53446490075E+03  0.16868433303E+04  0.15999336520E+04 0.  0.
        2    1    3    3  502    0 -0.37220191354E+03  0.61363495783E+03  0.63978949732E+03  0.96146384581E+03  0.25500000920E-02 0.  1.
       -2    1    3    3    0  502  0.37220191354E+03 -0.61363495783E+03 -0.10532459657E+03  0.72537948452E+03  0.25500000920E-02 0. -1.
</event>
<event>
 5   0  0.2125803E-05  0.1598623E+04  0.7818609E-02  0.8821394E-01
        2   -1    0    0  501    0  0.00000000000E+00  0.00000000000E+00  0.14791249741E+04  0.14791249741E+04  0.25500000920E-02 0.  1.
       -2   -1    0    0    0  501  0.00000000000E+00  0.00000000000E+00 -0.43194384063E+03  0.43194384064E+03  0.25500000920E-02 0. -1.
    10030    2    1    2    0    0  0.00000000000E+00  0.00000000000E+00  0.10471811334E+04  0.19110688147E+04  0.15986230601E+04 0.  0.
        3    1    3    3  502    0  0.14039482325E+03 -0.78428369077E+03  0.44716328784E+03  0.91365564093E+03  0.10100000352E+00 0.  1.
       -3    1    3    3    0  502 -0.14039482325E+03  0.78428369077E+03  0.60001784559E+03  0.99741317378E+03  0.10100000352E+00 0. -1.
</event>
<event>
 5   0  0.1057506E-05  0.1600145E+04  0.7818609E-02  0.8820459E-01
       -1   -1    0    0    0  501  0.00000000000E+00  0.00000000000E+00  0.64838673052E+03  0.64838673054E+03  0.50400001928E-02 0. -1.
        1   -1    0    0  501    0  0.00000000000E+00  0.00000000000E+00 -0.98724366183E+03  0.98724366185E+03  0.50400001928E-02 0.  1.
    10030    2    1    2    0    0  0.00000000000E+00  0.00000000000E+00 -0.33885693132E+03  0.16356303924E+04  0.16001446061E+04 0.  0.
        5    1    3    3  502    0  0.72714550269E+03 -0.25565546066E+03 -0.38864496687E+03  0.86323073215E+03  0.46999998093E+01 0. -1.
       -5    1    3    3    0  502 -0.72714550269E+03  0.25565546066E+03  0.49788035551E+02  0.77239966024E+03  0.46999998093E+01 0.  1.
</event>
<event>
 5   0  0.2125803E-05  0.1596129E+04  0.7818609E-02  0.8822930E-01
        2   -1    0    0  501    0  0.00000000000E+00  0.00000000000E+00  0.52389994867E+03  0.52389994868E+03  0.25500000920E-02 0.  1.
       -2   -1    0    0    0  501  0.00000000000E+00  0.00000000000E+00 -0.12157036988E+04  0.12157036988E+04  0.25500000920E-02 0. -1.
    10030    2    1    2    0    0  0.00000000000E+00  0.00000000000E+00 -0.69180375014E+03  0.17396036475E+04  0.15961291996E+04 0.  0.
        3    1    3    3  502    0 -0.45078325014E+03  0.15957175371E+03  0.35046675678E+03  0.59287067814E+03  0.10100000352E+00 0.  1.
       -3    1    3    3    0  502  0.45078325014E+03 -0.15957175371E+03 -0.10422705069E+04  0.11467329694E+04  0.10100000352E+00 0. -1.
</event>
<event>
 5   0  0.1081831E-05  0.1600236E+04  0.7818609E-02  0.8820403E-01
        1   -1    0    0  501    0  0.00000000000E+00  0.00000000000E+00  0.12171642739E+04  0.12171642739E+04  0.50400001928E-02 0.  1.
       -1   -1    0    0    0  501  0.00000000000E+00  0.00000000000E+00 -0.52596730000E+03  0.52596730002E+03  0.50400001928E-02 0. -1.
    10030    2    1    2    0    0  0.00000000000E+00  0.00000000000E+00  0.69119697386E+03  0.17431315739E+04  0.16002357411E+04 0.  0.
        3    1    3    3  502    0  0.66026277666E+03 -0.14473085290E+03  0.81195826726E+03  0.10564895608E+04  0.10100000352E+00 0.  1.
       -3    1    3    3    0  502 -0.66026277666E+03  0.14473085290E+03 -0.12076129340E+03  0.68664201313E+03  0.10100000352E+00 0. -1.
</event>
<event>
 5   0  0.1057506E-05  0.1599758E+04  0.7818609E-02  0.8820697E-01
        1   -1    0    0  501    0  0.00000000000E+00  0.00000000000E+00  0.10261801988E+04  0.10261801989E+04  0.50400001928E-02 0.  1.
       -1   -1    0    0    0  501  0.00000000000E+00  0.00000000000E+00 -0.62348318221E+03  0.62348318223E+03  0.50400001928E-02 0. -1.
    10030    2    1    2    0    0  0.00000000000E+00  0.00000000000E+00  0.40269701664E+03  0.16496633811E+04  0.15997576016E+04 0.  0.
        5    1    3    3  502    0 -0.20415411579E+03 -0.16834336957E+03 -0.57702719111E+03  0.63482348913E+03  0.46999998093E+01 0. -1.
       -5    1    3    3    0  502  0.20415411579E+03  0.16834336957E+03  0.97972420775E+03  0.10148398920E+04  0.46999998093E+01 0.  1.
</event>
<event>
 5   0  0.1994525E-05  0.1603821E+04  0.7818609E-02  0.8818204E-01
        2   -1    0    0  501    0  0.00000000000E+00  0.00000000000E+00  0.10459505337E+04  0.10459505337E+04  0.25500000920E-02 0. -1.
       -2   -1    0    0    0  501  0.00000000000E+00  0.00000000000E+00 -0.61480969472E+03  0.61480969473E+03  0.25500000920E-02 0.  1.
    10030    2    1    2    0    0  0.00000000000E+00  0.00000000000E+00  0.43114083894E+03  0.16607602284E+04  0.16038210976E+04 0.  0.
        5    1    3    3  502    0 -0.11974459369E+03 -0.78298594297E+03  0.86100826095E+02  0.79676922435E+03  0.46999998093E+01 0.  1.
       -5    1    3    3    0  502  0.11974459369E+03  0.78298594297E+03  0.34504001284E+03  0.86399100405E+03  0.46999998093E+01 0. -1.
</event>
<event>
 5   0  0.1081831E-05  0.1598675E+04  0.7818609E-02  0.8821362E-01
       -1   -1    0    0    0  501  0.00000000000E+00  0.00000000000E+00  0.76397228236E+03  0.76397228238E+03  0.50400001928E-02 0. -1.
        1   -1    0    0  501    0  0.00000000000E+00  0.00000000000E+00 -0.83634022483E+03  0.83634022485E+03  0.50400001928E-02 0.  1.
    10030    2    1    2    0    0  0.00000000000E+00  0.00000000000E+00 -0.72367942465E+02  0.16003125072E+04  0.15986753897E+04 0.  0.
        3    1    3    3  502    0  0.73295139766E+03  0.30903566402E+03 -0.11513137651E+03  0.80372634462E+03  0.10100000352E+00 0.  1.
       -3    1    3    3    0  502 -0.73295139766E+03 -0.30903566402E+03  0.42763434049E+02  0.79658616261E+03  0.10100000352E+00 0. -1.
</event>
<event>
 5   0  0.1126485E-05  0.1601354E+04  0.7818609E-02  0.8819717E-01
        1   -1    0    0  501    0  0.00000000000E+00  0.00000000000E+00  0.17108654034E+04  0.17108654034E+04  0.50400001928E-02 0.  1.
       -1   -1    0    0    0  501  0.00000000000E+00  0.00000000000E+00 -0.37471299613E+03  0.37471299617E+03  0.50400001928E-02 0. -1.
    10030    2    1    2    0    0  0.00000000000E+00  0.00000000000E+00  0.13361524072E+04  0.20855783995E+04  0.16013538039E+04 0.  0.
        2    1    3    3  502    0  0.90477508119E+02 -0.42017557654E+03 -0.21173230937E+03  0.47912865227E+03  0.25500000920E-02 0. -1.
       -2    1    3    3    0  502 -0.90477508119E+02  0.42017557654E+03  0.15478847166E+04  0.16064497472E+04  0.25500000920E-02 0.  1.
</event>
<event>
 5   0  0.2147844E-05  0.1600070E+04  0.7818609E-02  0.8820505E-01
        2   -1    0    0  501    0  0.00000000000E+00  0.00000000000E+00  0.14068016451E+04  0.14068016451E+04  0.25500000920E-02 0.  1.
       -2   -1    0    0    0  501  0.00000000000E+00  0.00000000000E+00 -0.45497234382E+03  0.45497234383E+03  0.25500000920E-02 0. -1.
    10030    2    1    2    0    0  0.00000000000E+00  0.00000000000E+00  0.95182930127E+03  0.18617739889E+04  0.16000698007E+04 0.  0.
        2    1    3    3  502    0  0.21074671210E+03  0.59601892207E+03 -0.94588530516E+02  0.63921805531E+03  0.25500000920E-02 0. -1.
       -2    1    3    3    0  502 -0.21074671210E+03 -0.59601892207E+03  0.10464178318E+04  0.12225559336E+04  0.25500000920E-02 0.  1.
</event>
<event>
 5   0  0.2147844E-05  0.1599979E+04  0.7818609E-02  0.8820561E-01
        2   -1    0    0  501    0  0.00000000000E+00  0.00000000000E+00  0.63173028823E+03  0.63173028824E+03  0.25500000920E-02 0. -1.
       -2   -1    0    0    0  501  0.00000000000E+00  0.00000000000E+00 -0.10130641334E+04  0.10130641334E+04  0.25500000920E-02 0.  1.
    10030    2    1    2    0    0  0.00000000000E+00  0.00000000000E+00 -0.38133384515E+03  0.16447944216E+04  0.15999791211E+04 0.  0.
        2    1    3    3  502    0  0.40899269744E+03  0.71376238737E+02 -0.89364361120E+03  0.98537733781E+03  0.25500000920E-02 0.  1.
       -2    1    3    3    0  502 -0.40899269744E+03 -0.71376238737E+02  0.51230976606E+03  0.65941708381E+03  0.25500000920E-02 0. -1.
</event>
<event>
 5   0  0.1990948E-05  0.1600097E+04  0.7818609E-02  0.8820488E-01
       -2   -1    0    0    0  501  0.00000000000E+00  0.00000000000E+00  0.70334893660E+03  0.70334893660E+03  0.25500000920E-02 0. -1.
        2   -1    0    0  501    0  0.00000000000E+00  0.00000000000E+00 -0.91004319914E+03  0.91004319914E+03  0.25500000920E-02 0.  1.
    10030    2    1    2    0    0  0.00000000000E+00  0.00000000000E+00 -0.20669426254E+03  0.16133921357E+04  0.16000973925E+04 0.  0.
        4    1    3    3  502    0  0.10936758766E+03 -0.51748570400E+03  0.50190992370E+03  0.72915561267E+03  0.12699999809E+01 0. -1.
       -4    1    3    3    0  502 -0.10936758766E+03  0.51748570400E+03 -0.70860418624E+03  0.88423652307E+03  0.12699999809E+01 0.  1.
</event>
<event>
 5   0  0.2046108E-05  0.1600256E+04  0.7818609E-02  0.8820391E-01
       -2   -1    0    0    0  501  0.00000000000E+00  0.00000000000E+00  0.12000961405E+04  0.12000961405E+04  0.25500000920E-02 0. -1.
        2   -1    0    0  501    0  0.00000000000E+00  0.00000000000E+00 -0.53346128493E+03  0.53346128494E+03  0.25500000920E-02 0.  1.
    10030    2    1    2    0    0  0.00000000000E+00  0.00000000000E+00  0.66663485558E+03  0.17335574255E+04  0.16002560160E+04 0.  0.
        1    1    3    3  502    0  0.60002413497E+03 -0.50124929444E+02 -0.23751422894E+03  0.64726693109E+03  0.50400001928E-02 0.  1.
       -1    1    3    3    0  502 -0.60002413497E+03  0.50124929444E+02  0.90414908452E+03  0.10862904944E+04  0.50400001928E-02 0. -1.
</event>
<event>
 5   0  0.7597000E-06  0.1599728E+04  0.7818609E-02  0.8820715E-01
        4   -1    0    0  501    0  0.00000000000E+00  0.00000000000E+00  0.54666287650E+03  0.54666435172E+03  0.12699999809E+01 0. -1.
       -4   -1    0    0    0  501  0.00000000000E+00  0.00000000000E+00 -0.11703383738E+04  0.11703390629E+04  0.12699999809E+01 0.  1.
    10030    2    1    2    0    0  0.00000000000E+00  0.00000000000E+00 -0.62367549732E+03  0.17170034146E+04  0.15997279768E+04 0.  0.
        1    1    3    3  502    0 -0.69114117462E+03  0.30252095662E+03 -0.26677851115E+02  0.75492169145E+03  0.50400001928E-02 0. -1.
       -1    1    3    3    0  502  0.69114117462E+03 -0.30252095662E+03 -0.59699764621E+03  0.96208172317E+03  0.50400001928E-02 0.  1.
</event>
<event>
 5   0  0.1990948E-05  0.1599271E+04  0.7818609E-02  0.8820996E-01
       -2   -1    0    0    0  501  0.00000000000E+00  0.00000000000E+00  0.52532658496E+03  0.52532658497E+03  0.25500000920E-02 0. -1.
        2   -1    0    0  501    0  0.00000000000E+00  0.00000000000E+00 -0.12171793947E+04  0.12171793947E+04  0.25500000920E-02 0.  1.
    10030    2    1    2    0    0  0.00000000000E+00  0.00000000000E+00 -0.69185280976E+03  0.17425059797E+04  0.15992707022E+04 0.  0.
        4    1    3    3  502    0 -0.20098322932E+03 -0.57971785600E+03 -0.90463745031E+03  0.10930862640E+04  0.12699999809E+01 0.  1.
       -4    1    3    3    0  502  0.20098322932E+03  0.57971785600E+03  0.21278464055E+03  0.64941971574E+03  0.12699999809E+01 0. -1.
</event>
<event>
 5   0  0.2125803E-05  0.1595751E+04  0.7818609E-02  0.8823162E-01
        2   -1    0    0  501    0  0.00000000000E+00  0.00000000000E+00  0.57754136986E+03  0.57754136987E+03  0.25500000920E-02 0.  1.
       -2   -1    0    0    0  501  0.00000000000E+00  0.00000000000E+00 -0.11022684746E+04  0.11022684746E+04  0.25500000920E-02 0. -1.
    10030    2    1    2    0    0  0.00000000000E+00  0.00000000000E+00 -0.52472710473E+03  0.16798098445E+04  0.15957514152E+04 0.  0.
        3    1    3    3  502    0 -0.66419139006E+03 -0.43839520396E+03 -0.20221272518E+03  0.82111543276E+03  0.10100000352E+00 0.  1.
       -3    1    3    3    0  502  0.66419139006E+03  0.43839520396E+03 -0.32251437956E+03  0.85869441171E+03  0.10100000352E+00 0. -1.
</event>
<event>
 5   0  0.7597000E-06  0.1600347E+04  0.7818609E-02  0.8820335E-01
        3   -1    0    0  501    0  0.00000000000E+00  0.00000000000E+00  0.75052771933E+03  0.75052772613E+03  0.10100000352E+00 0.  1.
       -3   -1    0    0    0  501  0.00000000000E+00  0.00000000000E+00 -0.85310351637E+03  0.85310352235E+03  0.10100000352E+00 0. -1.
    10030    2    1    2    0    0  0.00000000000E+00  0.00000000000E+00 -0.10257579705E+03  0.16036312485E+04  0.16003472707E+04 0.  0.
        3    1    3    3  502    0  0.37213234739E+03  0.58435319701E+02 -0.75869736935E+03  0.84706486117E+03  0.10100000352E+00 0. -1.
       -3    1    3    3    0  502 -0.37213234739E+03 -0.58435319701E+02  0.65612157231E+03  0.75656638731E+03  0.10100000352E+00 0.  1.
</event>
<event>
 5   0  0.7597000E-06  0.1607130E+04  0.7818609E-02  0.8816180E-01
        3   -1    0    0  501    0  0.00000000000E+00  0.00000000000E+00  0.10998030760E+04  0.10998030807E+04  0.10100000352E+00 0. -1.
       -3   -1    0    0    0  501  0.00000000000E+00  0.00000000000E+00 -0.58712021081E+03  0.58712021950E+03  0.10100000352E+00 0.  1.
    10030    2    1    2    0    0  0.00000000000E+00  0.00000000000E+00  0.51268286522E+03  0.16869233002E+04  0.16071298953E+04 0.  0.
        1    1    3    3  502    0 -0.69090560444E+03 -0.26783374700E+03  0.58263081499E+03  0.94262619149E+03  0.50400001928E-02 0. -1.
       -1    1    3    3    0  502  0.69090560444E+03  0.26783374700E+03 -0.69947949775E+02  0.74429710868E+03  0.50400001928E-02 0.  1.
</event>
<event>
 5   0  0.1081831E-05  0.1602259E+04  0.7818609E-02  0.8819162E-01
        1   -1    0    0  501    0  0.00000000000E+00  0.00000000000E+00  0.36817874367E+03  0.36817874370E+03  0.50400001928E-02 0. -1.
       -1   -1    0    0    0  501  0.00000000000E+00  0.00000000000E+00 -0.17431976415E+04  0.17431976415E+04  0.50400001928E-02 0.  1.
    10030    2    1    2    0    0  0.00000000000E+00  0.00000000000E+00 -0.13750188978E+04  0.21113763852E+04  0.16022588026E+04 0.  0.
        3    1    3    3  502    0  0.35941381144E+03  0.20753018809E+03  0.21547259503E+03  0.46762754007E+03  0.10100000352E+00 0. -1.
       -3    1    3    3    0  502 -0.35941381144E+03 -0.20753018809E+03 -0.15904914929E+04  0.16437488451E+04  0.10100000352E+00 0.  1.
</event>
<event>
 5   0  0.1994525E-05  0.1600252E+04  0.7818609E-02  0.8820393E-01
       -2   -1    0    0    0  501  0.00000000000E+00  0.00000000000E+00  0.38973361066E+03  0.38973361067E+03  0.25500000920E-02 0.  1.
        2   -1    0    0  501    0  0.00000000000E+00  0.00000000000E+00 -0.16426642390E+04  0.16426642390E+04  0.25500000920E-02 0. -1.
    10030    2    1    2    0    0  0.00000000000E+00  0.00000000000E+00 -0.12529306283E+04  0.20323978496E+04  0.16002518114E+04 0.  0.
        5    1    3    3  502    0  0.53470744469E+03 -0.69022489962E+02  0.12437224562E+03  0.55332332411E+03  0.46999998093E+01 0.  1.
       -5    1    3    3    0  502 -0.53470744469E+03  0.69022489962E+02 -0.13773028739E+04  0.14790745255E+04  0.46999998093E+01 0. -1.
</event>
<event>
 5   0  0.1090674E-05  0.1599577E+04  0.7818609E-02  0.8820808E-01
       -1   -1    0    0    0  501  0.00000000000E+00  0.00000000000E+00  0.76570223283E+03  0.76570223285E+03  0.50400001928E-02 0.  1.
        1   -1    0    0  501    0  0.00000000000E+00  0.00000000000E+00 -0.83539242864E+03  0.83539242866E+03  0.50400001928E-02 0. -1.
    10030    2    1    2    0    0  0.00000000000E+00  0.00000000000E+00 -0.69690195815E+02  0.16010946615E+04  0.15995772541E+04 0.  0.
        4    1    3    3  502    0 -0.33500457943E+03  0.60004748062E+03  0.37465812889E+03  0.78272305043E+03  0.12699999809E+01 0.  1.
       -4    1    3    3    0  502  0.33500457943E+03 -0.60004748062E+03 -0.44434832470E+03  0.81837161107E+03  0.12699999809E+01 0. -1.
</event>
<event>
 5   0  0.2046108E-05  0.1600238E+04  0.7818609E-02  0.8820402E-01
       -2   -1    0    0    0  501  0.00000000000E+00  0.00000000000E+00  0.73009411614E+03  0.73009411615E+03  0.25500000920E-02 0. -1.
        2   -1    0    0  501    0  0.00000000000E+00  0.00000000000E+00 -0.87686055908E+03  0.87686055908E+03  0.25500000920E-02 0.  1.
    10030    2    1    2    0    0  0.00000000000E+00  0.00000000000E+00 -0.14676644294E+03  0.16069546752E+04  0.16002384008E+04 0.  0.
        1    1    3    3  502    0  0.19329718471E+03 -0.46018768695E+03 -0.70135110262E+03  0.86083092301E+03  0.50400001928E-02 0.  1.
       -1    1    3    3    0  502 -0.19329718471E+03  0.46018768695E+03  0.55458465968E+03  0.74612375222E+03  0.50400001928E-02 0. -1.
</event>
<event>
 5   0  0.2147844E-05  0.1602223E+04  0.7818609E-02  0.8819183E-01
        2   -1    0    0  501    0  0.00000000000E+00  0.00000000000E+00  0.90580070045E+03  0.90580070046E+03  0.25500000920E-02 0. -1.
       -2   -1    0    0    0  501  0.00000000000E+00  0.00000000000E+00 -0.70852214900E+03  0.70852214900E+03  0.25500000920E-02 0.  1.
    10030    2    1    2    0    0  0.00000000000E+00  0.00000000000E+00  0.19727855146E+03  0.16143228495E+04  0.16022232789E+04 0.  0.
        2    1    3    3  502    0 -0.61618877408E+02  0.10048056121E+03 -0.69973764525E+03  0.70959566052E+03  0.25500000920E-02 0.  1.
       -2    1    3    3    0  502  0.61618877408E+02 -0.10048056121E+03  0.89701619671E+03  0.90472718894E+03  0.25500000920E-02 0. -1.
</event>
<event>
 5   0  0.1057506E-05  0.1600101E+04  0.7818609E-02  0.8820486E-01
       -1   -1    0    0    0  501  0.00000000000E+00  0.00000000000E+00  0.87852147936E+03  0.87852147938E+03  0.50400001928E-02 0. -1.
        1   -1    0    0  501    0  0.00000000000E+00  0.00000000000E+00 -0.72858883006E+03  0.72858883007E+03  0.50400001928E-02 0.  1.
    10030    2    1    2    0    0  0.00000000000E+00  0.00000000000E+00  0.14993264931E+03  0.16071103095E+04  0.16001011679E+04 0.  0.
        5    1    3    3  502    0  0.55679401982E+03  0.52588407487E+03 -0.15731542137E+03  0.78188482049E+03  0.46999998093E+01 0.  1.
       -5    1    3    3    0  502 -0.55679401982E+03 -0.52588407487E+03  0.30724807068E+03  0.82522548897E+03  0.46999998093E+01 0. -1.
</event>
<event>
 5   0  0.1990948E-05  0.1599598E+04  0.7818609E-02  0.8820795E-01
        2   -1    0    0  501    0  0.00000000000E+00  0.00000000000E+00  0.14855371768E+04  0.14855371768E+04  0.25500000920E-02 0. -1.
       -2   -1    0    0    0  501  0.00000000000E+00  0.00000000000E+00 -0.43060399563E+03  0.43060399564E+03  0.25500000920E-02 0.  1.
    10030    2    1    2    0    0  0.00000000000E+00  0.00000000000E+00  0.10549331812E+04  0.19161411724E+04  0.15995977544E+04 0.  0.
        4    1    3    3  502    0  0.32675839276E+02 -0.10825622989E+02 -0.42971503689E+03  0.43109341264E+03  0.12699999809E+01 0.  1.
       -4    1    3    3    0  502 -0.32675839276E+02  0.10825622989E+02  0.14846482181E+04  0.14850477598E+04  0.12699999809E+01 0. -1.
</event>
<event>
 5   0  0.1994525E-05  0.1599881E+04  0.7818609E-02  0.8820621E-01
        2   -1    0    0  501    0  0.00000000000E+00  0.00000000000E+00  0.64249290567E+03  0.64249290568E+03  0.25500000920E-02 0. -1.
       -2   -1    0    0    0  501  0.00000000000E+00  0.00000000000E+00 -0.99597140807E+03  0.99597140807E+03  0.25500000920E-02 0.  1.
    10030    2    1    2    0    0  0.00000000000E+00  0.00000000000E+00 -0.35347850240E+03  0.16384643137E+04  0.15998807005E+04 0.  0.
        5    1    3    3  502    0 -0.59659588781E+03 -0.19853791994E+03 -0.68317344670E+03  0.92848909918E+03  0.46999998093E+01 0.  1.
       -5    1    3    3    0  502  0.59659588781E+03  0.19853791994E+03  0.32969494431E+03  0.70997521457E+03  0.46999998093E+01 0. -1.
</event>
<event>
 5   0  0.1090674E-05  0.1599768E+04  0.7818609E-02  0.8820691E-01
       -1   -1    0    0    0  501  0.00000000000E+00  0.00000000000E+00  0.53678789161E+03  0.53678789164E+03  0.50400001928E-02 0.  1.
        1   -1    0    0  501    0  0.00000000000E+00  0.00000000000E+00 -0.11919310013E+04  0.11919310013E+04  0.50400001928E-02 0. -1.
    10030    2    1    2    0    0  0.00000000000E+00  0.00000000000E+00 -0.65514310972E+03  0.17287188930E+04  0.15997676446E+04 0.  0.
        4    1    3    3  502    0  0.32151522431E+03 -0.62444774574E+03  0.86041672090E+02  0.70760992705E+03  0.12699999809E+01 0. -1.
       -4    1    3    3    0  502 -0.32151522431E+03  0.62444774574E+03 -0.74118478181E+03  0.10211089659E+04  0.12699999809E+01 0.  1.
</event>
<event>
 5   0  0.2125803E-05  0.1601350E+04  0.7818609E-02  0.8819719E-01
        2   -1    0    0  501    0  0.00000000000E+00  0.00000000000E+00  0.21621508877E+04  0.21621508877E+04  0.25500000920E-02 0.  1.
       -2   -1    0    0    0  501  0.00000000000E+00  0.00000000000E+00 -0.29650142375E+03  0.29650142376E+03  0.25500000920E-02 0. -1.
    10030    2    1    2    0    0  0.00000000000E+00  0.00000000000E+00  0.18656494640E+04  0.24586523115E+04  0.16013504508E+04 0.  0.
        3    1    3    3  502    0 -0.29704605689E+03 -0.10073261008E+03  0.20638950271E+04  0.20875933780E+04  0.10100000352E+00 0.  1.
       -3    1    3    3    0  502  0.29704605689E+03  0.10073261008E+03 -0.19824556312E+03  0.37105893352E+03  0.10100000352E+00 0. -1.
</event>
<event>
 5   0  0.1057506E-05  0.1599865E+04  0.7818609E-02  0.8820631E-01
        1   -1    0    0  501    0  0.00000000000E+00  0.00000000000E+00  0.46519543032E+03  0.46519543035E+03  0.50400001928E-02 0. -1.
       -1   -1    0    0    0  501  0.00000000000E+00  0.00000000000E+00 -0.13755332701E+04  0.13755332701E+04  0.50400001928E-02 0.  1.
    10030    2    1    2    0    0  0.00000000000E+00  0.00000000000E+00 -0.91033783981E+03  0.18407287005E+04  0.15998647337E+04 0.  0.
        5    1    3    3  502    0 -0.36524692878E+03  0.56981463346E+01  0.36361075146E+03  0.51543443465E+03  0.46999998093E+01 0. -1.
       -5    1    3    3    0  502  0.36524692878E+03 -0.56981463346E+01 -0.12739485913E+04  0.13252942658E+04  0.46999998093E+01 0.  1.
</event>
<event>
 5   0  0.1081831E-05  0.1599980E+04  0.7818609E-02  0.8820561E-01
        1   -1    0    0  501    0  0.00000000000E+00  0.00000000000E+00  0.14423990669E+04  0.14423990669E+04  0.50400001928E-02 0. -1.
       -1   -1    0    0    0  501  0.00000000000E+00  0.00000000000E+00 -0.44369393369E+03  0.44369393372E+03  0.50400001928E-02 0.  1.
    10030    2    1    2    0    0  0.00000000000E+00  0.00000000000E+00  0.99870513322E+03  0.18860930006E+04  0.15999796448E+04 0.  0.
        3    1    3    3  502    0  0.11022805381E+03 -0.78659922427E+03  0.61177510712E+03  0.10025753614E+04  0.10100000352E+00 0. -1.
       -3    1    3    3    0  502 -0.11022805381E+03  0.78659922427E+03  0.38693002610E+03  0.88351763919E+03  0.10100000352E+00 0.  1.
</event>
<event>
 5   0  0.1081831E-05  0.1599741E+04  0.7818609E-02  0.8820707E-01
        1   -1    0    0  501    0  0.00000000000E+00  0.00000000000E+00  0.10620476207E+04  0.10620476207E+04  0.50400001928E-02 0. -1.
       -1   -1    0    0    0  501  0.00000000000E+00  0.00000000000E+00 -0.60241408173E+03  0.60241408175E+03  0.50400001928E-02 0.  1.
    10030    2    1    2    0    0  0.00000000000E+00  0.00000000000E+00  0.45963353895E+03  0.16644617024E+04  0.15997405317E+04 0.  0.
        3    1    3    3  502    0 -0.69920895410E+03 -0.37838783735E+03  0.13838718035E+03  0.80698298547E+03  0.10100000352E+00 0.  1.
       -3    1    3    3    0  502  0.69920895410E+03  0.37838783735E+03  0.32124635860E+03  0.85747871698E+03  0.10100000352E+00 0. -1.
</event>
<event>
 5   0  0.1060251E-05  0.1600512E+04  0.7818609E-02  0.8820234E-01
       -1   -1    0    0    0  501  0.00000000000E+00  0.00000000000E+00  0.66248515624E+03  0.66248515626E+03  0.50400001928E-02 0. -1.
        1   -1    0    0  501    0  0.00000000000E+00  0.00000000000E+00 -0.96667755609E+03  0.96667755611E+03  0.50400001928E-02 0.  1.
    10030    2    1    2    0    0  0.00000000000E+00  0.00000000000E+00 -0.30419239985E+03  0.16291627124E+04  0.16005118329E+04 0.  0.
        1    1    3    3  502    0 -0.21073491516E+03 -0.60023868604E+03  0.34209854193E+03  0.72230678877E+03  0.50400001928E-02 0. -1.
       -1    1    3    3    0  502  0.21073491516E+03  0.60023868604E+03 -0.64629094178E+03  0.90685592359E+03  0.50400001928E-02 0.  1.
</event>
<event>
 5   0  0.2125803E-05  0.1600348E+04  0.7818609E-02  0.8820334E-01
       -2   -1    0    0    0  501  0.00000000000E+00  0.00000000000E+00  0.60676617824E+03  0.60676617824E+03  0.25500000920E-02 0. -1.
        2   -1    0    0  501    0  0.00000000000E+00  0.00000000000E+00 -0.10552308370E+04  0.10552308370E+04  0.25500000920E-02 0.  1.
    10030    2    1    2    0    0  0.00000000000E+00  0.00000000000E+00 -0.44846465877E+03  0.16619970153E+04  0.16003479398E+04 0.  0.
        3    1    3    3  502    0 -0.45843189171E+03 -0.57568366187E+03  0.10204700499E+03  0.74295698348E+03  0.10100000352E+00 0. -1.
       -3    1    3    3    0  502  0.45843189171E+03  0.57568366187E+03 -0.55051166376E+03  0.91904003178E+03  0.10100000352E+00 0.  1.
</event>
<event>
 5   0  0.7597000E-06  0.1602210E+04  0.7818609E-02  0.8819191E-01
       -3   -1    0    0    0  501  0.00000000000E+00  0.00000000000E+00  0.11495325869E+04  0.11495325914E+04  0.10100000352E+00 0.  1.
        3   -1    0    0  501    0  0.00000000000E+00  0.00000000000E+00 -0.55828741185E+03  0.55828742098E+03  0.10100000352E+00 0. -1.
    10030    2    1    2    0    0  0.00000000000E+00  0.00000000000E+00  0.59124517508E+03  0.17078200123E+04  0.16022104536E+04 0.  0.
        4    1    3    3  502    0 -0.49426064548E+03  0.31295641786E+03 -0.28774814051E+03  0.65194778197E+03  0.12699999809E+01 0. -1.
       -4    1    3    3    0  502  0.49426064548E+03 -0.31295641786E+03  0.87899331559E+03  0.10558722304E+04  0.12699999809E+01 0.  1.
</event>
<event>
 5   0  0.2125803E-05  0.1599994E+04  0.7818609E-02  0.8820551E-01
       -2   -1    0    0    0  501  0.00000000000E+00  0.00000000000E+00  0.32058630478E+03  0.32058630479E+03  0.25500000920E-02 0.  1.
        2   -1    0    0  501    0  0.00000000000E+00  0.00000000000E+00 -0.19963285670E+04  0.19963285670E+04  0.25500000920E-02 0. -1.
    10030    2    1    2    0    0  0.00000000000E+00  0.00000000000E+00 -0.16757422622E+04  0.23169148718E+04  0.15999944980E+04 0.  0.
        3    1    3    3  502    0 -0.69889471696E+03 -0.38913134600E+03 -0.82210381731E+03  0.11470534977E+04  0.10100000352E+00 0. -1.
       -3    1    3    3    0  502  0.69889471696E+03  0.38913134600E+03 -0.85363844489E+03  0.11698613741E+04  0.10100000352E+00 0.  1.
</event>
<event>
 5   0  0.1994525E-05  0.1598939E+04  0.7818609E-02  0.8821200E-01
        2   -1    0    0  501    0  0.00000000000E+00  0.00000000000E+00  0.90442130654E+03  0.90442130655E+03  0.25500000920E-02 0.  1.
       -2   -1    0    0    0  501  0.00000000000E+00  0.00000000000E+00 -0.70669676796E+03  0.70669676796E+03  0.25500000920E-02 0. -1.
    10030    2    1    2    0    0  0.00000000000E+00  0.00000000000E+00  0.19772453859E+03  0.16111180745E+04  0.15989391661E+04 0.  0.
        5    1    3    3  502    0  0.52068392766E+03  0.22568800098E+03  0.66625230097E+03  0.87519200456E+03  0.46999998093E+01 0.  1.
       -5    1    3    3    0  502 -0.52068392766E+03 -0.22568800098E+03 -0.46852776238E+03  0.73592606995E+03  0.46999998093E+01 0. -1.
</event>
<event>
 5   0  0.1126485E-05  0.1600256E+04  0.7818609E-02  0.8820390E-01
       -1   -1    0    0    0  501  0.00000000000E+00  0.00000000000E+00  0.86336787657E+03  0.86336787659E+03  0.50400001928E-02 0. -1.
        1   -1    0    0  501    0  0.00000000000E+00  0.00000000000E+00 -0.74152069227E+03  0.74152069229E+03  0.50400001928E-02 0.  1.
    10030    2    1    2    0    0  0.00000000000E+00  0.00000000000E+00  0.12184718430E+03  0.16048885689E+04  0.16002564114E+04 0.  0.
        2    1    3    3  502    0  0.66861774788E+03  0.43427438227E+03  0.12865584429E+03  0.80758668770E+03  0.25500000920E-02 0.  1.
       -2    1    3    3    0  502 -0.66861774788E+03 -0.43427438227E+03 -0.68086599910E+01  0.79730188118E+03  0.25500000920E-02 0. -1.
</event>
<event>
 5   0  0.1090674E-05  0.1600429E+04  0.7818609E-02  0.8820285E-01
        1   -1    0    0  501    0  0.00000000000E+00  0.00000000000E+00  0.59795987817E+03  0.59795987819E+03  0.50400001928E-02 0. -1.
       -1   -1    0    0    0  501  0.00000000000E+00  0.00000000000E+00 -0.10708795676E+04  0.10708795676E+04  0.50400001928E-02 0.  1.
    10030    2    1    2    0    0  0.00000000000E+00  0.00000000000E+00 -0.47291968940E+03  0.16688394458E+04  0.16004287123E+04 0.  0.
        4    1    3    3  502    0 -0.18341789699E+03  0.68727152086E+02 -0.10454956806E+04  0.10636862214E+04  0.12699999809E+01 0.  1.
       -4    1    3    3    0  502  0.18341789699E+03 -0.68727152086E+02  0.57257599124E+03  0.60515322442E+03  0.12699999809E+01 0. -1.
</event>
<event>
 5   0  0.2147844E-05  0.1592556E+04  0.7818609E-02  0.8825134E-01
        2   -1    0    0  501    0  0.00000000000E+00  0.00000000000E+00  0.12867874305E+04  0.12867874305E+04  0.25500000920E-02 0. -1.
       -2   -1    0    0    0  501  0.00000000000E+00  0.00000000000E+00 -0.49274544630E+03  0.49274544631E+03  0.25500000920E-02 0.  1.
    10030    2    1    2    0    0  0.00000000000E+00  0.00000000000E+00  0.79404198421E+03  0.17795328768E+04  0.15925559918E+04 0.  0.
        2    1    3    3  502    0 -0.16870831133E+03 -0.30567380034E+03 -0.40265489063E+03  0.53294458200E+03  0.25500000920E-02 0.  1.
       -2    1    3    3    0  502  0.16870831133E+03  0.30567380034E+03  0.11966968748E+04  0.12465882948E+04  0.25500000920E-02 0. -1.
</event>
<event>
 5   0  0.2125803E-05  0.1600077E+04  0.7818609E-02  0.8820501E-01
        2   -1    0    0  501    0  0.00000000000E+00  0.00000000000E+00  0.21900542590E+04  0.21900542590E+04  0.25500000920E-02 0.  1.
       -2   -1    0    0    0  501  0.00000000000E+00  0.00000000000E+00 -0.29225816376E+03  0.29225816377E+03  0.25500000920E-02 0. -1.
    10030    2    1    2    0    0  0.00000000000E+00  0.00000000000E+00  0.18977960952E+04  0.24823124228E+04  0.16000765435E+04 0.  0.
        3    1    3    3  502    0 -0.56903287385E+03  0.15052317599E+03  0.10828168258E+03  0.59848188863E+03  0.10100000352E+00 0. -1.
       -3    1    3    3    0  502  0.56903287385E+03 -0.15052317599E+03  0.17895144126E+04  0.18838305341E+04  0.10100000352E+00 0.  1.
</event>
<event>
 5   0  0.1060251E-05  0.1599743E+04  0.7818609E-02  0.8820706E-01
       -1   -1    0    0    0  501  0.00000000000E+00  0.00000000000E+00  0.46376478694E+03  0.46376478696E+03  0.50400001928E-02 0. -1.
        1   -1    0    0  501    0  0.00000000000E+00  0.00000000000E+00 -0.13795673006E+04  0.13795673006E+04  0.50400001928E-02 0.  1.
    10030    2    1    2    0    0  0.00000000000E+00  0.00000000000E+00 -0.91580251361E+03  0.18433320875E+04  0.15997433985E+04 0.  0.
        1    1    3    3  502    0 -0.17238387661E+03  0.45494615884E+02  0.44057825802E+03  0.47528429645E+03  0.50400001928E-02 0. -1.
       -1    1    3    3    0  502  0.17238387661E+03 -0.45494615884E+02 -0.13563807716E+04  0.13680477911E+04  0.50400001928E-02 0.  1.
</event>
<event>
 5   0  0.1994525E-05  0.1603642E+04  0.7818609E-02  0.8818314E-01
       -2   -1    0    0    0  501  0.00000000000E+00  0.00000000000E+00  0.27134679703E+03  0.27134679704E+03  0.25500000920E-02 0. -1.
        2   -1    0    0  501    0  0.00000000000E+00  0.00000000000E+00 -0.23693551402E+04  0.23693551402E+04  0.25500000920E-02 0.  1.
    10030    2    1    2    0    0  0.00000000000E+00  0.00000000000E+00 -0.20980083431E+04  0.26407019372E+04  0.16036420153E+04 0.  0.
        5    1    3    3  502    0  0.15839646112E+03  0.13077172947E+02 -0.23431335357E+04  0.23485223668E+04  0.46999998093E+01 0.  1.
       -5    1    3    3    0  502 -0.15839646112E+03 -0.13077172947E+02  0.24512519254E+03  0.29217957041E+03  0.46999998093E+01 0. -1.
</event>
<event>
 5   0  0.1090674E-05  0.1599880E+04  0.7818609E-02  0.8820622E-01
       -1   -1    0    0    0  501  0.00000000000E+00  0.00000000000E+00  0.13222966031E+04  0.13222966032E+04  0.50400001928E-02 0. -1.
        1   -1    0    0  501    0  0.00000000000E+00  0.00000000000E+00 -0.48393350469E+03  0.48393350471E+03  0.50400001928E-02 0.  1.
    10030    2    1    2    0    0  0.00000000000E+00  0.00000000000E+00  0.83836309846E+03  0.18062301079E+04  0.15998795323E+04 0.  0.
        4    1    3    3  502    0  0.35847308836E+03 -0.22698865204E+03 -0.34642527519E+03  0.54775805555E+03  0.12699999809E+01 0.  1.
       -4    1    3    3    0  502 -0.35847308836E+03  0.22698865204E+03  0.11847883736E+04  0.12584720523E+04  0.12699999809E+01 0. -1.
</event>
<event>
 5   0  0.1057506E-05  0.1600728E+04  0.7818609E-02  0.8820101E-01
        1   -1    0    0  501    0  0.00000000000E+00  0.00000000000E+00  0.10546865396E+04  0.10546865397E+04  0.50400001928E-02 0.  1.
       -1   -1    0    0    0  501  0.00000000000E+00  0.00000000000E+00 -0.60736737534E+03  0.60736737536E+03  0.50400001928E-02 0. -1.
    10030    2    1    2    0    0  0.00000000000E+00  0.00000000000E+00  0.44731916431E+03  0.16620539150E+04  0.16007275789E+04 0.  0.
        5    1    3    3  502    0  0.68883134063E+02 -0.22661308414E+03 -0.57013059359E+03  0.61738914779E+03  0.46999998093E+01 0. -1.
       -5    1    3    3    0  502 -0.68883134063E+02  0.22661308414E+03  0.10174497579E+04  0.10446647672E+04  0.46999998093E+01 0.  1.
</event>
<event>
 5   0  0.2147844E-05  0.1599350E+04  0.7818609E-02  0.8820947E-01
        2   -1    0    0  501    0  0.00000000000E+00  0.00000000000E+00  0.76213775993E+03  0.76213775993E+03  0.25500000920E-02 0.  1.
       -2   -1    0    0    0  501  0.00000000000E+00  0.00000000000E+00 -0.83906154164E+03  0.83906154165E+03  0.25500000920E-02 0. -1.
    10030    2    1    2    0    0  0.00000000000E+00  0.00000000000E+00 -0.76923781717E+02  0.16011993016E+04  0.15993504729E+04 0.  0.
        2    1    3    3  502    0  0.72772769662E+03  0.13315983596E+02  0.29315441475E+03  0.78466835461E+03  0.25500000920E-02 0. -1.
       -2    1    3    3    0  502 -0.72772769662E+03 -0.13315983596E+02 -0.37007819647E+03  0.81653094696E+03  0.25500000920E-02 0.  1.
</event>
<event>
 5   0  0.1060251E-05  0.1602375E+04  0.7818609E-02  0.8819090E-01
        1   -1    0    0  501    0  0.00000000000E+00  0.00000000000E+00  0.82277234704E+03  0.82277234705E+03  0.50400001928E-02 0.  1.
       -1   -1    0    0    0  501  0.00000000000E+00  0.00000000000E+00 -0.78016874076E+03  0.78016874078E+03  0.50400001928E-02 0. -1.
    10030    2    1    2    0    0  0.00000000000E+00  0.00000000000E+00  0.42603606275E+02  0.16029410878E+04  0.16023748200E+04 0.  0.
        1    1    3    3  502    0 -0.64191156828E+03 -0.47693729567E+03  0.70120898044E+02  0.80276807725E+03  0.50400001928E-02 0. -1.
       -1    1    3    3    0  502  0.64191156828E+03  0.47693729567E+03 -0.27517291769E+02  0.80017301058E+03  0.50400001928E-02 0.  1.
</event>
<event>
 5   0  0.1126485E-05  0.1598717E+04  0.7818609E-02  0.8821336E-01
       -1   -1    0    0    0  501  0.00000000000E+00  0.00000000000E+00  0.31044711861E+03  0.31044711865E+03  0.50400001928E-02 0. -1.
        1   -1    0    0  501    0  0.00000000000E+00  0.00000000000E+00 -0.20582388933E+04  0.20582388933E+04  0.50400001928E-02 0.  1.
    10030    2    1    2    0    0  0.00000000000E+00  0.00000000000E+00 -0.17477917747E+04  0.23686860120E+04  0.15987174033E+04 0.  0.
        2    1    3    3  502    0 -0.47754041799E+02 -0.68139453737E+03 -0.14890707649E+04  0.16382645412E+04  0.25500000920E-02 0.  1.
       -2    1    3    3    0  502  0.47754041799E+02  0.68139453737E+03 -0.25872100982E+03  0.73042147080E+03  0.25500000920E-02 0. -1.
</event>
<event>
 5   0  0.1994525E-05  0.1597734E+04  0.7818609E-02  0.8821942E-01
       -2   -1    0    0    0  501  0.00000000000E+00  0.00000000000E+00  0.54138708958E+03  0.54138708958E+03  0.25500000920E-02 0.  1.
        2   -1    0    0  501    0  0.00000000000E+00  0.00000000000E+00 -0.11788020507E+04  0.11788020507E+04  0.25500000920E-02 0. -1.
    10030    2    1    2    0    0  0.00000000000E+00  0.00000000000E+00 -0.63741496116E+03  0.17201891403E+04  0.15977336592E+04 0.  0.
        5    1    3    3  502    0 -0.59927286987E+03 -0.64199629906E+02  0.24580333198E+03  0.65091545769E+03  0.46999998093E+01 0.  1.
       -5    1    3    3    0  502  0.59927286987E+03  0.64199629906E+02 -0.88321829314E+03  0.10692736826E+04  0.46999998093E+01 0. -1.
</event>
<event>
 5   0  0.1990948E-05  0.1600065E+04  0.7818609E-02  0.8820508E-01
        2   -1    0    0  501    0  0.00000000000E+00  0.00000000000E+00  0.13381314265E+04  0.13381314265E+04  0.25500000920E-02 0.  1.
       -2   -1    0    0    0  501  0.00000000000E+00  0.00000000000E+00 -0.47831774366E+03  0.47831774367E+03  0.25500000920E-02 0. -1.
    10030    2    1    2    0    0  0.00000000000E+00  0.00000000000E+00  0.85981368286E+03  0.18164491702E+04  0.16000650045E+04 0.  0.
        4    1    3    3  502    0 -0.36143275590E+03  0.42122362732E+03  0.10840102770E+04  0.12178435346E+04  0.12699999809E+01 0.  1.
       -4    1    3    3    0  502  0.36143275590E+03 -0.42122362732E+03 -0.22419659412E+03  0.59860563559E+03  0.12699999809E+01 0. -1.
</event>
<event>
 5   0  0.1126485E-05  0.1599841E+04  0.7818609E-02  0.8820646E-01
        1   -1    0    0  501    0  0.00000000000E+00  0.00000000000E+00  0.65227883283E+03  0.65227883285E+03  0.50400001928E-02 0.  1.
       -1   -1    0    0    0  501  0.00000000000E+00  0.00000000000E+00 -0.98097989160E+03  0.98097989162E+03  0.50400001928E-02 0. -1.
    10030    2    1    2    0    0  0.00000000000E+00  0.00000000000E+00 -0.32870105877E+03  0.16332587245E+04  0.15998405155E+04 0.  0.
        2    1    3    3  502    0  0.71963924282E+03 -0.33378144484E+03 -0.26936679051E+03  0.83776438249E+03  0.25500000920E-02 0. -1.
       -2    1    3    3    0  502 -0.71963924282E+03  0.33378144484E+03 -0.59334268264E+02  0.79549434198E+03  0.25500000920E-02 0.  1.
</event>
<event>
 5   0  0.1081831E-05  0.1601176E+04  0.7818609E-02  0.8819826E-01
       -1   -1    0    0    0  501  0.00000000000E+00  0.00000000000E+00  0.12530609579E+04  0.12530609579E+04  0.50400001928E-02 0. -1.
        1   -1    0    0  501    0  0.00000000000E+00  0.00000000000E+00 -0.51150033836E+03  0.51150033838E+03  0.50400001928E-02 0.  1.
    10030    2    1    2    0    0  0.00000000000E+00  0.00000000000E+00  0.74156061952E+03  0.17645612963E+04  0.16011759478E+04 0.  0.
        3    1    3    3  502    0  0.19943976053E+03 -0.67352633568E+03  0.79406608017E+03  0.10601673891E+04  0.10100000352E+00 0. -1.
       -3    1    3    3    0  502 -0.19943976053E+03  0.67352633568E+03 -0.52505460642E+02  0.70439390722E+03  0.10100000352E+00 0.  1.
</event>
<event>
 5   0  0.1126485E-05  0.1599356E+04  0.7818609E-02  0.8820944E-01
        1   -1    0    0  501    0  0.00000000000E+00  0.00000000000E+00  0.73219380409E+03  0.73219380411E+03  0.50400001928E-02 0. -1.
       -1   -1    0    0    0  501  0.00000000000E+00  0.00000000000E+00 -0.87338236620E+03  0.87338236622E+03  0.50400001928E-02 0.  1.
    10030    2    1    2    0    0  0.00000000000E+00  0.00000000000E+00 -0.14118856211E+03  0.16055761703E+04  0.15993563170E+04 0.  0.
        2    1    3    3  502    0  0.39083008759E+03 -0.45992245788E+03  0.45604890962E+03  0.75647698749E+03  0.25500000920E-02 0. -1.
       -2    1    3    3    0  502 -0.39083008759E+03  0.45992245788E+03 -0.59723747174E+03  0.84909918283E+03  0.25500000920E-02 0.  1.
</event>
<event>
 5   0  0.2125803E-05  0.1601078E+04  0.7818609E-02  0.8819886E-01
       -2   -1    0    0    0  501  0.00000000000E+00  0.00000000000E+00  0.90612374244E+03  0.90612374244E+03  0.25500000920E-02 0. -1.
        2   -1    0    0  501    0  0.00000000000E+00  0.00000000000E+00 -0.70725779343E+03  0.70725779343E+03  0.25500000920E-02 0.  1.
    10030    2    1    2    0    0  0.00000000000E+00  0.00000000000E+00  0.19886594901E+03  0.16133815359E+04  0.16010784848E+04 0.  0.
        3    1    3    3  502    0  0.21359669257E+03  0.37148066955E+03  0.78082546767E+03  0.89067943509E+03  0.10100000352E+00 0.  1.
       -3    1    3    3    0  502 -0.21359669257E+03 -0.37148066955E+03 -0.58195951865E+03  0.72270210079E+03  0.10100000352E+00 0. -1.
</event>
<event>
 5   0  0.1057506E-05  0.1600677E+04  0.7818609E-02  0.8820132E-01
        1   -1    0    0  501    0  0.00000000000E+00  0.00000000000E+00  0.20044561826E+04  0.20044561826E+04  0.50400001928E-02 0. -1.
       -1   -1    0    0    0  501  0.00000000000E+00  0.00000000000E+00 -0.31955888348E+03  0.31955888352E+03  0.50400001928E-02 0.  1.
    10030    2    1    2    0    0  0.00000000000E+00  0.00000000000E+00  0.16848972991E+04  0.23240150661E+04  0.16006770814E+04 0.  0.
        5    1    3    3  502    0  0.19536510517E+03 -0.74174862735E+03  0.11740442400E+04  0.14024123923E+04  0.46999998093E+01 0. -1.
       -5    1    3    3    0  502 -0.19536510517E+03  0.74174862735E+03  0.51085305913E+03  0.92160267389E+03  0.46999998093E+01 0.  1.
</event>
<event>
 5   0  0.1090674E-05  0.1600244E+04  0.7818609E-02  0.8820398E-01
       -1   -1    0    0    0  501  0.00000000000E+00  0.00000000000E+00  0.40674375191E+03  0.40674375194E+03  0.50400001928E-02 0. -1.
        1   -1    0    0  501    0  0.00000000000E+00  0.00000000000E+00 -0.15739522359E+04  0.15739522359E+04  0.50400001928E-02 0.  1.
    10030    2    1    2    0    0  0.00000000000E+00  0.00000000000E+00 -0.11672084840E+04  0.19806959879E+04  0.16002440287E+04 0.  0.
        4    1    3    3  502    0  0.71885237965E+02  0.95929429372E+02 -0.15627731244E+04  0.15673644739E+04  0.12699999809E+01 0.  1.
       -4    1    3    3    0  502 -0.71885237965E+02 -0.95929429372E+02  0.39556464036E+03  0.41333151399E+03  0.12699999809E+01 0. -1.
</event>
<event>
 5   0  0.1081831E-05  0.1599818E+04  0.7818609E-02  0.8820660E-01
       -1   -1    0    0    0  501  0.00000000000E+00  0.00000000000E+00  0.63725994733E+03  0.63725994735E+03  0.50400001928E-02 0.  1.
        1   -1    0    0  501    0  0.00000000000E+00  0.00000000000E+00 -0.10040718651E+04  0.10040718651E+04  0.50400001928E-02 0. -1.
    10030    2    1    2    0    0  0.00000000000E+00  0.00000000000E+00 -0.36681191776E+03  0.16413318125E+04  0.15998184696E+04 0.  0.
        3    1    3    3  502    0 -0.79533045940E+03  0.84535966028E+02 -0.19629803706E+03  0.82354708351E+03  0.10100000352E+00 0. -1.
       -3    1    3    3    0  502  0.79533045940E+03 -0.84535966028E+02 -0.17051388070E+03  0.81778472895E+03  0.10100000352E+00 0.  1.
</event>
<event>
 5   0  0.2046108E-05  0.1599822E+04  0.7818609E-02  0.8820658E-01
       -2   -1    0    0    0  501  0.00000000000E+00  0.00000000000E+00  0.54031933038E+03  0.54031933039E+03  0.25500000920E-02 0. -1.
        2   -1    0    0  501    0  0.00000000000E+00  0.00000000000E+00 -0.11842205508E+04  0.11842205508E+04  0.25500000920E-02 0.  1.
    10030    2    1    2    0    0  0.00000000000E+00  0.00000000000E+00 -0.64390122042E+03  0.17245398812E+04  0.15998215589E+04 0.  0.
        1    1    3    3  502    0 -0.27677059478E+03 -0.19939244984E+03  0.45798578583E+03  0.57106067212E+03  0.50400001928E-02 0. -1.
       -1    1    3    3    0  502  0.27677059478E+03  0.19939244984E+03 -0.11018870063E+04  0.11534792091E+04  0.50400001928E-02 0.  1.
</event>
<event>
 5   0  0.1060251E-05  0.1599196E+04  0.7818609E-02  0.8821042E-01
        1   -1    0    0  501    0  0.00000000000E+00  0.00000000000E+00  0.91753902259E+03  0.91753902261E+03  0.50400001928E-02 0. -1.
       -1   -1    0    0    0  501  0.00000000000E+00  0.00000000000E+00 -0.69681719713E+03  0.69681719714E+03  0.50400001928E-02 0.  1.
    10030    2    1    2    0    0  0.00000000000E+00  0.00000000000E+00  0.22072182547E+03  0.16143562198E+04  0.15991960105E+04 0.  0.
        1    1    3    3  502    0 -0.55483872845E+03  0.54794532825E+03 -0.68139775899E+02  0.78277271696E+03  0.50400001928E-02 0. -1.
       -1    1    3    3    0  502  0.55483872845E+03 -0.54794532825E+03  0.28886160137E+03  0.83158350279E+03  0.50400001928E-02 0.  1.
</event>
<event>
 5   0  0.2125803E-05  0.1599771E+04  0.7818609E-02  0.8820689E-01
       -2   -1    0    0    0  501  0.00000000000E+00  0.00000000000E+00  0.58136065844E+03  0.58136065844E+03  0.25500000920E-02 0.  1.
        2   -1    0    0  501    0  0.00000000000E+00  0.00000000000E+00 -0.11005503294E+04  0.11005503294E+04  0.25500000920E-02 0. -1.
    10030    2    1    2    0    0  0.00000000000E+00  0.00000000000E+00 -0.51918967091E+03  0.16819109878E+04  0.15997708137E+04 0.  0.
        3    1    3    3  502    0  0.54539296458E+03 -0.58036716989E+03 -0.18136236263E+03  0.81680588544E+03  0.10100000352E+00 0.  1.
       -3    1    3    3    0  502 -0.54539296458E+03  0.58036716989E+03 -0.33782730828E+03  0.86510510236E+03  0.10100000352E+00 0. -1.
</event>
<event>
 5   0  0.2125803E-05  0.1599779E+04  0.7818609E-02  0.8820684E-01
        2   -1    0    0  501    0  0.00000000000E+00  0.00000000000E+00  0.70146508783E+03  0.70146508783E+03  0.25500000920E-02 0.  1.
       -2   -1    0    0    0  501  0.00000000000E+00  0.00000000000E+00 -0.91212378288E+03  0.91212378289E+03  0.25500000920E-02 0. -1.
    10030    2    1    2    0    0  0.00000000000E+00  0.00000000000E+00 -0.21065869506E+03  0.16135888707E+04  0.15997787215E+04 0.  0.
        3    1    3    3  502    0  0.25407463657E+03 -0.21215114307E+03 -0.83980566499E+03  0.90268244339E+03  0.10100000352E+00 0. -1.
       -3    1    3    3    0  502 -0.25407463657E+03  0.21215114307E+03  0.62914696993E+03  0.71090642733E+03  0.10100000352E+00 0.  1.
</event>
<event>
 5   0  0.1990948E-05  0.1609956E+04  0.7818609E-02  0.8814455E-01
        2   -1    0    0  501    0  0.00000000000E+00  0.00000000000E+00  0.68471887771E+03  0.68471887772E+03  0.25500000920E-02 0.  1.
       -2   -1    0    0    0  501  0.00000000000E+00  0.00000000000E+00 -0.94635804377E+03  0.94635804378E+03  0.25500000920E-02 0. -1.
    10030    2    1    2    0    0  0.00000000000E+00  0.00000000000E+00 -0.26163916606E+03  0.16310769215E+04  0.16099555493E+04 0.  0.
        4    1    3    3  502    0 -0.13597180213E+03 -0.42471534482E+03  0.54813370128E+03  0.70662834820E+03  0.12699999809E+01 0.  1.
       -4    1    3    3    0  502  0.13597180213E+03  0.42471534482E+03 -0.80977286734E+03  0.92444857330E+03  0.12699999809E+01 0. -1.
</event>
<event>
 5   0  0.1081831E-05  0.1600677E+04  0.7818609E-02  0.8820132E-01
        1   -1    0    0  501    0  0.00000000000E+00  0.00000000000E+00  0.11455849914E+04  0.11455849914E+04  0.50400001928E-02 0.  1.
       -1   -1    0    0    0  501  0.00000000000E+00  0.00000000000E+00 -0.55913944733E+03  0.55913944735E+03  0.50400001928E-02 0. -1.
    10030    2    1    2    0    0  0.00000000000E+00  0.00000000000E+00  0.58644554408E+03  0.17047244388E+04  0.16006770555E+04 0.  0.
        3    1    3    3  502    0  0.44001809691E+03 -0.21379048643E+03 -0.38136964836E+03  0.62029437897E+03  0.10100000352E+00 0. -1.
       -3    1    3    3    0  502 -0.44001809691E+03  0.21379048643E+03  0.96781519243E+03  0.10844300598E+04  0.10100000352E+00 0.  1.
</event>
<event>
 5   0  0.1990948E-05  0.1612635E+04  0.7818609E-02  0.8812823E-01
        2   -1    0    0  501    0  0.00000000000E+00  0.00000000000E+00  0.61214229026E+03  0.61214229026E+03  0.25500000920E-02 0.  1.
       -2   -1    0    0    0  501  0.00000000000E+00  0.00000000000E+00 -0.10620859680E+04  0.10620859680E+04  0.25500000920E-02 0. -1.
    10030    2    1    2    0    0  0.00000000000E+00  0.00000000000E+00 -0.44994367773E+03  0.16742282583E+04  0.16126347843E+04 0.  0.
        4    1    3    3  502    0  0.31391107396E+03  0.12271468576E+03  0.53549898638E+03  0.63273994166E+03  0.12699999809E+01 0.  1.
       -4    1    3    3    0  502 -0.31391107396E+03 -0.12271468576E+03 -0.98544266411E+03  0.10414883166E+04  0.12699999809E+01 0. -1.
</event>
<event>
 5   0  0.1057506E-05  0.1600197E+04  0.7818609E-02  0.8820427E-01
        1   -1    0    0  501    0  0.00000000000E+00  0.00000000000E+00  0.82481936015E+03  0.82481936016E+03  0.50400001928E-02 0. -1.
       -1   -1    0    0    0  501  0.00000000000E+00  0.00000000000E+00 -0.77611861785E+03  0.77611861786E+03  0.50400001928E-02 0.  1.
    10030    2    1    2    0    0  0.00000000000E+00  0.00000000000E+00  0.48700742303E+02  0.16009379780E+04  0.16001970651E+04 0.  0.
        5    1    3    3  502    0 -0.67098894944E+03  0.25395662050E+03  0.37865476205E+03  0.81124697484E+03  0.46999998093E+01 0. -1.
       -5    1    3    3    0  502  0.67098894944E+03 -0.25395662050E+03 -0.32995401975E+03  0.78969100318E+03  0.46999998093E+01 0.  1.
</event>
<event>
 5   0  0.2046108E-05  0.1601083E+04  0.7818609E-02  0.8819883E-01
       -2   -1    0    0    0  501  0.00000000000E+00  0.00000000000E+00  0.89599601493E+03  0.89599601493E+03  0.25500000920E-02 0.  1.
        2   -1    0    0  501    0  0.00000000000E+00  0.00000000000E+00 -0.71525596747E+03  0.71525596748E+03  0.25500000920E-02 0. -1.
    10030    2    1    2    0    0  0.00000000000E+00  0.00000000000E+00  0.18074004745E+03  0.16112519824E+04  0.16010827543E+04 0.  0.
        1    1    3    3  502    0 -0.44638209450E+03  0.62609355212E+03  0.31453215633E+03  0.83077108019E+03  0.50400001928E-02 0.  1.
       -1    1    3    3    0  502  0.44638209450E+03 -0.62609355212E+03 -0.13379210888E+03  0.78048090221E+03  0.50400001928E-02 0. -1.
</event>
<event>
 5   0  0.1126485E-05  0.1599884E+04  0.7818609E-02  0.8820619E-01
       -1   -1    0    0    0  501  0.00000000000E+00  0.00000000000E+00  0.62654286214E+03  0.62654286216E+03  0.50400001928E-02 0. -1.
        1   -1    0    0  501    0  0.00000000000E+00  0.00000000000E+00 -0.10213304841E+04  0.10213304841E+04  0.50400001928E-02 0.  1.
    10030    2    1    2    0    0  0.00000000000E+00  0.00000000000E+00 -0.39478762199E+03  0.16478733463E+04  0.15998841517E+04 0.  0.
        2    1    3    3  502    0 -0.70581978876E+03 -0.37584085114E+03 -0.17507817775E+03  0.81859042746E+03  0.25500000920E-02 0. -1.
       -2    1    3    3    0  502  0.70581978876E+03  0.37584085114E+03 -0.21970944423E+03  0.82928291884E+03  0.25500000920E-02 0.  1.
</event>
<event>
 5   0  0.1994525E-05  0.1598695E+04  0.7818609E-02  0.8821350E-01
        2   -1    0    0  501    0  0.00000000000E+00  0.00000000000E+00  0.26906888563E+04  0.26906888563E+04  0.25500000920E-02 0.  1.
       -2   -1    0    0    0  501  0.00000000000E+00  0.00000000000E+00 -0.23746953117E+03  0.23746953119E+03  0.25500000920E-02 0. -1.
    10030    2    1    2    0    0  0.00000000000E+00  0.00000000000E+00  0.24532193251E+04  0.29281583875E+04  0.15986952446E+04 0.  0.
        5    1    3    3  502    0  0.56323320774E+03 -0.70657236113E+02  0.22573756301E+04  0.23276578178E+04  0.46999998093E+01 0.  1.
       -5    1    3    3    0  502 -0.56323320774E+03  0.70657236113E+02  0.19584369499E+03  0.60050056968E+03  0.46999998093E+01 0. -1.
</event>
<event>
 5   0  0.1081831E-05  0.1599997E+04  0.7818609E-02  0.8820550E-01
        1   -1    0    0  501    0  0.00000000000E+00  0.00000000000E+00  0.23521790578E+04  0.23521790578E+04  0.50400001928E-02 0. -1.
       -1   -1    0    0    0  501  0.00000000000E+00  0.00000000000E+00 -0.27208718070E+03  0.27208718074E+03  0.50400001928E-02 0.  1.
    10030    2    1    2    0    0  0.00000000000E+00  0.00000000000E+00  0.20800918771E+04  0.26242662385E+04  0.15999972105E+04 0.  0.
        3    1    3    3  502    0 -0.58595023525E+03  0.18353050358E+03  0.19894668201E+03  0.64544629243E+03  0.10100000352E+00 0. -1.
       -3    1    3    3    0  502  0.58595023525E+03 -0.18353050358E+03  0.18811451951E+04  0.19788199461E+04  0.10100000352E+00 0.  1.
</event>
<event>
 5   0  0.1081831E-05  0.1599694E+04  0.7818609E-02  0.8820736E-01
       -1   -1    0    0    0  501  0.00000000000E+00  0.00000000000E+00  0.26980022315E+03  0.26980022320E+03  0.50400001928E-02 0. -1.
        1   -1    0    0  501    0  0.00000000000E+00  0.00000000000E+00 -0.23712190889E+04  0.23712190889E+04  0.50400001928E-02 0.  1.
    10030    2    1    2    0    0  0.00000000000E+00  0.00000000000E+00 -0.21014188657E+04  0.26410193121E+04  0.15996942700E+04 0.  0.
        3    1    3    3  502    0 -0.55825426540E+02  0.49146082369E+03 -0.20884551886E+04  0.21462281576E+04  0.10100000352E+00 0.  1.
       -3    1    3    3    0  502  0.55825426540E+02 -0.49146082369E+03 -0.12963677163E+02  0.49479115452E+03  0.10100000352E+00 0. -1.
</event>
<event>
 5   0  0.7597000E-06  0.1599514E+04  0.7818609E-02  0.8820847E-01
       -3   -1    0    0    0  501  0.00000000000E+00  0.00000000000E+00  0.74148000290E+03  0.74148000977E+03  0.10100000352E+00 0. -1.
        3   -1    0    0  501    0  0.00000000000E+00  0.00000000000E+00 -0.86261394556E+03  0.86261395147E+03  0.10100000352E+00 0.  1.
    10030    2    1    2    0    0  0.00000000000E+00  0.00000000000E+00 -0.12113394267E+03  0.16040939612E+04  0.15995136775E+04 0.  0.
        1    1    3    3  502    0 -0.25365289809E+02 -0.24956861483E+03 -0.82213808267E+03  0.85955739683E+03  0.50400001928E-02 0.  1.
       -1    1    3    3    0  502  0.25365289809E+02  0.24956861483E+03  0.70100414000E+03  0.74453656442E+03  0.50400001928E-02 0. -1.
</event>
<event>
 5   0  0.1081831E-05  0.1600734E+04  0.7818609E-02  0.8820097E-01
        1   -1    0    0  501    0  0.00000000000E+00  0.00000000000E+00  0.70747036668E+03  0.70747036670E+03  0.50400001928E-02 0.  1.
       -1   -1    0    0    0  501  0.00000000000E+00  0.00000000000E+00 -0.90546161450E+03  0.90546161451E+03  0.50400001928E-02 0. -1.
    10030    2    1    2    0    0  0.00000000000E+00  0.00000000000E+00 -0.19799124782E+03  0.16129319812E+04  0.16007339072E+04 0.  0.
        3    1    3    3  502    0  0.53964550454E+03  0.49226747087E+03  0.23067137183E+03  0.76599858057E+03  0.10100000352E+00 0.  1.
       -3    1    3    3    0  502 -0.53964550454E+03 -0.49226747087E+03 -0.42866261965E+03  0.84693340065E+03  0.10100000352E+00 0. -1.
</event>
<event>
 5   0  0.1126485E-05  0.1601396E+04  0.7818609E-02  0.8819691E-01
       -1   -1    0    0    0  501  0.00000000000E+00  0.00000000000E+00  0.57844356432E+03  0.57844356434E+03  0.50400001928E-02 0.  1.
        1   -1    0    0  501    0  0.00000000000E+00  0.00000000000E+00 -0.11083485086E+04  0.11083485086E+04  0.50400001928E-02 0. -1.
    10030    2    1    2    0    0  0.00000000000E+00  0.00000000000E+00 -0.52990494428E+03  0.16867920730E+04  0.16013957186E+04 0.  0.
        2    1    3    3  502    0 -0.37903421716E+03 -0.68782376464E+03 -0.10059107575E+03  0.79176198033E+03  0.25500000920E-02 0.  1.
       -2    1    3    3    0  502  0.37903421716E+03  0.68782376464E+03 -0.42931386853E+03  0.89503009262E+03  0.25500000920E-02 0. -1.
</event>
<event>
 5   0  0.1057506E-05  0.1598949E+04  0.7818609E-02  0.8821194E-01
        1   -1    0    0  501    0  0.00000000000E+00  0.00000000000E+00  0.15690312866E+04  0.15690312866E+04  0.50400001928E-02 0.  1.
       -1   -1    0    0    0  501  0.00000000000E+00  0.00000000000E+00 -0.40735952245E+03  0.40735952248E+03  0.50400001928E-02 0. -1.
    10030    2    1    2    0    0  0.00000000000E+00  0.00000000000E+00  0.11616717641E+04  0.19763908091E+04  0.15989494497E+04 0.  0.
        5    1    3    3  502    0  0.62963225159E+03 -0.19752062422E+03  0.11386882694E+04  0.13160867122E+04  0.46999998093E+01 0.  1.
       -5    1    3    3    0  502 -0.62963225159E+03  0.19752062422E+03  0.22983494707E+02  0.66030409681E+03  0.46999998093E+01 0. -1.
</event>
<event>
 5   0  0.1994525E-05  0.1598921E+04  0.7818609E-02  0.8821211E-01
       -2   -1    0    0    0  501  0.00000000000E+00  0.00000000000E+00  0.46023441279E+03  0.46023441280E+03  0.25500000920E-02 0. -1.
        2   -1    0    0  501    0  0.00000000000E+00  0.00000000000E+00 -0.13887213932E+04  0.13887213932E+04  0.25500000920E-02 0.  1.
    10030    2    1    2    0    0  0.00000000000E+00  0.00000000000E+00 -0.92848698044E+03  0.18489558060E+04  0.15989213551E+04 0.  0.
        5    1    3    3  502    0 -0.17175563939E+03 -0.65367595136E+03  0.29521393205E+02  0.67652483450E+03  0.46999998093E+01 0. -1.
       -5    1    3    3    0  502  0.17175563939E+03  0.65367595136E+03 -0.95800837365E+03  0.11724309715E+04  0.46999998093E+01 0.  1.
</event>
<event>
 5   0  0.1057506E-05  0.1600324E+04  0.7818609E-02  0.8820349E-01
       -1   -1    0    0    0  501  0.00000000000E+00  0.00000000000E+00  0.33554107616E+03  0.33554107620E+03  0.50400001928E-02 0. -1.
        1   -1    0    0  501    0  0.00000000000E+00  0.00000000000E+00 -0.19081396332E+04  0.19081396332E+04  0.50400001928E-02 0.  1.
    10030    2    1    2    0    0  0.00000000000E+00  0.00000000000E+00 -0.15725985570E+04  0.22436807094E+04  0.16003239997E+04 0.  0.
        5    1    3    3  502    0  0.27138095170E+03  0.32917234033E+03  0.16276866585E+03  0.45663747017E+03  0.46999998093E+01 0. -1.
       -5    1    3    3    0  502 -0.27138095170E+03 -0.32917234033E+03 -0.17353672229E+04  0.17870432392E+04  0.46999998093E+01 0.  1.
</event>
<event>
 5   0  0.2046108E-05  0.1592792E+04  0.7818609E-02  0.8824988E-01
        2   -1    0    0  501    0  0.00000000000E+00  0.00000000000E+00  0.12504617784E+04  0.12504617784E+04  0.25500000920E-02 0. -1.
       -2   -1    0    0    0  501  0.00000000000E+00  0.00000000000E+00 -0.50720997773E+03  0.50720997774E+03  0.25500000920E-02 0.  1.
    10030    2    1    2    0    0  0.00000000000E+00  0.00000000000E+00  0.74325180071E+03  0.17576717562E+04  0.15927921281E+04 0.  0.
        1    1    3    3  502    0  0.58949705248E+03 -0.25712328932E+03 -0.14670670056E+03  0.65965295179E+03  0.50400001928E-02 0.  1.
       -1    1    3    3    0  502 -0.58949705248E+03  0.25712328932E+03  0.88995850127E+03  0.10980188044E+04  0.50400001928E-02 0. -1.
</event>
<event>
 5   0  0.1060251E-05  0.1599368E+04  0.7818609E-02  0.8820936E-01
       -1   -1    0    0    0  501  0.00000000000E+00  0.00000000000E+00  0.91919519078E+03  0.91919519079E+03  0.50400001928E-02 0. -1.
        1   -1    0    0  501    0  0.00000000000E+00  0.00000000000E+00 -0.69571120018E+03  0.69571120020E+03  0.50400001928E-02 0.  1.
    10030    2    1    2    0    0  0.00000000000E+00  0.00000000000E+00  0.22348399059E+03  0.16149063910E+04  0.15993678619E+04 0.  0.
        1    1    3    3  502    0  0.60071880184E+03  0.16737714598E+03 -0.39373751950E+03  0.73750079469E+03  0.50400001928E-02 0.  1.
       -1    1    3    3    0  502 -0.60071880184E+03 -0.16737714598E+03  0.61722151009E+03  0.87740559630E+03  0.50400001928E-02 0. -1.
</event>
<event>
 5   0  0.1990948E-05  0.1599302E+04  0.7818609E-02  0.8820977E-01
       -2   -1    0    0    0  501  0.00000000000E+00  0.00000000000E+00  0.43591374839E+03  0.43591374840E+03  0.25500000920E-02 0.  1.
        2   -1    0    0  501    0  0.00000000000E+00  0.00000000000E+00 -0.14668993195E+04  0.14668993195E+04  0.25500000920E-02 0. -1.
    10030    2    1    2    0    0  0.00000000000E+00  0.00000000000E+00 -0.10309855711E+04  0.19028130679E+04  0.15993018238E+04 0.  0.
        4    1    3    3  502    0 -0.11136905624E+03  0.73739326217E+03 -0.17212692452E+03  0.76536343055E+03  0.12699999809E+01 0.  1.
       -4    1    3    3    0  502  0.11136905624E+03 -0.73739326217E+03 -0.85885864654E+03  0.11374496373E+04  0.12699999809E+01 0. -1.
</event>
<event>
 5   0  0.2125803E-05  0.1599182E+04  0.7818609E-02  0.8821050E-01
        2   -1    0    0  501    0  0.00000000000E+00  0.00000000000E+00  0.10940518019E+04  0.10940518019E+04  0.25500000920E-02 0.  1.
       -2   -1    0    0    0  501  0.00000000000E+00  0.00000000000E+00 -0.58438368991E+03  0.58438368991E+03  0.25500000920E-02 0. -1.
    10030    2    1    2    0    0  0.00000000000E+00  0.00000000000E+00  0.50966811202E+03  0.16784354918E+04  0.15991823273E+04 0.  0.
        3    1    3    3  502    0 -0.54669463731E+03  0.57139712657E+03  0.37891441152E+03  0.87689557199E+03  0.10100000352E+00 0.  1.
       -3    1    3    3    0  502  0.54669463731E+03 -0.57139712657E+03  0.13075370050E+03  0.80153991985E+03  0.10100000352E+00 0. -1.
</event>
<event>
 5   0  0.1081831E-05  0.1600007E+04  0.7818609E-02  0.8820544E-01
        1   -1    0    0  501    0  0.00000000000E+00  0.00000000000E+00  0.12439453174E+04  0.12439453174E+04  0.50400001928E-02 0.  1.
       -1   -1    0    0    0  501  0.00000000000E+00  0.00000000000E+00 -0.51449631008E+03  0.51449631010E+03  0.50400001928E-02 0. -1.
    10030    2    1    2    0    0  0.00000000000E+00  0.00000000000E+00  0.72944900729E+03  0.17584416275E+04  0.16000065947E+04 0.  0.
        3    1    3    3  502    0 -0.18187950879E+03  0.72346802680E+03  0.47110860824E+02  0.74746610955E+03  0.10100000352E+00 0.  1.
       -3    1    3    3    0  502  0.18187950879E+03 -0.72346802680E+03  0.68233814647E+03  0.10109755179E+04  0.10100000352E+00 0. -1.
</event>
<event>
 5   0  0.1057506E-05  0.1601051E+04  0.7818609E-02  0.8819903E-01
       -1   -1    0    0    0  501  0.00000000000E+00  0.00000000000E+00  0.14851800033E+04  0.14851800034E+04  0.50400001928E-02 0. -1.
        1   -1    0    0  501    0  0.00000000000E+00  0.00000000000E+00 -0.43149025234E+03  0.43149025237E+03  0.50400001928E-02 0.  1.
    10030    2    1    2    0    0  0.00000000000E+00  0.00000000000E+00  0.10536897510E+04  0.19166702557E+04  0.16010505232E+04 0.  0.
        5    1    3    3  502    0 -0.73225969159E+03  0.27221418748E+03  0.73596238831E+03  0.10732975109E+04  0.46999998093E+01 0.  1.
       -5    1    3    3    0  502  0.73225969159E+03 -0.27221418748E+03  0.31772736270E+03  0.84337274487E+03  0.46999998093E+01 0. -1.
</event>
<event>
 5   0  0.7597000E-06  0.1600035E+04  0.7818609E-02  0.8820526E-01
       -3   -1    0    0    0  501  0.00000000000E+00  0.00000000000E+00  0.58146649087E+03  0.58146649964E+03  0.10100000352E+00 0.  1.
        3   -1    0    0  501    0  0.00000000000E+00  0.00000000000E+00 -0.11007137217E+04  0.11007137263E+04  0.10100000352E+00 0. -1.
    10030    2    1    2    0    0  0.00000000000E+00  0.00000000000E+00 -0.51924723083E+03  0.16821802260E+04  0.16000351952E+04 0.  0.
        3    1    3    3  502    0 -0.24515475033E+03 -0.76146804695E+03 -0.26980089430E+03  0.84423158606E+03  0.10100000352E+00 0. -1.
       -3    1    3    3    0  502  0.24515475033E+03  0.76146804695E+03 -0.24944633654E+03  0.83794863992E+03  0.10100000352E+00 0.  1.
</event>
<event>
 5   0  0.1090674E-05  0.1599878E+04  0.7818609E-02  0.8820623E-01
       -1   -1    0    0    0  501  0.00000000000E+00  0.00000000000E+00  0.57623964624E+03  0.57623964627E+03  0.50400001928E-02 0. -1.
        1   -1    0    0  501    0  0.00000000000E+00  0.00000000000E+00 -0.11104793865E+04  0.11104793865E+04  0.50400001928E-02 0.  1.
    10030    2    1    2    0    0  0.00000000000E+00  0.00000000000E+00 -0.53423974023E+03  0.16867190327E+04  0.15998778064E+04 0.  0.
        4    1    3    3  502    0  0.39376903958E+03  0.69604131940E+03 -0.28748306515E+03  0.84980921417E+03  0.12699999809E+01 0.  1.
       -4    1    3    3    0  502 -0.39376903958E+03 -0.69604131940E+03 -0.24675667508E+03  0.83690981858E+03  0.12699999809E+01 0. -1.
</event>
<event>
 5   0  0.1994525E-05  0.1599209E+04  0.7818609E-02  0.8821034E-01
       -2   -1    0    0    0  501  0.00000000000E+00  0.00000000000E+00  0.53087111999E+03  0.53087112000E+03  0.25500000920E-02 0.  1.
        2   -1    0    0  501    0  0.00000000000E+00  0.00000000000E+00 -0.12043738735E+04  0.12043738735E+04  0.25500000920E-02 0. -1.
    10030    2    1    2    0    0  0.00000000000E+00  0.00000000000E+00 -0.67350275355E+03  0.17352449935E+04  0.15992089384E+04 0.  0.
        5    1    3    3  502    0 -0.22187262884E+02 -0.26202936769E+03 -0.11560962542E+04  0.11856358223E+04  0.46999998093E+01 0. -1.
       -5    1    3    3    0  502  0.22187262884E+02  0.26202936769E+03  0.48259350069E+03  0.54960917120E+03  0.46999998093E+01 0.  1.
</event>
<event>
 5   0  0.2147844E-05  0.1600022E+04  0.7818609E-02  0.8820535E-01
        2   -1    0    0  501    0  0.00000000000E+00  0.00000000000E+00  0.11607813015E+04  0.11607813015E+04  0.25500000920E-02 0. -1.
       -2   -1    0    0    0  501  0.00000000000E+00  0.00000000000E+00 -0.55136774233E+03  0.55136774234E+03  0.25500000920E-02 0.  1.
    10030    2    1    2    0    0  0.00000000000E+00  0.00000000000E+00  0.60941355912E+03  0.17121490438E+04  0.16000217068E+04 0.  0.
        2    1    3    3  502    0 -0.37849538832E+03 -0.48738838127E+03 -0.24010006010E+03  0.66215876649E+03  0.25500000920E-02 0.  1.
       -2    1    3    3    0  502  0.37849538832E+03  0.48738838127E+03  0.84951361922E+03  0.10499902773E+04  0.25500000920E-02 0. -1.
</event>
<event>
 5   0  0.2125803E-05  0.1600188E+04  0.7818609E-02  0.8820433E-01
       -2   -1    0    0    0  501  0.00000000000E+00  0.00000000000E+00  0.60935246467E+03  0.60935246468E+03  0.25500000920E-02 0. -1.
        2   -1    0    0  501    0  0.00000000000E+00  0.00000000000E+00 -0.10505420582E+04  0.10505420582E+04  0.25500000920E-02 0.  1.
    10030    2    1    2    0    0  0.00000000000E+00  0.00000000000E+00 -0.44118959348E+03  0.16598945228E+04  0.16001879794E+04 0.  0.
        3    1    3    3  502    0  0.72542899233E+03 -0.26854177416E+03 -0.43264453876E+03  0.88630875800E+03  0.10100000352E+00 0.  1.
       -3    1    3    3    0  502 -0.72542899233E+03  0.26854177416E+03 -0.85450547209E+01  0.77358576483E+03  0.10100000352E+00 0. -1.
</event>
<event>
 5   0  0.2147844E-05  0.1600185E+04  0.7818609E-02  0.8820434E-01
       -2   -1    0    0    0  501  0.00000000000E+00  0.00000000000E+00  0.70891464220E+03  0.70891464221E+03  0.25500000920E-02 0. -1.
        2   -1    0    0  501    0  0.00000000000E+00  0.00000000000E+00 -0.90299727329E+03  0.90299727329E+03  0.25500000920E-02 0.  1.
    10030    2    1    2    0    0  0.00000000000E+00  0.00000000000E+00 -0.19408263109E+03  0.16119119155E+04  0.16001849754E+04 0.  0.
        2    1    3    3  502    0  0.16922572516E+03  0.25255445274E+03 -0.84255075901E+03  0.89571919661E+03  0.25500000920E-02 0.  1.
       -2    1    3    3    0  502 -0.16922572516E+03 -0.25255445274E+03  0.64846812793E+03  0.71619271889E+03  0.25500000920E-02 0. -1.
</event>
<event>
 5   0  0.2125803E-05  0.1600199E+04  0.7818609E-02  0.8820426E-01
        2   -1    0    0  501    0  0.00000000000E+00  0.00000000000E+00  0.93172396558E+03  0.93172396558E+03  0.25500000920E-02 0.  1.
       -2   -1    0    0    0  501  0.00000000000E+00  0.00000000000E+00 -0.68706930612E+03  0.68706930613E+03  0.25500000920E-02 0. -1.
    10030    2    1    2    0    0  0.00000000000E+00  0.00000000000E+00  0.24465465946E+03  0.16187932717E+04  0.16001986608E+04 0.  0.
        3    1    3    3  502    0 -0.14485469499E+03 -0.75740313979E+03  0.33815248326E+03  0.84201514889E+03  0.10100000352E+00 0. -1.
       -3    1    3    3    0  502  0.14485469499E+03  0.75740313979E+03 -0.93497823801E+02  0.77677812282E+03  0.10100000352E+00 0.  1.
</event>
<event>
 5   0  0.1994525E-05  0.1600165E+04  0.7818609E-02  0.8820446E-01
        2   -1    0    0  501    0  0.00000000000E+00  0.00000000000E+00  0.14973190573E+04  0.14973190573E+04  0.25500000920E-02 0.  1.
       -2   -1    0    0    0  501  0.00000000000E+00  0.00000000000E+00 -0.42751895945E+03  0.42751895946E+03  0.25500000920E-02 0. -1.
    10030    2    1    2    0    0  0.00000000000E+00  0.00000000000E+00  0.10698000978E+04  0.19248380167E+04  0.16001653481E+04 0.  0.
        5    1    3    3  502    0  0.43563803086E+03  0.35684458793E+03  0.12185361175E+04  0.13423751017E+04  0.46999998093E+01 0.  1.
       -5    1    3    3    0  502 -0.43563803086E+03 -0.35684458793E+03 -0.14873601971E+03  0.58246291506E+03  0.46999998093E+01 0. -1.
</event>
<event>
 5   0  0.1990948E-05  0.1600184E+04  0.7818609E-02  0.8820435E-01
       -2   -1    0    0    0  501  0.00000000000E+00  0.00000000000E+00  0.34174355958E+03  0.34174355959E+03  0.25500000920E-02 0.  1.
        2   -1    0    0  501    0  0.00000000000E+00  0.00000000000E+00 -0.18731806523E+04  0.18731806523E+04  0.25500000920E-02 0. -1.
    10030    2    1    2    0    0  0.00000000000E+00  0.00000000000E+00 -0.15314370927E+04  0.22149242119E+04  0.16001842692E+04 0.  0.
        4    1    3    3  502    0  0.47417984456E+03 -0.27010723653E+03  0.44157518410E+02  0.54749972013E+03  0.12699999809E+01 0.  1.
       -4    1    3    3    0  502 -0.47417984456E+03  0.27010723653E+03 -0.15755946112E+04  0.16674244918E+04  0.12699999809E+01 0. -1.
</event>
<event>
 5   0  0.1990948E-05  0.1598529E+04  0.7818609E-02  0.8821452E-01
       -2   -1    0    0    0  501  0.00000000000E+00  0.00000000000E+00  0.37737080309E+03  0.37737080310E+03  0.25500000920E-02 0. -1.
        2   -1    0    0  501    0  0.00000000000E+00  0.00000000000E+00 -0.16928280912E+04  0.16928280912E+04  0.25500000920E-02 0.  1.
    10030    2    1    2    0    0  0.00000000000E+00  0.00000000000E+00 -0.13154572881E+04  0.20701988943E+04  0.15985291943E+04 0.  0.
        4    1    3    3  502    0 -0.40019483013E+03 -0.29207571722E+03 -0.14699709013E+04  0.15512189369E+04  0.12699999809E+01 0.  1.
       -4    1    3    3    0  502  0.40019483013E+03  0.29207571722E+03  0.15451361316E+03  0.51897995742E+03  0.12699999809E+01 0. -1.
</event>
<event>
 5   0  0.1060251E-05  0.1610569E+04  0.7818609E-02  0.8814081E-01
       -1   -1    0    0    0  501  0.00000000000E+00  0.00000000000E+00  0.17266506255E+04  0.17266506255E+04  0.50400001928E-02 0. -1.
        1   -1    0    0  501    0  0.00000000000E+00  0.00000000000E+00 -0.37557281738E+03  0.37557281741E+03  0.50400001928E-02 0.  1.
    10030    2    1    2    0    0  0.00000000000E+00  0.00000000000E+00  0.13510778082E+04  0.21022234430E+04  0.16105688934E+04 0.  0.
        1    1    3    3  502    0 -0.76387408546E+03  0.22345261212E+03  0.51541947407E+03  0.94820457844E+03  0.50400001928E-02 0.  1.
       -1    1    3    3    0  502  0.76387408546E+03 -0.22345261212E+03  0.83565833408E+03  0.11540188645E+04  0.50400001928E-02 0. -1.
</event>
<event>
 5   0  0.2147844E-05  0.1600258E+04  0.7818609E-02  0.8820389E-01
       -2   -1    0    0    0  501  0.00000000000E+00  0.00000000000E+00  0.30319338873E+03  0.30319338874E+03  0.25500000920E-02 0.  1.
        2   -1    0    0  501    0  0.00000000000E+00  0.00000000000E+00 -0.21115455110E+04  0.21115455110E+04  0.25500000920E-02 0. -1.
    10030    2    1    2    0    0  0.00000000000E+00  0.00000000000E+00 -0.18083521223E+04  0.24147388997E+04  0.16002582778E+04 0.  0.
        2    1    3    3  502    0 -0.30397719828E+03 -0.10424597848E+03  0.20153556050E+03  0.37932300649E+03  0.25500000920E-02 0.  1.
       -2    1    3    3    0  502  0.30397719828E+03  0.10424597848E+03 -0.20098876828E+04  0.20354158932E+04  0.25500000920E-02 0. -1.
</event>
<event>
 5   0  0.1057506E-05  0.1597111E+04  0.7818609E-02  0.8822325E-01
        1   -1    0    0  501    0  0.00000000000E+00  0.00000000000E+00  0.84807836346E+03  0.84807836348E+03  0.50400001928E-02 0. -1.
       -1   -1    0    0    0  501  0.00000000000E+00  0.00000000000E+00 -0.75192405454E+03  0.75192405456E+03  0.50400001928E-02 0.  1.
    10030    2    1    2    0    0  0.00000000000E+00  0.00000000000E+00  0.96154308918E+02  0.16000024180E+04  0.15971105430E+04 0.  0.
        5    1    3    3  502    0 -0.95623152934E+02  0.55517289073E+03  0.61505926434E+03  0.83407476561E+03  0.46999998093E+01 0. -1.
       -5    1    3    3    0  502  0.95623152934E+02 -0.55517289073E+03 -0.51890495543E+03  0.76592765242E+03  0.46999998093E+01 0.  1.
</event>
<event>
 5   0  0.1060251E-05  0.1599861E+04  0.7818609E-02  0.8820633E-01
       -1   -1    0    0    0  501  0.00000000000E+00  0.00000000000E+00  0.57462136732E+03  0.57462136734E+03  0.50400001928E-02 0.  1.
        1   -1    0    0  501    0  0.00000000000E+00  0.00000000000E+00 -0.11135837740E+04  0.11135837740E+04  0.50400001928E-02 0. -1.
    10030    2    1    2    0    0  0.00000000000E+00  0.00000000000E+00 -0.53896240665E+03  0.16882051413E+04  0.15998612826E+04 0.  0.
        1    1    3    3  502    0  0.65107079593E+03 -0.39495754798E+03 -0.52796563080E+03  0.92662417050E+03  0.50400001928E-02 0. -1.
       -1    1    3    3    0  502 -0.65107079593E+03  0.39495754798E+03 -0.10996775854E+02  0.76158097083E+03  0.50400001928E-02 0.  1.
</event>
<event>
 5   0  0.1057506E-05  0.1600241E+04  0.7818609E-02  0.8820400E-01
        1   -1    0    0  501    0  0.00000000000E+00  0.00000000000E+00  0.12788632251E+04  0.12788632251E+04  0.50400001928E-02 0.  1.
       -1   -1    0    0    0  501  0.00000000000E+00  0.00000000000E+00 -0.50059493475E+03  0.50059493477E+03  0.50400001928E-02 0. -1.
    10030    2    1    2    0    0  0.00000000000E+00  0.00000000000E+00  0.77826829032E+03  0.17794581599E+04  0.16002405478E+04 0.  0.
        5    1    3    3  502    0 -0.71809932142E+03  0.32170419683E+02  0.77986806017E+03  0.10606214464E+04  0.46999998093E+01 0. -1.
       -5    1    3    3    0  502  0.71809932142E+03 -0.32170419683E+02 -0.15997698460E+01  0.71883671344E+03  0.46999998093E+01 0.  1.
</event>
<event>
 5   0  0.2046108E-05  0.1600017E+04  0.7818609E-02  0.8820537E-01
       -2   -1    0    0    0  501  0.00000000000E+00  0.00000000000E+00  0.38435818536E+03  0.38435818537E+03  0.25500000920E-02 0. -1.
        2   -1    0    0  501    0  0.00000000000E+00  0.00000000000E+00 -0.16651498513E+04  0.16651498513E+04  0.25500000920E-02 0.  1.
    10030    2    1    2    0    0  0.00000000000E+00  0.00000000000E+00 -0.12807916659E+04  0.20495080366E+04  0.16000174689E+04 0.  0.
        1    1    3    3  502    0 -0.39799892544E+03  0.57973363771E+03 -0.11290322784E+04  0.13301158299E+04  0.50400001928E-02 0.  1.
       -1    1    3    3    0  502  0.39799892544E+03 -0.57973363771E+03 -0.15175938752E+03  0.71939220671E+03  0.50400001928E-02 0. -1.
</event>
<event>
 5   0  0.2125803E-05  0.1600267E+04  0.7818609E-02  0.8820384E-01
        2   -1    0    0  501    0  0.00000000000E+00  0.00000000000E+00  0.13081610589E+04  0.13081610589E+04  0.25500000920E-02 0. -1.
       -2   -1    0    0    0  501  0.00000000000E+00  0.00000000000E+00 -0.48939973903E+03  0.48939973904E+03  0.25500000920E-02 0.  1.
    10030    2    1    2    0    0  0.00000000000E+00  0.00000000000E+00  0.81876131987E+03  0.17975607979E+04  0.16002670788E+04 0.  0.
        3    1    3    3  502    0 -0.78386834704E+02 -0.54124885482E+03 -0.24667997213E+03  0.59995486292E+03  0.10100000352E+00 0.  1.
       -3    1    3    3    0  502  0.78386834704E+02  0.54124885482E+03  0.10654412920E+04  0.11976059350E+04  0.10100000352E+00 0. -1.
</event>
<event>
 5   0  0.1994525E-05  0.1600227E+04  0.7818609E-02  0.8820409E-01
       -2   -1    0    0    0  501  0.00000000000E+00  0.00000000000E+00  0.35517010200E+03  0.35517010200E+03  0.25500000920E-02 0. -1.
        2   -1    0    0  501    0  0.00000000000E+00  0.00000000000E+00 -0.18024644737E+04  0.18024644737E+04  0.25500000920E-02 0.  1.
    10030    2    1    2    0    0  0.00000000000E+00  0.00000000000E+00 -0.14472943717E+04  0.21576345757E+04  0.16002268476E+04 0.  0.
        5    1    3    3  502    0  0.63266969017E+03  0.12430550287E+03 -0.84879133691E+02  0.65034556371E+03  0.46999998093E+01 0. -1.
       -5    1    3    3    0  502 -0.63266969017E+03 -0.12430550287E+03 -0.13624152380E+04  0.15072890120E+04  0.46999998093E+01 0.  1.
</event>
<event>
 5   0  0.1057506E-05  0.1601409E+04  0.7818609E-02  0.8819683E-01
       -1   -1    0    0    0  501  0.00000000000E+00  0.00000000000E+00  0.10992435373E+04  0.10992435373E+04  0.50400001928E-02 0. -1.
        1   -1    0    0  501    0  0.00000000000E+00  0.00000000000E+00 -0.58324445777E+03  0.58324445780E+03  0.50400001928E-02 0.  1.
    10030    2    1    2    0    0  0.00000000000E+00  0.00000000000E+00  0.51599907955E+03  0.16824879951E+04  0.16014090057E+04 0.  0.
        5    1    3    3  502    0 -0.39018862196E+01  0.65511296811E+03  0.74165155423E+03  0.98957432444E+03  0.46999998093E+01 0. -1.
       -5    1    3    3    0  502  0.39018862196E+01 -0.65511296811E+03 -0.22565247468E+03  0.69291367069E+03  0.46999998093E+01 0.  1.
</event>
<event>
 5   0  0.2125803E-05  0.1603766E+04  0.7818609E-02  0.8818238E-01
        2   -1    0    0  501    0  0.00000000000E+00  0.00000000000E+00  0.83091179848E+03  0.83091179849E+03  0.25500000920E-02 0. -1.
       -2   -1    0    0    0  501  0.00000000000E+00  0.00000000000E+00 -0.77386831831E+03  0.77386831831E+03  0.25500000920E-02 0.  1.
    10030    2    1    2    0    0  0.00000000000E+00  0.00000000000E+00  0.57043480177E+02  0.16047801168E+04  0.16037659632E+04 0.  0.
        3    1    3    3  502    0 -0.27871952427E+02 -0.48872432727E+03  0.66405169564E+03  0.82498059279E+03  0.10100000352E+00 0. -1.
       -3    1    3    3    0  502  0.27871952427E+02  0.48872432727E+03 -0.60700821547E+03  0.77979952401E+03  0.10100000352E+00 0.  1.
</event>
<event>
 5   0  0.1990948E-05  0.1600557E+04  0.7818609E-02  0.8820206E-01
        2   -1    0    0  501    0  0.00000000000E+00  0.00000000000E+00  0.73894419788E+03  0.73894419788E+03  0.25500000920E-02 0. -1.
       -2   -1    0    0    0  501  0.00000000000E+00  0.00000000000E+00 -0.86670404258E+03  0.86670404259E+03  0.25500000920E-02 0.  1.
    10030    2    1    2    0    0  0.00000000000E+00  0.00000000000E+00 -0.12775984470E+03  0.16056482405E+04  0.16005573074E+04 0.  0.
        4    1    3    3  502    0  0.58682442718E+02  0.44145458279E+03 -0.73091479476E+03  0.85589942625E+03  0.12699999809E+01 0.  1.
       -4    1    3    3    0  502 -0.58682442718E+02 -0.44145458279E+03  0.60315495006E+03  0.74974881422E+03  0.12699999809E+01 0. -1.
</event>
<event>
 5   0  0.1994525E-05  0.1600541E+04  0.7818609E-02  0.8820216E-01
       -2   -1    0    0    0  501  0.00000000000E+00  0.00000000000E+00  0.60200733304E+03  0.60200733305E+03  0.25500000920E-02 0.  1.
        2   -1    0    0  501    0  0.00000000000E+00  0.00000000000E+00 -0.10638294477E+04  0.10638294477E+04  0.25500000920E-02 0. -1.
    10030    2    1    2    0    0  0.00000000000E+00  0.00000000000E+00 -0.46182211464E+03  0.16658367807E+04  0.16005413192E+04 0.  0.
        5    1    3    3  502    0 -0.45237767781E+03 -0.17878422807E+03  0.43046674490E+03  0.64956375519E+03  0.46999998093E+01 0.  1.
       -5    1    3    3    0  502  0.45237767781E+03  0.17878422807E+03 -0.89228885954E+03  0.10162730255E+04  0.46999998093E+01 0. -1.
</event>
<event>
 5   0  0.1057506E-05  0.1603635E+04  0.7818609E-02  0.8818318E-01
        1   -1    0    0  501    0  0.00000000000E+00  0.00000000000E+00  0.13854840301E+04  0.13854840301E+04  0.50400001928E-02 0. -1.
       -1   -1    0    0    0  501  0.00000000000E+00  0.00000000000E+00 -0.46403386824E+03  0.46403386827E+03  0.50400001928E-02 0.  1.
    10030    2    1    2    0    0  0.00000000000E+00  0.00000000000E+00  0.92145016184E+03  0.18495178984E+04  0.16036352626E+04 0.  0.
        5    1    3    3  502    0 -0.10631132805E+03  0.74148477331E+03  0.79056014509E+03  0.10890864064E+04  0.46999998093E+01 0. -1.
       -5    1    3    3    0  502  0.10631132805E+03 -0.74148477331E+03  0.13089001674E+03  0.76043149199E+03  0.46999998093E+01 0.  1.
</event>
<event>
 5   0  0.2125803E-05  0.1599923E+04  0.7818609E-02  0.8820596E-01
       -2   -1    0    0    0  501  0.00000000000E+00  0.00000000000E+00  0.35293364801E+03  0.35293364802E+03  0.25500000920E-02 0.  1.
        2   -1    0    0  501    0  0.00000000000E+00  0.00000000000E+00 -0.18131967021E+04  0.18131967021E+04  0.25500000920E-02 0. -1.
    10030    2    1    2    0    0  0.00000000000E+00  0.00000000000E+00 -0.14602630541E+04  0.21661303501E+04  0.15999226565E+04 0.  0.
        3    1    3    3  502    0  0.95496044692E+00  0.78380422735E+03 -0.94670483924E+03  0.12290647020E+04  0.10100000352E+00 0. -1.
       -3    1    3    3    0  502 -0.95496044692E+00 -0.78380422735E+03 -0.51355821486E+03  0.93706564818E+03  0.10100000352E+00 0.  1.
</event>
<event>
 5   0  0.2046108E-05  0.1599673E+04  0.7818609E-02  0.8820749E-01
       -2   -1    0    0    0  501  0.00000000000E+00  0.00000000000E+00  0.62923321820E+03  0.62923321821E+03  0.25500000920E-02 0. -1.
        2   -1    0    0  501    0  0.00000000000E+00  0.00000000000E+00 -0.10166950749E+04  0.10166950749E+04  0.25500000920E-02 0.  1.
    10030    2    1    2    0    0  0.00000000000E+00  0.00000000000E+00 -0.38746185672E+03  0.16459282931E+04  0.15996728590E+04 0.  0.
        1    1    3    3  502    0  0.10072690732E+03  0.18372635568E+03 -0.98795579345E+03  0.10099296676E+04  0.50400001928E-02 0.  1.
       -1    1    3    3    0  502 -0.10072690732E+03 -0.18372635568E+03  0.60049393673E+03  0.63599862555E+03  0.50400001928E-02 0. -1.
</event>
<event>
 5   0  0.1990948E-05  0.1599903E+04  0.7818609E-02  0.8820607E-01
       -2   -1    0    0    0  501  0.00000000000E+00  0.00000000000E+00  0.50195724237E+03  0.50195724238E+03  0.25500000920E-02 0. -1.
        2   -1    0    0  501    0  0.00000000000E+00  0.00000000000E+00 -0.12748549398E+04  0.12748549398E+04  0.25500000920E-02 0.  1.
    10030    2    1    2    0    0  0.00000000000E+00  0.00000000000E+00 -0.77289769739E+03  0.17768121821E+04  0.15999033346E+04 0.  0.
        4    1    3    3  502    0  0.10830624928E+03 -0.75948857090E+03 -0.63815497576E+03  0.99789604616E+03  0.12699999809E+01 0.  1.
       -4    1    3    3    0  502 -0.10830624928E+03  0.75948857090E+03 -0.13474272162E+03  0.77891613598E+03  0.12699999809E+01 0. -1.
</event>
<event>
 5   0  0.2046108E-05  0.1600263E+04  0.7818609E-02  0.8820387E-01
        2   -1    0    0  501    0  0.00000000000E+00  0.00000000000E+00  0.84499383239E+03  0.84499383239E+03  0.25500000920E-02 0.  1.
       -2   -1    0    0    0  501  0.00000000000E+00  0.00000000000E+00 -0.75765052835E+03  0.75765052836E+03  0.25500000920E-02 0. -1.
    10030    2    1    2    0    0  0.00000000000E+00  0.00000000000E+00  0.87343304032E+02  0.16026443607E+04  0.16002625079E+04 0.  0.
        1    1    3    3  502    0 -0.13525802354E+03 -0.25252542154E+03  0.79187546357E+03  0.84209890826E+03  0.50400001928E-02 0.  1.
       -1    1    3    3    0  502  0.13525802354E+03  0.25252542154E+03 -0.70453215954E+03  0.76054545249E+03  0.50400001928E-02 0. -1.
</event>
<event>
 5   0  0.2125803E-05  0.1600075E+04  0.7818609E-02  0.8820502E-01
        2   -1    0    0  501    0  0.00000000000E+00  0.00000000000E+00  0.14555459367E+04  0.14555459367E+04  0.25500000920E-02 0. -1.
       -2   -1    0    0    0  501  0.00000000000E+00  0.00000000000E+00 -0.43973880801E+03  0.43973880802E+03  0.25500000920E-02 0.  1.
    10030    2    1    2    0    0  0.00000000000E+00  0.00000000000E+00  0.10158071286E+04  0.18952847447E+04  0.16000750422E+04 0.  0.
        3    1    3    3  502    0 -0.61561010779E+03 -0.47272058586E+03  0.27816154186E+03  0.82450858739E+03  0.10100000352E+00 0.  1.
       -3    1    3    3    0  502  0.61561010779E+03  0.47272058586E+03  0.73764558678E+03  0.10707761573E+04  0.10100000352E+00 0. -1.
</event>
<event>
 5   0  0.2147844E-05  0.1600125E+04  0.7818609E-02  0.8820471E-01
        2   -1    0    0  501    0  0.00000000000E+00  0.00000000000E+00  0.17481611800E+04  0.17481611800E+04  0.25500000920E-02 0. -1.
       -2   -1    0    0    0  501  0.00000000000E+00  0.00000000000E+00 -0.36615596609E+03  0.36615596610E+03  0.25500000920E-02 0.  1.
    10030    2    1    2    0    0  0.00000000000E+00  0.00000000000E+00  0.13820052139E+04  0.21143171461E+04  0.16001245523E+04 0.  0.
        2    1    3    3  502    0  0.46943596470E+02  0.71043389733E+03  0.20879369601E+03  0.74196686666E+03  0.25500000920E-02 0.  1.
       -2    1    3    3    0  502 -0.46943596470E+02 -0.71043389733E+03  0.11732115178E+04  0.13723502794E+04  0.25500000920E-02 0. -1.
</event>
<event>
 5   0  0.2046108E-05  0.1599428E+04  0.7818609E-02  0.8820899E-01
       -2   -1    0    0    0  501  0.00000000000E+00  0.00000000000E+00  0.75919904146E+03  0.75919904146E+03  0.25500000920E-02 0. -1.
        2   -1    0    0  501    0  0.00000000000E+00  0.00000000000E+00 -0.84239134807E+03  0.84239134807E+03  0.25500000920E-02 0.  1.
    10030    2    1    2    0    0  0.00000000000E+00  0.00000000000E+00 -0.83192306608E+02  0.16015903895E+04  0.15994282778E+04 0.  0.
        1    1    3    3  502    0  0.17668494447E+03  0.23083622496E+03  0.70442086698E+03  0.76204441486E+03  0.50400001928E-02 0. -1.
       -1    1    3    3    0  502 -0.17668494447E+03 -0.23083622496E+03 -0.78761317359E+03  0.83954597467E+03  0.50400001928E-02 0.  1.
</event>
<event>
 5   0  0.2147844E-05  0.1601477E+04  0.7818609E-02  0.8819641E-01
        2   -1    0    0  501    0  0.00000000000E+00  0.00000000000E+00  0.11488859653E+04  0.11488859653E+04  0.25500000920E-02 0.  1.
       -2   -1    0    0    0  501  0.00000000000E+00  0.00000000000E+00 -0.55809016134E+03  0.55809016135E+03  0.25500000920E-02 0. -1.
    10030    2    1    2    0    0  0.00000000000E+00  0.00000000000E+00  0.59079580393E+03  0.17069761266E+04  0.16014767607E+04 0.  0.
        2    1    3    3  502    0 -0.38542158134E+03 -0.26063810849E+03  0.99001889323E+03  0.10939010138E+04  0.25500000920E-02 0.  1.
       -2    1    3    3    0  502  0.38542158134E+03  0.26063810849E+03 -0.39922308930E+03  0.61307511285E+03  0.25500000920E-02 0. -1.
</event>
<event>
 5   0  0.1060251E-05  0.1598701E+04  0.7818609E-02  0.8821346E-01
        1   -1    0    0  501    0  0.00000000000E+00  0.00000000000E+00  0.42413352212E+03  0.42413352215E+03  0.50400001928E-02 0. -1.
       -1   -1    0    0    0  501  0.00000000000E+00  0.00000000000E+00 -0.15065104516E+04  0.15065104516E+04  0.50400001928E-02 0.  1.
    10030    2    1    2    0    0  0.00000000000E+00  0.00000000000E+00 -0.10823769295E+04  0.19306439738E+04  0.15987014530E+04 0.  0.
        1    1    3    3  502    0 -0.35396860376E+03 -0.50573255462E+03  0.72096773634E+02  0.62149588417E+03  0.50400001928E-02 0. -1.
       -1    1    3    3    0  502  0.35396860376E+03  0.50573255462E+03 -0.11544737031E+04  0.13091480896E+04  0.50400001928E-02 0.  1.
</event>
<event>
 5   0  0.1126485E-05  0.1600692E+04  0.7818609E-02  0.8820123E-01
       -1   -1    0    0    0  501  0.00000000000E+00  0.00000000000E+00  0.96269852983E+03  0.96269852984E+03  0.50400001928E-02 0.  1.
        1   -1    0    0  501    0  0.00000000000E+00  0.00000000000E+00 -0.66537296275E+03  0.66537296276E+03  0.50400001928E-02 0. -1.
    10030    2    1    2    0    0  0.00000000000E+00  0.00000000000E+00  0.29732556708E+03  0.16280714926E+04  0.16006918167E+04 0.  0.
        2    1    3    3  502    0 -0.29596414752E+03  0.11309384711E+02 -0.60758114285E+03  0.67592715876E+03  0.25500000920E-02 0. -1.
       -2    1    3    3    0  502  0.29596414752E+03 -0.11309384711E+02  0.90490670993E+03  0.95214433385E+03  0.25500000920E-02 0.  1.
</event>
<event>
 5   0  0.1090674E-05  0.1600384E+04  0.7818609E-02  0.8820312E-01
        1   -1    0    0  501    0  0.00000000000E+00  0.00000000000E+00  0.15833051685E+04  0.15833051685E+04  0.50400001928E-02 0.  1.
       -1   -1    0    0    0  501  0.00000000000E+00  0.00000000000E+00 -0.40441176454E+03  0.40441176457E+03  0.50400001928E-02 0. -1.
    10030    2    1    2    0    0  0.00000000000E+00  0.00000000000E+00  0.11788934040E+04  0.19877169331E+04  0.16003840002E+04 0.  0.
        4    1    3    3  502    0 -0.58431229127E+03  0.33852651254E+03  0.11226278976E+04  0.13100824641E+04  0.12699999809E+01 0.  1.
       -4    1    3    3    0  502  0.58431229127E+03 -0.33852651254E+03  0.56265506356E+02  0.67763446896E+03  0.12699999809E+01 0. -1.
</event>
<event>
 5   0  0.1057506E-05  0.1601341E+04  0.7818609E-02  0.8819724E-01
       -1   -1    0    0    0  501  0.00000000000E+00  0.00000000000E+00  0.89637583169E+03  0.89637583171E+03  0.50400001928E-02 0.  1.
        1   -1    0    0  501    0  0.00000000000E+00  0.00000000000E+00 -0.71518374730E+03  0.71518374732E+03  0.50400001928E-02 0. -1.
    10030    2    1    2    0    0  0.00000000000E+00  0.00000000000E+00  0.18119208439E+03  0.16115595790E+04  0.16013412208E+04 0.  0.
        5    1    3    3  502    0 -0.50054569506E+03  0.33394093802E+02  0.71858929706E+03  0.87638680170E+03  0.46999998093E+01 0.  1.
       -5    1    3    3    0  502  0.50054569506E+03 -0.33394093802E+02 -0.53739721267E+03  0.73517277733E+03  0.46999998093E+01 0. -1.
</event>
<event>
 5   0  0.2125803E-05  0.1601409E+04  0.7818609E-02  0.8819683E-01
       -2   -1    0    0    0  501  0.00000000000E+00  0.00000000000E+00  0.80801748715E+03  0.80801748716E+03  0.25500000920E-02 0. -1.
        2   -1    0    0  501    0  0.00000000000E+00  0.00000000000E+00 -0.79345786125E+03  0.79345786125E+03  0.25500000920E-02 0.  1.
    10030    2    1    2    0    0  0.00000000000E+00  0.00000000000E+00  0.14559625904E+02  0.16014753484E+04  0.16014091635E+04 0.  0.
        3    1    3    3  502    0 -0.28718605320E+02  0.57322685155E+03 -0.55105682536E+03  0.79566162193E+03  0.10100000352E+00 0. -1.
       -3    1    3    3    0  502  0.28718605320E+02 -0.57322685155E+03  0.56561645127E+03  0.80581372648E+03  0.10100000352E+00 0.  1.
</event>
<event>
 5   0  0.7597000E-06  0.1599378E+04  0.7818609E-02  0.8820930E-01
        3   -1    0    0  501    0  0.00000000000E+00  0.00000000000E+00  0.92669499958E+03  0.92669500509E+03  0.10100000352E+00 0. -1.
       -3   -1    0    0    0  501  0.00000000000E+00  0.00000000000E+00 -0.69008991816E+03  0.69008992555E+03  0.10100000352E+00 0.  1.
    10030    2    1    2    0    0  0.00000000000E+00  0.00000000000E+00  0.23660508143E+03  0.16167849306E+04  0.15993784878E+04 0.  0.
        5    1    3    3  502    0  0.72673725597E+03 -0.28747921924E+03 -0.52920482124E+02  0.78333518250E+03  0.46999998093E+01 0. -1.
       -5    1    3    3    0  502 -0.72673725597E+03  0.28747921924E+03  0.28952556355E+03  0.83344974813E+03  0.46999998093E+01 0.  1.
</event>
<event>
 5   0  0.2125803E-05  0.1600286E+04  0.7818609E-02  0.8820372E-01
        2   -1    0    0  501    0  0.00000000000E+00  0.00000000000E+00  0.16924059866E+04  0.16924059866E+04  0.25500000920E-02 0. -1.
       -2   -1    0    0    0  501  0.00000000000E+00  0.00000000000E+00 -0.37829520925E+03  0.37829520926E+03  0.25500000920E-02 0.  1.
    10030    2    1    2    0    0  0.00000000000E+00  0.00000000000E+00  0.13141107774E+04  0.20707011959E+04  0.16002863205E+04 0.  0.
        3    1    3    3  502    0  0.54068275972E+03 -0.45977293925E+03  0.11351195302E+04  0.13387402140E+04  0.10100000352E+00 0. -1.
       -3    1    3    3    0  502 -0.54068275972E+03  0.45977293925E+03  0.17899124714E+03  0.73196098193E+03  0.10100000352E+00 0.  1.
</event>
<event>
 5   0  0.1081831E-05  0.1599576E+04  0.7818609E-02  0.8820808E-01
        1   -1    0    0  501    0  0.00000000000E+00  0.00000000000E+00  0.12348260484E+04  0.12348260484E+04  0.50400001928E-02 0. -1.
       -1   -1    0    0    0  501  0.00000000000E+00  0.00000000000E+00 -0.51801701023E+03  0.51801701026E+03  0.50400001928E-02 0.  1.
    10030    2    1    2    0    0  0.00000000000E+00  0.00000000000E+00  0.71680903817E+03  0.17528430587E+04  0.15995760661E+04 0.  0.
        3    1    3    3  502    0 -0.67993745159E+03  0.18326273921E+03  0.77389229633E+03  0.10463314323E+04  0.10100000352E+00 0. -1.
       -3    1    3    3    0  502  0.67993745159E+03 -0.18326273921E+03 -0.57083258169E+02  0.70651162638E+03  0.10100000352E+00 0.  1.
</event>
<event>
 5   0  0.1090674E-05  0.1599392E+04  0.7818609E-02  0.8820921E-01
        1   -1    0    0  501    0  0.00000000000E+00  0.00000000000E+00  0.10452063746E+04  0.10452063746E+04  0.50400001928E-02 0. -1.
       -1   -1    0    0    0  501  0.00000000000E+00  0.00000000000E+00 -0.61185423760E+03  0.61185423763E+03  0.50400001928E-02 0.  1.
    10030    2    1    2    0    0  0.00000000000E+00  0.00000000000E+00  0.43335213703E+03  0.16570606123E+04  0.15993923215E+04 0.  0.
        4    1    3    3  502    0  0.10921683936E+03 -0.61875068890E+03  0.72921683695E+03  0.96256923970E+03  0.12699999809E+01 0. -1.
       -4    1    3    3    0  502 -0.10921683936E+03  0.61875068890E+03 -0.29586469992E+03  0.69449137257E+03  0.12699999809E+01 0.  1.
</event>
<event>
 5   0  0.1057506E-05  0.1600313E+04  0.7818609E-02  0.8820356E-01
        1   -1    0    0  501    0  0.00000000000E+00  0.00000000000E+00  0.11043791519E+04  0.11043791519E+04  0.50400001928E-02 0.  1.
       -1   -1    0    0    0  501  0.00000000000E+00  0.00000000000E+00 -0.57973806530E+03  0.57973806533E+03  0.50400001928E-02 0. -1.
    10030    2    1    2    0    0  0.00000000000E+00  0.00000000000E+00  0.52464108656E+03  0.16841172172E+04  0.16003132604E+04 0.  0.
        5    1    3    3  502    0  0.58648062431E+03 -0.46171363278E+03 -0.41027007749E+02  0.74755889851E+03  0.46999998093E+01 0. -1.
       -5    1    3    3    0  502 -0.58648062431E+03  0.46171363278E+03  0.56566809431E+03  0.93655831869E+03  0.46999998093E+01 0.  1.
</event>
<event>
 5   0  0.1990948E-05  0.1601947E+04  0.7818609E-02  0.8819353E-01
       -2   -1    0    0    0  501  0.00000000000E+00  0.00000000000E+00  0.57223641676E+03  0.57223641676E+03  0.25500000920E-02 0.  1.
        2   -1    0    0  501    0  0.00000000000E+00  0.00000000000E+00 -0.11211419318E+04  0.11211419318E+04  0.25500000920E-02 0. -1.
    10030    2    1    2    0    0  0.00000000000E+00  0.00000000000E+00 -0.54890551501E+03  0.16933783485E+04  0.16019466180E+04 0.  0.
        4    1    3    3  502    0  0.28906699391E+03 -0.49846896970E+03 -0.86255690395E+03  0.10373220648E+04  0.12699999809E+01 0. -1.
       -4    1    3    3    0  502 -0.28906699391E+03  0.49846896970E+03  0.31365138894E+03  0.65605628371E+03  0.12699999809E+01 0.  1.
</event>
<event>
 5   0  0.1990948E-05  0.1600411E+04  0.7818609E-02  0.8820296E-01
        2   -1    0    0  501    0  0.00000000000E+00  0.00000000000E+00  0.21037346799E+04  0.21037346799E+04  0.25500000920E-02 0.  1.
       -2   -1    0    0    0  501  0.00000000000E+00  0.00000000000E+00 -0.30437713831E+03  0.30437713832E+03  0.25500000920E-02 0. -1.
    10030    2    1    2    0    0  0.00000000000E+00  0.00000000000E+00  0.17993575416E+04  0.24081118182E+04  0.16004108743E+04 0.  0.
        4    1    3    3  502    0 -0.15195589190E+03 -0.16328557693E+03 -0.25665297266E+03  0.34003695974E+03  0.12699999809E+01 0. -1.
       -4    1    3    3    0  502  0.15195589190E+03  0.16328557693E+03  0.20560105143E+04  0.20680748585E+04  0.12699999809E+01 0.  1.
</event>
<event>
 5   0  0.2125803E-05  0.1600095E+04  0.7818609E-02  0.8820490E-01
       -2   -1    0    0    0  501  0.00000000000E+00  0.00000000000E+00  0.43672581088E+03  0.43672581089E+03  0.25500000920E-02 0.  1.
        2   -1    0    0  501    0  0.00000000000E+00  0.00000000000E+00 -0.14656239401E+04  0.14656239401E+04  0.25500000920E-02 0. -1.
    10030    2    1    2    0    0  0.00000000000E+00  0.00000000000E+00 -0.10288981292E+04  0.19023497510E+04  0.16000947518E+04 0.  0.
        3    1    3    3  502    0  0.43468356810E+03 -0.30530945199E+03  0.19681828382E+03  0.56648134382E+03  0.10100000352E+00 0.  1.
       -3    1    3    3    0  502 -0.43468356810E+03  0.30530945199E+03 -0.12257164131E+04  0.13358684072E+04  0.10100000352E+00 0. -1.
</event>
<event>
 5   0  0.1060251E-05  0.1602469E+04  0.7818609E-02  0.8819033E-01
        1   -1    0    0  501    0  0.00000000000E+00  0.00000000000E+00  0.55454704502E+03  0.55454704505E+03  0.50400001928E-02 0.  1.
       -1   -1    0    0    0  501  0.00000000000E+00  0.00000000000E+00 -0.11576591834E+04  0.11576591834E+04  0.50400001928E-02 0. -1.
    10030    2    1    2    0    0  0.00000000000E+00  0.00000000000E+00 -0.60311213838E+03  0.17122062285E+04  0.16024686946E+04 0.  0.
        1    1    3    3  502    0 -0.76206554176E+03  0.73298884837E+02 -0.55408808824E+03  0.94505567350E+03  0.50400001928E-02 0. -1.
       -1    1    3    3    0  502  0.76206554176E+03 -0.73298884837E+02 -0.49024050138E+02  0.76715055496E+03  0.50400001928E-02 0.  1.
</event>
<event>
 5   0  0.1990948E-05  0.1605993E+04  0.7818609E-02  0.8816875E-01
       -2   -1    0    0    0  501  0.00000000000E+00  0.00000000000E+00  0.48653395918E+03  0.48653395919E+03  0.25500000920E-02 0.  1.
        2   -1    0    0  501    0  0.00000000000E+00  0.00000000000E+00 -0.13253001899E+04  0.13253001899E+04  0.25500000920E-02 0. -1.
    10030    2    1    2    0    0  0.00000000000E+00  0.00000000000E+00 -0.83876623072E+03  0.18118341491E+04  0.16059932111E+04 0.  0.
        4    1    3    3  502    0 -0.41044931672E+03 -0.47767294769E+03  0.14262455642E+03  0.64574256755E+03  0.12699999809E+01 0.  1.
       -4    1    3    3    0  502  0.41044931672E+03  0.47767294769E+03 -0.98139078714E+03  0.11660915815E+04  0.12699999809E+01 0. -1.
</event>
<event>
 5   0  0.1090674E-05  0.1599956E+04  0.7818609E-02  0.8820575E-01
       -1   -1    0    0    0  501  0.00000000000E+00  0.00000000000E+00  0.12113201347E+04  0.12113201347E+04  0.50400001928E-02 0.  1.
        1   -1    0    0  501    0  0.00000000000E+00  0.00000000000E+00 -0.52832033285E+03  0.52832033287E+03  0.50400001928E-02 0. -1.
    10030    2    1    2    0    0  0.00000000000E+00  0.00000000000E+00  0.68299980183E+03  0.17396404676E+04  0.15999563204E+04 0.  0.
        4    1    3    3  502    0 -0.75799139613E+02  0.40350906574E+03 -0.40502691524E+03  0.57672653023E+03  0.12699999809E+01 0. -1.
       -4    1    3    3    0  502  0.75799139613E+02 -0.40350906574E+03  0.10880267171E+04  0.11629139373E+04  0.12699999809E+01 0.  1.
</event>
<event>
 5   0  0.2046108E-05  0.1600618E+04  0.7818609E-02  0.8820169E-01
       -2   -1    0    0    0  501  0.00000000000E+00  0.00000000000E+00  0.89306287471E+03  0.89306287471E+03  0.25500000920E-02 0.  1.
        2   -1    0    0  501    0  0.00000000000E+00  0.00000000000E+00 -0.71718821884E+03  0.71718821885E+03  0.25500000920E-02 0. -1.
    10030    2    1    2    0    0  0.00000000000E+00  0.00000000000E+00  0.17587465587E+03  0.16102510936E+04  0.16006175963E+04 0.  0.
        1    1    3    3  502    0 -0.57650607839E+03 -0.32837616739E+03 -0.36230967856E+03  0.75594872110E+03  0.50400001928E-02 0.  1.
       -1    1    3    3    0  502  0.57650607839E+03  0.32837616739E+03  0.53818433443E+03  0.85430237246E+03  0.50400001928E-02 0. -1.
</event>
<event>
 5   0  0.1994525E-05  0.1598651E+04  0.7818609E-02  0.8821377E-01
       -2   -1    0    0    0  501  0.00000000000E+00  0.00000000000E+00  0.71945465632E+03  0.71945465633E+03  0.25500000920E-02 0. -1.
        2   -1    0    0  501    0  0.00000000000E+00  0.00000000000E+00 -0.88806274337E+03  0.88806274337E+03  0.25500000920E-02 0.  1.
    10030    2    1    2    0    0  0.00000000000E+00  0.00000000000E+00 -0.16860808704E+03  0.16075173997E+04  0.15986505257E+04 0.  0.
        5    1    3    3  502    0  0.49285679984E+03 -0.22567881369E+03  0.50637216400E+03  0.74180429399E+03  0.46999998093E+01 0. -1.
       -5    1    3    3    0  502 -0.49285679984E+03  0.22567881369E+03 -0.67498025105E+03  0.86571310571E+03  0.46999998093E+01 0.  1.
</event>
<event>
 5   0  0.1060251E-05  0.1603670E+04  0.7818609E-02  0.8818296E-01
        1   -1    0    0  501    0  0.00000000000E+00  0.00000000000E+00  0.15848298387E+04  0.15848298387E+04  0.50400001928E-02 0. -1.
       -1   -1    0    0    0  501  0.00000000000E+00  0.00000000000E+00 -0.40568358318E+03  0.40568358321E+03  0.50400001928E-02 0.  1.
    10030    2    1    2    0    0  0.00000000000E+00  0.00000000000E+00  0.11791462555E+04  0.19905134219E+04  0.16036701004E+04 0.  0.
        1    1    3    3  502    0  0.29961663555E+03  0.10319093845E+03 -0.32466290663E+03  0.45367885232E+03  0.50400001928E-02 0.  1.
       -1    1    3    3    0  502 -0.29961663555E+03 -0.10319093845E+03  0.15038091622E+04  0.15368345696E+04  0.50400001928E-02 0. -1.
</event>
<event>
 5   0  0.1060251E-05  0.1599335E+04  0.7818609E-02  0.8820957E-01
       -1   -1    0    0    0  501  0.00000000000E+00  0.00000000000E+00  0.51657026993E+03  0.51657026996E+03  0.50400001928E-02 0. -1.
        1   -1    0    0  501    0  0.00000000000E+00  0.00000000000E+00 -0.12379112211E+04  0.12379112211E+04  0.50400001928E-02 0.  1.
    10030    2    1    2    0    0  0.00000000000E+00  0.00000000000E+00 -0.72134095118E+03  0.17544814911E+04  0.15993350289E+04 0.  0.
        1    1    3    3  502    0 -0.24258152071E+03 -0.58650662149E+03 -0.89430801709E+03  0.10966415279E+04  0.50400001928E-02 0.  1.
       -1    1    3    3    0  502  0.24258152071E+03  0.58650662149E+03  0.17296706591E+03  0.65783996318E+03  0.50400001928E-02 0. -1.
</event>
<event>
 5   0  0.1090674E-05  0.1600465E+04  0.7818609E-02  0.8820262E-01
       -1   -1    0    0    0  501  0.00000000000E+00  0.00000000000E+00  0.64858511719E+03  0.64858511721E+03  0.50400001928E-02 0.  1.
        1   -1    0    0  501    0  0.00000000000E+00  0.00000000000E+00 -0.98733755473E+03  0.98733755475E+03  0.50400001928E-02 0. -1.
    10030    2    1    2    0    0  0.00000000000E+00  0.00000000000E+00 -0.33875243755E+03  0.16359226720E+04  0.16004654869E+04 0.  0.
        4    1    3    3  502    0  0.89508049962E+02 -0.31354919581E+03  0.57759833612E+03  0.66328443370E+03  0.12699999809E+01 0.  1.
       -4    1    3    3    0  502 -0.89508049962E+02  0.31354919581E+03 -0.91635077367E+03  0.97263823825E+03  0.12699999809E+01 0. -1.
</event>
<event>
 5   0  0.1990948E-05  0.1600035E+04  0.7818609E-02  0.8820526E-01
        2   -1    0    0  501    0  0.00000000000E+00  0.00000000000E+00  0.83924192153E+03  0.83924192153E+03  0.25500000920E-02 0. -1.
       -2   -1    0    0    0  501  0.00000000000E+00  0.00000000000E+00 -0.76262680391E+03  0.76262680392E+03  0.25500000920E-02 0.  1.
    10030    2    1    2    0    0  0.00000000000E+00  0.00000000000E+00  0.76615117614E+02  0.16018687254E+04  0.16000354800E+04 0.  0.
        4    1    3    3  502    0  0.30956801700E+03 -0.71549246003E+03 -0.14152272676E+03  0.79233333428E+03  0.12699999809E+01 0.  1.
       -4    1    3    3    0  502 -0.30956801700E+03  0.71549246003E+03  0.21813784437E+03  0.80953539117E+03  0.12699999809E+01 0. -1.
</event>
<event>
 5   0  0.1060251E-05  0.1599808E+04  0.7818609E-02  0.8820666E-01
        1   -1    0    0  501    0  0.00000000000E+00  0.00000000000E+00  0.24103364500E+04  0.24103364500E+04  0.50400001928E-02 0. -1.
       -1   -1    0    0    0  501  0.00000000000E+00  0.00000000000E+00 -0.26545927952E+03  0.26545927957E+03  0.50400001928E-02 0.  1.
    10030    2    1    2    0    0  0.00000000000E+00  0.00000000000E+00  0.21448771704E+04  0.26757957295E+04  0.15998077103E+04 0.  0.
        1    1    3    3  502    0  0.32355550603E+03 -0.69488620479E+03  0.14549103400E+04  0.16444814078E+04  0.50400001928E-02 0.  1.
       -1    1    3    3    0  502 -0.32355550603E+03  0.69488620479E+03  0.68996683041E+03  0.10313143217E+04  0.50400001928E-02 0. -1.
</event>
<event>
 5   0  0.2046108E-05  0.1600560E+04  0.7818609E-02  0.8820204E-01
       -2   -1    0    0    0  501  0.00000000000E+00  0.00000000000E+00  0.61342414258E+03  0.61342414259E+03  0.25500000920E-02 0.  1.
        2   -1    0    0  501    0  0.00000000000E+00  0.00000000000E+00 -0.10440547641E+04  0.10440547641E+04  0.25500000920E-02 0. -1.
    10030    2    1    2    0    0  0.00000000000E+00  0.00000000000E+00 -0.43063062156E+03  0.16574789067E+04  0.16005604000E+04 0.  0.
        1    1    3    3  502    0 -0.50777366203E+03  0.60547578821E+03 -0.84271232549E+02  0.79469281022E+03  0.50400001928E-02 0.  1.
       -1    1    3    3    0  502  0.50777366203E+03 -0.60547578821E+03 -0.34635938901E+03  0.86278609652E+03  0.50400001928E-02 0. -1.
</event>
<event>
 5   0  0.7597000E-06  0.1598969E+04  0.7818609E-02  0.8821182E-01
       -3   -1    0    0    0  501  0.00000000000E+00  0.00000000000E+00  0.45468887991E+03  0.45468889113E+03  0.10100000352E+00 0.  1.
        3   -1    0    0  501    0  0.00000000000E+00  0.00000000000E+00 -0.14057420182E+04  0.14057420218E+04  0.10100000352E+00 0. -1.
    10030    2    1    2    0    0  0.00000000000E+00  0.00000000000E+00 -0.95105313828E+03  0.18604309129E+04  0.15989687646E+04 0.  0.
        3    1    3    3  502    0 -0.42873595490E+03  0.67438136156E+03 -0.50331805985E+03  0.94442247930E+03  0.10100000352E+00 0.  1.
       -3    1    3    3    0  502  0.42873595490E+03 -0.67438136156E+03 -0.44773507844E+03  0.91600843364E+03  0.10100000352E+00 0. -1.
</event>
<event>
 5   0  0.1057506E-05  0.1600888E+04  0.7818609E-02  0.8820002E-01
        1   -1    0    0  501    0  0.00000000000E+00  0.00000000000E+00  0.77403992171E+03  0.77403992172E+03  0.50400001928E-02 0.  1.
       -1   -1    0    0    0  501  0.00000000000E+00  0.00000000000E+00 -0.82774906581E+03  0.82774906583E+03  0.50400001928E-02 0. -1.
    10030    2    1    2    0    0  0.00000000000E+00  0.00000000000E+00 -0.53709144105E+02  0.16017889875E+04  0.16008882811E+04 0.  0.
        5    1    3    3  502    0 -0.20522369382E+03 -0.91244791285E+02  0.74185260378E+03  0.77511918579E+03  0.46999998093E+01 0.  1.
       -5    1    3    3    0  502  0.20522369382E+03  0.91244791285E+02 -0.79556174789E+03  0.82666980176E+03  0.46999998093E+01 0. -1.
</event>
<event>
 5   0  0.2125803E-05  0.1601688E+04  0.7818609E-02  0.8819512E-01
        2   -1    0    0  501    0  0.00000000000E+00  0.00000000000E+00  0.11643901128E+04  0.11643901128E+04  0.25500000920E-02 0. -1.
       -2   -1    0    0    0  501  0.00000000000E+00  0.00000000000E+00 -0.55080436917E+03  0.55080436918E+03  0.25500000920E-02 0.  1.
    10030    2    1    2    0    0  0.00000000000E+00  0.00000000000E+00  0.61358574361E+03  0.17151944820E+04  0.16016880614E+04 0.  0.
        3    1    3    3  502    0 -0.58147941024E+03 -0.31981290186E+02  0.89548723757E+03  0.10681940415E+04  0.10100000352E+00 0. -1.
       -3    1    3    3    0  502  0.58147941024E+03  0.31981290186E+02 -0.28190149396E+03  0.64700044046E+03  0.10100000352E+00 0.  1.
</event>
<event>
 5   0  0.1060251E-05  0.1597493E+04  0.7818609E-02  0.8822090E-01
        1   -1    0    0  501    0  0.00000000000E+00  0.00000000000E+00  0.82747315776E+03  0.82747315778E+03  0.50400001928E-02 0. -1.
       -1   -1    0    0    0  501  0.00000000000E+00  0.00000000000E+00 -0.77101727149E+03  0.77101727151E+03  0.50400001928E-02 0.  1.
    10030    2    1    2    0    0  0.00000000000E+00  0.00000000000E+00  0.56455886267E+02  0.15984904293E+04  0.15974931566E+04 0.  0.
        1    1    3    3  502    0 -0.44677137726E+03  0.52884551892E+03 -0.37040982913E+03  0.78516602573E+03  0.50400001928E-02 0.  1.
       -1    1    3    3    0  502  0.44677137726E+03 -0.52884551892E+03  0.42686571540E+03  0.81332440356E+03  0.50400001928E-02 0. -1.
</event>
<event>
 5   0  0.1057506E-05  0.1599503E+04  0.7818609E-02  0.8820853E-01
       -1   -1    0    0    0  501  0.00000000000E+00  0.00000000000E+00  0.66051010578E+03  0.66051010580E+03  0.50400001928E-02 0. -1.
        1   -1    0    0  501    0  0.00000000000E+00  0.00000000000E+00 -0.96834666869E+03  0.96834666871E+03  0.50400001928E-02 0.  1.
    10030    2    1    2    0    0  0.00000000000E+00  0.00000000000E+00 -0.30783656291E+03  0.16288567745E+04  0.15995033737E+04 0.  0.
        5    1    3    3  502    0  0.60275062152E+03  0.50916116349E+03 -0.21035035067E+02  0.78931487054E+03  0.46999998093E+01 0. -1.
       -5    1    3    3    0  502 -0.60275062152E+03 -0.50916116349E+03 -0.28680152784E+03  0.83954190397E+03  0.46999998093E+01 0.  1.
</event>
<event>
 5   0  0.1994525E-05  0.1604524E+04  0.7818609E-02  0.8817774E-01
        2   -1    0    0  501    0  0.00000000000E+00  0.00000000000E+00  0.89742216486E+03  0.89742216486E+03  0.25500000920E-02 0.  1.
       -2   -1    0    0    0  501  0.00000000000E+00  0.00000000000E+00 -0.71719221926E+03  0.71719221926E+03  0.25500000920E-02 0. -1.
    10030    2    1    2    0    0  0.00000000000E+00  0.00000000000E+00  0.18022994560E+03  0.16146143841E+04  0.16045238472E+04 0.  0.
        5    1    3    3  502    0  0.37828787008E+03  0.30956387205E+03 -0.55002281981E+03  0.73585236008E+03  0.46999998093E+01 0. -1.
       -5    1    3    3    0  502 -0.37828787008E+03 -0.30956387205E+03  0.73025276541E+03  0.87876202405E+03  0.46999998093E+01 0.  1.
</event>
<event>
 5   0  0.1060251E-05  0.1600031E+04  0.7818609E-02  0.8820529E-01
       -1   -1    0    0    0  501  0.00000000000E+00  0.00000000000E+00  0.84661090633E+03  0.84661090635E+03  0.50400001928E-02 0.  1.
        1   -1    0    0  501    0  0.00000000000E+00  0.00000000000E+00 -0.75598470255E+03  0.75598470256E+03  0.50400001928E-02 0. -1.
    10030    2    1    2    0    0  0.00000000000E+00  0.00000000000E+00  0.90626203787E+02  0.16025956089E+04  0.16000311175E+04 0.  0.
        1    1    3    3  502    0 -0.15555134737E+03  0.31629952826E+03 -0.67401851568E+03  0.76061986087E+03  0.50400001928E-02 0. -1.
       -1    1    3    3    0  502  0.15555134737E+03 -0.31629952826E+03  0.76464471947E+03  0.84197574804E+03  0.50400001928E-02 0.  1.
</event>
<event>
 5   0  0.1057506E-05  0.1600076E+04  0.7818609E-02  0.8820501E-01
       -1   -1    0    0    0  501  0.00000000000E+00  0.00000000000E+00  0.44796882698E+03  0.44796882701E+03  0.50400001928E-02 0.  1.
        1   -1    0    0  501    0  0.00000000000E+00  0.00000000000E+00 -0.14288064666E+04  0.14288064666E+04  0.50400001928E-02 0. -1.
    10030    2    1    2    0    0  0.00000000000E+00  0.00000000000E+00 -0.98083763959E+03  0.18767752936E+04  0.16000759443E+04 0.  0.
        5    1    3    3  502    0 -0.46928156320E+03 -0.19156256578E+03  0.23558272246E+03  0.55896575144E+03  0.46999998093E+01 0.  1.
       -5    1    3    3    0  502  0.46928156320E+03  0.19156256578E+03 -0.12164203620E+04  0.13178095421E+04  0.46999998093E+01 0. -1.
</event>
<event>
 5   0  0.1081831E-05  0.1599970E+04  0.7818609E-02  0.8820566E-01
        1   -1    0    0  501    0  0.00000000000E+00  0.00000000000E+00  0.55223742956E+03  0.55223742959E+03  0.50400001928E-02 0. -1.
       -1   -1    0    0    0  501  0.00000000000E+00  0.00000000000E+00 -0.11588784814E+04  0.11588784815E+04  0.50400001928E-02 0.  1.
    10030    2    1    2    0    0  0.00000000000E+00  0.00000000000E+00 -0.60664105188E+03  0.17111159110E+04  0.15999700920E+04 0.  0.
        3    1    3    3  502    0 -0.42488228653E+03 -0.52574996431E+02 -0.10260518505E+04  0.11117875237E+04  0.10100000352E+00 0.  1.
       -3    1    3    3    0  502  0.42488228653E+03  0.52574996431E+02  0.41941079865E+03  0.59932838735E+03  0.10100000352E+00 0. -1.
</event>
<event>
 5   0  0.1990948E-05  0.1600079E+04  0.7818609E-02  0.8820500E-01
       -2   -1    0    0    0  501  0.00000000000E+00  0.00000000000E+00  0.35085504491E+03  0.35085504492E+03  0.25500000920E-02 0.  1.
        2   -1    0    0  501    0  0.00000000000E+00  0.00000000000E+00 -0.18242944735E+04  0.18242944735E+04  0.25500000920E-02 0. -1.
    10030    2    1    2    0    0  0.00000000000E+00  0.00000000000E+00 -0.14734394286E+04  0.21751495184E+04  0.16000786474E+04 0.  0.
        4    1    3    3  502    0  0.74411285392E+03 -0.86899967729E+01 -0.33741217259E+03  0.81708508892E+03  0.12699999809E+01 0.  1.
       -4    1    3    3    0  502 -0.74411285392E+03  0.86899967729E+01 -0.11360272560E+04  0.13580644295E+04  0.12699999809E+01 0. -1.
</event>
<event>
 5   0  0.1126485E-05  0.1598389E+04  0.7818609E-02  0.8821539E-01
       -1   -1    0    0    0  501  0.00000000000E+00  0.00000000000E+00  0.48323419647E+03  0.48323419649E+03  0.50400001928E-02 0. -1.
        1   -1    0    0  501    0  0.00000000000E+00  0.00000000000E+00 -0.13217432689E+04  0.13217432689E+04  0.50400001928E-02 0.  1.
    10030    2    1    2    0    0  0.00000000000E+00  0.00000000000E+00 -0.83850907245E+03  0.18049774654E+04  0.15983886217E+04 0.  0.
        2    1    3    3  502    0  0.26363898522E+03 -0.37360662956E+03  0.32091930398E+03  0.55863819047E+03  0.25500000920E-02 0. -1.
       -2    1    3    3    0  502 -0.26363898522E+03  0.37360662956E+03 -0.11594283764E+04  0.12463392749E+04  0.25500000920E-02 0.  1.
</event>
<event>
 5   0  0.7597000E-06  0.1600113E+04  0.7818609E-02  0.8820479E-01
        3   -1    0    0  501    0  0.00000000000E+00  0.00000000000E+00  0.12634624377E+04  0.12634624417E+04  0.10100000352E+00 0.  1.
       -3   -1    0    0    0  501  0.00000000000E+00  0.00000000000E+00 -0.50661588692E+03  0.50661589699E+03  0.10100000352E+00 0. -1.
    10030    2    1    2    0    0  0.00000000000E+00  0.00000000000E+00  0.75684655079E+03  0.17700783387E+04  0.16001126910E+04 0.  0.
        4    1    3    3  502    0  0.43094862743E+02 -0.56816845944E+02  0.12599386314E+04  0.12619557397E+04  0.12699999809E+01 0.  1.
       -4    1    3    3    0  502 -0.43094862743E+02  0.56816845944E+02 -0.50309208061E+03  0.50812259904E+03  0.12699999809E+01 0. -1.
</event>
<event>
 5   0  0.2046108E-05  0.1599582E+04  0.7818609E-02  0.8820805E-01
        2   -1    0    0  501    0  0.00000000000E+00  0.00000000000E+00  0.15649975717E+04  0.15649975717E+04  0.25500000920E-02 0. -1.
       -2   -1    0    0    0  501  0.00000000000E+00  0.00000000000E+00 -0.40873276106E+03  0.40873276107E+03  0.25500000920E-02 0.  1.
    10030    2    1    2    0    0  0.00000000000E+00  0.00000000000E+00  0.11562648106E+04  0.19737303327E+04  0.15995821686E+04 0.  0.
        1    1    3    3  502    0  0.14322951725E+03  0.76027646801E+03  0.32788780604E+03  0.84026508662E+03  0.50400001928E-02 0.  1.
       -1    1    3    3    0  502 -0.14322951725E+03 -0.76027646801E+03  0.82837700455E+03  0.11334652461E+04  0.50400001928E-02 0. -1.
</event>
<event>
 5   0  0.1990948E-05  0.1600087E+04  0.7818609E-02  0.8820495E-01
        2   -1    0    0  501    0  0.00000000000E+00  0.00000000000E+00  0.52964780963E+03  0.52964780964E+03  0.25500000920E-02 0.  1.
       -2   -1    0    0    0  501  0.00000000000E+00  0.00000000000E+00 -0.12084811878E+04  0.12084811878E+04  0.25500000920E-02 0. -1.
    10030    2    1    2    0    0  0.00000000000E+00  0.00000000000E+00 -0.67883337812E+03  0.17381289974E+04  0.16000867653E+04 0.  0.
        4    1    3    3  502    0 -0.71232012719E+03  0.63060402676E+02  0.50267635635E+02  0.71687169429E+03  0.12699999809E+01 0.  1.
       -4    1    3    3    0  502  0.71232012719E+03 -0.63060402676E+02 -0.72910101376E+03  0.10212573031E+04  0.12699999809E+01 0. -1.
</event>
<event>
 5   0  0.1990948E-05  0.1600079E+04  0.7818609E-02  0.8820500E-01
       -2   -1    0    0    0  501  0.00000000000E+00  0.00000000000E+00  0.28902583290E+03  0.28902583292E+03  0.25500000920E-02 0.  1.
        2   -1    0    0  501    0  0.00000000000E+00  0.00000000000E+00 -0.22145533370E+04  0.22145533370E+04  0.25500000920E-02 0. -1.
    10030    2    1    2    0    0  0.00000000000E+00  0.00000000000E+00 -0.19255275041E+04  0.25035791699E+04  0.16000789015E+04 0.  0.
        4    1    3    3  502    0  0.60386852591E+03 -0.41873314529E+03 -0.14577180282E+04  0.16324638147E+04  0.12699999809E+01 0. -1.
       -4    1    3    3    0  502 -0.60386852591E+03  0.41873314529E+03 -0.46780947592E+03  0.87111535528E+03  0.12699999809E+01 0.  1.
</event>
<event>
 5   0  0.1990948E-05  0.1600090E+04  0.7818609E-02  0.8820493E-01
        2   -1    0    0  501    0  0.00000000000E+00  0.00000000000E+00  0.14605113355E+04  0.14605113355E+04  0.25500000920E-02 0. -1.
       -2   -1    0    0    0  501  0.00000000000E+00  0.00000000000E+00 -0.43825184036E+03  0.43825184037E+03  0.25500000920E-02 0.  1.
    10030    2    1    2    0    0  0.00000000000E+00  0.00000000000E+00  0.10222594951E+04  0.18987631759E+04  0.16000897233E+04 0.  0.
        4    1    3    3  502    0 -0.30798446258E+03 -0.15835500035E+03  0.13669574780E+04  0.14101436433E+04  0.12699999809E+01 0. -1.
       -4    1    3    3    0  502  0.30798446258E+03  0.15835500035E+03 -0.34469798283E+03  0.48861953255E+03  0.12699999809E+01 0.  1.
</event>
<event>
 5   0  0.2125803E-05  0.1600109E+04  0.7818609E-02  0.8820481E-01
       -2   -1    0    0    0  501  0.00000000000E+00  0.00000000000E+00  0.58257804823E+03  0.58257804823E+03  0.25500000920E-02 0. -1.
        2   -1    0    0  501    0  0.00000000000E+00  0.00000000000E+00 -0.10987150517E+04  0.10987150517E+04  0.25500000920E-02 0.  1.
    10030    2    1    2    0    0  0.00000000000E+00  0.00000000000E+00 -0.51613700345E+03  0.16812930999E+04  0.16001090842E+04 0.  0.
        3    1    3    3  502    0 -0.66219300403E+03  0.44147228828E+03 -0.17212683122E+03  0.81426347833E+03  0.10100000352E+00 0.  1.
       -3    1    3    3    0  502  0.66219300403E+03 -0.44147228828E+03 -0.34401017222E+03  0.86702962158E+03  0.10100000352E+00 0. -1.
</event>
<event>
 5   0  0.1081831E-05  0.1599414E+04  0.7818609E-02  0.8820908E-01
       -1   -1    0    0    0  501  0.00000000000E+00  0.00000000000E+00  0.41573905114E+03  0.41573905117E+03  0.50400001928E-02 0.  1.
        1   -1    0    0  501    0  0.00000000000E+00  0.00000000000E+00 -0.15382995032E+04  0.15382995032E+04  0.50400001928E-02 0. -1.
    10030    2    1    2    0    0  0.00000000000E+00  0.00000000000E+00 -0.11225604521E+04  0.19540385544E+04  0.15994138625E+04 0.  0.
        3    1    3    3  502    0 -0.73499829718E+03  0.30525572503E+03 -0.46564500383E+03  0.92207854021E+03  0.10100000352E+00 0.  1.
       -3    1    3    3    0  502  0.73499829718E+03 -0.30525572503E+03 -0.65691544823E+03  0.10319600142E+04  0.10100000352E+00 0. -1.
</event>
<event>
 5   0  0.1090674E-05  0.1606776E+04  0.7818609E-02  0.8816396E-01
        1   -1    0    0  501    0  0.00000000000E+00  0.00000000000E+00  0.15681975683E+04  0.15681975683E+04  0.50400001928E-02 0. -1.
       -1   -1    0    0    0  501  0.00000000000E+00  0.00000000000E+00 -0.41157595600E+03  0.41157595603E+03  0.50400001928E-02 0.  1.
    10030    2    1    2    0    0  0.00000000000E+00  0.00000000000E+00  0.11566216123E+04  0.19797735243E+04  0.16067761679E+04 0.  0.
        4    1    3    3  502    0  0.34278183489E+03  0.71393756484E+03  0.41197385072E+03  0.89270952689E+03  0.12699999809E+01 0.  1.
       -4    1    3    3    0  502 -0.34278183489E+03 -0.71393756484E+03  0.74464776158E+03  0.10870639975E+04  0.12699999809E+01 0. -1.
</event>
<event>
 5   0  0.2125803E-05  0.1601424E+04  0.7818609E-02  0.8819674E-01
        2   -1    0    0  501    0  0.00000000000E+00  0.00000000000E+00  0.11534923810E+04  0.11534923810E+04  0.25500000920E-02 0.  1.
       -2   -1    0    0    0  501  0.00000000000E+00  0.00000000000E+00 -0.55582454114E+03  0.55582454115E+03  0.25500000920E-02 0. -1.
    10030    2    1    2    0    0  0.00000000000E+00  0.00000000000E+00  0.59766783990E+03  0.17093169222E+04  0.16014235835E+04 0.  0.
        3    1    3    3  502    0 -0.30727234389E+03  0.73006288092E+03  0.42390922312E+03  0.89839141974E+03  0.10100000352E+00 0.  1.
       -3    1    3    3    0  502  0.30727234389E+03 -0.73006288092E+03  0.17375861678E+03  0.81092550245E+03  0.10100000352E+00 0. -1.
</event>
<event>
 5   0  0.2147844E-05  0.1600050E+04  0.7818609E-02  0.8820517E-01
       -2   -1    0    0    0  501  0.00000000000E+00  0.00000000000E+00  0.35985649618E+03  0.35985649619E+03  0.25500000920E-02 0. -1.
        2   -1    0    0  501    0  0.00000000000E+00  0.00000000000E+00 -0.17785976972E+04  0.17785976972E+04  0.25500000920E-02 0.  1.
    10030    2    1    2    0    0  0.00000000000E+00  0.00000000000E+00 -0.14187412010E+04  0.21384541934E+04  0.16000499185E+04 0.  0.
        2    1    3    3  502    0  0.11673525192E+03  0.24815798713E+03  0.29507278428E+03  0.40283675806E+03  0.25500000920E-02 0. -1.
       -2    1    3    3    0  502 -0.11673525192E+03 -0.24815798713E+03 -0.17138139853E+04  0.17356174353E+04  0.25500000920E-02 0.  1.
</event>
<event>
 5   0  0.1060251E-05  0.1598715E+04  0.7818609E-02  0.8821338E-01
        1   -1    0    0  501    0  0.00000000000E+00  0.00000000000E+00  0.92246975030E+03  0.92246975032E+03  0.50400001928E-02 0.  1.
       -1   -1    0    0    0  501  0.00000000000E+00  0.00000000000E+00 -0.69267553574E+03  0.69267553576E+03  0.50400001928E-02 0. -1.
    10030    2    1    2    0    0  0.00000000000E+00  0.00000000000E+00  0.22979421456E+03  0.16151452861E+04  0.15987147695E+04 0.  0.
        1    1    3    3  502    0  0.62611840929E+03 -0.12905340518E+03 -0.36992358780E+03  0.73859495305E+03  0.50400001928E-02 0. -1.
       -1    1    3    3    0  502 -0.62611840929E+03  0.12905340518E+03  0.59971780236E+03  0.87655033303E+03  0.50400001928E-02 0.  1.
</event>
<event>
 5   0  0.2046108E-05  0.1598587E+04  0.7818609E-02  0.8821416E-01
        2   -1    0    0  501    0  0.00000000000E+00  0.00000000000E+00  0.51171947258E+03  0.51171947258E+03  0.25500000920E-02 0. -1.
       -2   -1    0    0    0  501  0.00000000000E+00  0.00000000000E+00 -0.12484774154E+04  0.12484774154E+04  0.25500000920E-02 0.  1.
    10030    2    1    2    0    0  0.00000000000E+00  0.00000000000E+00 -0.73675794286E+03  0.17601968880E+04  0.15985871319E+04 0.  0.
        1    1    3    3  502    0 -0.10016256827E+03 -0.67575834509E+03  0.88526948325E+02  0.68885332376E+03  0.50400001928E-02 0. -1.
       -1    1    3    3    0  502  0.10016256827E+03  0.67575834509E+03 -0.82528489119E+03  0.10713435643E+04  0.50400001928E-02 0.  1.
</event>
<event>
 5   0  0.1126485E-05  0.1601225E+04  0.7818609E-02  0.8819796E-01
       -1   -1    0    0    0  501  0.00000000000E+00  0.00000000000E+00  0.29156554178E+03  0.29156554182E+03  0.50400001928E-02 0. -1.
        1   -1    0    0  501    0  0.00000000000E+00  0.00000000000E+00 -0.21984092478E+04  0.21984092478E+04  0.50400001928E-02 0.  1.
    10030    2    1    2    0    0  0.00000000000E+00  0.00000000000E+00 -0.19068437060E+04  0.24899747896E+04  0.16012250104E+04 0.  0.
        2    1    3    3  502    0  0.40118517318E+03  0.48943914456E+03 -0.19084746516E+03  0.66100149347E+03  0.25500000920E-02 0. -1.
       -2    1    3    3    0  502 -0.40118517318E+03 -0.48943914456E+03 -0.17159962409E+04  0.18289732962E+04  0.25500000920E-02 0.  1.
</event>
<event>
 5   0  0.1994525E-05  0.1600577E+04  0.7818609E-02  0.8820194E-01
        2   -1    0    0  501    0  0.00000000000E+00  0.00000000000E+00  0.13201321568E+04  0.13201321568E+04  0.25500000920E-02 0.  1.
       -2   -1    0    0    0  501  0.00000000000E+00  0.00000000000E+00 -0.48514962251E+03  0.48514962252E+03  0.25500000920E-02 0. -1.
    10030    2    1    2    0    0  0.00000000000E+00  0.00000000000E+00  0.83498253426E+03  0.18052817793E+04  0.16005769179E+04 0.  0.
        5    1    3    3  502    0  0.34037527957E+03 -0.19559958484E+03  0.12040510673E+04  0.12664420994E+04  0.46999998093E+01 0.  1.
       -5    1    3    3    0  502 -0.34037527957E+03  0.19559958484E+03 -0.36906853303E+03  0.53883967987E+03  0.46999998093E+01 0. -1.
</event>
<event>
 5   0  0.1126485E-05  0.1599138E+04  0.7818609E-02  0.8821078E-01
        1   -1    0    0  501    0  0.00000000000E+00  0.00000000000E+00  0.70932973826E+03  0.70932973828E+03  0.50400001928E-02 0. -1.
       -1   -1    0    0    0  501  0.00000000000E+00  0.00000000000E+00 -0.90128824870E+03  0.90128824872E+03  0.50400001928E-02 0.  1.
    10030    2    1    2    0    0  0.00000000000E+00  0.00000000000E+00 -0.19195851045E+03  0.16106179870E+04  0.15991379647E+04 0.  0.
        2    1    3    3  502    0  0.35562210522E+03  0.71512293173E+03 -0.13423440125E+03  0.80986836196E+03  0.25500000920E-02 0.  1.
       -2    1    3    3    0  502 -0.35562210522E+03 -0.71512293173E+03 -0.57724109194E+02  0.80074962504E+03  0.25500000920E-02 0. -1.
</event>
<event>
 5   0  0.1081831E-05  0.1599435E+04  0.7818609E-02  0.8820895E-01
        1   -1    0    0  501    0  0.00000000000E+00  0.00000000000E+00  0.40258284781E+03  0.40258284784E+03  0.50400001928E-02 0.  1.
       -1   -1    0    0    0  501  0.00000000000E+00  0.00000000000E+00 -0.15886126653E+04  0.15886126653E+04  0.50400001928E-02 0. -1.
    10030    2    1    2    0    0  0.00000000000E+00  0.00000000000E+00 -0.11860298175E+04  0.19911955131E+04  0.15994351639E+04 0.  0.
        3    1    3    3  502    0 -0.47719954734E+03 -0.56262994226E+03 -0.97728784574E+03  0.12244849544E+04  0.10100000352E+00 0. -1.
       -3    1    3    3    0  502  0.47719954734E+03  0.56262994226E+03 -0.20874197172E+03  0.76671055873E+03  0.10100000352E+00 0.  1.
</event>
<event>
 5   0  0.1057506E-05  0.1597361E+04  0.7818609E-02  0.8822171E-01
       -1   -1    0    0    0  501  0.00000000000E+00  0.00000000000E+00  0.41932428437E+03  0.41932428440E+03  0.50400001928E-02 0.  1.
        1   -1    0    0  501    0  0.00000000000E+00  0.00000000000E+00 -0.15212344256E+04  0.15212344257E+04  0.50400001928E-02 0. -1.
    10030    2    1    2    0    0  0.00000000000E+00  0.00000000000E+00 -0.11019101413E+04  0.19405587101E+04  0.15973609948E+04 0.  0.
        5    1    3    3  502    0 -0.28521126683E+03  0.19784426084E+02  0.35501214196E+03  0.45584273734E+03  0.46999998093E+01 0.  1.
       -5    1    3    3    0  502  0.28521126683E+03 -0.19784426084E+02 -0.14569222832E+04  0.14847159727E+04  0.46999998093E+01 0. -1.
</event>
<event>
 5   0  0.2046108E-05  0.1599988E+04  0.7818609E-02  0.8820555E-01
        2   -1    0    0  501    0  0.00000000000E+00  0.00000000000E+00  0.10370567701E+04  0.10370567701E+04  0.25500000920E-02 0. -1.
       -2   -1    0    0    0  501  0.00000000000E+00  0.00000000000E+00 -0.61712205780E+03  0.61712205781E+03  0.25500000920E-02 0.  1.
    10030    2    1    2    0    0  0.00000000000E+00  0.00000000000E+00  0.41993471228E+03  0.16541788279E+04  0.15999882600E+04 0.  0.
        1    1    3    3  502    0 -0.50642356005E+03  0.41304088175E+03 -0.26709699658E+03  0.70598045141E+03  0.50400001928E-02 0.  1.
       -1    1    3    3    0  502  0.50642356005E+03 -0.41304088175E+03  0.68703170886E+03  0.94819837649E+03  0.50400001928E-02 0. -1.
</event>
<event>
 5   0  0.1081831E-05  0.1600225E+04  0.7818609E-02  0.8820410E-01
        1   -1    0    0  501    0  0.00000000000E+00  0.00000000000E+00  0.74330430196E+03  0.74330430197E+03  0.50400001928E-02 0. -1.
       -1   -1    0    0    0  501  0.00000000000E+00  0.00000000000E+00 -0.86126226978E+03  0.86126226979E+03  0.50400001928E-02 0.  1.
    10030    2    1    2    0    0  0.00000000000E+00  0.00000000000E+00 -0.11795796782E+03  0.16045665718E+04  0.16002249220E+04 0.  0.
        3    1    3    3  502    0 -0.92327135433E+02  0.70712311289E+03 -0.42277534165E+03  0.82902737978E+03  0.10100000352E+00 0.  1.
       -3    1    3    3    0  502  0.92327135433E+02 -0.70712311289E+03  0.30481737383E+03  0.77553919199E+03  0.10100000352E+00 0. -1.
</event>
<event>
 5   0  0.2147844E-05  0.1599339E+04  0.7818609E-02  0.8820954E-01
        2   -1    0    0  501    0  0.00000000000E+00  0.00000000000E+00  0.98122549672E+03  0.98122549672E+03  0.25500000920E-02 0.  1.
       -2   -1    0    0    0  501  0.00000000000E+00  0.00000000000E+00 -0.65170638868E+03  0.65170638868E+03  0.25500000920E-02 0. -1.
    10030    2    1    2    0    0  0.00000000000E+00  0.00000000000E+00  0.32951910804E+03  0.16329318854E+04  0.15993385195E+04 0.  0.
        2    1    3    3  502    0  0.34586515947E+03 -0.27322140394E+03 -0.51648714588E+03  0.67899308978E+03  0.25500000920E-02 0. -1.
       -2    1    3    3    0  502 -0.34586515947E+03  0.27322140394E+03  0.84600625392E+03  0.95393879562E+03  0.25500000920E-02 0.  1.
</event>
<event>
 5   0  0.1090674E-05  0.1597913E+04  0.7818609E-02  0.8821831E-01
        1   -1    0    0  501    0  0.00000000000E+00  0.00000000000E+00  0.17250299900E+04  0.17250299901E+04  0.50400001928E-02 0. -1.
       -1   -1    0    0    0  501  0.00000000000E+00  0.00000000000E+00 -0.37004068779E+03  0.37004068782E+03  0.50400001928E-02 0.  1.
    10030    2    1    2    0    0  0.00000000000E+00  0.00000000000E+00  0.13549893023E+04  0.20950706779E+04  0.15979127436E+04 0.  0.
        4    1    3    3  502    0  0.81453450027E+02 -0.54464791800E+03 -0.81437228767E+02  0.55669529747E+03  0.12699999809E+01 0.  1.
       -4    1    3    3    0  502 -0.81453450027E+02  0.54464791800E+03  0.14364265310E+04  0.15383753804E+04  0.12699999809E+01 0. -1.
</event>
<event>
 5   0  0.1057506E-05  0.1598612E+04  0.7818609E-02  0.8821401E-01
        1   -1    0    0  501    0  0.00000000000E+00  0.00000000000E+00  0.64793721387E+03  0.64793721389E+03  0.50400001928E-02 0.  1.
       -1   -1    0    0    0  501  0.00000000000E+00  0.00000000000E+00 -0.98603662328E+03  0.98603662329E+03  0.50400001928E-02 0. -1.
    10030    2    1    2    0    0  0.00000000000E+00  0.00000000000E+00 -0.33809940940E+03  0.16339738372E+04  0.15986116758E+04 0.  0.
        5    1    3    3  502    0  0.25299703870E+03  0.36780477827E+01 -0.94400765881E+03  0.97734005316E+03  0.46999998093E+01 0. -1.
       -5    1    3    3    0  502 -0.25299703870E+03 -0.36780477827E+01  0.60590824940E+03  0.65663378402E+03  0.46999998093E+01 0.  1.
</event>
<event>
 5   0  0.1994525E-05  0.1599648E+04  0.7818609E-02  0.8820764E-01
        2   -1    0    0  501    0  0.00000000000E+00  0.00000000000E+00  0.66200685252E+03  0.66200685253E+03  0.25500000920E-02 0.  1.
       -2   -1    0    0    0  501  0.00000000000E+00  0.00000000000E+00 -0.96633173383E+03  0.96633173383E+03  0.25500000920E-02 0. -1.
    10030    2    1    2    0    0  0.00000000000E+00  0.00000000000E+00 -0.30432488130E+03  0.16283385864E+04  0.15996477482E+04 0.  0.
        5    1    3    3  502    0  0.25259856112E+03  0.24864858106E+03 -0.88200459970E+03  0.95057159322E+03  0.46999998093E+01 0. -1.
       -5    1    3    3    0  502 -0.25259856112E+03 -0.24864858106E+03  0.57767971840E+03  0.67776699314E+03  0.46999998093E+01 0.  1.
</event>
<event>
 5   0  0.1057506E-05  0.1604621E+04  0.7818609E-02  0.8817714E-01
       -1   -1    0    0    0  501  0.00000000000E+00  0.00000000000E+00  0.30322757285E+03  0.30322757289E+03  0.50400001928E-02 0. -1.
        1   -1    0    0  501    0  0.00000000000E+00  0.00000000000E+00 -0.21228353740E+04  0.21228353740E+04  0.50400001928E-02 0.  1.
    10030    2    1    2    0    0  0.00000000000E+00  0.00000000000E+00 -0.18196078011E+04  0.24260629469E+04  0.16046210993E+04 0.  0.
        5    1    3    3  502    0  0.61972305406E+03  0.39288511481E+01 -0.16801548567E+04  0.17908139301E+04  0.46999998093E+01 0.  1.
       -5    1    3    3    0  502 -0.61972305406E+03 -0.39288511481E+01 -0.13945294439E+03  0.63524901677E+03  0.46999998093E+01 0. -1.
</event>
<event>
 5   0  0.1126485E-05  0.1598979E+04  0.7818609E-02  0.8821176E-01
       -1   -1    0    0    0  501  0.00000000000E+00  0.00000000000E+00  0.45944608955E+03  0.45944608957E+03  0.50400001928E-02 0. -1.
        1   -1    0    0  501    0  0.00000000000E+00  0.00000000000E+00 -0.13912039143E+04  0.13912039143E+04  0.50400001928E-02 0.  1.
    10030    2    1    2    0    0  0.00000000000E+00  0.00000000000E+00 -0.93175782476E+03  0.18506500039E+04  0.15989786718E+04 0.  0.
        2    1    3    3  502    0 -0.29102723043E+03  0.33414363889E+03 -0.12360767338E+04  0.13131011050E+04  0.25500000920E-02 0.  1.
       -2    1    3    3    0  502  0.29102723043E+03 -0.33414363889E+03  0.30431890902E+03  0.53754889885E+03  0.25500000920E-02 0. -1.
</event>
<event>
 5   0  0.2046108E-05  0.1603291E+04  0.7818609E-02  0.8818529E-01
       -2   -1    0    0    0  501  0.00000000000E+00  0.00000000000E+00  0.32408016135E+03  0.32408016136E+03  0.25500000920E-02 0.  1.
        2   -1    0    0  501    0  0.00000000000E+00  0.00000000000E+00 -0.19829520293E+04  0.19829520293E+04  0.25500000920E-02 0. -1.
    10030    2    1    2    0    0  0.00000000000E+00  0.00000000000E+00 -0.16588718679E+04  0.23070321906E+04  0.16032908827E+04 0.  0.
        1    1    3    3  502    0  0.56031534311E+02  0.10060410553E+03  0.31211677793E+03  0.33268243413E+03  0.50400001928E-02 0.  1.
       -1    1    3    3    0  502 -0.56031534311E+02 -0.10060410553E+03 -0.19709886459E+04  0.19743497565E+04  0.50400001928E-02 0. -1.
</event>
<event>
 5   0  0.1090674E-05  0.1600023E+04  0.7818609E-02  0.8820534E-01
       -1   -1    0    0    0  501  0.00000000000E+00  0.00000000000E+00  0.46094655781E+03  0.46094655783E+03  0.50400001928E-02 0. -1.
        1   -1    0    0  501    0  0.00000000000E+00  0.00000000000E+00 -0.13884864175E+04  0.13884864175E+04  0.50400001928E-02 0.  1.
    10030    2    1    2    0    0  0.00000000000E+00  0.00000000000E+00 -0.92753985967E+03  0.18494329753E+04  0.16000225433E+04 0.  0.
        4    1    3    3  502    0 -0.31985927604E+03  0.64484068027E+03 -0.60225718230E+02  0.72232832523E+03  0.12699999809E+01 0. -1.
       -4    1    3    3    0  502  0.31985927604E+03 -0.64484068027E+03 -0.86731414144E+03  0.11271046501E+04  0.12699999809E+01 0.  1.
</event>
<event>
 5   0  0.2046108E-05  0.1599928E+04  0.7818609E-02  0.8820592E-01
        2   -1    0    0  501    0  0.00000000000E+00  0.00000000000E+00  0.16372000898E+04  0.16372000898E+04  0.25500000920E-02 0.  1.
       -2   -1    0    0    0  501  0.00000000000E+00  0.00000000000E+00 -0.39087631138E+03  0.39087631139E+03  0.25500000920E-02 0. -1.
    10030    2    1    2    0    0  0.00000000000E+00  0.00000000000E+00  0.12463237785E+04  0.20280764012E+04  0.15999284135E+04 0.  0.
        1    1    3    3  502    0  0.90259362423E+02 -0.45223466725E+03 -0.20542858039E+03  0.50484041878E+03  0.50400001928E-02 0. -1.
       -1    1    3    3    0  502 -0.90259362423E+02  0.45223466725E+03  0.14517523589E+04  0.15232359825E+04  0.50400001928E-02 0.  1.
</event>
<event>
 5   0  0.2046108E-05  0.1598132E+04  0.7818609E-02  0.8821696E-01
       -2   -1    0    0    0  501  0.00000000000E+00  0.00000000000E+00  0.32668249134E+03  0.32668249135E+03  0.25500000920E-02 0. -1.
        2   -1    0    0  501    0  0.00000000000E+00  0.00000000000E+00 -0.19545180406E+04  0.19545180406E+04  0.25500000920E-02 0.  1.
    10030    2    1    2    0    0  0.00000000000E+00  0.00000000000E+00 -0.16278355492E+04  0.22812005319E+04  0.15981324387E+04 0.  0.
        1    1    3    3  502    0 -0.24985965925E+03  0.75023413909E+03 -0.97807507308E+03  0.12577408165E+04  0.50400001928E-02 0.  1.
       -1    1    3    3    0  502  0.24985965925E+03 -0.75023413909E+03 -0.64976047617E+03  0.10234597155E+04  0.50400001928E-02 0. -1.
</event>
<event>
 5   0  0.1090674E-05  0.1599519E+04  0.7818609E-02  0.8820844E-01
       -1   -1    0    0    0  501  0.00000000000E+00  0.00000000000E+00  0.36284489382E+03  0.36284489386E+03  0.50400001928E-02 0. -1.
        1   -1    0    0  501    0  0.00000000000E+00  0.00000000000E+00 -0.17627781730E+04  0.17627781730E+04  0.50400001928E-02 0.  1.
    10030    2    1    2    0    0  0.00000000000E+00  0.00000000000E+00 -0.13999332792E+04  0.21256230669E+04  0.15995187515E+04 0.  0.
        4    1    3    3  502    0  0.62096451247E+02 -0.19983471646E+03  0.32581697053E+03  0.38723144803E+03  0.12699999809E+01 0. -1.
       -4    1    3    3    0  502 -0.62096451247E+02  0.19983471646E+03 -0.17257502497E+04  0.17383916189E+04  0.12699999809E+01 0.  1.
</event>
<event>
 5   0  0.1081831E-05  0.1599405E+04  0.7818609E-02  0.8820913E-01
       -1   -1    0    0    0  501  0.00000000000E+00  0.00000000000E+00  0.22989606448E+03  0.22989606453E+03  0.50400001928E-02 0.  1.
        1   -1    0    0  501    0  0.00000000000E+00  0.00000000000E+00 -0.27817979614E+04  0.27817979614E+04  0.50400001928E-02 0. -1.
    10030    2    1    2    0    0  0.00000000000E+00  0.00000000000E+00 -0.25519018969E+04  0.30116940259E+04  0.15994053940E+04 0.  0.
        3    1    3    3  502    0  0.60903174053E+03 -0.51678748769E+03 -0.12021662017E+04  0.14433269052E+04  0.10100000352E+00 0.  1.
       -3    1    3    3    0  502 -0.60903174053E+03  0.51678748769E+03 -0.13497356952E+04  0.15683671208E+04  0.10100000352E+00 0. -1.
</event>
<event>
 5   0  0.1990948E-05  0.1599948E+04  0.7818609E-02  0.8820580E-01
       -2   -1    0    0    0  501  0.00000000000E+00  0.00000000000E+00  0.56463130302E+03  0.56463130302E+03  0.25500000920E-02 0. -1.
        2   -1    0    0  501    0  0.00000000000E+00  0.00000000000E+00 -0.11334098403E+04  0.11334098403E+04  0.25500000920E-02 0.  1.
    10030    2    1    2    0    0  0.00000000000E+00  0.00000000000E+00 -0.56877853733E+03  0.16980411434E+04  0.15999483429E+04 0.  0.
        4    1    3    3  502    0 -0.20488444491E+03 -0.39037410171E+03 -0.99283851279E+03  0.10863238469E+04  0.12699999809E+01 0.  1.
       -4    1    3    3    0  502  0.20488444491E+03  0.39037410171E+03  0.42405997547E+03  0.61171729642E+03  0.12699999809E+01 0. -1.
</event>
<event>
 5   0  0.1090674E-05  0.1600333E+04  0.7818609E-02  0.8820343E-01
        1   -1    0    0  501    0  0.00000000000E+00  0.00000000000E+00  0.11312946382E+04  0.11312946382E+04  0.50400001928E-02 0. -1.
       -1   -1    0    0    0  501  0.00000000000E+00  0.00000000000E+00 -0.56595922512E+03  0.56595922515E+03  0.50400001928E-02 0.  1.
    10030    2    1    2    0    0  0.00000000000E+00  0.00000000000E+00  0.56533541304E+03  0.16972538633E+04  0.16003332613E+04 0.  0.
        4    1    3    3  502    0  0.49908065249E+03 -0.41198488045E+03 -0.21641918403E+03  0.68238692508E+03  0.12699999809E+01 0.  1.
       -4    1    3    3    0  502 -0.49908065249E+03  0.41198488045E+03  0.78175459706E+03  0.10148669382E+04  0.12699999809E+01 0. -1.
</event>
<event>
 5   0  0.1060251E-05  0.1599024E+04  0.7818609E-02  0.8821148E-01
        1   -1    0    0  501    0  0.00000000000E+00  0.00000000000E+00  0.10450985299E+04  0.10450985299E+04  0.50400001928E-02 0.  1.
       -1   -1    0    0    0  501  0.00000000000E+00  0.00000000000E+00 -0.61163584935E+03  0.61163584937E+03  0.50400001928E-02 0. -1.
    10030    2    1    2    0    0  0.00000000000E+00  0.00000000000E+00  0.43346268058E+03  0.16567343793E+04  0.15990243613E+04 0.  0.
        1    1    3    3  502    0  0.44106613444E+03  0.72698830873E+02 -0.47006108073E+03  0.64867701871E+03  0.50400001928E-02 0. -1.
       -1    1    3    3    0  502 -0.44106613444E+03 -0.72698830873E+02  0.90352376131E+03  0.10080573606E+04  0.50400001928E-02 0.  1.
</event>
<event>
 5   0  0.1057506E-05  0.1599670E+04  0.7818609E-02  0.8820751E-01
       -1   -1    0    0    0  501  0.00000000000E+00  0.00000000000E+00  0.83585016557E+03  0.83585016559E+03  0.50400001928E-02 0.  1.
        1   -1    0    0  501    0  0.00000000000E+00  0.00000000000E+00 -0.76537188263E+03  0.76537188265E+03  0.50400001928E-02 0. -1.
    10030    2    1    2    0    0  0.00000000000E+00  0.00000000000E+00  0.70478282940E+02  0.16012220482E+04  0.15996702346E+04 0.  0.
        5    1    3    3  502    0  0.21711199130E+01  0.44275268766E+03 -0.63149971178E+03  0.77126430759E+03  0.46999998093E+01 0. -1.
       -5    1    3    3    0  502 -0.21711199130E+01 -0.44275268766E+03  0.70197799472E+03  0.82995774065E+03  0.46999998093E+01 0.  1.
</event>
<event>
 5   0  0.1990948E-05  0.1600274E+04  0.7818609E-02  0.8820380E-01
       -2   -1    0    0    0  501  0.00000000000E+00  0.00000000000E+00  0.66655221965E+03  0.66655221965E+03  0.25500000920E-02 0.  1.
        2   -1    0    0  501    0  0.00000000000E+00  0.00000000000E+00 -0.96049375028E+03  0.96049375029E+03  0.25500000920E-02 0. -1.
    10030    2    1    2    0    0  0.00000000000E+00  0.00000000000E+00 -0.29394153063E+03  0.16270459699E+04  0.16002740281E+04 0.  0.
        4    1    3    3  502    0  0.48523863514E+03  0.21686679129E+03  0.46114054537E+03  0.70366181770E+03  0.12699999809E+01 0.  1.
       -4    1    3    3    0  502 -0.48523863514E+03 -0.21686679129E+03 -0.75508207601E+03  0.92338415224E+03  0.12699999809E+01 0. -1.
</event>
<event>
 5   0  0.2147844E-05  0.1601557E+04  0.7818609E-02  0.8819592E-01
       -2   -1    0    0    0  501  0.00000000000E+00  0.00000000000E+00  0.47813726032E+03  0.47813726033E+03  0.25500000920E-02 0.  1.
        2   -1    0    0  501    0  0.00000000000E+00  0.00000000000E+00 -0.13411345839E+04  0.13411345839E+04  0.25500000920E-02 0. -1.
    10030    2    1    2    0    0  0.00000000000E+00  0.00000000000E+00 -0.86299732359E+03  0.18192718442E+04  0.16015572618E+04 0.  0.
        2    1    3    3  502    0 -0.22365715370E+03  0.19766864096E+03  0.41258221174E+03  0.50923422456E+03  0.25500000920E-02 0.  1.
       -2    1    3    3    0  502  0.22365715370E+03 -0.19766864096E+03 -0.12755795353E+04  0.13100376197E+04  0.25500000920E-02 0. -1.
</event>
<event>
 5   0  0.1057506E-05  0.1600346E+04  0.7818609E-02  0.8820336E-01
        1   -1    0    0  501    0  0.00000000000E+00  0.00000000000E+00  0.17927758902E+04  0.17927758902E+04  0.50400001928E-02 0.  1.
       -1   -1    0    0    0  501  0.00000000000E+00  0.00000000000E+00 -0.35714267702E+03  0.35714267705E+03  0.50400001928E-02 0. -1.
    10030    2    1    2    0    0  0.00000000000E+00  0.00000000000E+00  0.14356332132E+04  0.21499185673E+04  0.16003459386E+04 0.  0.
        5    1    3    3  502    0  0.46187316562E+03  0.32347341485E+03 -0.44847755898E+02  0.56568125517E+03  0.46999998093E+01 0. -1.
       -5    1    3    3    0  502 -0.46187316562E+03 -0.32347341485E+03  0.14804809691E+04  0.15842373121E+04  0.46999998093E+01 0.  1.
</event>
<event>
 5   0  0.1060251E-05  0.1601449E+04  0.7818609E-02  0.8819658E-01
       -1   -1    0    0    0  501  0.00000000000E+00  0.00000000000E+00  0.51464224462E+03  0.51464224464E+03  0.50400001928E-02 0.  1.
        1   -1    0    0  501    0  0.00000000000E+00  0.00000000000E+00 -0.12458360327E+04  0.12458360327E+04  0.50400001928E-02 0. -1.
    10030    2    1    2    0    0  0.00000000000E+00  0.00000000000E+00 -0.73119378804E+03  0.17604782773E+04  0.16014491591E+04 0.  0.
        1    1    3    3  502    0  0.19296918291E+03 -0.75725889061E+03 -0.55752441102E+03  0.95995395820E+03  0.50400001928E-02 0.  1.
       -1    1    3    3    0  502 -0.19296918291E+03  0.75725889061E+03 -0.17366937702E+03  0.80052431911E+03  0.50400001928E-02 0. -1.
</event>
<event>
 5   0  0.2125803E-05  0.1600158E+04  0.7818609E-02  0.8820451E-01
        2   -1    0    0  501    0  0.00000000000E+00  0.00000000000E+00  0.14112855345E+04  0.14112855345E+04  0.25500000920E-02 0. -1.
       -2   -1    0    0    0  501  0.00000000000E+00  0.00000000000E+00 -0.45357653812E+03  0.45357653813E+03  0.25500000920E-02 0.  1.
    10030    2    1    2    0    0  0.00000000000E+00  0.00000000000E+00  0.95770899640E+03  0.18648620727E+04  0.16001575011E+04 0.  0.
        3    1    3    3  502    0  0.69041928895E+03  0.34079095949E+03  0.22536813356E+03  0.80225187968E+03  0.10100000352E+00 0.  1.
       -3    1    3    3    0  502 -0.69041928895E+03 -0.34079095949E+03  0.73234086284E+03  0.10626101930E+04  0.10100000352E+00 0. -1.
</event>
<event>
 5   0  0.1990948E-05  0.1599799E+04  0.7818609E-02  0.8820672E-01
       -2   -1    0    0    0  501  0.00000000000E+00  0.00000000000E+00  0.97925809314E+03  0.97925809315E+03  0.25500000920E-02 0.  1.
        2   -1    0    0  501    0  0.00000000000E+00  0.00000000000E+00 -0.65339161489E+03  0.65339161490E+03  0.25500000920E-02 0. -1.
    10030    2    1    2    0    0  0.00000000000E+00  0.00000000000E+00  0.32586647825E+03  0.16326497080E+04  0.15997987710E+04 0.  0.
        4    1    3    3  502    0  0.67374710296E+02  0.30479869448E+03  0.91453159684E+03  0.96633909693E+03  0.12699999809E+01 0.  1.
       -4    1    3    3    0  502 -0.67374710296E+02 -0.30479869448E+03 -0.58866511859E+03  0.66631061111E+03  0.12699999809E+01 0. -1.
</event>
<event>
 5   0  0.1990948E-05  0.1599568E+04  0.7818609E-02  0.8820813E-01
        2   -1    0    0  501    0  0.00000000000E+00  0.00000000000E+00  0.71639734791E+03  0.71639734792E+03  0.25500000920E-02 0.  1.
       -2   -1    0    0    0  501  0.00000000000E+00  0.00000000000E+00 -0.89287707120E+03  0.89287707120E+03  0.25500000920E-02 0. -1.
    10030    2    1    2    0    0  0.00000000000E+00  0.00000000000E+00 -0.17647972329E+03  0.16092744191E+04  0.15995683991E+04 0.  0.
        4    1    3    3  502    0  0.41356982296E+03 -0.53421666623E+03  0.34240621643E+03  0.75741077025E+03  0.12699999809E+01 0.  1.
       -4    1    3    3    0  502 -0.41356982296E+03  0.53421666623E+03 -0.51888593971E+03  0.85186364887E+03  0.12699999809E+01 0. -1.
</event>
<event>
 5   0  0.1081831E-05  0.1599969E+04  0.7818609E-02  0.8820567E-01
        1   -1    0    0  501    0  0.00000000000E+00  0.00000000000E+00  0.42188120422E+03  0.42188120425E+03  0.50400001928E-02 0.  1.
       -1   -1    0    0    0  501  0.00000000000E+00  0.00000000000E+00 -0.15169563564E+04  0.15169563564E+04  0.50400001928E-02 0. -1.
    10030    2    1    2    0    0  0.00000000000E+00  0.00000000000E+00 -0.10950751522E+04  0.19388375607E+04  0.15999692178E+04 0.  0.
        3    1    3    3  502    0 -0.25265923458E+03  0.75507949814E+03 -0.45372206468E+03  0.91643082636E+03  0.10100000352E+00 0. -1.
       -3    1    3    3    0  502  0.25265923458E+03 -0.75507949814E+03 -0.64135308754E+03  0.10224067343E+04  0.10100000352E+00 0.  1.
</event>
<event>
 5   0  0.1081831E-05  0.1599941E+04  0.7818609E-02  0.8820584E-01
        1   -1    0    0  501    0  0.00000000000E+00  0.00000000000E+00  0.90495451830E+03  0.90495451832E+03  0.50400001928E-02 0. -1.
       -1   -1    0    0    0  501  0.00000000000E+00  0.00000000000E+00 -0.70716554133E+03  0.70716554135E+03  0.50400001928E-02 0.  1.
    10030    2    1    2    0    0  0.00000000000E+00  0.00000000000E+00  0.19778897698E+03  0.16121200597E+04  0.15999408137E+04 0.  0.
        3    1    3    3  502    0 -0.11476343086E+03  0.18978944053E+03 -0.67556682409E+03  0.71104234811E+03  0.10100000352E+00 0.  1.
       -3    1    3    3    0  502  0.11476343086E+03 -0.18978944053E+03  0.87335580107E+03  0.90107771155E+03  0.10100000352E+00 0. -1.
</event>
<event>
 5   0  0.1060251E-05  0.1600478E+04  0.7818609E-02  0.8820255E-01
       -1   -1    0    0    0  501  0.00000000000E+00  0.00000000000E+00  0.47973428162E+03  0.47973428164E+03  0.50400001928E-02 0. -1.
        1   -1    0    0  501    0  0.00000000000E+00  0.00000000000E+00 -0.13348687412E+04  0.13348687412E+04  0.50400001928E-02 0.  1.
    10030    2    1    2    0    0  0.00000000000E+00  0.00000000000E+00 -0.85513445957E+03  0.18146030228E+04  0.16004777995E+04 0.  0.
        1    1    3    3  502    0  0.17206991234E+03  0.30368575458E+03  0.38887782298E+03  0.52255052722E+03  0.50400001928E-02 0. -1.
       -1    1    3    3    0  502 -0.17206991234E+03 -0.30368575458E+03 -0.12440122825E+04  0.12920524956E+04  0.50400001928E-02 0.  1.
</event>
<event>
 5   0  0.1126485E-05  0.1599802E+04  0.7818609E-02  0.8820670E-01
        1   -1    0    0  501    0  0.00000000000E+00  0.00000000000E+00  0.24077721190E+04  0.24077721190E+04  0.50400001928E-02 0.  1.
       -1   -1    0    0    0  501  0.00000000000E+00  0.00000000000E+00 -0.26574005104E+03  0.26574005108E+03  0.50400001928E-02 0. -1.
    10030    2    1    2    0    0  0.00000000000E+00  0.00000000000E+00  0.21420320679E+04  0.26735121701E+04  0.15998018450E+04 0.  0.
        2    1    3    3  502    0  0.31629447085E+03  0.73202848085E+03  0.96620406205E+03  0.12527801797E+04  0.25500000920E-02 0. -1.
       -2    1    3    3    0  502 -0.31629447085E+03 -0.73202848085E+03  0.11758280059E+04  0.14207319904E+04  0.25500000920E-02 0.  1.
</event>
<event>
 5   0  0.2125803E-05  0.1600321E+04  0.7818609E-02  0.8820351E-01
        2   -1    0    0  501    0  0.00000000000E+00  0.00000000000E+00  0.10254884907E+04  0.10254884907E+04  0.25500000920E-02 0. -1.
       -2   -1    0    0    0  501  0.00000000000E+00  0.00000000000E+00 -0.62434340642E+03  0.62434340643E+03  0.25500000920E-02 0.  1.
    10030    2    1    2    0    0  0.00000000000E+00  0.00000000000E+00  0.40114508424E+03  0.16498318971E+04  0.16003211897E+04 0.  0.
        3    1    3    3  502    0 -0.21739347683E+03 -0.65479171936E+03  0.61838214509E+03  0.92650343069E+03  0.10100000352E+00 0. -1.
       -3    1    3    3    0  502  0.21739347683E+03  0.65479171936E+03 -0.21723706085E+03  0.72332846641E+03  0.10100000352E+00 0.  1.
</event>
<event>
 5   0  0.2125803E-05  0.1600197E+04  0.7818609E-02  0.8820427E-01
        2   -1    0    0  501    0  0.00000000000E+00  0.00000000000E+00  0.12026786382E+04  0.12026786382E+04  0.25500000920E-02 0. -1.
       -2   -1    0    0    0  501  0.00000000000E+00  0.00000000000E+00 -0.53227649413E+03  0.53227649414E+03  0.25500000920E-02 0.  1.
    10030    2    1    2    0    0  0.00000000000E+00  0.00000000000E+00  0.67040214406E+03  0.17349551323E+04  0.16001969493E+04 0.  0.
        3    1    3    3  502    0 -0.47922667612E+03  0.12039785826E+03 -0.34708174806E+03  0.60383739650E+03  0.10100000352E+00 0.  1.
       -3    1    3    3    0  502  0.47922667612E+03 -0.12039785826E+03  0.10174838921E+04  0.11311177358E+04  0.10100000352E+00 0. -1.
</event>
<event>
 5   0  0.1081831E-05  0.1600055E+04  0.7818609E-02  0.8820514E-01
       -1   -1    0    0    0  501  0.00000000000E+00  0.00000000000E+00  0.76967302260E+03  0.76967302261E+03  0.50400001928E-02 0. -1.
        1   -1    0    0  501    0  0.00000000000E+00  0.00000000000E+00 -0.83157951450E+03  0.83157951452E+03  0.50400001928E-02 0.  1.
    10030    2    1    2    0    0  0.00000000000E+00  0.00000000000E+00 -0.61906491902E+02  0.16012525371E+04  0.16000553971E+04 0.  0.
        3    1    3    3  502    0 -0.39592735474E+03  0.12354087194E+03  0.65368102926E+03  0.77415742294E+03  0.10100000352E+00 0. -1.
       -3    1    3    3    0  502  0.39592735474E+03 -0.12354087194E+03 -0.71558752117E+03  0.82709511419E+03  0.10100000352E+00 0.  1.
</event>
<event>
 5   0  0.1990948E-05  0.1603124E+04  0.7818609E-02  0.8818631E-01
        2   -1    0    0  501    0  0.00000000000E+00  0.00000000000E+00  0.61618712215E+03  0.61618712215E+03  0.25500000920E-02 0. -1.
       -2   -1    0    0    0  501  0.00000000000E+00  0.00000000000E+00 -0.10427056280E+04  0.10427056280E+04  0.25500000920E-02 0.  1.
    10030    2    1    2    0    0  0.00000000000E+00  0.00000000000E+00 -0.42651850581E+03  0.16588927501E+04  0.16031241750E+04 0.  0.
        4    1    3    3  502    0 -0.30172804329E+03  0.49541563400E+02 -0.97998436336E+03  0.10265793413E+04  0.12699999809E+01 0.  1.
       -4    1    3    3    0  502  0.30172804329E+03 -0.49541563400E+02  0.55346585755E+03  0.63231340883E+03  0.12699999809E+01 0. -1.
</event>
<event>
 5   0  0.2046108E-05  0.1600005E+04  0.7818609E-02  0.8820545E-01
       -2   -1    0    0    0  501  0.00000000000E+00  0.00000000000E+00  0.42696392630E+03  0.42696392630E+03  0.25500000920E-02 0. -1.
        2   -1    0    0  501    0  0.00000000000E+00  0.00000000000E+00 -0.14989651893E+04  0.14989651893E+04  0.25500000920E-02 0.  1.
    10030    2    1    2    0    0  0.00000000000E+00  0.00000000000E+00 -0.10720012630E+04  0.19259291156E+04  0.16000050783E+04 0.  0.
        1    1    3    3  502    0  0.35807228882E+03  0.57011608344E+03 -0.15817624001E+02  0.67342283141E+03  0.50400001928E-02 0. -1.
       -1    1    3    3    0  502 -0.35807228882E+03 -0.57011608344E+03 -0.10561836390E+04  0.12525062842E+04  0.50400001928E-02 0.  1.
</event>
<event>
 5   0  0.1990948E-05  0.1603689E+04  0.7818609E-02  0.8818285E-01
       -2   -1    0    0    0  501  0.00000000000E+00  0.00000000000E+00  0.25405088315E+03  0.25405088316E+03  0.25500000920E-02 0. -1.
        2   -1    0    0  501    0  0.00000000000E+00  0.00000000000E+00 -0.25308093225E+04  0.25308093225E+04  0.25500000920E-02 0.  1.
    10030    2    1    2    0    0  0.00000000000E+00  0.00000000000E+00 -0.22767584394E+04  0.27848602057E+04  0.16036886774E+04 0.  0.
        4    1    3    3  502    0 -0.32931941496E+02  0.33243970741E+03  0.12744826217E+03  0.35755467311E+03  0.12699999809E+01 0. -1.
       -4    1    3    3    0  502  0.32931941496E+02 -0.33243970741E+03 -0.24042067015E+04  0.24273055326E+04  0.12699999809E+01 0.  1.
</event>
<event>
 5   0  0.1057506E-05  0.1600577E+04  0.7818609E-02  0.8820194E-01
       -1   -1    0    0    0  501  0.00000000000E+00  0.00000000000E+00  0.88212866854E+03  0.88212866855E+03  0.50400001928E-02 0. -1.
        1   -1    0    0  501    0  0.00000000000E+00  0.00000000000E+00 -0.72604102798E+03  0.72604102800E+03  0.50400001928E-02 0.  1.
    10030    2    1    2    0    0  0.00000000000E+00  0.00000000000E+00  0.15608764055E+03  0.16081696966E+04  0.16005769027E+04 0.  0.
        5    1    3    3  502    0 -0.13724630532E+03  0.78836045154E+03  0.87616105906E+02  0.80501392652E+03  0.46999998093E+01 0. -1.
       -5    1    3    3    0  502  0.13724630532E+03 -0.78836045154E+03  0.68471534647E+02  0.80315577003E+03  0.46999998093E+01 0.  1.
</event>
<event>
 5   0  0.2046108E-05  0.1599876E+04  0.7818609E-02  0.8820624E-01
       -2   -1    0    0    0  501  0.00000000000E+00  0.00000000000E+00  0.54655002631E+03  0.54655002632E+03  0.25500000920E-02 0.  1.
        2   -1    0    0  501    0  0.00000000000E+00  0.00000000000E+00 -0.11708002290E+04  0.11708002290E+04  0.25500000920E-02 0. -1.
    10030    2    1    2    0    0  0.00000000000E+00  0.00000000000E+00 -0.62425020272E+03  0.17173502554E+04  0.15998761152E+04 0.  0.
        1    1    3    3  502    0 -0.66977901330E+02  0.55904407261E+03 -0.92207782894E+03  0.10803905947E+04  0.50400001928E-02 0. -1.
       -1    1    3    3    0  502  0.66977901330E+02 -0.55904407261E+03  0.29782762622E+03  0.63695966069E+03  0.50400001928E-02 0.  1.
</event>
<event>
 5   0  0.2125803E-05  0.1599559E+04  0.7818609E-02  0.8820819E-01
       -2   -1    0    0    0  501  0.00000000000E+00  0.00000000000E+00  0.13760295988E+04  0.13760295988E+04  0.25500000920E-02 0.  1.
        2   -1    0    0  501    0  0.00000000000E+00  0.00000000000E+00 -0.46485008067E+03  0.46485008068E+03  0.25500000920E-02 0. -1.
    10030    2    1    2    0    0  0.00000000000E+00  0.00000000000E+00  0.91117951809E+03  0.18408796794E+04  0.15995592768E+04 0.  0.
        3    1    3    3  502    0 -0.47116915662E+03  0.52397394317E+03  0.20235855861E+02  0.70495288306E+03  0.10100000352E+00 0. -1.
       -3    1    3    3    0  502  0.47116915662E+03 -0.52397394317E+03  0.89094366223E+03  0.11359267964E+04  0.10100000352E+00 0.  1.
</event>
<event>
 5   0  0.1090674E-05  0.1600042E+04  0.7818609E-02  0.8820522E-01
        1   -1    0    0  501    0  0.00000000000E+00  0.00000000000E+00  0.11617217082E+04  0.11617217082E+04  0.50400001928E-02 0. -1.
       -1   -1    0    0    0  501  0.00000000000E+00  0.00000000000E+00 -0.55093569319E+03  0.55093569322E+03  0.50400001928E-02 0.  1.
    10030    2    1    2    0    0  0.00000000000E+00  0.00000000000E+00  0.61078601500E+03  0.17126574014E+04  0.16000424427E+04 0.  0.
        4    1    3    3  502    0  0.63295422234E+03 -0.80474432967E+02 -0.21119841861E+03  0.67209639700E+03  0.12699999809E+01 0.  1.
       -4    1    3    3    0  502 -0.63295422234E+03  0.80474432967E+02  0.82198443360E+03  0.10405610044E+04  0.12699999809E+01 0. -1.
</event>
<event>
 5   0  0.1994525E-05  0.1604850E+04  0.7818609E-02  0.8817574E-01
        2   -1    0    0  501    0  0.00000000000E+00  0.00000000000E+00  0.93992679651E+03  0.93992679651E+03  0.25500000920E-02 0.  1.
       -2   -1    0    0    0  501  0.00000000000E+00  0.00000000000E+00 -0.68503803197E+03  0.68503803198E+03  0.25500000920E-02 0. -1.
    10030    2    1    2    0    0  0.00000000000E+00  0.00000000000E+00  0.25488876453E+03  0.16249648285E+04  0.16048496539E+04 0.  0.
        5    1    3    3  502    0  0.29888184653E+03  0.33297549892E+03  0.80187143242E+03  0.91827170554E+03  0.46999998093E+01 0.  1.
       -5    1    3    3    0  502 -0.29888184653E+03 -0.33297549892E+03 -0.54698266788E+03  0.70669312295E+03  0.46999998093E+01 0. -1.
</event>
<event>
 5   0  0.2147844E-05  0.1598418E+04  0.7818609E-02  0.8821520E-01
        2   -1    0    0  501    0  0.00000000000E+00  0.00000000000E+00  0.12762761946E+04  0.12762761946E+04  0.25500000920E-02 0.  1.
       -2   -1    0    0    0  501  0.00000000000E+00  0.00000000000E+00 -0.50046788675E+03  0.50046788676E+03  0.25500000920E-02 0. -1.
    10030    2    1    2    0    0  0.00000000000E+00  0.00000000000E+00  0.77580830780E+03  0.17767440813E+04  0.15984182807E+04 0.  0.
        2    1    3    3  502    0  0.65193950560E+03  0.30279556670E+03  0.77619647743E+03  0.10579183550E+04  0.25500000920E-02 0. -1.
       -2    1    3    3    0  502 -0.65193950560E+03 -0.30279556670E+03 -0.38816962545E+00  0.71882572635E+03  0.25500000920E-02 0.  1.
</event>
<event>
 5   0  0.2147844E-05  0.1608897E+04  0.7818609E-02  0.8815101E-01
        2   -1    0    0  501    0  0.00000000000E+00  0.00000000000E+00  0.98855323167E+03  0.98855323168E+03  0.25500000920E-02 0.  1.
       -2   -1    0    0    0  501  0.00000000000E+00  0.00000000000E+00 -0.65463084671E+03  0.65463084672E+03  0.25500000920E-02 0. -1.
    10030    2    1    2    0    0  0.00000000000E+00  0.00000000000E+00  0.33392238496E+03  0.16431840784E+04  0.16088970621E+04 0.  0.
        2    1    3    3  502    0  0.94822353402E+01  0.28907589455E+03 -0.59969074062E+03  0.66579559174E+03  0.25500000920E-02 0. -1.
       -2    1    3    3    0  502 -0.94822353402E+01 -0.28907589455E+03  0.93361312557E+03  0.97738848666E+03  0.25500000920E-02 0.  1.
</event>
<event>
 5   0  0.1081831E-05  0.1601813E+04  0.7818609E-02  0.8819435E-01
        1   -1    0    0  501    0  0.00000000000E+00  0.00000000000E+00  0.84137860355E+03  0.84137860356E+03  0.50400001928E-02 0.  1.
       -1   -1    0    0    0  501  0.00000000000E+00  0.00000000000E+00 -0.76238160518E+03  0.76238160519E+03  0.50400001928E-02 0. -1.
    10030    2    1    2    0    0  0.00000000000E+00  0.00000000000E+00  0.78996998368E+02  0.16037602088E+04  0.16018134353E+04 0.  0.
        3    1    3    3  502    0 -0.29129543183E+03  0.45233547907E+03  0.63350797294E+03  0.83113944450E+03  0.10100000352E+00 0.  1.
       -3    1    3    3    0  502  0.29129543183E+03 -0.45233547907E+03 -0.55451097457E+03  0.77262076425E+03  0.10100000352E+00 0. -1.
</event>
<event>
 5   0  0.1126485E-05  0.1600009E+04  0.7818609E-02  0.8820542E-01
        1   -1    0    0  501    0  0.00000000000E+00  0.00000000000E+00  0.18870891619E+04  0.18870891620E+04  0.50400001928E-02 0. -1.
       -1   -1    0    0    0  501  0.00000000000E+00  0.00000000000E+00 -0.33915051885E+03  0.33915051889E+03  0.50400001928E-02 0.  1.
    10030    2    1    2    0    0  0.00000000000E+00  0.00000000000E+00  0.15479386431E+04  0.22262396808E+04  0.16000090855E+04 0.  0.
        2    1    3    3  502    0  0.32584775029E+03  0.18231139666E+03 -0.21047664919E+03  0.42861943677E+03  0.25500000920E-02 0.  1.
       -2    1    3    3    0  502 -0.32584775029E+03 -0.18231139666E+03  0.17584152923E+04  0.17976202441E+04  0.25500000920E-02 0. -1.
</event>
<event>
 5   0  0.2046108E-05  0.1600289E+04  0.7818609E-02  0.8820370E-01
        2   -1    0    0  501    0  0.00000000000E+00  0.00000000000E+00  0.16350266804E+04  0.16350266804E+04  0.25500000920E-02 0.  1.
       -2   -1    0    0    0  501  0.00000000000E+00  0.00000000000E+00 -0.39157240443E+03  0.39157240444E+03  0.25500000920E-02 0. -1.
    10030    2    1    2    0    0  0.00000000000E+00  0.00000000000E+00  0.12434542760E+04  0.20265990849E+04  0.16002891346E+04 0.  0.
        1    1    3    3  502    0 -0.73786260042E+03 -0.30949831506E+03  0.62052277559E+03  0.10125605854E+04  0.50400001928E-02 0. -1.
       -1    1    3    3    0  502  0.73786260042E+03  0.30949831506E+03  0.62293150039E+03  0.10140384994E+04  0.50400001928E-02 0.  1.
</event>
<event>
 5   0  0.1126485E-05  0.1599335E+04  0.7818609E-02  0.8820957E-01
       -1   -1    0    0    0  501  0.00000000000E+00  0.00000000000E+00  0.55345949272E+03  0.55345949274E+03  0.50400001928E-02 0.  1.
        1   -1    0    0  501    0  0.00000000000E+00  0.00000000000E+00 -0.11554014093E+04  0.11554014093E+04  0.50400001928E-02 0. -1.
    10030    2    1    2    0    0  0.00000000000E+00  0.00000000000E+00 -0.60194191653E+03  0.17088609020E+04  0.15993347090E+04 0.  0.
        2    1    3    3  502    0  0.47740445190E+03 -0.96756648776E+02 -0.97858677512E+03  0.10931189031E+04  0.25500000920E-02 0. -1.
       -2    1    3    3    0  502 -0.47740445190E+03  0.96756648776E+02  0.37664485858E+03  0.61574199895E+03  0.25500000920E-02 0.  1.
</event>
<event>
 5   0  0.1057506E-05  0.1600181E+04  0.7818609E-02  0.8820437E-01
        1   -1    0    0  501    0  0.00000000000E+00  0.00000000000E+00  0.10130218845E+04  0.10130218845E+04  0.50400001928E-02 0.  1.
       -1   -1    0    0    0  501  0.00000000000E+00  0.00000000000E+00 -0.63191627347E+03  0.63191627349E+03  0.50400001928E-02 0. -1.
    10030    2    1    2    0    0  0.00000000000E+00  0.00000000000E+00  0.38110561104E+03  0.16449381580E+04  0.16001812575E+04 0.  0.
        5    1    3    3  502    0  0.19775125995E+03  0.50229446668E+03  0.79759286165E+03  0.96311045837E+03  0.46999998093E+01 0.  1.
       -5    1    3    3    0  502 -0.19775125995E+03 -0.50229446668E+03 -0.41648725061E+03  0.68182769963E+03  0.46999998093E+01 0. -1.
</event>
<event>
 5   0  0.1994525E-05  0.1599937E+04  0.7818609E-02  0.8820587E-01
       -2   -1    0    0    0  501  0.00000000000E+00  0.00000000000E+00  0.72679407550E+03  0.72679407550E+03  0.25500000920E-02 0. -1.
        2   -1    0    0  501    0  0.00000000000E+00  0.00000000000E+00 -0.88051009075E+03  0.88051009075E+03  0.25500000920E-02 0.  1.
    10030    2    1    2    0    0  0.00000000000E+00  0.00000000000E+00 -0.15371601525E+03  0.16073041663E+04  0.15999368955E+04 0.  0.
        5    1    3    3  502    0  0.42646830714E+02 -0.70410659774E+03  0.30216242645E+03  0.76740411461E+03  0.46999998093E+01 0.  1.
       -5    1    3    3    0  502 -0.42646830714E+02  0.70410659774E+03 -0.45587844170E+03  0.83990005165E+03  0.46999998093E+01 0. -1.
</event>
<event>
 5   0  0.1126485E-05  0.1599798E+04  0.7818609E-02  0.8820672E-01
        1   -1    0    0  501    0  0.00000000000E+00  0.00000000000E+00  0.57223194204E+03  0.57223194206E+03  0.50400001928E-02 0.  1.
       -1   -1    0    0    0  501  0.00000000000E+00  0.00000000000E+00 -0.11181453217E+04  0.11181453218E+04  0.50400001928E-02 0. -1.
    10030    2    1    2    0    0  0.00000000000E+00  0.00000000000E+00 -0.54591337970E+03  0.16903772638E+04  0.15997980735E+04 0.  0.
        2    1    3    3  502    0 -0.15173469806E+03 -0.51170039288E+03 -0.90249047807E+03  0.10484988191E+04  0.25500000920E-02 0. -1.
       -2    1    3    3    0  502  0.15173469806E+03  0.51170039288E+03  0.35657709837E+03  0.64187844469E+03  0.25500000920E-02 0.  1.
</event>
<event>
 5   0  0.1081831E-05  0.1599880E+04  0.7818609E-02  0.8820622E-01
        1   -1    0    0  501    0  0.00000000000E+00  0.00000000000E+00  0.19123125512E+04  0.19123125512E+04  0.50400001928E-02 0.  1.
       -1   -1    0    0    0  501  0.00000000000E+00  0.00000000000E+00 -0.33462319823E+03  0.33462319827E+03  0.50400001928E-02 0. -1.
    10030    2    1    2    0    0  0.00000000000E+00  0.00000000000E+00  0.15776893530E+04  0.22469357495E+04  0.15998801729E+04 0.  0.
        3    1    3    3  502    0 -0.56069691318E+03 -0.13404046424E+02 -0.12232247439E+02  0.56099049457E+03  0.10100000352E+00 0. -1.
       -3    1    3    3    0  502  0.56069691318E+03  0.13404046424E+02  0.15899216004E+04  0.16859452549E+04  0.10100000352E+00 0.  1.
</event>
<event>
 5   0  0.1057506E-05  0.1599771E+04  0.7818609E-02  0.8820689E-01
        1   -1    0    0  501    0  0.00000000000E+00  0.00000000000E+00  0.17649856034E+04  0.17649856034E+04  0.50400001928E-02 0.  1.
       -1   -1    0    0    0  501  0.00000000000E+00  0.00000000000E+00 -0.36250554810E+03  0.36250554814E+03  0.50400001928E-02 0. -1.
    10030    2    1    2    0    0  0.00000000000E+00  0.00000000000E+00  0.14024800553E+04  0.21274911516E+04  0.15997713257E+04 0.  0.
        5    1    3    3  502    0  0.36396047963E+03  0.68632348257E+02 -0.24157955391E+03  0.44222211706E+03  0.46999998093E+01 0. -1.
       -5    1    3    3    0  502 -0.36396047963E+03 -0.68632348257E+02  0.16440596092E+04  0.16852690345E+04  0.46999998093E+01 0.  1.
</event>
<event>
 5   0  0.2147844E-05  0.1600750E+04  0.7818609E-02  0.8820088E-01
       -2   -1    0    0    0  501  0.00000000000E+00  0.00000000000E+00  0.49211853437E+03  0.49211853437E+03  0.25500000920E-02 0.  1.
        2   -1    0    0  501    0  0.00000000000E+00  0.00000000000E+00 -0.13017187970E+04  0.13017187970E+04  0.25500000920E-02 0. -1.
    10030    2    1    2    0    0  0.00000000000E+00  0.00000000000E+00 -0.80960026268E+03  0.17938373314E+04  0.16007497575E+04 0.  0.
        2    1    3    3  502    0  0.70748816782E+03  0.28566364187E+03 -0.13385781161E+03  0.77463613241E+03  0.25500000920E-02 0.  1.
       -2    1    3    3    0  502 -0.70748816782E+03 -0.28566364187E+03 -0.67574245106E+03  0.10192011990E+04  0.25500000920E-02 0. -1.
</event>
<event>
 5   0  0.2125803E-05  0.1600232E+04  0.7818609E-02  0.8820406E-01
        2   -1    0    0  501    0  0.00000000000E+00  0.00000000000E+00  0.13287641861E+04  0.13287641861E+04  0.25500000920E-02 0.  1.
       -2   -1    0    0    0  501  0.00000000000E+00  0.00000000000E+00 -0.48179009546E+03  0.48179009547E+03  0.25500000920E-02 0. -1.
    10030    2    1    2    0    0  0.00000000000E+00  0.00000000000E+00  0.84697409062E+03  0.18105542816E+04  0.16002317633E+04 0.  0.
        3    1    3    3  502    0  0.25706849333E+03 -0.28833244033E+03  0.12162698074E+04  0.12761395147E+04  0.10100000352E+00 0.  1.
       -3    1    3    3    0  502 -0.25706849333E+03  0.28833244033E+03 -0.36929571676E+03  0.53441476685E+03  0.10100000352E+00 0. -1.
</event>
<event>
 5   0  0.1081831E-05  0.1600617E+04  0.7818609E-02  0.8820169E-01
       -1   -1    0    0    0  501  0.00000000000E+00  0.00000000000E+00  0.51773246837E+03  0.51773246840E+03  0.50400001928E-02 0. -1.
        1   -1    0    0  501    0  0.00000000000E+00  0.00000000000E+00 -0.12371133732E+04  0.12371133732E+04  0.50400001928E-02 0.  1.
    10030    2    1    2    0    0  0.00000000000E+00  0.00000000000E+00 -0.71938090483E+03  0.17548458416E+04  0.16006170815E+04 0.  0.
        3    1    3    3  502    0  0.50777174839E+03  0.21660806609E+03 -0.99495513904E+03  0.11378431094E+04  0.10100000352E+00 0.  1.
       -3    1    3    3    0  502 -0.50777174839E+03 -0.21660806609E+03  0.27557423421E+03  0.61700273218E+03  0.10100000352E+00 0. -1.
</event>
<event>
 5   0  0.2046108E-05  0.1599641E+04  0.7818609E-02  0.8820769E-01
       -2   -1    0    0    0  501  0.00000000000E+00  0.00000000000E+00  0.74644469281E+03  0.74644469281E+03  0.25500000920E-02 0.  1.
        2   -1    0    0  501    0  0.00000000000E+00  0.00000000000E+00 -0.85701251451E+03  0.85701251451E+03  0.25500000920E-02 0. -1.
    10030    2    1    2    0    0  0.00000000000E+00  0.00000000000E+00 -0.11056782170E+03  0.16034572073E+04  0.15996405135E+04 0.  0.
        1    1    3    3  502    0  0.19085161946E+03  0.52544934117E+03  0.51808707815E+03  0.76219129578E+03  0.50400001928E-02 0.  1.
       -1    1    3    3    0  502 -0.19085161946E+03 -0.52544934117E+03 -0.62865489985E+03  0.84126591154E+03  0.50400001928E-02 0. -1.
</event>
<event>
 5   0  0.2046108E-05  0.1599933E+04  0.7818609E-02  0.8820589E-01
       -2   -1    0    0    0  501  0.00000000000E+00  0.00000000000E+00  0.10503698318E+04  0.10503698318E+04  0.25500000920E-02 0.  1.
        2   -1    0    0  501    0  0.00000000000E+00  0.00000000000E+00 -0.60925789327E+03  0.60925789327E+03  0.25500000920E-02 0. -1.
    10030    2    1    2    0    0  0.00000000000E+00  0.00000000000E+00  0.44111193855E+03  0.16596277251E+04  0.15999326372E+04 0.  0.
        1    1    3    3  502    0  0.11847926194E+03 -0.12718625512E+03 -0.58943211796E+03  0.61452737995E+03  0.50400001928E-02 0. -1.
       -1    1    3    3    0  502 -0.11847926194E+03  0.12718625512E+03  0.10305440565E+04  0.10451003451E+04  0.50400001928E-02 0.  1.
</event>
<event>
 5   0  0.1994525E-05  0.1599733E+04  0.7818609E-02  0.8820712E-01
        2   -1    0    0  501    0  0.00000000000E+00  0.00000000000E+00  0.75801331101E+03  0.75801331102E+03  0.25500000920E-02 0.  1.
       -2   -1    0    0    0  501  0.00000000000E+00  0.00000000000E+00 -0.84403059237E+03  0.84403059237E+03  0.25500000920E-02 0. -1.
    10030    2    1    2    0    0  0.00000000000E+00  0.00000000000E+00 -0.86017281352E+02  0.16020439034E+04  0.15997330076E+04 0.  0.
        5    1    3    3  502    0 -0.50303266950E+03  0.59431573575E+03 -0.22633392806E+03  0.81086509194E+03  0.46999998093E+01 0. -1.
       -5    1    3    3    0  502  0.50303266950E+03 -0.59431573575E+03  0.14031664670E+03  0.79117881145E+03  0.46999998093E+01 0.  1.
</event>
<event>
 5   0  0.2125803E-05  0.1599956E+04  0.7818609E-02  0.8820575E-01
       -2   -1    0    0    0  501  0.00000000000E+00  0.00000000000E+00  0.43774329533E+03  0.43774329534E+03  0.25500000920E-02 0. -1.
        2   -1    0    0  501    0  0.00000000000E+00  0.00000000000E+00 -0.14619639506E+04  0.14619639506E+04  0.25500000920E-02 0.  1.
    10030    2    1    2    0    0  0.00000000000E+00  0.00000000000E+00 -0.10242206553E+04  0.18997072459E+04  0.15999561462E+04 0.  0.
        3    1    3    3  502    0 -0.38510553077E+02 -0.72423074688E+03 -0.91295586757E+03  0.11659681230E+04  0.10100000352E+00 0. -1.
       -3    1    3    3    0  502  0.38510553077E+02  0.72423074688E+03 -0.11126478770E+03  0.73373912299E+03  0.10100000352E+00 0.  1.
</event>
<event>
 5   0  0.1060251E-05  0.1600121E+04  0.7818609E-02  0.8820474E-01
       -1   -1    0    0    0  501  0.00000000000E+00  0.00000000000E+00  0.28185418458E+03  0.28185418463E+03  0.50400001928E-02 0. -1.
        1   -1    0    0  501    0  0.00000000000E+00  0.00000000000E+00 -0.22710216660E+04  0.22710216660E+04  0.50400001928E-02 0.  1.
    10030    2    1    2    0    0  0.00000000000E+00  0.00000000000E+00 -0.19891674815E+04  0.25528758507E+04  0.16001211953E+04 0.  0.
        1    1    3    3  502    0  0.73115311708E+02 -0.54489285714E+03 -0.67253962745E+02  0.55387468809E+03  0.50400001928E-02 0. -1.
       -1    1    3    3    0  502 -0.73115311708E+02  0.54489285714E+03 -0.19219135187E+04  0.19990011626E+04  0.50400001928E-02 0.  1.
</event>
<event>
 5   0  0.1060251E-05  0.1599962E+04  0.7818609E-02  0.8820571E-01
        1   -1    0    0  501    0  0.00000000000E+00  0.00000000000E+00  0.23401358437E+04  0.23401358437E+04  0.50400001928E-02 0.  1.
       -1   -1    0    0    0  501  0.00000000000E+00  0.00000000000E+00 -0.27347544186E+03  0.27347544190E+03  0.50400001928E-02 0. -1.
    10030    2    1    2    0    0  0.00000000000E+00  0.00000000000E+00  0.20666604018E+04  0.26136112856E+04  0.15999621045E+04 0.  0.
        1    1    3    3  502    0 -0.47985233600E+03  0.61167767316E+03  0.72527862513E+03  0.10632200733E+04  0.50400001928E-02 0. -1.
       -1    1    3    3    0  502  0.47985233600E+03 -0.61167767316E+03  0.13413817767E+04  0.15503912123E+04  0.50400001928E-02 0.  1.
</event>
<event>
 5   0  0.1060251E-05  0.1599740E+04  0.7818609E-02  0.8820708E-01
       -1   -1    0    0    0  501  0.00000000000E+00  0.00000000000E+00  0.47877204277E+03  0.47877204280E+03  0.50400001928E-02 0.  1.
        1   -1    0    0  501    0  0.00000000000E+00  0.00000000000E+00 -0.13363190409E+04  0.13363190409E+04  0.50400001928E-02 0. -1.
    10030    2    1    2    0    0  0.00000000000E+00  0.00000000000E+00 -0.85754699816E+03  0.18150910837E+04  0.15997402252E+04 0.  0.
        1    1    3    3  502    0 -0.16021171304E+03 -0.78345420421E+03 -0.40835312115E+03  0.89789785314E+03  0.50400001928E-02 0.  1.
       -1    1    3    3    0  502  0.16021171304E+03  0.78345420421E+03 -0.44919387702E+03  0.91719323061E+03  0.50400001928E-02 0. -1.
</event>
<event>
 5   0  0.1994525E-05  0.1600103E+04  0.7818609E-02  0.8820485E-01
        2   -1    0    0  501    0  0.00000000000E+00  0.00000000000E+00  0.16469653230E+04  0.16469653230E+04  0.25500000920E-02 0.  1.
       -2   -1    0    0    0  501  0.00000000000E+00  0.00000000000E+00 -0.38864359263E+03  0.38864359264E+03  0.25500000920E-02 0. -1.
    10030    2    1    2    0    0  0.00000000000E+00  0.00000000000E+00  0.12583217304E+04  0.20356089157E+04  0.16001031468E+04 0.  0.
        5    1    3    3  502    0  0.56955581931E+03 -0.15416820252E+03  0.13164864229E+04  0.14426781546E+04  0.46999998093E+01 0.  1.
       -5    1    3    3    0  502 -0.56955581931E+03  0.15416820252E+03 -0.58164692527E+02  0.59293076108E+03  0.46999998093E+01 0. -1.
</event>
<event>
 5   0  0.2046108E-05  0.1599766E+04  0.7818609E-02  0.8820692E-01
        2   -1    0    0  501    0  0.00000000000E+00  0.00000000000E+00  0.73898175376E+03  0.73898175376E+03  0.25500000920E-02 0.  1.
       -2   -1    0    0    0  501  0.00000000000E+00  0.00000000000E+00 -0.86580365343E+03  0.86580365344E+03  0.25500000920E-02 0. -1.
    10030    2    1    2    0    0  0.00000000000E+00  0.00000000000E+00 -0.12682189968E+03  0.16047854072E+04  0.15997663607E+04 0.  0.
        1    1    3    3  502    0 -0.64965755564E+03  0.25871043352E+03  0.32617210563E+03  0.77160499644E+03  0.50400001928E-02 0.  1.
       -1    1    3    3    0  502  0.64965755564E+03 -0.25871043352E+03 -0.45299400531E+03  0.83318041076E+03  0.50400001928E-02 0. -1.
</event>
<event>
 5   0  0.1057506E-05  0.1601637E+04  0.7818609E-02  0.8819543E-01
       -1   -1    0    0    0  501  0.00000000000E+00  0.00000000000E+00  0.40052212327E+03  0.40052212330E+03  0.50400001928E-02 0. -1.
        1   -1    0    0  501    0  0.00000000000E+00  0.00000000000E+00 -0.16011860459E+04  0.16011860460E+04  0.50400001928E-02 0.  1.
    10030    2    1    2    0    0  0.00000000000E+00  0.00000000000E+00 -0.12006639227E+04  0.20017081693E+04  0.16016372060E+04 0.  0.
        5    1    3    3  502    0  0.39824095528E+03  0.61944713072E+03 -0.99352459820E+03  0.12366987602E+04  0.46999998093E+01 0. -1.
       -5    1    3    3    0  502 -0.39824095528E+03 -0.61944713072E+03 -0.20713932448E+03  0.76500940907E+03  0.46999998093E+01 0.  1.
</event>
<event>
 5   0  0.1057506E-05  0.1600002E+04  0.7818609E-02  0.8820546E-01
        1   -1    0    0  501    0  0.00000000000E+00  0.00000000000E+00  0.15571272650E+04  0.15571272650E+04  0.50400001928E-02 0. -1.
       -1   -1    0    0    0  501  0.00000000000E+00  0.00000000000E+00 -0.41101456647E+03  0.41101456651E+03  0.50400001928E-02 0.  1.
    10030    2    1    2    0    0  0.00000000000E+00  0.00000000000E+00  0.11461126985E+04  0.19681418315E+04  0.16000024848E+04 0.  0.
        5    1    3    3  502    0 -0.52786824103E+03 -0.59223050704E+03  0.44642285134E+03  0.91032813071E+03  0.46999998093E+01 0. -1.
       -5    1    3    3    0  502  0.52786824103E+03  0.59223050704E+03  0.69968984719E+03  0.10578137008E+04  0.46999998093E+01 0.  1.
</event>
<event>
 5   0  0.2046108E-05  0.1600272E+04  0.7818609E-02  0.8820381E-01
        2   -1    0    0  501    0  0.00000000000E+00  0.00000000000E+00  0.10966180252E+04  0.10966180252E+04  0.25500000920E-02 0.  1.
       -2   -1    0    0    0  501  0.00000000000E+00  0.00000000000E+00 -0.58381117268E+03  0.58381117269E+03  0.25500000920E-02 0. -1.
    10030    2    1    2    0    0  0.00000000000E+00  0.00000000000E+00  0.51280685248E+03  0.16804291979E+04  0.16002722959E+04 0.  0.
        1    1    3    3  502    0  0.15858993011E+03 -0.77793577706E+03  0.15201049722E+03  0.80835761297E+03  0.50400001928E-02 0.  1.
       -1    1    3    3    0  502 -0.15858993011E+03  0.77793577706E+03  0.36079635525E+03  0.87207158488E+03  0.50400001928E-02 0. -1.
</event>
<event>
 5   0  0.1081831E-05  0.1599961E+04  0.7818609E-02  0.8820572E-01
        1   -1    0    0  501    0  0.00000000000E+00  0.00000000000E+00  0.14973897761E+04  0.14973897761E+04  0.50400001928E-02 0. -1.
       -1   -1    0    0    0  501  0.00000000000E+00  0.00000000000E+00 -0.42738947126E+03  0.42738947129E+03  0.50400001928E-02 0.  1.
    10030    2    1    2    0    0  0.00000000000E+00  0.00000000000E+00  0.10700003049E+04  0.19247792474E+04  0.15999607804E+04 0.  0.
        3    1    3    3  502    0  0.43023195042E+03  0.51443643673E+03  0.10596922396E+04  0.12540701861E+04  0.10100000352E+00 0. -1.
       -3    1    3    3    0  502 -0.43023195042E+03 -0.51443643673E+03  0.10308065216E+02  0.67070906137E+03  0.10100000352E+00 0.  1.
</event>
<event>
 5   0  0.1126485E-05  0.1598974E+04  0.7818609E-02  0.8821178E-01
       -1   -1    0    0    0  501  0.00000000000E+00  0.00000000000E+00  0.65279197061E+03  0.65279197063E+03  0.50400001928E-02 0.  1.
        1   -1    0    0  501    0  0.00000000000E+00  0.00000000000E+00 -0.97914769814E+03  0.97914769815E+03  0.50400001928E-02 0. -1.
    10030    2    1    2    0    0  0.00000000000E+00  0.00000000000E+00 -0.32635572752E+03  0.16319396688E+04  0.15989743655E+04 0.  0.
        2    1    3    3  502    0  0.11960062808E+03  0.53033735629E+03 -0.76145221234E+03  0.93561289720E+03  0.25500000920E-02 0. -1.
       -2    1    3    3    0  502 -0.11960062808E+03 -0.53033735629E+03  0.43509648482E+03  0.69632677158E+03  0.25500000920E-02 0.  1.
</event>
<event>
 5   0  0.1090674E-05  0.1599803E+04  0.7818609E-02  0.8820669E-01
       -1   -1    0    0    0  501  0.00000000000E+00  0.00000000000E+00  0.12056563431E+04  0.12056563431E+04  0.50400001928E-02 0. -1.
        1   -1    0    0  501    0  0.00000000000E+00  0.00000000000E+00 -0.53070068240E+03  0.53070068242E+03  0.50400001928E-02 0.  1.
    10030    2    1    2    0    0  0.00000000000E+00  0.00000000000E+00  0.67495566074E+03  0.17363570256E+04  0.15998032930E+04 0.  0.
        4    1    3    3  502    0  0.49876107815E+03  0.57399787582E+03  0.68088793311E+02  0.76346176800E+03  0.12699999809E+01 0.  1.
       -4    1    3    3    0  502 -0.49876107815E+03 -0.57399787582E+03  0.60686686743E+03  0.97289525757E+03  0.12699999809E+01 0. -1.
</event>
<event>
 5   0  0.1090674E-05  0.1600496E+04  0.7818609E-02  0.8820244E-01
        1   -1    0    0  501    0  0.00000000000E+00  0.00000000000E+00  0.80634839482E+03  0.80634839484E+03  0.50400001928E-02 0.  1.
       -1   -1    0    0    0  501  0.00000000000E+00  0.00000000000E+00 -0.79419327216E+03  0.79419327218E+03  0.50400001928E-02 0. -1.
    10030    2    1    2    0    0  0.00000000000E+00  0.00000000000E+00  0.12155122657E+02  0.16005416670E+04  0.16004955110E+04 0.  0.
        4    1    3    3  502    0 -0.74776957950E+03 -0.24850817753E+03  0.14564948727E+03  0.80133079584E+03  0.12699999809E+01 0.  1.
       -4    1    3    3    0  502  0.74776957950E+03  0.24850817753E+03 -0.13349436461E+03  0.79921087117E+03  0.12699999809E+01 0. -1.
</event>
<event>
 5   0  0.1060251E-05  0.1599893E+04  0.7818609E-02  0.8820614E-01
       -1   -1    0    0    0  501  0.00000000000E+00  0.00000000000E+00  0.48860698241E+03  0.48860698243E+03  0.50400001928E-02 0.  1.
        1   -1    0    0  501    0  0.00000000000E+00  0.00000000000E+00 -0.13096707320E+04  0.13096707320E+04  0.50400001928E-02 0. -1.
    10030    2    1    2    0    0  0.00000000000E+00  0.00000000000E+00 -0.82106374961E+03  0.17982777145E+04  0.15998928268E+04 0.  0.
        1    1    3    3  502    0  0.44802468024E+03 -0.27826590254E+03  0.26551044782E+03  0.59046915630E+03  0.50400001928E-02 0.  1.
       -1    1    3    3    0  502 -0.44802468024E+03  0.27826590254E+03 -0.10865741974E+04  0.12078085582E+04  0.50400001928E-02 0. -1.
</event>
<event>
 5   0  0.1081831E-05  0.1600351E+04  0.7818609E-02  0.8820332E-01
        1   -1    0    0  501    0  0.00000000000E+00  0.00000000000E+00  0.11627691759E+04  0.11627691759E+04  0.50400001928E-02 0.  1.
       -1   -1    0    0    0  501  0.00000000000E+00  0.00000000000E+00 -0.55065161371E+03  0.55065161373E+03  0.50400001928E-02 0. -1.
    10030    2    1    2    0    0  0.00000000000E+00  0.00000000000E+00  0.61211756215E+03  0.17134207896E+04  0.16003508654E+04 0.  0.
        3    1    3    3  502    0 -0.68371681970E+03 -0.41563163813E+03  0.31451387362E+03  0.85973096667E+03  0.10100000352E+00 0. -1.
       -3    1    3    3    0  502  0.68371681970E+03  0.41563163813E+03  0.29760368853E+03  0.85368982293E+03  0.10100000352E+00 0.  1.
</event>
<event>
 5   0  0.1090674E-05  0.1599874E+04  0.7818609E-02  0.8820625E-01
        1   -1    0    0  501    0  0.00000000000E+00  0.00000000000E+00  0.53195458586E+03  0.53195458588E+03  0.50400001928E-02 0. -1.
       -1   -1    0    0    0  501  0.00000000000E+00  0.00000000000E+00 -0.12029206255E+04  0.12029206255E+04  0.50400001928E-02 0.  1.
    10030    2    1    2    0    0  0.00000000000E+00  0.00000000000E+00 -0.67096603964E+03  0.17348752114E+04  0.15998739240E+04 0.  0.
        4    1    3    3  502    0 -0.67327309082E+02 -0.73634377580E+03 -0.66646384426E+03  0.99544502174E+03  0.12699999809E+01 0.  1.
       -4    1    3    3    0  502  0.67327309082E+02  0.73634377580E+03 -0.45021953782E+01  0.73943018965E+03  0.12699999809E+01 0. -1.
</event>
<event>
 5   0  0.1994525E-05  0.1600392E+04  0.7818609E-02  0.8820307E-01
       -2   -1    0    0    0  501  0.00000000000E+00  0.00000000000E+00  0.50708282182E+03  0.50708282183E+03  0.25500000920E-02 0.  1.
        2   -1    0    0  501    0  0.00000000000E+00  0.00000000000E+00 -0.12627402745E+04  0.12627402745E+04  0.25500000920E-02 0. -1.
    10030    2    1    2    0    0  0.00000000000E+00  0.00000000000E+00 -0.75565745264E+03  0.17698230963E+04  0.16003923289E+04 0.  0.
        5    1    3    3  502    0 -0.66831535111E+03  0.38343433738E+03 -0.61661565356E+03  0.98686587428E+03  0.46999998093E+01 0. -1.
       -5    1    3    3    0  502  0.66831535111E+03 -0.38343433738E+03 -0.13904179908E+03  0.78295722201E+03  0.46999998093E+01 0.  1.
</event>
<event>
 5   0  0.1126485E-05  0.1599861E+04  0.7818609E-02  0.8820634E-01
       -1   -1    0    0    0  501  0.00000000000E+00  0.00000000000E+00  0.94467384446E+03  0.94467384448E+03  0.50400001928E-02 0. -1.
        1   -1    0    0  501    0  0.00000000000E+00  0.00000000000E+00 -0.67736456005E+03  0.67736456007E+03  0.50400001928E-02 0.  1.
    10030    2    1    2    0    0  0.00000000000E+00  0.00000000000E+00  0.26730928441E+03  0.16220384045E+04  0.15998607228E+04 0.  0.
        2    1    3    3  502    0 -0.33931329038E+03 -0.41045052855E+03  0.73882548041E+03  0.91075036971E+03  0.25500000920E-02 0. -1.
       -2    1    3    3    0  502  0.33931329038E+03  0.41045052855E+03 -0.47151619600E+03  0.71128803484E+03  0.25500000920E-02 0.  1.
</event>
<event>
 5   0  0.1081831E-05  0.1599789E+04  0.7818609E-02  0.8820678E-01
       -1   -1    0    0    0  501  0.00000000000E+00  0.00000000000E+00  0.10973843378E+04  0.10973843379E+04  0.50400001928E-02 0.  1.
        1   -1    0    0  501    0  0.00000000000E+00  0.00000000000E+00 -0.58305104205E+03  0.58305104207E+03  0.50400001928E-02 0. -1.
    10030    2    1    2    0    0  0.00000000000E+00  0.00000000000E+00  0.51433329579E+03  0.16804353799E+04  0.15997888382E+04 0.  0.
        3    1    3    3  502    0 -0.64062437181E+03  0.40372830559E+03 -0.13576473282E+02  0.75735094990E+03  0.10100000352E+00 0. -1.
       -3    1    3    3    0  502  0.64062437181E+03 -0.40372830559E+03  0.52790976907E+03  0.92308443003E+03  0.10100000352E+00 0.  1.
</event>
<event>
 5   0  0.1126485E-05  0.1600469E+04  0.7818609E-02  0.8820260E-01
        1   -1    0    0  501    0  0.00000000000E+00  0.00000000000E+00  0.20450852161E+04  0.20450852161E+04  0.50400001928E-02 0.  1.
       -1   -1    0    0    0  501  0.00000000000E+00  0.00000000000E+00 -0.31312880257E+03  0.31312880261E+03  0.50400001928E-02 0. -1.
    10030    2    1    2    0    0  0.00000000000E+00  0.00000000000E+00  0.17319564135E+04  0.23582140187E+04  0.16004687875E+04 0.  0.
        2    1    3    3  502    0 -0.55283835759E+03  0.45114464528E+02  0.17158797581E+04  0.18033049960E+04  0.25500000920E-02 0.  1.
       -2    1    3    3    0  502  0.55283835759E+03 -0.45114464528E+02  0.16076655394E+02  0.55490902262E+03  0.25500000920E-02 0. -1.
</event>
<event>
 5   0  0.2046108E-05  0.1590929E+04  0.7818609E-02  0.8826140E-01
        2   -1    0    0  501    0  0.00000000000E+00  0.00000000000E+00  0.19683068279E+04  0.19683068279E+04  0.25500000920E-02 0.  1.
       -2   -1    0    0    0  501  0.00000000000E+00  0.00000000000E+00 -0.32147621191E+03  0.32147621192E+03  0.25500000920E-02 0. -1.
    10030    2    1    2    0    0  0.00000000000E+00  0.00000000000E+00  0.16468306159E+04  0.22897830398E+04  0.15909290656E+04 0.  0.
        1    1    3    3  502    0  0.25142378659E+03  0.16757386257E+03  0.18824989931E+04  0.19065931340E+04  0.50400001928E-02 0.  1.
       -1    1    3    3    0  502 -0.25142378659E+03 -0.16757386257E+03 -0.23566837710E+03  0.38318990576E+03  0.50400001928E-02 0. -1.
</event>
<event>
 5   0  0.1060251E-05  0.1600539E+04  0.7818609E-02  0.8820217E-01
       -1   -1    0    0    0  501  0.00000000000E+00  0.00000000000E+00  0.10751648013E+04  0.10751648013E+04  0.50400001928E-02 0.  1.
        1   -1    0    0  501    0  0.00000000000E+00  0.00000000000E+00 -0.59565898532E+03  0.59565898535E+03  0.50400001928E-02 0. -1.
    10030    2    1    2    0    0  0.00000000000E+00  0.00000000000E+00  0.47950581593E+03  0.16708237866E+04  0.16005393773E+04 0.  0.
        1    1    3    3  502    0 -0.49625657375E+03 -0.43642805075E+03  0.71089378526E+03  0.97062351322E+03  0.50400001928E-02 0.  1.
       -1    1    3    3    0  502  0.49625657375E+03  0.43642805075E+03 -0.23138796933E+03  0.70020027339E+03  0.50400001928E-02 0. -1.
</event>
<event>
 5   0  0.2147844E-05  0.1596336E+04  0.7818609E-02  0.8822802E-01
       -2   -1    0    0    0  501  0.00000000000E+00  0.00000000000E+00  0.32617259002E+03  0.32617259003E+03  0.25500000920E-02 0.  1.
        2   -1    0    0  501    0  0.00000000000E+00  0.00000000000E+00 -0.19531754883E+04  0.19531754883E+04  0.25500000920E-02 0. -1.
    10030    2    1    2    0    0  0.00000000000E+00  0.00000000000E+00 -0.16270028983E+04  0.22793480783E+04  0.15963361899E+04 0.  0.
        2    1    3    3  502    0 -0.58779177093E+03  0.40919757925E+03 -0.13165680839E+04  0.14987639388E+04  0.25500000920E-02 0. -1.
       -2    1    3    3    0  502  0.58779177093E+03 -0.40919757925E+03 -0.31043481439E+03  0.78058413949E+03  0.25500000920E-02 0.  1.
</event>
<event>
 5   0  0.7597000E-06  0.1600841E+04  0.7818609E-02  0.8820032E-01
        3   -1    0    0  501    0  0.00000000000E+00  0.00000000000E+00  0.14802102343E+04  0.14802102378E+04  0.10100000352E+00 0.  1.
       -3   -1    0    0    0  501  0.00000000000E+00  0.00000000000E+00 -0.43282556581E+03  0.43282557760E+03  0.10100000352E+00 0. -1.
    10030    2    1    2    0    0  0.00000000000E+00  0.00000000000E+00  0.10473846685E+04  0.19130358154E+04  0.16008408375E+04 0.  0.
        2    1    3    3  502    0  0.20375193473E+02 -0.36210444253E+03  0.13763854027E+04  0.14233662749E+04  0.25500000920E-02 0.  1.
       -2    1    3    3    0  502 -0.20375193473E+02  0.36210444253E+03 -0.32900073414E+03  0.48966954049E+03  0.25500000920E-02 0. -1.
</event>
<event>
 5   0  0.1060251E-05  0.1600077E+04  0.7818609E-02  0.8820501E-01
       -1   -1    0    0    0  501  0.00000000000E+00  0.00000000000E+00  0.57567898090E+03  0.57567898092E+03  0.50400001928E-02 0. -1.
        1   -1    0    0  501    0  0.00000000000E+00  0.00000000000E+00 -0.11118379167E+04  0.11118379167E+04  0.50400001928E-02 0.  1.
    10030    2    1    2    0    0  0.00000000000E+00  0.00000000000E+00 -0.53615893579E+03  0.16875168976E+04  0.16000771467E+04 0.  0.
        1    1    3    3  502    0  0.11082125627E+03  0.47301651539E+03 -0.93845337476E+03  0.10567500704E+04  0.50400001928E-02 0.  1.
       -1    1    3    3    0  502 -0.11082125627E+03 -0.47301651539E+03  0.40229443897E+03  0.63076682722E+03  0.50400001928E-02 0. -1.
</event>
<event>
 5   0  0.1081831E-05  0.1598919E+04  0.7818609E-02  0.8821213E-01
        1   -1    0    0  501    0  0.00000000000E+00  0.00000000000E+00  0.45678641438E+03  0.45678641441E+03  0.50400001928E-02 0. -1.
       -1   -1    0    0    0  501  0.00000000000E+00  0.00000000000E+00 -0.13991993004E+04  0.13991993004E+04  0.50400001928E-02 0.  1.
    10030    2    1    2    0    0  0.00000000000E+00  0.00000000000E+00 -0.94241288605E+03  0.18559857149E+04  0.15989186740E+04 0.  0.
        3    1    3    3  502    0  0.57548833355E+03 -0.40767615940E+03 -0.34180152053E+02  0.70608424851E+03  0.10100000352E+00 0.  1.
       -3    1    3    3    0  502 -0.57548833355E+03  0.40767615940E+03 -0.90823273400E+03  0.11499014663E+04  0.10100000352E+00 0. -1.
</event>
<event>
 5   0  0.2125803E-05  0.1601570E+04  0.7818609E-02  0.8819584E-01
       -2   -1    0    0    0  501  0.00000000000E+00  0.00000000000E+00  0.94426591971E+03  0.94426591971E+03  0.25500000920E-02 0. -1.
        2   -1    0    0  501    0  0.00000000000E+00  0.00000000000E+00 -0.67910603184E+03  0.67910603184E+03  0.25500000920E-02 0.  1.
    10030    2    1    2    0    0  0.00000000000E+00  0.00000000000E+00  0.26515988787E+03  0.16233719516E+04  0.16015700818E+04 0.  0.
        3    1    3    3  502    0 -0.44691477136E+03 -0.17834404240E+03  0.78138499330E+03  0.91766111843E+03  0.10100000352E+00 0. -1.
       -3    1    3    3    0  502  0.44691477136E+03  0.17834404240E+03 -0.51622510543E+03  0.70571083313E+03  0.10100000352E+00 0.  1.
</event>
<event>
 5   0  0.1990948E-05  0.1599525E+04  0.7818609E-02  0.8820840E-01
        2   -1    0    0  501    0  0.00000000000E+00  0.00000000000E+00  0.11723481880E+04  0.11723481880E+04  0.25500000920E-02 0. -1.
       -2   -1    0    0    0  501  0.00000000000E+00  0.00000000000E+00 -0.54558895094E+03  0.54558895095E+03  0.25500000920E-02 0.  1.
    10030    2    1    2    0    0  0.00000000000E+00  0.00000000000E+00  0.62675923708E+03  0.17179371390E+04  0.15995252021E+04 0.  0.
        4    1    3    3  502    0  0.27596764621E+03 -0.68846057556E+03  0.63466076002E+03  0.97618235954E+03  0.12699999809E+01 0. -1.
       -4    1    3    3    0  502 -0.27596764621E+03  0.68846057556E+03 -0.79015229435E+01  0.74175477944E+03  0.12699999809E+01 0.  1.
</event>
<event>
 5   0  0.1060251E-05  0.1599272E+04  0.7818609E-02  0.8820996E-01
        1   -1    0    0  501    0  0.00000000000E+00  0.00000000000E+00  0.18194574780E+04  0.18194574780E+04  0.50400001928E-02 0.  1.
       -1   -1    0    0    0  501  0.00000000000E+00  0.00000000000E+00 -0.35143307189E+03  0.35143307192E+03  0.50400001928E-02 0. -1.
    10030    2    1    2    0    0  0.00000000000E+00  0.00000000000E+00  0.14680244061E+04  0.21708905499E+04  0.15992717476E+04 0.  0.
        1    1    3    3  502    0 -0.19496613870E+03  0.40599052119E+03 -0.16289250558E+03  0.47893012740E+03  0.50400001928E-02 0. -1.
       -1    1    3    3    0  502  0.19496613870E+03 -0.40599052119E+03  0.16309169117E+04  0.16919604225E+04  0.50400001928E-02 0.  1.
</event>
<event>
 5   0  0.1057506E-05  0.1600208E+04  0.7818609E-02  0.8820420E-01
       -1   -1    0    0    0  501  0.00000000000E+00  0.00000000000E+00  0.36602515071E+03  0.36602515075E+03  0.50400001928E-02 0.  1.
        1   -1    0    0  501    0  0.00000000000E+00  0.00000000000E+00 -0.17489685858E+04  0.17489685858E+04  0.50400001928E-02 0. -1.
    10030    2    1    2    0    0  0.00000000000E+00  0.00000000000E+00 -0.13829434350E+04  0.21149937365E+04  0.16002080993E+04 0.  0.
        5    1    3    3  502    0 -0.18580994570E+03 -0.39664028364E+03 -0.15764137738E+04  0.16361391526E+04  0.46999998093E+01 0. -1.
       -5    1    3    3    0  502  0.18580994570E+03  0.39664028364E+03  0.19347033876E+03  0.47885458388E+03  0.46999998093E+01 0.  1.
</event>
<event>
 5   0  0.2125803E-05  0.1599940E+04  0.7818609E-02  0.8820585E-01
       -2   -1    0    0    0  501  0.00000000000E+00  0.00000000000E+00  0.68462381874E+03  0.68462381875E+03  0.25500000920E-02 0. -1.
        2   -1    0    0  501    0  0.00000000000E+00  0.00000000000E+00 -0.93474944048E+03  0.93474944048E+03  0.25500000920E-02 0.  1.
    10030    2    1    2    0    0  0.00000000000E+00  0.00000000000E+00 -0.25012562174E+03  0.16193732592E+04  0.15999396633E+04 0.  0.
        3    1    3    3  502    0 -0.73524988391E+03  0.22027329661E+03  0.10315097561E+03  0.77443711879E+03  0.10100000352E+00 0. -1.
       -3    1    3    3    0  502  0.73524988391E+03 -0.22027329661E+03 -0.35327659735E+03  0.84493614044E+03  0.10100000352E+00 0.  1.
</event>
<event>
 5   0  0.1090674E-05  0.1599605E+04  0.7818609E-02  0.8820791E-01
        1   -1    0    0  501    0  0.00000000000E+00  0.00000000000E+00  0.13299606919E+04  0.13299606919E+04  0.50400001928E-02 0.  1.
       -1   -1    0    0    0  501  0.00000000000E+00  0.00000000000E+00 -0.48097970110E+03  0.48097970112E+03  0.50400001928E-02 0. -1.
    10030    2    1    2    0    0  0.00000000000E+00  0.00000000000E+00  0.84898099076E+03  0.18109403930E+04  0.15996050713E+04 0.  0.
        4    1    3    3  502    0  0.15170947064E+03  0.56408655618E+03 -0.19401557258E+03  0.61551040743E+03  0.12699999809E+01 0. -1.
       -4    1    3    3    0  502 -0.15170947064E+03 -0.56408655618E+03  0.10429965633E+04  0.11954299856E+04  0.12699999809E+01 0.  1.
</event>
<event>
 5   0  0.2125803E-05  0.1599633E+04  0.7818609E-02  0.8820774E-01
       -2   -1    0    0    0  501  0.00000000000E+00  0.00000000000E+00  0.64141217052E+03  0.64141217052E+03  0.25500000920E-02 0.  1.
        2   -1    0    0  501    0  0.00000000000E+00  0.00000000000E+00 -0.99734019958E+03  0.99734019959E+03  0.25500000920E-02 0. -1.
    10030    2    1    2    0    0  0.00000000000E+00  0.00000000000E+00 -0.35592802907E+03  0.16387523701E+04  0.15996326355E+04 0.  0.
        3    1    3    3  502    0  0.34738237758E+03 -0.55691384428E+03  0.29024528571E+03  0.71768369236E+03  0.10100000352E+00 0.  1.
       -3    1    3    3    0  502 -0.34738237758E+03  0.55691384428E+03 -0.64617331477E+03  0.92106867775E+03  0.10100000352E+00 0. -1.
</event>
<event>
 5   0  0.1057506E-05  0.1599900E+04  0.7818609E-02  0.8820610E-01
       -1   -1    0    0    0  501  0.00000000000E+00  0.00000000000E+00  0.44021949570E+03  0.44021949573E+03  0.50400001928E-02 0.  1.
        1   -1    0    0  501    0  0.00000000000E+00  0.00000000000E+00 -0.14536380717E+04  0.14536380717E+04  0.50400001928E-02 0. -1.
    10030    2    1    2    0    0  0.00000000000E+00  0.00000000000E+00 -0.10134185760E+04  0.18938575675E+04  0.15998997705E+04 0.  0.
        5    1    3    3  502    0  0.14337302643E+03  0.18686416817E+03  0.39822791386E+03  0.46268953244E+03  0.46999998093E+01 0.  1.
       -5    1    3    3    0  502 -0.14337302643E+03 -0.18686416817E+03 -0.14116464899E+04  0.14311680350E+04  0.46999998093E+01 0. -1.
</event>
<event>
 5   0  0.1126485E-05  0.1602113E+04  0.7818609E-02  0.8819251E-01
        1   -1    0    0  501    0  0.00000000000E+00  0.00000000000E+00  0.55399160067E+03  0.55399160070E+03  0.50400001928E-02 0.  1.
       -1   -1    0    0    0  501  0.00000000000E+00  0.00000000000E+00 -0.11583053056E+04  0.11583053056E+04  0.50400001928E-02 0. -1.
    10030    2    1    2    0    0  0.00000000000E+00  0.00000000000E+00 -0.60431370490E+03  0.17122969063E+04  0.16021128678E+04 0.  0.
        2    1    3    3  502    0  0.30050744215E+03 -0.32906583034E+03  0.40928268726E+03  0.60506310545E+03  0.25500000920E-02 0.  1.
       -2    1    3    3    0  502 -0.30050744215E+03  0.32906583034E+03 -0.10135963922E+04  0.11072338008E+04  0.25500000920E-02 0. -1.
</event>
<event>
 5   0  0.1994525E-05  0.1597534E+04  0.7818609E-02  0.8822064E-01
       -2   -1    0    0    0  501  0.00000000000E+00  0.00000000000E+00  0.38602506977E+03  0.38602506978E+03  0.25500000920E-02 0. -1.
        2   -1    0    0  501    0  0.00000000000E+00  0.00000000000E+00 -0.16528174975E+04  0.16528174975E+04  0.25500000920E-02 0.  1.
    10030    2    1    2    0    0  0.00000000000E+00  0.00000000000E+00 -0.12667924277E+04  0.20388425673E+04  0.15975343374E+04 0.  0.
        5    1    3    3  502    0  0.48919105322E+03 -0.62180799200E+03 -0.49327751368E+03  0.93236144330E+03  0.46999998093E+01 0.  1.
       -5    1    3    3    0  502 -0.48919105322E+03  0.62180799200E+03 -0.77351491407E+03  0.11064811240E+04  0.46999998093E+01 0. -1.
</event>
<event>
 5   0  0.1060251E-05  0.1600034E+04  0.7818609E-02  0.8820527E-01
        1   -1    0    0  501    0  0.00000000000E+00  0.00000000000E+00  0.15041652751E+04  0.15041652751E+04  0.50400001928E-02 0. -1.
       -1   -1    0    0    0  501  0.00000000000E+00  0.00000000000E+00 -0.42550346702E+03  0.42550346705E+03  0.50400001928E-02 0.  1.
    10030    2    1    2    0    0  0.00000000000E+00  0.00000000000E+00  0.10786618081E+04  0.19296687422E+04  0.16000344241E+04 0.  0.
        1    1    3    3  502    0 -0.33239873003E+03 -0.46300343233E+01 -0.33826273321E+03  0.47426999657E+03  0.50400001928E-02 0.  1.
       -1    1    3    3    0  502  0.33239873003E+03  0.46300343233E+01  0.14169245413E+04  0.14553987456E+04  0.50400001928E-02 0. -1.
</event>
<event>
 5   0  0.1060251E-05  0.1603878E+04  0.7818609E-02  0.8818169E-01
        1   -1    0    0  501    0  0.00000000000E+00  0.00000000000E+00  0.82556041839E+03  0.82556041840E+03  0.50400001928E-02 0.  1.
       -1   -1    0    0    0  501  0.00000000000E+00  0.00000000000E+00 -0.77899387628E+03  0.77899387629E+03  0.50400001928E-02 0. -1.
    10030    2    1    2    0    0  0.00000000000E+00  0.00000000000E+00  0.46566542109E+02  0.16045542947E+04  0.16038784373E+04 0.  0.
        1    1    3    3  502    0  0.24456329608E+03 -0.45795524083E+03 -0.58817989805E+03  0.78453158055E+03  0.50400001928E-02 0. -1.
       -1    1    3    3    0  502 -0.24456329608E+03  0.45795524083E+03  0.63474644016E+03  0.82002271414E+03  0.50400001928E-02 0.  1.
</event>
<event>
 5   0  0.1994525E-05  0.1600467E+04  0.7818609E-02  0.8820261E-01
       -2   -1    0    0    0  501  0.00000000000E+00  0.00000000000E+00  0.71443141378E+03  0.71443141378E+03  0.25500000920E-02 0.  1.
        2   -1    0    0  501    0  0.00000000000E+00  0.00000000000E+00 -0.89634084104E+03  0.89634084104E+03  0.25500000920E-02 0. -1.
    10030    2    1    2    0    0  0.00000000000E+00  0.00000000000E+00 -0.18190942726E+03  0.16107722548E+04  0.16004674996E+04 0.  0.
        5    1    3    3  502    0 -0.26362615287E+02  0.79730676172E+03 -0.27629772471E+02  0.79823464852E+03  0.46999998093E+01 0.  1.
       -5    1    3    3    0  502  0.26362615287E+02 -0.79730676172E+03 -0.15427965479E+03  0.81253760630E+03  0.46999998093E+01 0. -1.
</event>
<event>
 5   0  0.1090674E-05  0.1598201E+04  0.7818609E-02  0.8821654E-01
       -1   -1    0    0    0  501  0.00000000000E+00  0.00000000000E+00  0.58654203003E+03  0.58654203005E+03  0.50400001928E-02 0.  1.
        1   -1    0    0  501    0  0.00000000000E+00  0.00000000000E+00 -0.10886880244E+04  0.10886880244E+04  0.50400001928E-02 0. -1.
    10030    2    1    2    0    0  0.00000000000E+00  0.00000000000E+00 -0.50214599435E+03  0.16752300544E+04  0.15982005931E+04 0.  0.
        4    1    3    3  502    0 -0.44127829918E+03  0.24451933509E+03 -0.90065403300E+03  0.10323253085E+04  0.12699999809E+01 0.  1.
       -4    1    3    3    0  502  0.44127829918E+03 -0.24451933509E+03  0.39850803865E+03  0.64290474592E+03  0.12699999809E+01 0. -1.
</event>
<event>
 5   0  0.1060251E-05  0.1598922E+04  0.7818609E-02  0.8821211E-01
        1   -1    0    0  501    0  0.00000000000E+00  0.00000000000E+00  0.10256191829E+04  0.10256191829E+04  0.50400001928E-02 0. -1.
       -1   -1    0    0    0  501  0.00000000000E+00  0.00000000000E+00 -0.62317252399E+03  0.62317252401E+03  0.50400001928E-02 0.  1.
    10030    2    1    2    0    0  0.00000000000E+00  0.00000000000E+00  0.40244665891E+03  0.16487917069E+04  0.15989217553E+04 0.  0.
        1    1    3    3  502    0 -0.63411639225E+03 -0.28911751131E+03  0.60516176650E+03  0.92299149396E+03  0.50400001928E-02 0. -1.
       -1    1    3    3    0  502  0.63411639225E+03  0.28911751131E+03 -0.20271510758E+03  0.72580021296E+03  0.50400001928E-02 0.  1.
</event>
<event>
 5   0  0.1994525E-05  0.1600232E+04  0.7818609E-02  0.8820405E-01
        2   -1    0    0  501    0  0.00000000000E+00  0.00000000000E+00  0.14057272267E+04  0.14057272267E+04  0.25500000920E-02 0.  1.
       -2   -1    0    0    0  501  0.00000000000E+00  0.00000000000E+00 -0.45541242130E+03  0.45541242131E+03  0.25500000920E-02 0. -1.
    10030    2    1    2    0    0  0.00000000000E+00  0.00000000000E+00  0.95031480535E+03  0.18611396480E+04  0.16002320332E+04 0.  0.
        5    1    3    3  502    0  0.59278691532E+03 -0.32001437284E+03 -0.26919277035E+02  0.67420491194E+03  0.46999998093E+01 0. -1.
       -5    1    3    3    0  502 -0.59278691532E+03  0.32001437284E+03  0.97723408239E+03  0.11869347360E+04  0.46999998093E+01 0.  1.
</event>
<event>
 5   0  0.1057506E-05  0.1600007E+04  0.7818609E-02  0.8820544E-01
       -1   -1    0    0    0  501  0.00000000000E+00  0.00000000000E+00  0.45198024020E+03  0.45198024023E+03  0.50400001928E-02 0.  1.
        1   -1    0    0  501    0  0.00000000000E+00  0.00000000000E+00 -0.14160031107E+04  0.14160031107E+04  0.50400001928E-02 0. -1.
    10030    2    1    2    0    0  0.00000000000E+00  0.00000000000E+00 -0.96402287048E+03  0.18679833509E+04  0.16000067826E+04 0.  0.
        5    1    3    3  502    0 -0.33463381266E+03 -0.14658396063E+02  0.36615525511E+03  0.49627252391E+03  0.46999998093E+01 0.  1.
       -5    1    3    3    0  502  0.33463381266E+03  0.14658396063E+02 -0.13301781256E+04  0.13717108270E+04  0.46999998093E+01 0. -1.
</event>
<event>
 5   0  0.2125803E-05  0.1600059E+04  0.7818609E-02  0.8820512E-01
        2   -1    0    0  501    0  0.00000000000E+00  0.00000000000E+00  0.10643974054E+04  0.10643974054E+04  0.25500000920E-02 0.  1.
       -2   -1    0    0    0  501  0.00000000000E+00  0.00000000000E+00 -0.60132367429E+03  0.60132367430E+03  0.25500000920E-02 0. -1.
    10030    2    1    2    0    0  0.00000000000E+00  0.00000000000E+00  0.46307373107E+03  0.16657210797E+04  0.16000591973E+04 0.  0.
        3    1    3    3  502    0  0.43986647665E+03 -0.29867206234E+03 -0.39079078564E+03  0.65985223076E+03  0.10100000352E+00 0.  1.
       -3    1    3    3    0  502 -0.43986647665E+03  0.29867206234E+03  0.85386451671E+03  0.10058688489E+04  0.10100000352E+00 0. -1.
</event>
<event>
 5   0  0.1126485E-05  0.1600373E+04  0.7818609E-02  0.8820319E-01
        1   -1    0    0  501    0  0.00000000000E+00  0.00000000000E+00  0.94246023801E+03  0.94246023802E+03  0.50400001928E-02 0.  1.
       -1   -1    0    0    0  501  0.00000000000E+00  0.00000000000E+00 -0.67939005097E+03  0.67939005099E+03  0.50400001928E-02 0. -1.
    10030    2    1    2    0    0  0.00000000000E+00  0.00000000000E+00  0.26307018704E+03  0.16218502890E+04  0.16003725931E+04 0.  0.
        2    1    3    3  502    0  0.57586019699E+03  0.55369159439E+03  0.84997562779E+02  0.80337658284E+03  0.25500000920E-02 0. -1.
       -2    1    3    3    0  502 -0.57586019699E+03 -0.55369159439E+03  0.17807262426E+03  0.81847370617E+03  0.25500000920E-02 0.  1.
</event>
<event>
 5   0  0.1090674E-05  0.1600413E+04  0.7818609E-02  0.8820294E-01
        1   -1    0    0  501    0  0.00000000000E+00  0.00000000000E+00  0.79016329770E+03  0.79016329771E+03  0.50400001928E-02 0.  1.
       -1   -1    0    0    0  501  0.00000000000E+00  0.00000000000E+00 -0.81037751960E+03  0.81037751961E+03  0.50400001928E-02 0. -1.
    10030    2    1    2    0    0  0.00000000000E+00  0.00000000000E+00 -0.20214221901E+02  0.16005408173E+04  0.16004131633E+04 0.  0.
        4    1    3    3  502    0  0.57133948995E+02 -0.71418920104E+03  0.34628974339E+03  0.79576925191E+03  0.12699999809E+01 0.  1.
       -4    1    3    3    0  502 -0.57133948995E+02  0.71418920104E+03 -0.36650396529E+03  0.80477156541E+03  0.12699999809E+01 0. -1.
</event>
<event>
 5   0  0.1060251E-05  0.1599868E+04  0.7818609E-02  0.8820629E-01
       -1   -1    0    0    0  501  0.00000000000E+00  0.00000000000E+00  0.43181162401E+03  0.43181162404E+03  0.50400001928E-02 0.  1.
        1   -1    0    0  501    0  0.00000000000E+00  0.00000000000E+00 -0.14818836257E+04  0.14818836257E+04  0.50400001928E-02 0. -1.
    10030    2    1    2    0    0  0.00000000000E+00  0.00000000000E+00 -0.10500720017E+04  0.19136952498E+04  0.15998682134E+04 0.  0.
        1    1    3    3  502    0 -0.53187680685E+03 -0.59400605776E+03 -0.60217141675E+03  0.99917293273E+03  0.50400001928E-02 0. -1.
       -1    1    3    3    0  502  0.53187680685E+03  0.59400605776E+03 -0.44790058495E+03  0.91452231703E+03  0.50400001928E-02 0.  1.
</event>
<event>
 5   0  0.1090674E-05  0.1599998E+04  0.7818609E-02  0.8820549E-01
       -1   -1    0    0    0  501  0.00000000000E+00  0.00000000000E+00  0.11192074462E+04  0.11192074462E+04  0.50400001928E-02 0. -1.
        1   -1    0    0  501    0  0.00000000000E+00  0.00000000000E+00 -0.57183192767E+03  0.57183192769E+03  0.50400001928E-02 0.  1.
    10030    2    1    2    0    0  0.00000000000E+00  0.00000000000E+00  0.54737551851E+03  0.16910393739E+04  0.15999981893E+04 0.  0.
        4    1    3    3  502    0 -0.40958435091E+03 -0.66163722506E+03  0.46992375992E+03  0.90903966422E+03  0.12699999809E+01 0. -1.
       -4    1    3    3    0  502  0.40958435091E+03  0.66163722506E+03  0.77451758591E+02  0.78199970965E+03  0.12699999809E+01 0.  1.
</event>
<event>
 5   0  0.2147844E-05  0.1599844E+04  0.7818609E-02  0.8820644E-01
        2   -1    0    0  501    0  0.00000000000E+00  0.00000000000E+00  0.14336688835E+04  0.14336688835E+04  0.25500000920E-02 0.  1.
       -2   -1    0    0    0  501  0.00000000000E+00  0.00000000000E+00 -0.44631991856E+03  0.44631991857E+03  0.25500000920E-02 0. -1.
    10030    2    1    2    0    0  0.00000000000E+00  0.00000000000E+00  0.98734896495E+03  0.18799888021E+04  0.15998437165E+04 0.  0.
        2    1    3    3  502    0  0.17156302033E+01  0.28788736981E+03 -0.38333145064E+03  0.47940075317E+03  0.25500000920E-02 0. -1.
       -2    1    3    3    0  502 -0.17156302033E+01 -0.28788736981E+03  0.13706804156E+04  0.14005880489E+04  0.25500000920E-02 0.  1.
</event>
<event>
 5   0  0.2046108E-05  0.1602137E+04  0.7818609E-02  0.8819236E-01
        2   -1    0    0  501    0  0.00000000000E+00  0.00000000000E+00  0.17921790771E+04  0.17921790771E+04  0.25500000920E-02 0. -1.
       -2   -1    0    0    0  501  0.00000000000E+00  0.00000000000E+00 -0.35806176056E+03  0.35806176057E+03  0.25500000920E-02 0.  1.
    10030    2    1    2    0    0  0.00000000000E+00  0.00000000000E+00  0.14341173166E+04  0.21502408377E+04  0.16021370673E+04 0.  0.
        1    1    3    3  502    0 -0.81705265869E+02  0.41919381553E+03 -0.19252183831E+03  0.46846970414E+03  0.50400001928E-02 0.  1.
       -1    1    3    3    0  502  0.81705265869E+02 -0.41919381553E+03  0.16266391549E+04  0.16817711336E+04  0.50400001928E-02 0. -1.
</event>
<event>
 5   0  0.2125803E-05  0.1599987E+04  0.7818609E-02  0.8820556E-01
        2   -1    0    0  501    0  0.00000000000E+00  0.00000000000E+00  0.89990786391E+03  0.89990786391E+03  0.25500000920E-02 0. -1.
       -2   -1    0    0    0  501  0.00000000000E+00  0.00000000000E+00 -0.71117242543E+03  0.71117242543E+03  0.25500000920E-02 0.  1.
    10030    2    1    2    0    0  0.00000000000E+00  0.00000000000E+00  0.18873543848E+03  0.16110802893E+04  0.15999870728E+04 0.  0.
        3    1    3    3  502    0 -0.37536443131E+03 -0.56881280331E+03 -0.32751593529E+03  0.75611715995E+03  0.10100000352E+00 0.  1.
       -3    1    3    3    0  502  0.37536443131E+03  0.56881280331E+03  0.51625137377E+03  0.85496312940E+03  0.10100000352E+00 0. -1.
</event>
<event>
 5   0  0.2046108E-05  0.1599772E+04  0.7818609E-02  0.8820688E-01
       -2   -1    0    0    0  501  0.00000000000E+00  0.00000000000E+00  0.60470364930E+03  0.60470364930E+03  0.25500000920E-02 0. -1.
        2   -1    0    0  501    0  0.00000000000E+00  0.00000000000E+00 -0.10580682882E+04  0.10580682882E+04  0.25500000920E-02 0.  1.
    10030    2    1    2    0    0  0.00000000000E+00  0.00000000000E+00 -0.45336463894E+03  0.16627719375E+04  0.15997721777E+04 0.  0.
        1    1    3    3  502    0 -0.65064256747E+02 -0.16701655197E+03  0.58356116037E+03  0.61046827441E+03  0.50400001928E-02 0. -1.
       -1    1    3    3    0  502  0.65064256747E+02  0.16701655197E+03 -0.10369257993E+04  0.10523036631E+04  0.50400001928E-02 0.  1.
</event>
<event>
 5   0  0.1990948E-05  0.1598829E+04  0.7818609E-02  0.8821268E-01
       -2   -1    0    0    0  501  0.00000000000E+00  0.00000000000E+00  0.46608090304E+03  0.46608090304E+03  0.25500000920E-02 0.  1.
        2   -1    0    0  501    0  0.00000000000E+00  0.00000000000E+00 -0.13711425001E+04  0.13711425001E+04  0.25500000920E-02 0. -1.
    10030    2    1    2    0    0  0.00000000000E+00  0.00000000000E+00 -0.90506159704E+03  0.18372234031E+04  0.15988287396E+04 0.  0.
        4    1    3    3  502    0 -0.21282714879E+03 -0.76481712534E+03 -0.56045558058E+03  0.97177811314E+03  0.12699999809E+01 0.  1.
       -4    1    3    3    0  502  0.21282714879E+03  0.76481712534E+03 -0.34460601646E+03  0.86544528998E+03  0.12699999809E+01 0. -1.
</event>
<event>
 5   0  0.1081831E-05  0.1600902E+04  0.7818609E-02  0.8819994E-01
        1   -1    0    0  501    0  0.00000000000E+00  0.00000000000E+00  0.13060486950E+04  0.13060486950E+04  0.50400001928E-02 0. -1.
       -1   -1    0    0    0  501  0.00000000000E+00  0.00000000000E+00 -0.49058006791E+03  0.49058006794E+03  0.50400001928E-02 0.  1.
    10030    2    1    2    0    0  0.00000000000E+00  0.00000000000E+00  0.81546862712E+03  0.17966287630E+04  0.16009015679E+04 0.  0.
        3    1    3    3  502    0  0.26725263091E+03 -0.49260163357E+03 -0.23366595744E+03  0.60719035564E+03  0.10100000352E+00 0.  1.
       -3    1    3    3    0  502 -0.26725263091E+03  0.49260163357E+03  0.10491345846E+04  0.11894384073E+04  0.10100000352E+00 0. -1.
</event>
<event>
 5   0  0.1060251E-05  0.1601173E+04  0.7818609E-02  0.8819828E-01
        1   -1    0    0  501    0  0.00000000000E+00  0.00000000000E+00  0.65233204210E+03  0.65233204212E+03  0.50400001928E-02 0.  1.
       -1   -1    0    0    0  501  0.00000000000E+00  0.00000000000E+00 -0.98253458504E+03  0.98253458505E+03  0.50400001928E-02 0. -1.
    10030    2    1    2    0    0  0.00000000000E+00  0.00000000000E+00 -0.33020254293E+03  0.16348666272E+04  0.16011730604E+04 0.  0.
        1    1    3    3  502    0 -0.51849554445E+03 -0.57171561355E+03  0.52077297538E+02  0.77356862483E+03  0.50400001928E-02 0.  1.
       -1    1    3    3    0  502  0.51849554445E+03  0.57171561355E+03 -0.38227984047E+03  0.86129800234E+03  0.50400001928E-02 0. -1.
</event>
<event>
 5   0  0.7597000E-06  0.1600468E+04  0.7818609E-02  0.8820260E-01
       -3   -1    0    0    0  501  0.00000000000E+00  0.00000000000E+00  0.64732856205E+03  0.64732856993E+03  0.10100000352E+00 0.  1.
        3   -1    0    0  501    0  0.00000000000E+00  0.00000000000E+00 -0.98925760754E+03  0.98925761270E+03  0.10100000352E+00 0. -1.
    10030    2    1    2    0    0  0.00000000000E+00  0.00000000000E+00 -0.34192904549E+03  0.16365861826E+04  0.16004683255E+04 0.  0.
        2    1    3    3  502    0  0.34091676882E+03  0.67093199831E+03 -0.44913419949E+03  0.87641058800E+03  0.25500000920E-02 0. -1.
       -2    1    3    3    0  502 -0.34091676882E+03 -0.67093199831E+03  0.10720515400E+03  0.76017559463E+03  0.25500000920E-02 0.  1.
</event>
<event>
 5   0  0.1060251E-05  0.1599845E+04  0.7818609E-02  0.8820644E-01
        1   -1    0    0  501    0  0.00000000000E+00  0.00000000000E+00  0.37603428489E+03  0.37603428492E+03  0.50400001928E-02 0.  1.
       -1   -1    0    0    0  501  0.00000000000E+00  0.00000000000E+00 -0.17016417354E+04  0.17016417354E+04  0.50400001928E-02 0. -1.
    10030    2    1    2    0    0  0.00000000000E+00  0.00000000000E+00 -0.13256074505E+04  0.20776760203E+04  0.15998445339E+04 0.  0.
        1    1    3    3  502    0 -0.10280374463E+03  0.51707256134E+03  0.11850042299E+03  0.54034710499E+03  0.50400001928E-02 0.  1.
       -1    1    3    3    0  502  0.10280374463E+03 -0.51707256134E+03 -0.14441078735E+04  0.15373289153E+04  0.50400001928E-02 0. -1.
</event>
<event>
 5   0  0.1090674E-05  0.1601308E+04  0.7818609E-02  0.8819745E-01
       -1   -1    0    0    0  501  0.00000000000E+00  0.00000000000E+00  0.76258113021E+03  0.76258113023E+03  0.50400001928E-02 0. -1.
        1   -1    0    0  501    0  0.00000000000E+00  0.00000000000E+00 -0.84062801650E+03  0.84062801651E+03  0.50400001928E-02 0.  1.
    10030    2    1    2    0    0  0.00000000000E+00  0.00000000000E+00 -0.78046886287E+02  0.16032091467E+04  0.16013082938E+04 0.  0.
        4    1    3    3  502    0 -0.26366090171E+03  0.57538234591E+03  0.45192947137E+03  0.77770416938E+03  0.12699999809E+01 0. -1.
       -4    1    3    3    0  502  0.26366090171E+03 -0.57538234591E+03 -0.52997635766E+03  0.82550497736E+03  0.12699999809E+01 0.  1.
</event>
<event>
 5   0  0.1081831E-05  0.1598299E+04  0.7818609E-02  0.8821594E-01
       -1   -1    0    0    0  501  0.00000000000E+00  0.00000000000E+00  0.55654758094E+03  0.55654758096E+03  0.50400001928E-02 0.  1.
        1   -1    0    0  501    0  0.00000000000E+00  0.00000000000E+00 -0.11475030992E+04  0.11475030992E+04  0.50400001928E-02 0. -1.
    10030    2    1    2    0    0  0.00000000000E+00  0.00000000000E+00 -0.59095551822E+03  0.17040506801E+04  0.15982991885E+04 0.  0.
        3    1    3    3  502    0 -0.16457944525E+03  0.68642944756E+03 -0.69492453728E+03  0.99055131265E+03  0.10100000352E+00 0. -1.
       -3    1    3    3    0  502  0.16457944525E+03 -0.68642944756E+03  0.10396901906E+03  0.71349936748E+03  0.10100000352E+00 0.  1.
</event>
<event>
 5   0  0.1990948E-05  0.1600208E+04  0.7818609E-02  0.8820420E-01
        2   -1    0    0  501    0  0.00000000000E+00  0.00000000000E+00  0.18989840589E+04  0.18989840589E+04  0.25500000920E-02 0. -1.
       -2   -1    0    0    0  501  0.00000000000E+00  0.00000000000E+00 -0.33710981159E+03  0.33710981160E+03  0.25500000920E-02 0.  1.
    10030    2    1    2    0    0  0.00000000000E+00  0.00000000000E+00  0.15618742473E+04  0.22360938705E+04  0.16002076844E+04 0.  0.
        4    1    3    3  502    0 -0.64404432177E+03  0.29323653239E+03  0.13026359011E+04  0.14824448239E+04  0.12699999809E+01 0.  1.
       -4    1    3    3    0  502  0.64404432177E+03 -0.29323653239E+03  0.25923834622E+03  0.75364904656E+03  0.12699999809E+01 0. -1.
</event>
<event>
 5   0  0.1126485E-05  0.1599701E+04  0.7818609E-02  0.8820732E-01
        1   -1    0    0  501    0  0.00000000000E+00  0.00000000000E+00  0.70019503379E+03  0.70019503381E+03  0.50400001928E-02 0.  1.
       -1   -1    0    0    0  501  0.00000000000E+00  0.00000000000E+00 -0.91368940910E+03  0.91368940911E+03  0.50400001928E-02 0. -1.
    10030    2    1    2    0    0  0.00000000000E+00  0.00000000000E+00 -0.21349437530E+03  0.16138844429E+04  0.15997009554E+04 0.  0.
        2    1    3    3  502    0 -0.69128569731E+03  0.34722717746E+03  0.98323746803E+02  0.77981420047E+03  0.25500000920E-02 0.  1.
       -2    1    3    3    0  502  0.69128569731E+03 -0.34722717746E+03 -0.31181812211E+03  0.83407024245E+03  0.25500000920E-02 0. -1.
</event>
<event>
 5   0  0.1081831E-05  0.1598864E+04  0.7818609E-02  0.8821246E-01
       -1   -1    0    0    0  501  0.00000000000E+00  0.00000000000E+00  0.69194662760E+03  0.69194662762E+03  0.50400001928E-02 0.  1.
        1   -1    0    0  501    0  0.00000000000E+00  0.00000000000E+00 -0.92361347278E+03  0.92361347280E+03  0.50400001928E-02 0. -1.
    10030    2    1    2    0    0  0.00000000000E+00  0.00000000000E+00 -0.23166684519E+03  0.16155601004E+04  0.15988636311E+04 0.  0.
        3    1    3    3  502    0 -0.28141043770E+03  0.68265333453E+03 -0.42543776485E+03  0.85217645564E+03  0.10100000352E+00 0. -1.
       -3    1    3    3    0  502  0.28141043770E+03 -0.68265333453E+03  0.19377091966E+03  0.76338364477E+03  0.10100000352E+00 0.  1.
</event>
<event>
 5   0  0.1994525E-05  0.1599958E+04  0.7818609E-02  0.8820574E-01
       -2   -1    0    0    0  501  0.00000000000E+00  0.00000000000E+00  0.72619792995E+03  0.72619792995E+03  0.25500000920E-02 0.  1.
        2   -1    0    0  501    0  0.00000000000E+00  0.00000000000E+00 -0.88125647726E+03  0.88125647727E+03  0.25500000920E-02 0. -1.
    10030    2    1    2    0    0  0.00000000000E+00  0.00000000000E+00 -0.15505854731E+03  0.16074544072E+04  0.15999582864E+04 0.  0.
        5    1    3    3  502    0 -0.38694003364E+02  0.46744357229E+03  0.57353760326E+03  0.74092387701E+03  0.46999998093E+01 0.  1.
       -5    1    3    3    0  502  0.38694003364E+02 -0.46744357229E+03 -0.72859615057E+03  0.86653053021E+03  0.46999998093E+01 0. -1.
</event>
<event>
 5   0  0.1126485E-05  0.1598906E+04  0.7818609E-02  0.8821220E-01
        1   -1    0    0  501    0  0.00000000000E+00  0.00000000000E+00  0.52076415153E+03  0.52076415155E+03  0.50400001928E-02 0. -1.
       -1   -1    0    0    0  501  0.00000000000E+00  0.00000000000E+00 -0.12272833951E+04  0.12272833951E+04  0.50400001928E-02 0.  1.
    10030    2    1    2    0    0  0.00000000000E+00  0.00000000000E+00 -0.70651924354E+03  0.17480475466E+04  0.15989061210E+04 0.  0.
        2    1    3    3  502    0  0.25971545462E+03 -0.18610095780E+03 -0.11544457032E+04  0.11978441323E+04  0.25500000920E-02 0.  1.
       -2    1    3    3    0  502 -0.25971545462E+03  0.18610095780E+03  0.44792645961E+03  0.55020341428E+03  0.25500000920E-02 0. -1.
</event>
<event>
 5   0  0.1057506E-05  0.1600271E+04  0.7818609E-02  0.8820382E-01
        1   -1    0    0  501    0  0.00000000000E+00  0.00000000000E+00  0.17261238008E+04  0.17261238008E+04  0.50400001928E-02 0. -1.
       -1   -1    0    0    0  501  0.00000000000E+00  0.00000000000E+00 -0.37089834939E+03  0.37089834942E+03  0.50400001928E-02 0.  1.
    10030    2    1    2    0    0  0.00000000000E+00  0.00000000000E+00  0.13552254514E+04  0.20970221502E+04  0.16002705629E+04 0.  0.
        5    1    3    3  502    0  0.65203427295E+02 -0.73310864544E+03  0.26635333831E+03  0.78272981531E+03  0.46999998093E+01 0.  1.
       -5    1    3    3    0  502 -0.65203427295E+02  0.73310864544E+03  0.10888721131E+04  0.13142923349E+04  0.46999998093E+01 0. -1.
</event>
<event>
 5   0  0.1057506E-05  0.1598871E+04  0.7818609E-02  0.8821242E-01
        1   -1    0    0  501    0  0.00000000000E+00  0.00000000000E+00  0.74152025325E+03  0.74152025327E+03  0.50400001928E-02 0.  1.
       -1   -1    0    0    0  501  0.00000000000E+00  0.00000000000E+00 -0.86187422145E+03  0.86187422146E+03  0.50400001928E-02 0. -1.
    10030    2    1    2    0    0  0.00000000000E+00  0.00000000000E+00 -0.12035396820E+03  0.16033944747E+04  0.15988710905E+04 0.  0.
        5    1    3    3  502    0  0.51116095314E+03 -0.55023608274E+03  0.21451369696E+03  0.78107841024E+03  0.46999998093E+01 0.  1.
       -5    1    3    3    0  502 -0.51116095314E+03  0.55023608274E+03 -0.33486766515E+03  0.82231606449E+03  0.46999998093E+01 0. -1.
</event>
<event>
 5   0  0.2147844E-05  0.1596910E+04  0.7818609E-02  0.8822448E-01
        2   -1    0    0  501    0  0.00000000000E+00  0.00000000000E+00  0.10535249313E+04  0.10535249313E+04  0.25500000920E-02 0.  1.
       -2   -1    0    0    0  501  0.00000000000E+00  0.00000000000E+00 -0.60514040071E+03  0.60514040071E+03  0.25500000920E-02 0. -1.
    10030    2    1    2    0    0  0.00000000000E+00  0.00000000000E+00  0.44838453062E+03  0.16586653320E+04  0.15969101404E+04 0.  0.
        2    1    3    3  502    0  0.33353630615E+03 -0.17082135533E+03  0.95651406053E+03  0.10273001270E+04  0.25500000920E-02 0.  1.
       -2    1    3    3    0  502 -0.33353630615E+03  0.17082135533E+03 -0.50812952991E+03  0.63136520504E+03  0.25500000920E-02 0. -1.
</event>
<event>
 5   0  0.2147844E-05  0.1600086E+04  0.7818609E-02  0.8820495E-01
       -2   -1    0    0    0  501  0.00000000000E+00  0.00000000000E+00  0.75038063206E+03  0.75038063207E+03  0.25500000920E-02 0.  1.
        2   -1    0    0  501    0  0.00000000000E+00  0.00000000000E+00 -0.85299232471E+03  0.85299232472E+03  0.25500000920E-02 0. -1.
    10030    2    1    2    0    0  0.00000000000E+00  0.00000000000E+00 -0.10261169265E+03  0.16033729568E+04  0.16000861474E+04 0.  0.
        2    1    3    3  502    0 -0.48539306894E+03 -0.60970932455E+03 -0.23255588643E+03  0.81328600882E+03  0.25500000920E-02 0. -1.
       -2    1    3    3    0  502  0.48539306894E+03  0.60970932455E+03  0.12994419378E+03  0.79008694796E+03  0.25500000920E-02 0.  1.
</event>
<event>
 5   0  0.1994525E-05  0.1597642E+04  0.7818609E-02  0.8821998E-01
       -2   -1    0    0    0  501  0.00000000000E+00  0.00000000000E+00  0.81555087815E+03  0.81555087816E+03  0.25500000920E-02 0. -1.
        2   -1    0    0  501    0  0.00000000000E+00  0.00000000000E+00 -0.78243454412E+03  0.78243454412E+03  0.25500000920E-02 0.  1.
    10030    2    1    2    0    0  0.00000000000E+00  0.00000000000E+00  0.33116334032E+02  0.15979854223E+04  0.15976422372E+04 0.  0.
        5    1    3    3  502    0 -0.71663371431E+03 -0.58380050396E+02  0.36465731911E+03  0.80620664916E+03  0.46999998093E+01 0. -1.
       -5    1    3    3    0  502  0.71663371431E+03  0.58380050396E+02 -0.33154098508E+03  0.79177877312E+03  0.46999998093E+01 0.  1.
</event>
<event>
 5   0  0.1990948E-05  0.1599975E+04  0.7818609E-02  0.8820564E-01
       -2   -1    0    0    0  501  0.00000000000E+00  0.00000000000E+00  0.43497514241E+03  0.43497514242E+03  0.25500000920E-02 0.  1.
        2   -1    0    0  501    0  0.00000000000E+00  0.00000000000E+00 -0.14713019009E+04  0.14713019009E+04  0.25500000920E-02 0. -1.
    10030    2    1    2    0    0  0.00000000000E+00  0.00000000000E+00 -0.10363267585E+04  0.19062770433E+04  0.15999746921E+04 0.  0.
        4    1    3    3  502    0 -0.11631557231E+03  0.30201957902E+03  0.35349106088E+03  0.47927307612E+03  0.12699999809E+01 0.  1.
       -4    1    3    3    0  502  0.11631557231E+03 -0.30201957902E+03 -0.13898178193E+04  0.14270039672E+04  0.12699999809E+01 0. -1.
</event>
<event>
 5   0  0.1060251E-05  0.1599461E+04  0.7818609E-02  0.8820879E-01
       -1   -1    0    0    0  501  0.00000000000E+00  0.00000000000E+00  0.11681065772E+04  0.11681065772E+04  0.50400001928E-02 0. -1.
        1   -1    0    0  501    0  0.00000000000E+00  0.00000000000E+00 -0.54752628440E+03  0.54752628443E+03  0.50400001928E-02 0.  1.
    10030    2    1    2    0    0  0.00000000000E+00  0.00000000000E+00  0.62058029279E+03  0.17156328616E+04  0.15994612268E+04 0.  0.
        1    1    3    3  502    0 -0.47143287369E+03  0.56087268470E+03  0.65410489439E+03  0.98218141691E+03  0.50400001928E-02 0. -1.
       -1    1    3    3    0  502  0.47143287369E+03 -0.56087268470E+03 -0.33524601593E+02  0.73345144472E+03  0.50400001928E-02 0.  1.
</event>
<event>
 5   0  0.1990948E-05  0.1599998E+04  0.7818609E-02  0.8820549E-01
        2   -1    0    0  501    0  0.00000000000E+00  0.00000000000E+00  0.13503099856E+04  0.13503099856E+04  0.25500000920E-02 0.  1.
       -2   -1    0    0    0  501  0.00000000000E+00  0.00000000000E+00 -0.47396403881E+03  0.47396403882E+03  0.25500000920E-02 0. -1.
    10030    2    1    2    0    0  0.00000000000E+00  0.00000000000E+00  0.87634594677E+03  0.18242740244E+04  0.15999979680E+04 0.  0.
        4    1    3    3  502    0 -0.20114774469E+03  0.76886685592E+03  0.54254770044E+03  0.96227661172E+03  0.12699999809E+01 0. -1.
       -4    1    3    3    0  502  0.20114774469E+03 -0.76886685592E+03  0.33379824634E+03  0.86199741269E+03  0.12699999809E+01 0.  1.
</event>
<event>
 5   0  0.1090674E-05  0.1600499E+04  0.7818609E-02  0.8820241E-01
       -1   -1    0    0    0  501  0.00000000000E+00  0.00000000000E+00  0.68930091418E+03  0.68930091420E+03  0.50400001928E-02 0. -1.
        1   -1    0    0  501    0  0.00000000000E+00  0.00000000000E+00 -0.92905636465E+03  0.92905636467E+03  0.50400001928E-02 0.  1.
    10030    2    1    2    0    0  0.00000000000E+00  0.00000000000E+00 -0.23975545047E+03  0.16183572789E+04  0.16004991740E+04 0.  0.
        4    1    3    3  502    0 -0.19776223685E+03  0.13217700266E+03  0.65272701174E+03  0.69471924337E+03  0.12699999809E+01 0. -1.
       -4    1    3    3    0  502  0.19776223685E+03 -0.13217700266E+03 -0.89248246221E+03  0.92363803550E+03  0.12699999809E+01 0.  1.
</event>
<event>
 5   0  0.2046108E-05  0.1600114E+04  0.7818609E-02  0.8820478E-01
        2   -1    0    0  501    0  0.00000000000E+00  0.00000000000E+00  0.75927421376E+03  0.75927421377E+03  0.25500000920E-02 0. -1.
       -2   -1    0    0    0  501  0.00000000000E+00  0.00000000000E+00 -0.84303004746E+03  0.84303004746E+03  0.25500000920E-02 0.  1.
    10030    2    1    2    0    0  0.00000000000E+00  0.00000000000E+00 -0.83755833693E+02  0.16023042612E+04  0.16001137165E+04 0.  0.
        1    1    3    3  502    0 -0.10768678858E+03  0.40334279454E+03  0.64155852795E+03  0.76542746171E+03  0.50400001928E-02 0. -1.
       -1    1    3    3    0  502  0.10768678858E+03 -0.40334279454E+03 -0.72531436164E+03  0.83687679951E+03  0.50400001928E-02 0.  1.
</event>
<event>
 5   0  0.1081831E-05  0.1600561E+04  0.7818609E-02  0.8820203E-01
       -1   -1    0    0    0  501  0.00000000000E+00  0.00000000000E+00  0.77061975500E+03  0.77061975502E+03  0.50400001928E-02 0. -1.
        1   -1    0    0  501    0  0.00000000000E+00  0.00000000000E+00 -0.83108314267E+03  0.83108314268E+03  0.50400001928E-02 0.  1.
    10030    2    1    2    0    0  0.00000000000E+00  0.00000000000E+00 -0.60463387668E+02  0.16017028977E+04  0.16005612613E+04 0.  0.
        3    1    3    3  502    0  0.72393979583E+03  0.32180130450E+03  0.83004529552E+02  0.79657684481E+03  0.10100000352E+00 0.  1.
       -3    1    3    3    0  502 -0.72393979583E+03 -0.32180130450E+03 -0.14346791722E+03  0.80512605289E+03  0.10100000352E+00 0. -1.
</event>
<event>
 5   0  0.2125803E-05  0.1599539E+04  0.7818609E-02  0.8820831E-01
        2   -1    0    0  501    0  0.00000000000E+00  0.00000000000E+00  0.11003595447E+04  0.11003595447E+04  0.25500000920E-02 0. -1.
       -2   -1    0    0    0  501  0.00000000000E+00  0.00000000000E+00 -0.58129301467E+03  0.58129301468E+03  0.25500000920E-02 0.  1.
    10030    2    1    2    0    0  0.00000000000E+00  0.00000000000E+00  0.51906653007E+03  0.16816525594E+04  0.15995390799E+04 0.  0.
        3    1    3    3  502    0  0.32805379573E+02 -0.78542494879E+03  0.41427175284E+03  0.88858856538E+03  0.10100000352E+00 0.  1.
       -3    1    3    3    0  502 -0.32805379573E+02  0.78542494879E+03  0.10479477724E+03  0.79306399405E+03  0.10100000352E+00 0. -1.
</event>
<event>
 5   0  0.1057506E-05  0.1599037E+04  0.7818609E-02  0.8821140E-01
        1   -1    0    0  501    0  0.00000000000E+00  0.00000000000E+00  0.17747659114E+04  0.17747659114E+04  0.50400001928E-02 0.  1.
       -1   -1    0    0    0  501  0.00000000000E+00  0.00000000000E+00 -0.36017693879E+03  0.36017693883E+03  0.50400001928E-02 0. -1.
    10030    2    1    2    0    0  0.00000000000E+00  0.00000000000E+00  0.14145889726E+04  0.21349428502E+04  0.15990369015E+04 0.  0.
        5    1    3    3  502    0 -0.38120067469E+03  0.47334306091E+03  0.14008495972E+04  0.15270131930E+04  0.46999998093E+01 0.  1.
       -5    1    3    3    0  502  0.38120067469E+03 -0.47334306091E+03  0.13739375426E+02  0.60792965722E+03  0.46999998093E+01 0. -1.
</event>
<event>
 5   0  0.2046108E-05  0.1598840E+04  0.7818609E-02  0.8821261E-01
       -2   -1    0    0    0  501  0.00000000000E+00  0.00000000000E+00  0.45012480670E+03  0.45012480671E+03  0.25500000920E-02 0. -1.
        2   -1    0    0  501    0  0.00000000000E+00  0.00000000000E+00 -0.14197676107E+04  0.14197676107E+04  0.25500000920E-02 0.  1.
    10030    2    1    2    0    0  0.00000000000E+00  0.00000000000E+00 -0.96964280401E+03  0.18698924174E+04  0.15988403564E+04 0.  0.
        1    1    3    3  502    0 -0.73166502780E+03 -0.18780583219E+03 -0.17879777920E+03  0.77625600763E+03  0.50400001928E-02 0. -1.
       -1    1    3    3    0  502  0.73166502780E+03  0.18780583219E+03 -0.79084502481E+03  0.10936364098E+04  0.50400001928E-02 0.  1.
</event>
<event>
 5   0  0.2125803E-05  0.1602987E+04  0.7818609E-02  0.8818715E-01
       -2   -1    0    0    0  501  0.00000000000E+00  0.00000000000E+00  0.72012939379E+03  0.72012939380E+03  0.25500000920E-02 0. -1.
        2   -1    0    0  501    0  0.00000000000E+00  0.00000000000E+00 -0.89205059172E+03  0.89205059172E+03  0.25500000920E-02 0.  1.
    10030    2    1    2    0    0  0.00000000000E+00  0.00000000000E+00 -0.17192119793E+03  0.16121799855E+04  0.16029870266E+04 0.  0.
        3    1    3    3  502    0  0.48956787716E+03 -0.30440292062E+03 -0.64597885539E+03  0.86580975753E+03  0.10100000352E+00 0.  1.
       -3    1    3    3    0  502 -0.48956787716E+03  0.30440292062E+03  0.47405765746E+03  0.74637022799E+03  0.10100000352E+00 0. -1.
</event>
<event>
 5   0  0.7597000E-06  0.1599412E+04  0.7818609E-02  0.8820909E-01
       -3   -1    0    0    0  501  0.00000000000E+00  0.00000000000E+00  0.16133172157E+04  0.16133172189E+04  0.10100000352E+00 0.  1.
        3   -1    0    0  501    0  0.00000000000E+00  0.00000000000E+00 -0.39640662019E+03  0.39640663305E+03  0.10100000352E+00 0. -1.
    10030    2    1    2    0    0  0.00000000000E+00  0.00000000000E+00  0.12169105956E+04  0.20097238520E+04  0.15994119430E+04 0.  0.
        2    1    3    3  502    0 -0.70705151947E+03 -0.80017695183E+02  0.10670576178E+04  0.12825508343E+04  0.25500000920E-02 0.  1.
       -2    1    3    3    0  502  0.70705151947E+03  0.80017695183E+02  0.14985297774E+03  0.72717301770E+03  0.25500000920E-02 0. -1.
</event>
<event>
 5   0  0.1090674E-05  0.1599341E+04  0.7818609E-02  0.8820953E-01
        1   -1    0    0  501    0  0.00000000000E+00  0.00000000000E+00  0.11693242731E+04  0.11693242731E+04  0.50400001928E-02 0. -1.
       -1   -1    0    0    0  501  0.00000000000E+00  0.00000000000E+00 -0.54687358781E+03  0.54687358784E+03  0.50400001928E-02 0.  1.
    10030    2    1    2    0    0  0.00000000000E+00  0.00000000000E+00  0.62245068531E+03  0.17161978610E+04  0.15993405648E+04 0.  0.
        4    1    3    3  502    0 -0.57964059085E+03 -0.49419646555E+03  0.50010179464E+02  0.76335836412E+03  0.12699999809E+01 0. -1.
       -4    1    3    3    0  502  0.57964059085E+03  0.49419646555E+03  0.57244050584E+03  0.95283949685E+03  0.12699999809E+01 0.  1.
</event>
<event>
 5   0  0.1126485E-05  0.1599872E+04  0.7818609E-02  0.8820626E-01
       -1   -1    0    0    0  501  0.00000000000E+00  0.00000000000E+00  0.36005700826E+03  0.36005700829E+03  0.50400001928E-02 0.  1.
        1   -1    0    0  501    0  0.00000000000E+00  0.00000000000E+00 -0.17772125138E+04  0.17772125138E+04  0.50400001928E-02 0. -1.
    10030    2    1    2    0    0  0.00000000000E+00  0.00000000000E+00 -0.14171555056E+04  0.21372695221E+04  0.15998722709E+04 0.  0.
        2    1    3    3  502    0  0.47946351407E+03  0.39592262552E+03 -0.36289650272E+02  0.62286188312E+03  0.25500000920E-02 0.  1.
       -2    1    3    3    0  502 -0.47946351407E+03 -0.39592262552E+03 -0.13808658553E+04  0.15144076390E+04  0.25500000920E-02 0. -1.
</event>
<event>
 5   0  0.1990948E-05  0.1600130E+04  0.7818609E-02  0.8820468E-01
       -2   -1    0    0    0  501  0.00000000000E+00  0.00000000000E+00  0.70126900775E+03  0.70126900775E+03  0.25500000920E-02 0. -1.
        2   -1    0    0  501    0  0.00000000000E+00  0.00000000000E+00 -0.91277985178E+03  0.91277985179E+03  0.25500000920E-02 0.  1.
    10030    2    1    2    0    0  0.00000000000E+00  0.00000000000E+00 -0.21151084404E+03  0.16140488595E+04  0.16001302709E+04 0.  0.
        4    1    3    3  502    0  0.19899274446E+03 -0.34464637828E+03  0.59434476539E+03  0.71528075010E+03  0.12699999809E+01 0. -1.
       -4    1    3    3    0  502 -0.19899274446E+03  0.34464637828E+03 -0.80585560943E+03  0.89876810945E+03  0.12699999809E+01 0.  1.
</event>
<event>
 5   0  0.2046108E-05  0.1599376E+04  0.7818609E-02  0.8820931E-01
        2   -1    0    0  501    0  0.00000000000E+00  0.00000000000E+00  0.67268910761E+03  0.67268910761E+03  0.25500000920E-02 0. -1.
       -2   -1    0    0    0  501  0.00000000000E+00  0.00000000000E+00 -0.95066372917E+03  0.95066372918E+03  0.25500000920E-02 0.  1.
    10030    2    1    2    0    0  0.00000000000E+00  0.00000000000E+00 -0.27797462157E+03  0.16233528368E+04  0.15993762980E+04 0.  0.
        1    1    3    3  502    0  0.28241022233E+03 -0.60611592948E+03 -0.58416142659E+03  0.88790575287E+03  0.50400001928E-02 0.  1.
       -1    1    3    3    0  502 -0.28241022233E+03  0.60611592948E+03  0.30618680502E+03  0.73544708392E+03  0.50400001928E-02 0. -1.
</event>
<event>
 5   0  0.1060251E-05  0.1600257E+04  0.7818609E-02  0.8820390E-01
        1   -1    0    0  501    0  0.00000000000E+00  0.00000000000E+00  0.13208349062E+04  0.13208349062E+04  0.50400001928E-02 0. -1.
       -1   -1    0    0    0  501  0.00000000000E+00  0.00000000000E+00 -0.48469744896E+03  0.48469744899E+03  0.50400001928E-02 0.  1.
    10030    2    1    2    0    0  0.00000000000E+00  0.00000000000E+00  0.83613745723E+03  0.18055323552E+04  0.16002566164E+04 0.  0.
        1    1    3    3  502    0 -0.45427839179E+02  0.77670201244E+03  0.20736291522E+03  0.80518884948E+03  0.50400001928E-02 0. -1.
       -1    1    3    3    0  502  0.45427839179E+02 -0.77670201244E+03  0.62877454202E+03  0.10003435057E+04  0.50400001928E-02 0.  1.
</event>
<event>
 5   0  0.1994525E-05  0.1597544E+04  0.7818609E-02  0.8822058E-01
       -2   -1    0    0    0  501  0.00000000000E+00  0.00000000000E+00  0.83968657532E+03  0.83968657532E+03  0.25500000920E-02 0.  1.
        2   -1    0    0  501    0  0.00000000000E+00  0.00000000000E+00 -0.75985063964E+03  0.75985063964E+03  0.25500000920E-02 0. -1.
    10030    2    1    2    0    0  0.00000000000E+00  0.00000000000E+00  0.79835935682E+02  0.15995372150E+04  0.15975435911E+04 0.  0.
        5    1    3    3  502    0  0.74501395864E+03 -0.15808500389E+03  0.28100388355E+03  0.81180166272E+03  0.46999998093E+01 0. -1.
       -5    1    3    3    0  502 -0.74501395864E+03  0.15808500389E+03 -0.20116794787E+03  0.78773555224E+03  0.46999998093E+01 0.  1.
</event>
<event>
 5   0  0.1090674E-05  0.1599857E+04  0.7818609E-02  0.8820636E-01
        1   -1    0    0  501    0  0.00000000000E+00  0.00000000000E+00  0.72007697206E+03  0.72007697208E+03  0.50400001928E-02 0.  1.
       -1   -1    0    0    0  501  0.00000000000E+00  0.00000000000E+00 -0.88863520141E+03  0.88863520142E+03  0.50400001928E-02 0. -1.
    10030    2    1    2    0    0  0.00000000000E+00  0.00000000000E+00 -0.16855822935E+03  0.16087121735E+04  0.15998571750E+04 0.  0.
        4    1    3    3  502    0 -0.36455223612E+03  0.38951182180E+03 -0.68362035989E+03  0.86715408177E+03  0.12699999809E+01 0. -1.
       -4    1    3    3    0  502  0.36455223612E+03 -0.38951182180E+03  0.51506213054E+03  0.74155809172E+03  0.12699999809E+01 0.  1.
</event>
<event>
 5   0  0.1081831E-05  0.1599966E+04  0.7818609E-02  0.8820569E-01
        1   -1    0    0  501    0  0.00000000000E+00  0.00000000000E+00  0.20823638386E+04  0.20823638386E+04  0.50400001928E-02 0.  1.
       -1   -1    0    0    0  501  0.00000000000E+00  0.00000000000E+00 -0.30733001610E+03  0.30733001614E+03  0.50400001928E-02 0. -1.
    10030    2    1    2    0    0  0.00000000000E+00  0.00000000000E+00  0.17750338225E+04  0.23896938548E+04  0.15999661398E+04 0.  0.
        3    1    3    3  502    0  0.36720965176E+03  0.56674713805E+02  0.19456683797E+04  0.19808282120E+04  0.10100000352E+00 0.  1.
       -3    1    3    3    0  502 -0.36720965176E+03 -0.56674713805E+02 -0.17063455717E+03  0.40886564277E+03  0.10100000352E+00 0. -1.
</event>
<event>
 5   0  0.1126485E-05  0.1599769E+04  0.7818609E-02  0.8820690E-01
       -1   -1    0    0    0  501  0.00000000000E+00  0.00000000000E+00  0.76501229227E+03  0.76501229228E+03  0.50400001928E-02 0. -1.
        1   -1    0    0  501    0  0.00000000000E+00  0.00000000000E+00 -0.83634598132E+03  0.83634598134E+03  0.50400001928E-02 0.  1.
    10030    2    1    2    0    0  0.00000000000E+00  0.00000000000E+00 -0.71333689058E+02  0.16013582736E+04  0.15997686787E+04 0.  0.
        2    1    3    3  502    0  0.34650109328E+02  0.49805295544E+03  0.58990018871E+03  0.77281279049E+03  0.25500000920E-02 0. -1.
       -2    1    3    3    0  502 -0.34650109328E+02 -0.49805295544E+03 -0.66123387777E+03  0.82854548313E+03  0.25500000920E-02 0.  1.
</event>
<event>
 5   0  0.1990948E-05  0.1600355E+04  0.7818609E-02  0.8820330E-01
        2   -1    0    0  501    0  0.00000000000E+00  0.00000000000E+00  0.89441802179E+03  0.89441802179E+03  0.25500000920E-02 0.  1.
       -2   -1    0    0    0  501  0.00000000000E+00  0.00000000000E+00 -0.71586676233E+03  0.71586676233E+03  0.25500000920E-02 0. -1.
    10030    2    1    2    0    0  0.00000000000E+00  0.00000000000E+00  0.17855125946E+03  0.16102847841E+04  0.16003551274E+04 0.  0.
        4    1    3    3  502    0 -0.53658798895E+03  0.59243853599E+03  0.12655183521E+03  0.80927564445E+03  0.12699999809E+01 0.  1.
       -4    1    3    3    0  502  0.53658798895E+03 -0.59243853599E+03  0.51999424252E+02  0.80100913967E+03  0.12699999809E+01 0. -1.
</event>
<event>
 5   0  0.1060251E-05  0.1599962E+04  0.7818609E-02  0.8820571E-01
        1   -1    0    0  501    0  0.00000000000E+00  0.00000000000E+00  0.59591705766E+03  0.59591705768E+03  0.50400001928E-02 0.  1.
       -1   -1    0    0    0  501  0.00000000000E+00  0.00000000000E+00 -0.10739236595E+04  0.10739236595E+04  0.50400001928E-02 0. -1.
    10030    2    1    2    0    0  0.00000000000E+00  0.00000000000E+00 -0.47800660185E+03  0.16698407172E+04  0.15999617837E+04 0.  0.
        1    1    3    3  502    0  0.79608390216E+02  0.57382435275E+03 -0.81478449041E+03  0.99974279164E+03  0.50400001928E-02 0. -1.
       -1    1    3    3    0  502 -0.79608390216E+02 -0.57382435275E+03  0.33677788855E+03  0.67009792556E+03  0.50400001928E-02 0.  1.
</event>
<event>
 5   0  0.1081831E-05  0.1599596E+04  0.7818609E-02  0.8820796E-01
        1   -1    0    0  501    0  0.00000000000E+00  0.00000000000E+00  0.13305239848E+04  0.13305239848E+04  0.50400001928E-02 0.  1.
       -1   -1    0    0    0  501  0.00000000000E+00  0.00000000000E+00 -0.48077090935E+03  0.48077090938E+03  0.50400001928E-02 0. -1.
    10030    2    1    2    0    0  0.00000000000E+00  0.00000000000E+00  0.84975307547E+03  0.18112948942E+04  0.15995964818E+04 0.  0.
        3    1    3    3  502    0  0.13698074796E+03  0.35355499956E+03  0.12222856348E+04  0.12797449145E+04  0.10100000352E+00 0.  1.
       -3    1    3    3    0  502 -0.13698074796E+03 -0.35355499956E+03 -0.37253255928E+03  0.53154997973E+03  0.10100000352E+00 0. -1.
</event>
<event>
 5   0  0.2147844E-05  0.1601888E+04  0.7818609E-02  0.8819389E-01
       -2   -1    0    0    0  501  0.00000000000E+00  0.00000000000E+00  0.85559036087E+03  0.85559036088E+03  0.25500000920E-02 0.  1.
        2   -1    0    0  501    0  0.00000000000E+00  0.00000000000E+00 -0.74978771274E+03  0.74978771274E+03  0.25500000920E-02 0. -1.
    10030    2    1    2    0    0  0.00000000000E+00  0.00000000000E+00  0.10580264813E+03  0.16053780736E+04  0.16018878110E+04 0.  0.
        2    1    3    3  502    0  0.27776179800E+03 -0.56297585746E+03 -0.44559346092E+03  0.76983567398E+03  0.25500000920E-02 0. -1.
       -2    1    3    3    0  502 -0.27776179800E+03  0.56297585746E+03  0.55139610905E+03  0.83554239964E+03  0.25500000920E-02 0.  1.
</event>
<event>
 5   0  0.1990948E-05  0.1599436E+04  0.7818609E-02  0.8820894E-01
       -2   -1    0    0    0  501  0.00000000000E+00  0.00000000000E+00  0.56854651585E+03  0.56854651585E+03  0.25500000920E-02 0.  1.
        2   -1    0    0  501    0  0.00000000000E+00  0.00000000000E+00 -0.11248846980E+04  0.11248846980E+04  0.25500000920E-02 0. -1.
    10030    2    1    2    0    0  0.00000000000E+00  0.00000000000E+00 -0.55633818214E+03  0.16934312138E+04  0.15994364955E+04 0.  0.
        4    1    3    3  502    0  0.51788457008E+03 -0.98557602320E+02  0.35852755929E+03  0.63754345152E+03  0.12699999809E+01 0.  1.
       -4    1    3    3    0  502 -0.51788457008E+03  0.98557602320E+02 -0.91486574142E+03  0.10558877623E+04  0.12699999809E+01 0. -1.
</event>
<event>
 5   0  0.1057506E-05  0.1599921E+04  0.7818609E-02  0.8820597E-01
        1   -1    0    0  501    0  0.00000000000E+00  0.00000000000E+00  0.95791377697E+03  0.95791377698E+03  0.50400001928E-02 0. -1.
       -1   -1    0    0    0  501  0.00000000000E+00  0.00000000000E+00 -0.66805266489E+03  0.66805266490E+03  0.50400001928E-02 0.  1.
    10030    2    1    2    0    0  0.00000000000E+00  0.00000000000E+00  0.28986111209E+03  0.16259664419E+04  0.15999210624E+04 0.  0.
        5    1    3    3  502    0  0.46778482380E+03  0.61567056737E+03 -0.63448491190E+02  0.77583547865E+03  0.46999998093E+01 0. -1.
       -5    1    3    3    0  502 -0.46778482380E+03 -0.61567056737E+03  0.35330960328E+03  0.85013096324E+03  0.46999998093E+01 0.  1.
</event>
<event>
 5   0  0.1990948E-05  0.1600676E+04  0.7818609E-02  0.8820133E-01
       -2   -1    0    0    0  501  0.00000000000E+00  0.00000000000E+00  0.41734634366E+03  0.41734634367E+03  0.25500000920E-02 0. -1.
        2   -1    0    0  501    0  0.00000000000E+00  0.00000000000E+00 -0.15347948337E+04  0.15347948337E+04  0.25500000920E-02 0.  1.
    10030    2    1    2    0    0  0.00000000000E+00  0.00000000000E+00 -0.11174484900E+04  0.19521411774E+04  0.16006761223E+04 0.  0.
        4    1    3    3  502    0  0.12664331437E+03  0.66549356744E+03 -0.38981287621E+02  0.67855830336E+03  0.12699999809E+01 0. -1.
       -4    1    3    3    0  502 -0.12664331437E+03 -0.66549356744E+03 -0.10784672024E+04  0.12735828740E+04  0.12699999809E+01 0.  1.
</event>
<event>
 5   0  0.1126485E-05  0.1599836E+04  0.7818609E-02  0.8820648E-01
       -1   -1    0    0    0  501  0.00000000000E+00  0.00000000000E+00  0.74110020369E+03  0.74110020371E+03  0.50400001928E-02 0. -1.
        1   -1    0    0  501    0  0.00000000000E+00  0.00000000000E+00 -0.86340438700E+03  0.86340438701E+03  0.50400001928E-02 0.  1.
    10030    2    1    2    0    0  0.00000000000E+00  0.00000000000E+00 -0.12230418331E+03  0.16045045907E+04  0.15998364505E+04 0.  0.
        2    1    3    3  502    0 -0.77852130668E+03 -0.88535335158E+02 -0.22266620715E+03  0.81456379144E+03  0.25500000920E-02 0.  1.
       -2    1    3    3    0  502  0.77852130668E+03  0.88535335158E+02  0.10036202384E+03  0.78994079927E+03  0.25500000920E-02 0. -1.
</event>
<event>
 5   0  0.1994525E-05  0.1607334E+04  0.7818609E-02  0.8816055E-01
        2   -1    0    0  501    0  0.00000000000E+00  0.00000000000E+00  0.86927970549E+03  0.86927970549E+03  0.25500000920E-02 0.  1.
       -2   -1    0    0    0  501  0.00000000000E+00  0.00000000000E+00 -0.74300705155E+03  0.74300705156E+03  0.25500000920E-02 0. -1.
    10030    2    1    2    0    0  0.00000000000E+00  0.00000000000E+00  0.12627265393E+03  0.16122867571E+04  0.16073343784E+04 0.  0.
        5    1    3    3  502    0 -0.35054496397E+02  0.32697659650E+01 -0.74221934689E+03  0.74306874378E+03  0.46999998093E+01 0. -1.
       -5    1    3    3    0  502  0.35054496397E+02 -0.32697659650E+01  0.86849200083E+03  0.86921801327E+03  0.46999998093E+01 0.  1.
</event>
<event>
 5   0  0.1090674E-05  0.1599603E+04  0.7818609E-02  0.8820792E-01
       -1   -1    0    0    0  501  0.00000000000E+00  0.00000000000E+00  0.74621988337E+03  0.74621988338E+03  0.50400001928E-02 0. -1.
        1   -1    0    0  501    0  0.00000000000E+00  0.00000000000E+00 -0.85723065007E+03  0.85723065009E+03  0.50400001928E-02 0.  1.
    10030    2    1    2    0    0  0.00000000000E+00  0.00000000000E+00 -0.11101076671E+03  0.16034505335E+04  0.15996031455E+04 0.  0.
        4    1    3    3  502    0  0.37646598107E+03 -0.69431824210E+03  0.70799609325E+02  0.79298086597E+03  0.12699999809E+01 0. -1.
       -4    1    3    3    0  502 -0.37646598107E+03  0.69431824210E+03 -0.18181037603E+03  0.81046966751E+03  0.12699999809E+01 0.  1.
</event>
<event>
 5   0  0.2125803E-05  0.1598531E+04  0.7818609E-02  0.8821451E-01
        2   -1    0    0  501    0  0.00000000000E+00  0.00000000000E+00  0.18675846965E+04  0.18675846965E+04  0.25500000920E-02 0.  1.
       -2   -1    0    0    0  501  0.00000000000E+00  0.00000000000E+00 -0.34205964581E+03  0.34205964582E+03  0.25500000920E-02 0. -1.
    10030    2    1    2    0    0  0.00000000000E+00  0.00000000000E+00  0.15255250507E+04  0.22096443423E+04  0.15985310254E+04 0.  0.
        3    1    3    3  502    0 -0.15551056342E+03  0.35290457111E+03  0.17304692008E+04  0.17729209900E+04  0.10100000352E+00 0.  1.
       -3    1    3    3    0  502  0.15551056342E+03 -0.35290457111E+03 -0.20494415008E+03  0.43672335236E+03  0.10100000352E+00 0. -1.
</event>
<event>
 5   0  0.7597000E-06  0.1599824E+04  0.7818609E-02  0.8820656E-01
       -4   -1    0    0    0  501  0.00000000000E+00  0.00000000000E+00  0.95643346334E+03  0.95643430652E+03  0.12699999809E+01 0. -1.
        4   -1    0    0  501    0  0.00000000000E+00  0.00000000000E+00 -0.66900373317E+03  0.66900493862E+03  0.12699999809E+01 0.  1.
    10030    2    1    2    0    0  0.00000000000E+00  0.00000000000E+00  0.28742973017E+03  0.16254392451E+04  0.15998240184E+04 0.  0.
        5    1    3    3  502    0  0.17508721613E+03 -0.78040345879E+03  0.15624277122E+03  0.81493495771E+03  0.46999998093E+01 0. -1.
       -5    1    3    3    0  502 -0.17508721613E+03  0.78040345879E+03  0.13118695895E+03  0.81050428743E+03  0.46999998093E+01 0.  1.
</event>
<event>
 5   0  0.2147844E-05  0.1600084E+04  0.7818609E-02  0.8820496E-01
        2   -1    0    0  501    0  0.00000000000E+00  0.00000000000E+00  0.25631096792E+04  0.25631096792E+04  0.25500000920E-02 0.  1.
       -2   -1    0    0    0  501  0.00000000000E+00  0.00000000000E+00 -0.24972302243E+03  0.24972302245E+03  0.25500000920E-02 0. -1.
    10030    2    1    2    0    0  0.00000000000E+00  0.00000000000E+00  0.23133866568E+04  0.28128327017E+04  0.16000843677E+04 0.  0.
        2    1    3    3  502    0 -0.45072910161E+03 -0.14217886418E+03  0.22914706725E+04  0.23397028434E+04  0.25500000920E-02 0.  1.
       -2    1    3    3    0  502  0.45072910161E+03  0.14217886418E+03  0.21915984331E+02  0.47312985832E+03  0.25500000920E-02 0. -1.
</event>
<event>
 5   0  0.7597000E-06  0.1599411E+04  0.7818609E-02  0.8820910E-01
        3   -1    0    0  501    0  0.00000000000E+00  0.00000000000E+00  0.13008553557E+04  0.13008553596E+04  0.10100000352E+00 0. -1.
       -3   -1    0    0    0  501  0.00000000000E+00  0.00000000000E+00 -0.49162176482E+03  0.49162177519E+03  0.10100000352E+00 0.  1.
    10030    2    1    2    0    0  0.00000000000E+00  0.00000000000E+00  0.80923359091E+03  0.17924771348E+04  0.15994109148E+04 0.  0.
        4    1    3    3  502    0 -0.71663540863E+02 -0.18629124600E+03 -0.46325570515E+03  0.50442794598E+03  0.12699999809E+01 0.  1.
       -4    1    3    3    0  502  0.71663540863E+02  0.18629124600E+03  0.12724892961E+04  0.12880491889E+04  0.12699999809E+01 0. -1.
</event>
<event>
 5   0  0.1990948E-05  0.1599562E+04  0.7818609E-02  0.8820817E-01
       -2   -1    0    0    0  501  0.00000000000E+00  0.00000000000E+00  0.13755373290E+04  0.13755373290E+04  0.25500000920E-02 0.  1.
        2   -1    0    0  501    0  0.00000000000E+00  0.00000000000E+00 -0.46501825106E+03  0.46501825106E+03  0.25500000920E-02 0. -1.
    10030    2    1    2    0    0  0.00000000000E+00  0.00000000000E+00  0.91051907798E+03  0.18405555801E+04  0.15995623939E+04 0.  0.
        4    1    3    3  502    0 -0.68718839951E+03  0.16603073176E+03  0.88557364751E+03  0.11331532987E+04  0.12699999809E+01 0.  1.
       -4    1    3    3    0  502  0.68718839951E+03 -0.16603073176E+03  0.24945430465E+02  0.70740228139E+03  0.12699999809E+01 0. -1.
</event>
<event>
 5   0  0.1994525E-05  0.1601922E+04  0.7818609E-02  0.8819368E-01
       -2   -1    0    0    0  501  0.00000000000E+00  0.00000000000E+00  0.98417388705E+03  0.98417388705E+03  0.25500000920E-02 0. -1.
        2   -1    0    0  501    0  0.00000000000E+00  0.00000000000E+00 -0.65185496911E+03  0.65185496912E+03  0.25500000920E-02 0.  1.
    10030    2    1    2    0    0  0.00000000000E+00  0.00000000000E+00  0.33231891793E+03  0.16360288562E+04  0.16019221439E+04 0.  0.
        5    1    3    3  502    0  0.29924567566E+03  0.23459789394E+03 -0.55378370542E+03  0.67177572792E+03  0.46999998093E+01 0.  1.
       -5    1    3    3    0  502 -0.29924567566E+03 -0.23459789394E+03  0.88610262335E+03  0.96425312825E+03  0.46999998093E+01 0. -1.
</event>
<event>
 5   0  0.1090674E-05  0.1600120E+04  0.7818609E-02  0.8820474E-01
       -1   -1    0    0    0  501  0.00000000000E+00  0.00000000000E+00  0.72466428014E+03  0.72466428016E+03  0.50400001928E-02 0.  1.
        1   -1    0    0  501    0  0.00000000000E+00  0.00000000000E+00 -0.88330044664E+03  0.88330044665E+03  0.50400001928E-02 0. -1.
    10030    2    1    2    0    0  0.00000000000E+00  0.00000000000E+00 -0.15863616650E+03  0.16079647268E+04  0.16001203484E+04 0.  0.
        4    1    3    3  502    0 -0.66192678370E+03  0.41993673858E+03  0.81468613288E+02  0.78811971124E+03  0.12699999809E+01 0.  1.
       -4    1    3    3    0  502  0.66192678370E+03 -0.41993673858E+03 -0.24010477979E+03  0.81984501558E+03  0.12699999809E+01 0. -1.
</event>
<event>
 5   0  0.1126485E-05  0.1600791E+04  0.7818609E-02  0.8820062E-01
       -1   -1    0    0    0  501  0.00000000000E+00  0.00000000000E+00  0.80787604138E+03  0.80787604139E+03  0.50400001928E-02 0.  1.
        1   -1    0    0  501    0  0.00000000000E+00  0.00000000000E+00 -0.79298439719E+03  0.79298439721E+03  0.50400001928E-02 0. -1.
    10030    2    1    2    0    0  0.00000000000E+00  0.00000000000E+00  0.14891644185E+02  0.16008604386E+04  0.16007911740E+04 0.  0.
        2    1    3    3  502    0 -0.50126917990E+03  0.32351771787E+03  0.54104045191E+03  0.80539386333E+03  0.25500000920E-02 0.  1.
       -2    1    3    3    0  502  0.50126917990E+03 -0.32351771787E+03 -0.52614880772E+03  0.79546657527E+03  0.25500000920E-02 0. -1.
</event>
<event>
 5   0  0.1994525E-05  0.1600482E+04  0.7818609E-02  0.8820252E-01
        2   -1    0    0  501    0  0.00000000000E+00  0.00000000000E+00  0.13090880066E+04  0.13090880066E+04  0.25500000920E-02 0. -1.
       -2   -1    0    0    0  501  0.00000000000E+00  0.00000000000E+00 -0.48918477627E+03  0.48918477627E+03  0.25500000920E-02 0.  1.
    10030    2    1    2    0    0  0.00000000000E+00  0.00000000000E+00  0.81990323037E+03  0.17982727829E+04  0.16004823319E+04 0.  0.
        5    1    3    3  502    0 -0.56975758873E+03  0.46128851934E+03  0.49435863875E+02  0.73476309286E+03  0.46999998093E+01 0.  1.
       -5    1    3    3    0  502  0.56975758873E+03 -0.46128851934E+03  0.77046736650E+03  0.10635096900E+04  0.46999998093E+01 0. -1.
</event>
<event>
 5   0  0.1081831E-05  0.1601150E+04  0.7818609E-02  0.8819842E-01
       -1   -1    0    0    0  501  0.00000000000E+00  0.00000000000E+00  0.46208192447E+03  0.46208192450E+03  0.50400001928E-02 0.  1.
        1   -1    0    0  501    0  0.00000000000E+00  0.00000000000E+00 -0.13870269378E+04  0.13870269378E+04  0.50400001928E-02 0. -1.
    10030    2    1    2    0    0  0.00000000000E+00  0.00000000000E+00 -0.92494501330E+03  0.18491088623E+04  0.16011496829E+04 0.  0.
        3    1    3    3  502    0  0.22431743802E+03  0.98759198156E+02  0.41768811730E+03  0.48428820526E+03  0.10100000352E+00 0.  1.
       -3    1    3    3    0  502 -0.22431743802E+03 -0.98759198156E+02 -0.13426331306E+04  0.13648206570E+04  0.10100000352E+00 0. -1.
</event>
<event>
 5   0  0.2046108E-05  0.1599883E+04  0.7818609E-02  0.8820620E-01
       -2   -1    0    0    0  501  0.00000000000E+00  0.00000000000E+00  0.56176602406E+03  0.56176602406E+03  0.25500000920E-02 0. -1.
        2   -1    0    0  501    0  0.00000000000E+00  0.00000000000E+00 -0.11390983101E+04  0.11390983101E+04  0.25500000920E-02 0.  1.
    10030    2    1    2    0    0  0.00000000000E+00  0.00000000000E+00 -0.57733228604E+03  0.17008643342E+04  0.15998834066E+04 0.  0.
        1    1    3    3  502    0 -0.35619458488E+02  0.61157499332E+03 -0.83554074935E+03  0.10360603564E+04  0.50400001928E-02 0.  1.
       -1    1    3    3    0  502  0.35619458488E+02 -0.61157499332E+03  0.25820846331E+03  0.66480397775E+03  0.50400001928E-02 0. -1.
</event>
<event>
 5   0  0.1060251E-05  0.1599297E+04  0.7818609E-02  0.8820980E-01
       -1   -1    0    0    0  501  0.00000000000E+00  0.00000000000E+00  0.67794077608E+03  0.67794077610E+03  0.50400001928E-02 0.  1.
        1   -1    0    0  501    0  0.00000000000E+00  0.00000000000E+00 -0.94320593645E+03  0.94320593647E+03  0.50400001928E-02 0. -1.
    10030    2    1    2    0    0  0.00000000000E+00  0.00000000000E+00 -0.26526516037E+03  0.16211467126E+04  0.15992970513E+04 0.  0.
        1    1    3    3  502    0 -0.11484134123E+03  0.73133523104E+03  0.17381878133E+03  0.76042930150E+03  0.50400001928E-02 0.  1.
       -1    1    3    3    0  502  0.11484134123E+03 -0.73133523104E+03 -0.43908394170E+03  0.86071741106E+03  0.50400001928E-02 0. -1.
</event>
<event>
 5   0  0.2046108E-05  0.1599713E+04  0.7818609E-02  0.8820725E-01
       -2   -1    0    0    0  501  0.00000000000E+00  0.00000000000E+00  0.63020826837E+03  0.63020826838E+03  0.25500000920E-02 0.  1.
        2   -1    0    0  501    0  0.00000000000E+00  0.00000000000E+00 -0.10151725860E+04  0.10151725860E+04  0.25500000920E-02 0. -1.
    10030    2    1    2    0    0  0.00000000000E+00  0.00000000000E+00 -0.38496431767E+03  0.16453808544E+04  0.15997126711E+04 0.  0.
        1    1    3    3  502    0 -0.72629289946E+02  0.46600047683E+03 -0.85694207012E+03  0.97815191546E+03  0.50400001928E-02 0. -1.
       -1    1    3    3    0  502  0.72629289946E+02 -0.46600047683E+03  0.47197775244E+03  0.66722893896E+03  0.50400001928E-02 0.  1.
</event>
<event>
 5   0  0.2046108E-05  0.1601013E+04  0.7818609E-02  0.8819926E-01
        2   -1    0    0  501    0  0.00000000000E+00  0.00000000000E+00  0.68037474464E+03  0.68037474465E+03  0.25500000920E-02 0. -1.
       -2   -1    0    0    0  501  0.00000000000E+00  0.00000000000E+00 -0.94184945027E+03  0.94184945028E+03  0.25500000920E-02 0.  1.
    10030    2    1    2    0    0  0.00000000000E+00  0.00000000000E+00 -0.26147470563E+03  0.16222241949E+04  0.16010129034E+04 0.  0.
        1    1    3    3  502    0 -0.71678483944E+03 -0.15436093431E+03  0.19477069473E+03  0.75864578536E+03  0.50400001928E-02 0. -1.
       -1    1    3    3    0  502  0.71678483944E+03  0.15436093431E+03 -0.45624540036E+03  0.86357840957E+03  0.50400001928E-02 0.  1.
</event>
<event>
 5   0  0.1994525E-05  0.1600295E+04  0.7818609E-02  0.8820367E-01
       -2   -1    0    0    0  501  0.00000000000E+00  0.00000000000E+00  0.70653811903E+03  0.70653811903E+03  0.25500000920E-02 0. -1.
        2   -1    0    0  501    0  0.00000000000E+00  0.00000000000E+00 -0.90615951794E+03  0.90615951794E+03  0.25500000920E-02 0.  1.
    10030    2    1    2    0    0  0.00000000000E+00  0.00000000000E+00 -0.19962139891E+03  0.16126976370E+04  0.16002952744E+04 0.  0.
        5    1    3    3  502    0  0.71793345275E+03  0.29476091047E+03 -0.29600313307E+03  0.83063372296E+03  0.46999998093E+01 0.  1.
       -5    1    3    3    0  502 -0.71793345275E+03 -0.29476091047E+03  0.96381734162E+02  0.78206391401E+03  0.46999998093E+01 0. -1.
</event>
<event>
 5   0  0.2125803E-05  0.1599628E+04  0.7818609E-02  0.8820777E-01
        2   -1    0    0  501    0  0.00000000000E+00  0.00000000000E+00  0.25611267996E+04  0.25611267996E+04  0.25500000920E-02 0. -1.
       -2   -1    0    0    0  501  0.00000000000E+00  0.00000000000E+00 -0.24977369682E+03  0.24977369683E+03  0.25500000920E-02 0.  1.
    10030    2    1    2    0    0  0.00000000000E+00  0.00000000000E+00  0.23113531028E+04  0.28109004964E+04  0.15996275926E+04 0.  0.
        3    1    3    3  502    0  0.64632297452E+03  0.23152739870E+03  0.18767025298E+04  0.19983369885E+04  0.10100000352E+00 0. -1.
       -3    1    3    3    0  502 -0.64632297452E+03 -0.23152739870E+03  0.43465057294E+03  0.81256350798E+03  0.10100000352E+00 0.  1.
</event>
<event>
 5   0  0.1126485E-05  0.1599797E+04  0.7818609E-02  0.8820673E-01
        1   -1    0    0  501    0  0.00000000000E+00  0.00000000000E+00  0.78529547520E+03  0.78529547522E+03  0.50400001928E-02 0. -1.
       -1   -1    0    0    0  501  0.00000000000E+00  0.00000000000E+00 -0.81477293177E+03  0.81477293179E+03  0.50400001928E-02 0.  1.
    10030    2    1    2    0    0  0.00000000000E+00  0.00000000000E+00 -0.29477456571E+02  0.16000684070E+04  0.15997968579E+04 0.  0.
        2    1    3    3  502    0 -0.33668903941E+03  0.36370210497E+03  0.61322034679E+03  0.78846555038E+03  0.25500000920E-02 0. -1.
       -2    1    3    3    0  502  0.33668903941E+03 -0.36370210497E+03 -0.64269780336E+03  0.81160285662E+03  0.25500000920E-02 0.  1.
</event>
<event>
 5   0  0.1081831E-05  0.1600157E+04  0.7818609E-02  0.8820451E-01
        1   -1    0    0  501    0  0.00000000000E+00  0.00000000000E+00  0.82033593414E+03  0.82033593415E+03  0.50400001928E-02 0. -1.
       -1   -1    0    0    0  501  0.00000000000E+00  0.00000000000E+00 -0.78032170071E+03  0.78032170072E+03  0.50400001928E-02 0.  1.
    10030    2    1    2    0    0  0.00000000000E+00  0.00000000000E+00  0.40014233428E+02  0.16006576349E+04  0.16001574064E+04 0.  0.
        3    1    3    3  502    0  0.95806152869E+02  0.78809827579E+03  0.11927628701E+03  0.80281040979E+03  0.10100000352E+00 0. -1.
       -3    1    3    3    0  502 -0.95806152869E+02 -0.78809827579E+03 -0.79262053587E+02  0.79784722508E+03  0.10100000352E+00 0.  1.
</event>
<event>
 5   0  0.7597000E-06  0.1602342E+04  0.7818609E-02  0.8819110E-01
       -3   -1    0    0    0  501  0.00000000000E+00  0.00000000000E+00  0.80798352095E+03  0.80798352726E+03  0.10100000352E+00 0.  1.
        3   -1    0    0  501    0  0.00000000000E+00  0.00000000000E+00 -0.79441596085E+03  0.79441596727E+03  0.10100000352E+00 0. -1.
    10030    2    1    2    0    0  0.00000000000E+00  0.00000000000E+00  0.13567560097E+02  0.16023994945E+04  0.16023420551E+04 0.  0.
        3    1    3    3  502    0 -0.15398830484E+03 -0.53829955026E+03  0.57986295948E+03  0.80605202427E+03  0.10100000352E+00 0.  1.
       -3    1    3    3    0  502  0.15398830484E+03  0.53829955026E+03 -0.56629539939E+03  0.79634747027E+03  0.10100000352E+00 0. -1.
</event>
<event>
 5   0  0.1126485E-05  0.1599637E+04  0.7818609E-02  0.8820771E-01
        1   -1    0    0  501    0  0.00000000000E+00  0.00000000000E+00  0.15752943963E+04  0.15752943963E+04  0.50400001928E-02 0.  1.
       -1   -1    0    0    0  501  0.00000000000E+00  0.00000000000E+00 -0.40608881909E+03  0.40608881912E+03  0.50400001928E-02 0. -1.
    10030    2    1    2    0    0  0.00000000000E+00  0.00000000000E+00  0.11692055772E+04  0.19813832155E+04  0.15996367602E+04 0.  0.
        2    1    3    3  502    0 -0.50622112207E+03  0.47424386570E+02 -0.18015491407E+03  0.53941142919E+03  0.25500000920E-02 0. -1.
       -2    1    3    3    0  502  0.50622112207E+03 -0.47424386570E+02  0.13493604913E+04  0.14419717863E+04  0.25500000920E-02 0.  1.
</event>
<event>
 5   0  0.1060251E-05  0.1600262E+04  0.7818609E-02  0.8820387E-01
        1   -1    0    0  501    0  0.00000000000E+00  0.00000000000E+00  0.11710739078E+04  0.11710739078E+04  0.50400001928E-02 0. -1.
       -1   -1    0    0    0  501  0.00000000000E+00  0.00000000000E+00 -0.54668592906E+03  0.54668592908E+03  0.50400001928E-02 0.  1.
    10030    2    1    2    0    0  0.00000000000E+00  0.00000000000E+00  0.62438797873E+03  0.17177598369E+04  0.16002620127E+04 0.  0.
        1    1    3    3  502    0 -0.58708423054E+03  0.30574127481E+03 -0.17032657608E+03  0.68348867103E+03  0.50400001928E-02 0.  1.
       -1    1    3    3    0  502  0.58708423054E+03 -0.30574127481E+03  0.79471455482E+03  0.10342711659E+04  0.50400001928E-02 0. -1.
</event>
<event>
 5   0  0.2046108E-05  0.1599538E+04  0.7818609E-02  0.8820832E-01
        2   -1    0    0  501    0  0.00000000000E+00  0.00000000000E+00  0.69303110109E+03  0.69303110109E+03  0.25500000920E-02 0. -1.
       -2   -1    0    0    0  501  0.00000000000E+00  0.00000000000E+00 -0.92294657365E+03  0.92294657366E+03  0.25500000920E-02 0.  1.
    10030    2    1    2    0    0  0.00000000000E+00  0.00000000000E+00 -0.22991547257E+03  0.16159776748E+04  0.15995382836E+04 0.  0.
        1    1    3    3  502    0  0.24499865981E+03 -0.55212652375E+03  0.41460760848E+03  0.73264419098E+03  0.50400001928E-02 0. -1.
       -1    1    3    3    0  502 -0.24499865981E+03  0.55212652375E+03 -0.64452308104E+03  0.88333348378E+03  0.50400001928E-02 0.  1.
</event>
<event>
 5   0  0.1081831E-05  0.1599581E+04  0.7818609E-02  0.8820806E-01
       -1   -1    0    0    0  501  0.00000000000E+00  0.00000000000E+00  0.95167951058E+03  0.95167951059E+03  0.50400001928E-02 0.  1.
        1   -1    0    0  501    0  0.00000000000E+00  0.00000000000E+00 -0.67214279802E+03  0.67214279804E+03  0.50400001928E-02 0. -1.
    10030    2    1    2    0    0  0.00000000000E+00  0.00000000000E+00  0.27953671256E+03  0.16238223086E+04  0.15995806064E+04 0.  0.
        3    1    3    3  502    0 -0.67149406761E+03  0.22482353556E+03 -0.23763812667E+03  0.74694162718E+03  0.10100000352E+00 0. -1.
       -3    1    3    3    0  502  0.67149406761E+03 -0.22482353556E+03  0.51717483923E+03  0.87688068145E+03  0.10100000352E+00 0.  1.
</event>
<event>
 5   0  0.2147844E-05  0.1599948E+04  0.7818609E-02  0.8820580E-01
        2   -1    0    0  501    0  0.00000000000E+00  0.00000000000E+00  0.79517005991E+03  0.79517005992E+03  0.25500000920E-02 0.  1.
       -2   -1    0    0    0  501  0.00000000000E+00  0.00000000000E+00 -0.80480676083E+03  0.80480676084E+03  0.25500000920E-02 0. -1.
    10030    2    1    2    0    0  0.00000000000E+00  0.00000000000E+00 -0.96367009221E+01  0.15999768208E+04  0.15999477994E+04 0.  0.
        2    1    3    3  502    0 -0.37847397816E+03 -0.89327404730E+02 -0.70392780777E+03  0.80419916435E+03  0.25500000920E-02 0. -1.
       -2    1    3    3    0  502  0.37847397816E+03  0.89327404730E+02  0.69429110685E+03  0.79577765641E+03  0.25500000920E-02 0.  1.
</event>
<event>
 5   0  0.1057506E-05  0.1600296E+04  0.7818609E-02  0.8820366E-01
        1   -1    0    0  501    0  0.00000000000E+00  0.00000000000E+00  0.18637291250E+04  0.18637291250E+04  0.50400001928E-02 0. -1.
       -1   -1    0    0    0  501  0.00000000000E+00  0.00000000000E+00 -0.34352448923E+03  0.34352448927E+03  0.50400001928E-02 0.  1.
    10030    2    1    2    0    0  0.00000000000E+00  0.00000000000E+00  0.15202046358E+04  0.22072536143E+04  0.16002957174E+04 0.  0.
        5    1    3    3  502    0 -0.32565631679E+03 -0.49608643917E+01 -0.24793979098E+03  0.40935666209E+03  0.46999998093E+01 0.  1.
       -5    1    3    3    0  502  0.32565631679E+03  0.49608643917E+01  0.17681444267E+04  0.17978969522E+04  0.46999998093E+01 0. -1.
</event>
<event>
 5   0  0.1990948E-05  0.1600036E+04  0.7818609E-02  0.8820526E-01
       -2   -1    0    0    0  501  0.00000000000E+00  0.00000000000E+00  0.55455481646E+03  0.55455481646E+03  0.25500000920E-02 0.  1.
        2   -1    0    0  501    0  0.00000000000E+00  0.00000000000E+00 -0.11541306933E+04  0.11541306933E+04  0.25500000920E-02 0. -1.
    10030    2    1    2    0    0  0.00000000000E+00  0.00000000000E+00 -0.59957587686E+03  0.17086855098E+04  0.16000359181E+04 0.  0.
        4    1    3    3  502    0 -0.72964007094E+02  0.47355542298E+03  0.38437857440E+03  0.61426947371E+03  0.12699999809E+01 0.  1.
       -4    1    3    3    0  502  0.72964007094E+02 -0.47355542298E+03 -0.98395445126E+03  0.10944160361E+04  0.12699999809E+01 0. -1.
</event>
<event>
 5   0  0.2046108E-05  0.1600393E+04  0.7818609E-02  0.8820307E-01
        2   -1    0    0  501    0  0.00000000000E+00  0.00000000000E+00  0.12558749264E+04  0.12558749264E+04  0.25500000920E-02 0. -1.
       -2   -1    0    0    0  501  0.00000000000E+00  0.00000000000E+00 -0.50985523450E+03  0.50985523451E+03  0.25500000920E-02 0.  1.
    10030    2    1    2    0    0  0.00000000000E+00  0.00000000000E+00  0.74601969190E+03  0.17657301609E+04  0.16003929581E+04 0.  0.
        1    1    3    3  502    0 -0.64364054761E+03 -0.30261028032E+03 -0.31573135439E+02  0.71192906893E+03  0.50400001928E-02 0.  1.
       -1    1    3    3    0  502  0.64364054761E+03  0.30261028032E+03  0.77759282733E+03  0.10538010920E+04  0.50400001928E-02 0. -1.
</event>
<event>
 5   0  0.2046108E-05  0.1600110E+04  0.7818609E-02  0.8820481E-01
        2   -1    0    0  501    0  0.00000000000E+00  0.00000000000E+00  0.95001076620E+03  0.95001076620E+03  0.25500000920E-02 0. -1.
       -2   -1    0    0    0  501  0.00000000000E+00  0.00000000000E+00 -0.67376909240E+03  0.67376909241E+03  0.25500000920E-02 0.  1.
    10030    2    1    2    0    0  0.00000000000E+00  0.00000000000E+00  0.27624167379E+03  0.16237798586E+04  0.16001098609E+04 0.  0.
        1    1    3    3  502    0 -0.39794670741E+03  0.60065206652E+03 -0.21479280287E+03  0.75185133846E+03  0.50400001928E-02 0. -1.
       -1    1    3    3    0  502  0.39794670741E+03 -0.60065206652E+03  0.49103447666E+03  0.87192852015E+03  0.50400001928E-02 0.  1.
</event>
<event>
 5   0  0.1090674E-05  0.1600306E+04  0.7818609E-02  0.8820360E-01
        1   -1    0    0  501    0  0.00000000000E+00  0.00000000000E+00  0.15379428115E+04  0.15379428115E+04  0.50400001928E-02 0.  1.
       -1   -1    0    0    0  501  0.00000000000E+00  0.00000000000E+00 -0.41629925447E+03  0.41629925450E+03  0.50400001928E-02 0. -1.
    10030    2    1    2    0    0  0.00000000000E+00  0.00000000000E+00  0.11216435570E+04  0.19542420660E+04  0.16003055282E+04 0.  0.
        4    1    3    3  502    0  0.18806903228E+03 -0.73865616737E+03  0.26354837865E+03  0.80650000328E+03  0.12699999809E+01 0. -1.
       -4    1    3    3    0  502 -0.18806903228E+03  0.73865616737E+03  0.85809517833E+03  0.11477420627E+04  0.12699999809E+01 0.  1.
</event>
<event>
 5   0  0.1990948E-05  0.1600609E+04  0.7818609E-02  0.8820174E-01
        2   -1    0    0  501    0  0.00000000000E+00  0.00000000000E+00  0.11599638673E+04  0.11599638673E+04  0.25500000920E-02 0.  1.
       -2   -1    0    0    0  501  0.00000000000E+00  0.00000000000E+00 -0.55216170472E+03  0.55216170472E+03  0.25500000920E-02 0. -1.
    10030    2    1    2    0    0  0.00000000000E+00  0.00000000000E+00  0.60780216255E+03  0.17121255720E+04  0.16006094169E+04 0.  0.
        4    1    3    3  502    0  0.16436077930E+03 -0.62642391135E+03 -0.19903162363E+03  0.67752238531E+03  0.12699999809E+01 0.  1.
       -4    1    3    3    0  502 -0.16436077930E+03  0.62642391135E+03  0.80683378618E+03  0.10346031867E+04  0.12699999809E+01 0. -1.
</event>
<event>
 5   0  0.1990948E-05  0.1599395E+04  0.7818609E-02  0.8820920E-01
       -2   -1    0    0    0  501  0.00000000000E+00  0.00000000000E+00  0.55804083938E+03  0.55804083939E+03  0.25500000920E-02 0.  1.
        2   -1    0    0  501    0  0.00000000000E+00  0.00000000000E+00 -0.11460026325E+04  0.11460026325E+04  0.25500000920E-02 0. -1.
    10030    2    1    2    0    0  0.00000000000E+00  0.00000000000E+00 -0.58796179316E+03  0.17040434719E+04  0.15993952245E+04 0.  0.
        4    1    3    3  502    0 -0.99105466529E+02  0.66530984982E+03 -0.75477848274E+03  0.10110149656E+04  0.12699999809E+01 0. -1.
       -4    1    3    3    0  502  0.99105466529E+02 -0.66530984982E+03  0.16681668958E+03  0.69302850633E+03  0.12699999809E+01 0.  1.
</event>
<event>
 5   0  0.1126485E-05  0.1599940E+04  0.7818609E-02  0.8820585E-01
        1   -1    0    0  501    0  0.00000000000E+00  0.00000000000E+00  0.71684382049E+03  0.71684382051E+03  0.50400001928E-02 0.  1.
       -1   -1    0    0    0  501  0.00000000000E+00  0.00000000000E+00 -0.89273572845E+03  0.89273572846E+03  0.50400001928E-02 0. -1.
    10030    2    1    2    0    0  0.00000000000E+00  0.00000000000E+00 -0.17589190796E+03  0.16095795490E+04  0.15999401117E+04 0.  0.
        2    1    3    3  502    0  0.47733554951E+03  0.20002674073E+03  0.52572275936E+03  0.73772918036E+03  0.25500000920E-02 0.  1.
       -2    1    3    3    0  502 -0.47733554951E+03 -0.20002674073E+03 -0.70161466732E+03  0.87185036861E+03  0.25500000920E-02 0. -1.
</event>
<event>
 5   0  0.2046108E-05  0.1594358E+04  0.7818609E-02  0.8824021E-01
       -2   -1    0    0    0  501  0.00000000000E+00  0.00000000000E+00  0.58112868717E+03  0.58112868718E+03  0.25500000920E-02 0. -1.
        2   -1    0    0  501    0  0.00000000000E+00  0.00000000000E+00 -0.10935521116E+04  0.10935521116E+04  0.25500000920E-02 0.  1.
    10030    2    1    2    0    0  0.00000000000E+00  0.00000000000E+00 -0.51242342440E+03  0.16746807987E+04  0.15943581818E+04 0.  0.
        1    1    3    3  502    0  0.76023090931E+03 -0.14373444733E+03 -0.54484529405E+02  0.77561536265E+03  0.50400001928E-02 0. -1.
       -1    1    3    3    0  502 -0.76023090931E+03  0.14373444733E+03 -0.45793889500E+03  0.89906543610E+03  0.50400001928E-02 0.  1.
</event>
<event>
 5   0  0.1057506E-05  0.1599672E+04  0.7818609E-02  0.8820749E-01
        1   -1    0    0  501    0  0.00000000000E+00  0.00000000000E+00  0.19432709144E+04  0.19432709144E+04  0.50400001928E-02 0.  1.
       -1   -1    0    0    0  501  0.00000000000E+00  0.00000000000E+00 -0.32920664339E+03  0.32920664343E+03  0.50400001928E-02 0. -1.
    10030    2    1    2    0    0  0.00000000000E+00  0.00000000000E+00  0.16140642710E+04  0.22724775579E+04  0.15996720851E+04 0.  0.
        5    1    3    3  502    0 -0.75664313988E+03  0.13948221797E+03  0.11174609534E+04  0.13567259129E+04  0.46999998093E+01 0. -1.
       -5    1    3    3    0  502  0.75664313988E+03 -0.13948221797E+03  0.49660331763E+03  0.91575164501E+03  0.46999998093E+01 0.  1.
</event>
<event>
 5   0  0.1057506E-05  0.1600828E+04  0.7818609E-02  0.8820039E-01
        1   -1    0    0  501    0  0.00000000000E+00  0.00000000000E+00  0.51152351887E+03  0.51152351889E+03  0.50400001928E-02 0.  1.
       -1   -1    0    0    0  501  0.00000000000E+00  0.00000000000E+00 -0.12524604034E+04  0.12524604034E+04  0.50400001928E-02 0. -1.
    10030    2    1    2    0    0  0.00000000000E+00  0.00000000000E+00 -0.74093688450E+03  0.17639839223E+04  0.16008284765E+04 0.  0.
        5    1    3    3  502    0  0.75817645258E+03 -0.15842406248E+02 -0.88328988624E+02  0.76348321220E+03  0.46999998093E+01 0.  1.
       -5    1    3    3    0  502 -0.75817645258E+03  0.15842406248E+02 -0.65260789587E+03  0.10005007101E+04  0.46999998093E+01 0. -1.
</event>
<event>
 5   0  0.1057506E-05  0.1600168E+04  0.7818609E-02  0.8820445E-01
       -1   -1    0    0    0  501  0.00000000000E+00  0.00000000000E+00  0.11547425157E+04  0.11547425157E+04  0.50400001928E-02 0. -1.
        1   -1    0    0  501    0  0.00000000000E+00  0.00000000000E+00 -0.55435261603E+03  0.55435261605E+03  0.50400001928E-02 0.  1.
    10030    2    1    2    0    0  0.00000000000E+00  0.00000000000E+00  0.60038989968E+03  0.17090951318E+04  0.16001681592E+04 0.  0.
        5    1    3    3  502    0 -0.52944948374E+03  0.55772607794E+03  0.64401686506E+02  0.77171549230E+03  0.46999998093E+01 0. -1.
       -5    1    3    3    0  502  0.52944948374E+03 -0.55772607794E+03  0.53598821318E+03  0.93737963947E+03  0.46999998093E+01 0.  1.
</event>
<event>
 5   0  0.1126485E-05  0.1599850E+04  0.7818609E-02  0.8820640E-01
        1   -1    0    0  501    0  0.00000000000E+00  0.00000000000E+00  0.98120793047E+03  0.98120793048E+03  0.50400001928E-02 0.  1.
       -1   -1    0    0    0  501  0.00000000000E+00  0.00000000000E+00 -0.65213520830E+03  0.65213520832E+03  0.50400001928E-02 0. -1.
    10030    2    1    2    0    0  0.00000000000E+00  0.00000000000E+00  0.32907272217E+03  0.16333431388E+04  0.15998502907E+04 0.  0.
        2    1    3    3  502    0 -0.41654691729E+03 -0.50970897783E+03  0.62854616028E+03  0.91015649863E+03  0.25500000920E-02 0.  1.
       -2    1    3    3    0  502  0.41654691729E+03  0.50970897783E+03 -0.29947343811E+03  0.72318664017E+03  0.25500000920E-02 0. -1.
</event>
<event>
 5   0  0.2125803E-05  0.1600197E+04  0.7818609E-02  0.8820427E-01
       -2   -1    0    0    0  501  0.00000000000E+00  0.00000000000E+00  0.39986479732E+03  0.39986479733E+03  0.25500000920E-02 0. -1.
        2   -1    0    0  501    0  0.00000000000E+00  0.00000000000E+00 -0.16009343820E+04  0.16009343820E+04  0.25500000920E-02 0.  1.
    10030    2    1    2    0    0  0.00000000000E+00  0.00000000000E+00 -0.12010695847E+04  0.20007991793E+04  0.16001966157E+04 0.  0.
        3    1    3    3  502    0  0.16926769570E+03 -0.50255995853E+03  0.14856661812E+03  0.55071781789E+03  0.10100000352E+00 0. -1.
       -3    1    3    3    0  502 -0.16926769570E+03  0.50255995853E+03 -0.13496362028E+04  0.14500813614E+04  0.10100000352E+00 0.  1.
</event>
<event>
 5   0  0.1994525E-05  0.1598459E+04  0.7818609E-02  0.8821495E-01
       -2   -1    0    0    0  501  0.00000000000E+00  0.00000000000E+00  0.26476690880E+03  0.26476690882E+03  0.25500000920E-02 0.  1.
        2   -1    0    0  501    0  0.00000000000E+00  0.00000000000E+00 -0.24125661530E+04  0.24125661530E+04  0.25500000920E-02 0. -1.
    10030    2    1    2    0    0  0.00000000000E+00  0.00000000000E+00 -0.21477992442E+04  0.26773330618E+04  0.15984588611E+04 0.  0.
        5    1    3    3  502    0  0.38708029543E+03 -0.22334175442E+03  0.35912514652E+02  0.44835755049E+03  0.46999998093E+01 0.  1.
       -5    1    3    3    0  502 -0.38708029543E+03  0.22334175442E+03 -0.21837117588E+04  0.22289755113E+04  0.46999998093E+01 0. -1.
</event>
<event>
 5   0  0.2147844E-05  0.1600098E+04  0.7818609E-02  0.8820488E-01
        2   -1    0    0  501    0  0.00000000000E+00  0.00000000000E+00  0.20968782874E+04  0.20968782875E+04  0.25500000920E-02 0.  1.
       -2   -1    0    0    0  501  0.00000000000E+00  0.00000000000E+00 -0.30525293341E+03  0.30525293342E+03  0.25500000920E-02 0. -1.
    10030    2    1    2    0    0  0.00000000000E+00  0.00000000000E+00  0.17916253540E+04  0.24021312209E+04  0.16000978073E+04 0.  0.
        2    1    3    3  502    0  0.96960066688E+01  0.77716029046E+03  0.61094816306E+03  0.98859991279E+03  0.25500000920E-02 0. -1.
       -2    1    3    3    0  502 -0.96960066688E+01 -0.77716029046E+03  0.11806771910E+04  0.14135313081E+04  0.25500000920E-02 0.  1.
</event>
<event>
 5   0  0.1090674E-05  0.1600204E+04  0.7818609E-02  0.8820422E-01
       -1   -1    0    0    0  501  0.00000000000E+00  0.00000000000E+00  0.64642949852E+03  0.64642949854E+03  0.50400001928E-02 0. -1.
        1   -1    0    0  501    0  0.00000000000E+00  0.00000000000E+00 -0.99030688528E+03  0.99030688529E+03  0.50400001928E-02 0.  1.
    10030    2    1    2    0    0  0.00000000000E+00  0.00000000000E+00 -0.34387738676E+03  0.16367363838E+04  0.16002044660E+04 0.  0.
        4    1    3    3  502    0  0.70670960372E+02 -0.40418041385E+03  0.53062367935E+03  0.67076023553E+03  0.12699999809E+01 0. -1.
       -4    1    3    3    0  502 -0.70670960372E+02  0.40418041385E+03 -0.87450106611E+03  0.96597614831E+03  0.12699999809E+01 0.  1.
</event>
<event>
 5   0  0.2046108E-05  0.1601740E+04  0.7818609E-02  0.8819480E-01
       -2   -1    0    0    0  501  0.00000000000E+00  0.00000000000E+00  0.56176776953E+03  0.56176776954E+03  0.25500000920E-02 0. -1.
        2   -1    0    0  501    0  0.00000000000E+00  0.00000000000E+00 -0.11417396021E+04  0.11417396021E+04  0.25500000920E-02 0.  1.
    10030    2    1    2    0    0  0.00000000000E+00  0.00000000000E+00 -0.57997183255E+03  0.17035073716E+04  0.16017396913E+04 0.  0.
        1    1    3    3  502    0  0.26716830048E+03  0.49895574032E+03  0.31263333452E+03  0.64658745229E+03  0.50400001928E-02 0. -1.
       -1    1    3    3    0  502 -0.26716830048E+03 -0.49895574032E+03 -0.89260516707E+03  0.10569199193E+04  0.50400001928E-02 0.  1.
</event>
<event>
 5   0  0.7597000E-06  0.1600563E+04  0.7818609E-02  0.8820202E-01
       -3   -1    0    0    0  501  0.00000000000E+00  0.00000000000E+00  0.77437691542E+03  0.77437692201E+03  0.10100000352E+00 0. -1.
        3   -1    0    0  501    0  0.00000000000E+00  0.00000000000E+00 -0.82705254519E+03  0.82705255136E+03  0.10100000352E+00 0.  1.
    10030    2    1    2    0    0  0.00000000000E+00  0.00000000000E+00 -0.52675629767E+02  0.16014294734E+04  0.16005629123E+04 0.  0.
        5    1    3    3  502    0  0.31245303249E+02 -0.48805048929E+03 -0.66013066651E+03  0.82156200980E+03  0.46999998093E+01 0.  1.
       -5    1    3    3    0  502 -0.31245303249E+02  0.48805048929E+03  0.60745503674E+03  0.77986746357E+03  0.46999998093E+01 0. -1.
</event>
<event>
 5   0  0.1126485E-05  0.1600245E+04  0.7818609E-02  0.8820398E-01
       -1   -1    0    0    0  501  0.00000000000E+00  0.00000000000E+00  0.79775433484E+03  0.79775433486E+03  0.50400001928E-02 0. -1.
        1   -1    0    0  501    0  0.00000000000E+00  0.00000000000E+00 -0.80249731508E+03  0.80249731509E+03  0.50400001928E-02 0.  1.
    10030    2    1    2    0    0  0.00000000000E+00  0.00000000000E+00 -0.47429802353E+01  0.16002516500E+04  0.16002446211E+04 0.  0.
        2    1    3    3  502    0 -0.21549406405E+03 -0.76793286606E+03 -0.65910209562E+02  0.80031414716E+03  0.25500000920E-02 0.  1.
       -2    1    3    3    0  502  0.21549406405E+03  0.76793286606E+03  0.61167229327E+02  0.79993750279E+03  0.25500000920E-02 0. -1.
</event>
<event>
 5   0  0.1060251E-05  0.1599732E+04  0.7818609E-02  0.8820713E-01
       -1   -1    0    0    0  501  0.00000000000E+00  0.00000000000E+00  0.92362336364E+03  0.92362336365E+03  0.50400001928E-02 0.  1.
        1   -1    0    0  501    0  0.00000000000E+00  0.00000000000E+00 -0.69269110953E+03  0.69269110955E+03  0.50400001928E-02 0. -1.
    10030    2    1    2    0    0  0.00000000000E+00  0.00000000000E+00  0.23093225410E+03  0.16163144732E+04  0.15997320933E+04 0.  0.
        1    1    3    3  502    0  0.24192698857E+03  0.66093434631E+03 -0.26850317694E+03  0.75329730782E+03  0.50400001928E-02 0.  1.
       -1    1    3    3    0  502 -0.24192698857E+03 -0.66093434631E+03  0.49943543105E+03  0.86301716538E+03  0.50400001928E-02 0. -1.
</event>
<event>
 5   0  0.1081831E-05  0.1598989E+04  0.7818609E-02  0.8821169E-01
        1   -1    0    0  501    0  0.00000000000E+00  0.00000000000E+00  0.97667424467E+03  0.97667424468E+03  0.50400001928E-02 0.  1.
       -1   -1    0    0    0  501  0.00000000000E+00  0.00000000000E+00 -0.65445716306E+03  0.65445716308E+03  0.50400001928E-02 0. -1.
    10030    2    1    2    0    0  0.00000000000E+00  0.00000000000E+00  0.32221708161E+03  0.16311314078E+04  0.15989889999E+04 0.  0.
        3    1    3    3  502    0  0.44618073421E+03  0.37808481925E+03 -0.39497889458E+03  0.70571503845E+03  0.10100000352E+00 0. -1.
       -3    1    3    3    0  502 -0.44618073421E+03 -0.37808481925E+03  0.71719597619E+03  0.92541636931E+03  0.10100000352E+00 0.  1.
</event>
<event>
 5   0  0.1126485E-05  0.1605362E+04  0.7818609E-02  0.8817261E-01
        1   -1    0    0  501    0  0.00000000000E+00  0.00000000000E+00  0.15688388713E+04  0.15688388713E+04  0.50400001928E-02 0.  1.
       -1   -1    0    0    0  501  0.00000000000E+00  0.00000000000E+00 -0.41068380291E+03  0.41068380294E+03  0.50400001928E-02 0. -1.
    10030    2    1    2    0    0  0.00000000000E+00  0.00000000000E+00  0.11581550684E+04  0.19795226743E+04  0.16053619080E+04 0.  0.
        2    1    3    3  502    0 -0.33451911107E+03 -0.31808425684E+03  0.13887977877E+04  0.14635026222E+04  0.25500000920E-02 0.  1.
       -2    1    3    3    0  502  0.33451911107E+03  0.31808425684E+03 -0.23064271931E+03  0.51602005203E+03  0.25500000920E-02 0. -1.
</event>
<event>
 5   0  0.1081831E-05  0.1599634E+04  0.7818609E-02  0.8820773E-01
        1   -1    0    0  501    0  0.00000000000E+00  0.00000000000E+00  0.90797535976E+03  0.90797535978E+03  0.50400001928E-02 0. -1.
       -1   -1    0    0    0  501  0.00000000000E+00  0.00000000000E+00 -0.70454229707E+03  0.70454229709E+03  0.50400001928E-02 0.  1.
    10030    2    1    2    0    0  0.00000000000E+00  0.00000000000E+00  0.20343306269E+03  0.16125176569E+04  0.15996337652E+04 0.  0.
        3    1    3    3  502    0 -0.51105644470E+03  0.53431139121E+03  0.40919734895E+03  0.84505019557E+03  0.10100000352E+00 0. -1.
       -3    1    3    3    0  502  0.51105644470E+03 -0.53431139121E+03 -0.20576428626E+03  0.76746746130E+03  0.10100000352E+00 0.  1.
</event>
<event>
 5   0  0.1060251E-05  0.1599835E+04  0.7818609E-02  0.8820649E-01
       -1   -1    0    0    0  501  0.00000000000E+00  0.00000000000E+00  0.32530527701E+03  0.32530527705E+03  0.50400001928E-02 0.  1.
        1   -1    0    0  501    0  0.00000000000E+00  0.00000000000E+00 -0.19669769913E+04  0.19669769913E+04  0.50400001928E-02 0. -1.
    10030    2    1    2    0    0  0.00000000000E+00  0.00000000000E+00 -0.16416717143E+04  0.22922822683E+04  0.15998349853E+04 0.  0.
        1    1    3    3  502    0  0.29175903103E+03  0.13621607211E+03 -0.18700211576E+04  0.18975397968E+04  0.50400001928E-02 0. -1.
       -1    1    3    3    0  502 -0.29175903103E+03 -0.13621607211E+03  0.22834944338E+03  0.39474247150E+03  0.50400001928E-02 0.  1.
</event>
<event>
 5   0  0.1126485E-05  0.1602470E+04  0.7818609E-02  0.8819032E-01
       -1   -1    0    0    0  501  0.00000000000E+00  0.00000000000E+00  0.30937990479E+03  0.30937990483E+03  0.50400001928E-02 0. -1.
        1   -1    0    0  501    0  0.00000000000E+00  0.00000000000E+00 -0.20750459064E+04  0.20750459065E+04  0.50400001928E-02 0.  1.
    10030    2    1    2    0    0  0.00000000000E+00  0.00000000000E+00 -0.17656660017E+04  0.23844258113E+04  0.16024699748E+04 0.  0.
        2    1    3    3  502    0 -0.61733527820E+03  0.35232919437E+03 -0.14330573338E+04  0.15996537215E+04  0.25500000920E-02 0.  1.
       -2    1    3    3    0  502  0.61733527820E+03 -0.35232919437E+03 -0.33260866788E+03  0.78477208976E+03  0.25500000920E-02 0. -1.
</event>
<event>
 5   0  0.2147844E-05  0.1599746E+04  0.7818609E-02  0.8820704E-01
       -2   -1    0    0    0  501  0.00000000000E+00  0.00000000000E+00  0.10013936341E+04  0.10013936341E+04  0.25500000920E-02 0.  1.
        2   -1    0    0  501    0  0.00000000000E+00  0.00000000000E+00 -0.63890662966E+03  0.63890662967E+03  0.25500000920E-02 0. -1.
    10030    2    1    2    0    0  0.00000000000E+00  0.00000000000E+00  0.36248700448E+03  0.16403002638E+04  0.15997462696E+04 0.  0.
        2    1    3    3  502    0  0.40610910882E+02  0.12879434166E+02 -0.63774240645E+03  0.63916390926E+03  0.25500000920E-02 0. -1.
       -2    1    3    3    0  502 -0.40610910882E+02 -0.12879434166E+02  0.10002294109E+04  0.10011363546E+04  0.25500000920E-02 0.  1.
</event>
<event>
 5   0  0.1126485E-05  0.1599167E+04  0.7818609E-02  0.8821060E-01
       -1   -1    0    0    0  501  0.00000000000E+00  0.00000000000E+00  0.84132019680E+03  0.84132019681E+03  0.50400001928E-02 0. -1.
        1   -1    0    0  501    0  0.00000000000E+00  0.00000000000E+00 -0.75991697879E+03  0.75991697880E+03  0.50400001928E-02 0.  1.
    10030    2    1    2    0    0  0.00000000000E+00  0.00000000000E+00  0.81403218010E+02  0.16012371756E+04  0.15991666607E+04 0.  0.
        2    1    3    3  502    0 -0.26016592362E+03 -0.18242073756E+03 -0.69398531481E+03  0.76326879307E+03  0.25500000920E-02 0.  1.
       -2    1    3    3    0  502  0.26016592362E+03  0.18242073756E+03  0.77538853282E+03  0.83796838254E+03  0.25500000920E-02 0. -1.
</event>
<event>
 5   0  0.1057506E-05  0.1601846E+04  0.7818609E-02  0.8819415E-01
       -1   -1    0    0    0  501  0.00000000000E+00  0.00000000000E+00  0.55528527251E+03  0.55528527254E+03  0.50400001928E-02 0. -1.
        1   -1    0    0  501    0  0.00000000000E+00  0.00000000000E+00 -0.11552221290E+04  0.11552221290E+04  0.50400001928E-02 0.  1.
    10030    2    1    2    0    0  0.00000000000E+00  0.00000000000E+00 -0.59993685644E+03  0.17105074015E+04  0.16018462282E+04 0.  0.
        5    1    3    3  502    0 -0.56386728464E+03  0.14571978781E+03 -0.88705936274E+03  0.10611677409E+04  0.46999998093E+01 0.  1.
       -5    1    3    3    0  502  0.56386728464E+03 -0.14571978781E+03  0.28712250630E+03  0.64933966063E+03  0.46999998093E+01 0. -1.
</event>
<event>
 5   0  0.7597000E-06  0.1601682E+04  0.7818609E-02  0.8819515E-01
       -3   -1    0    0    0  501  0.00000000000E+00  0.00000000000E+00  0.86130516954E+03  0.86130517546E+03  0.10100000352E+00 0. -1.
        3   -1    0    0  501    0  0.00000000000E+00  0.00000000000E+00 -0.74462124413E+03  0.74462125098E+03  0.10100000352E+00 0.  1.
    10030    2    1    2    0    0  0.00000000000E+00  0.00000000000E+00  0.11668392541E+03  0.16059264264E+04  0.16016817876E+04 0.  0.
        1    1    3    3  502    0  0.19310629630E+03 -0.72283164361E+03  0.34470436527E+03  0.82376982594E+03  0.50400001928E-02 0. -1.
       -1    1    3    3    0  502 -0.19310629630E+03  0.72283164361E+03 -0.22802043986E+03  0.78215660049E+03  0.50400001928E-02 0.  1.
</event>
<event>
 5   0  0.2125803E-05  0.1600066E+04  0.7818609E-02  0.8820507E-01
       -2   -1    0    0    0  501  0.00000000000E+00  0.00000000000E+00  0.92085494326E+03  0.92085494326E+03  0.25500000920E-02 0.  1.
        2   -1    0    0  501    0  0.00000000000E+00  0.00000000000E+00 -0.69506397202E+03  0.69506397202E+03  0.25500000920E-02 0. -1.
    10030    2    1    2    0    0  0.00000000000E+00  0.00000000000E+00  0.22579097124E+03  0.16159189153E+04  0.16000663668E+04 0.  0.
        3    1    3    3  502    0  0.42499759549E+03 -0.32019539852E+03 -0.49043866089E+03  0.72365609215E+03  0.10100000352E+00 0. -1.
       -3    1    3    3    0  502 -0.42499759549E+03  0.32019539852E+03  0.71622963213E+03  0.89226282313E+03  0.10100000352E+00 0.  1.
</event>
<event>
 5   0  0.2125803E-05  0.1599940E+04  0.7818609E-02  0.8820585E-01
        2   -1    0    0  501    0  0.00000000000E+00  0.00000000000E+00  0.60775458503E+03  0.60775458503E+03  0.25500000920E-02 0. -1.
       -2   -1    0    0    0  501  0.00000000000E+00  0.00000000000E+00 -0.10529770820E+04  0.10529770820E+04  0.25500000920E-02 0.  1.
    10030    2    1    2    0    0  0.00000000000E+00  0.00000000000E+00 -0.44522249697E+03  0.16607316670E+04  0.15999395608E+04 0.  0.
        3    1    3    3  502    0  0.47813970045E+03  0.19605481604E+03  0.41124399487E+03  0.66043674758E+03  0.10100000352E+00 0. -1.
       -3    1    3    3    0  502 -0.47813970045E+03 -0.19605481604E+03 -0.85646649185E+03  0.10002949195E+04  0.10100000352E+00 0.  1.
</event>
<event>
 5   0  0.1990948E-05  0.1599338E+04  0.7818609E-02  0.8820955E-01
       -2   -1    0    0    0  501  0.00000000000E+00  0.00000000000E+00  0.23388137460E+03  0.23388137462E+03  0.25500000920E-02 0.  1.
        2   -1    0    0  501    0  0.00000000000E+00  0.00000000000E+00 -0.27341663813E+04  0.27341663813E+04  0.25500000920E-02 0. -1.
    10030    2    1    2    0    0  0.00000000000E+00  0.00000000000E+00 -0.25002850067E+04  0.29680477559E+04  0.15993381027E+04 0.  0.
        4    1    3    3  502    0 -0.10282612610E+03  0.71623646136E+02 -0.27158300137E+04  0.27187198155E+04  0.12699999809E+01 0. -1.
       -4    1    3    3    0  502  0.10282612610E+03 -0.71623646136E+02  0.21554500705E+03  0.24932794039E+03  0.12699999809E+01 0.  1.
</event>
<event>
 5   0  0.2125803E-05  0.1599995E+04  0.7818609E-02  0.8820551E-01
        2   -1    0    0  501    0  0.00000000000E+00  0.00000000000E+00  0.11391519344E+04  0.11391519344E+04  0.25500000920E-02 0.  1.
       -2   -1    0    0    0  501  0.00000000000E+00  0.00000000000E+00 -0.56181816789E+03  0.56181816789E+03  0.25500000920E-02 0. -1.
    10030    2    1    2    0    0  0.00000000000E+00  0.00000000000E+00  0.57733376649E+03  0.17009701023E+04  0.15999953159E+04 0.  0.
        3    1    3    3  502    0  0.17795579531E+03  0.70218387744E+03 -0.72267424706E+02  0.72797874536E+03  0.10100000352E+00 0. -1.
       -3    1    3    3    0  502 -0.17795579531E+03 -0.70218387744E+03  0.64960119119E+03  0.97299135691E+03  0.10100000352E+00 0.  1.
</event>
<event>
 5   0  0.2046108E-05  0.1600398E+04  0.7818609E-02  0.8820304E-01
        2   -1    0    0  501    0  0.00000000000E+00  0.00000000000E+00  0.94965020560E+03  0.94965020561E+03  0.25500000920E-02 0.  1.
       -2   -1    0    0    0  501  0.00000000000E+00  0.00000000000E+00 -0.67426764645E+03  0.67426764645E+03  0.25500000920E-02 0. -1.
    10030    2    1    2    0    0  0.00000000000E+00  0.00000000000E+00  0.27538255916E+03  0.16239178521E+04  0.16003979619E+04 0.  0.
        1    1    3    3  502    0  0.46708606596E+03 -0.40066265466E+03  0.65669473978E+03  0.89997107572E+03  0.50400001928E-02 0.  1.
       -1    1    3    3    0  502 -0.46708606596E+03  0.40066265466E+03 -0.38131218063E+03  0.72394677634E+03  0.50400001928E-02 0. -1.
</event>
<event>
 5   0  0.1994525E-05  0.1599174E+04  0.7818609E-02  0.8821056E-01
       -2   -1    0    0    0  501  0.00000000000E+00  0.00000000000E+00  0.86317004922E+03  0.86317004922E+03  0.25500000920E-02 0. -1.
        2   -1    0    0  501    0  0.00000000000E+00  0.00000000000E+00 -0.74068733394E+03  0.74068733395E+03  0.25500000920E-02 0.  1.
    10030    2    1    2    0    0  0.00000000000E+00  0.00000000000E+00  0.12248271528E+03  0.16038573832E+04  0.15991736898E+04 0.  0.
        5    1    3    3  502    0 -0.65670132114E+01  0.78151069821E+03 -0.10811687309E+03  0.78899521248E+03  0.46999998093E+01 0.  1.
       -5    1    3    3    0  502  0.65670132114E+01 -0.78151069821E+03  0.23059958837E+03  0.81486217069E+03  0.46999998093E+01 0. -1.
</event>
<event>
 5   0  0.1994525E-05  0.1600662E+04  0.7818609E-02  0.8820141E-01
       -2   -1    0    0    0  501  0.00000000000E+00  0.00000000000E+00  0.43541369278E+03  0.43541369278E+03  0.25500000920E-02 0.  1.
        2   -1    0    0  501    0  0.00000000000E+00  0.00000000000E+00 -0.14710836174E+04  0.14710836174E+04  0.25500000920E-02 0. -1.
    10030    2    1    2    0    0  0.00000000000E+00  0.00000000000E+00 -0.10356699246E+04  0.19064973102E+04  0.16006623007E+04 0.  0.
        5    1    3    3  502    0 -0.12499365938E+03 -0.61166942765E+03 -0.11142554915E+04  0.12772432399E+04  0.46999998093E+01 0. -1.
       -5    1    3    3    0  502  0.12499365938E+03  0.61166942765E+03  0.78585566876E+02  0.62925407025E+03  0.46999998093E+01 0.  1.
</event>
<event>
 5   0  0.1081831E-05  0.1599718E+04  0.7818609E-02  0.8820721E-01
        1   -1    0    0  501    0  0.00000000000E+00  0.00000000000E+00  0.10331956969E+04  0.10331956969E+04  0.50400001928E-02 0.  1.
       -1   -1    0    0    0  501  0.00000000000E+00  0.00000000000E+00 -0.61921892137E+03  0.61921892139E+03  0.50400001928E-02 0. -1.
    10030    2    1    2    0    0  0.00000000000E+00  0.00000000000E+00  0.41397677548E+03  0.16524146183E+04  0.15997178814E+04 0.  0.
        3    1    3    3  502    0 -0.25331721500E+03  0.69089054124E+03 -0.11682669565E+03  0.74508243732E+03  0.10100000352E+00 0. -1.
       -3    1    3    3    0  502  0.25331721500E+03 -0.69089054124E+03  0.53080347113E+03  0.90733218093E+03  0.10100000352E+00 0.  1.
</event>
<event>
 5   0  0.1060251E-05  0.1599466E+04  0.7818609E-02  0.8820876E-01
        1   -1    0    0  501    0  0.00000000000E+00  0.00000000000E+00  0.13283413388E+04  0.13283413388E+04  0.50400001928E-02 0. -1.
       -1   -1    0    0    0  501  0.00000000000E+00  0.00000000000E+00 -0.48148255258E+03  0.48148255260E+03  0.50400001928E-02 0.  1.
    10030    2    1    2    0    0  0.00000000000E+00  0.00000000000E+00  0.84685878626E+03  0.18098238914E+04  0.15994663842E+04 0.  0.
        1    1    3    3  502    0  0.49078461843E+03 -0.34302573611E+03 -0.17642098356E+03  0.62422797181E+03  0.50400001928E-02 0.  1.
       -1    1    3    3    0  502 -0.49078461843E+03  0.34302573611E+03  0.10232797698E+04  0.11855959196E+04  0.50400001928E-02 0. -1.
</event>
<event>
 5   0  0.1081831E-05  0.1600299E+04  0.7818609E-02  0.8820364E-01
       -1   -1    0    0    0  501  0.00000000000E+00  0.00000000000E+00  0.48302988435E+03  0.48302988438E+03  0.50400001928E-02 0.  1.
        1   -1    0    0  501    0  0.00000000000E+00  0.00000000000E+00 -0.13254646416E+04  0.13254646416E+04  0.50400001928E-02 0. -1.
    10030    2    1    2    0    0  0.00000000000E+00  0.00000000000E+00 -0.84243475721E+03  0.18084945260E+04  0.16002987628E+04 0.  0.
        3    1    3    3  502    0  0.51315533196E+03 -0.21615094458E+03  0.22816079969E+03  0.60175326030E+03  0.10100000352E+00 0.  1.
       -3    1    3    3    0  502 -0.51315533196E+03  0.21615094458E+03 -0.10705955569E+04  0.12067412656E+04  0.10100000352E+00 0. -1.
</event>
<event>
 5   0  0.1060251E-05  0.1600399E+04  0.7818609E-02  0.8820303E-01
        1   -1    0    0  501    0  0.00000000000E+00  0.00000000000E+00  0.13403224425E+04  0.13403224425E+04  0.50400001928E-02 0.  1.
       -1   -1    0    0    0  501  0.00000000000E+00  0.00000000000E+00 -0.47773538717E+03  0.47773538720E+03  0.50400001928E-02 0. -1.
    10030    2    1    2    0    0  0.00000000000E+00  0.00000000000E+00  0.86258705536E+03  0.18180578297E+04  0.16003992765E+04 0.  0.
        1    1    3    3  502    0 -0.33013799927E+03  0.12396978934E+03  0.12472881611E+04  0.12961818406E+04  0.50400001928E-02 0.  1.
       -1    1    3    3    0  502  0.33013799927E+03 -0.12396978934E+03 -0.38470110571E+03  0.52187598910E+03  0.50400001928E-02 0. -1.
</event>
<event>
 5   0  0.1090674E-05  0.1599016E+04  0.7818609E-02  0.8821153E-01
        1   -1    0    0  501    0  0.00000000000E+00  0.00000000000E+00  0.79692343683E+03  0.79692343685E+03  0.50400001928E-02 0.  1.
       -1   -1    0    0    0  501  0.00000000000E+00  0.00000000000E+00 -0.80210047592E+03  0.80210047593E+03  0.50400001928E-02 0. -1.
    10030    2    1    2    0    0  0.00000000000E+00  0.00000000000E+00 -0.51770390821E+01  0.15990239128E+04  0.15990155321E+04 0.  0.
        4    1    3    3  502    0 -0.43623277455E+03 -0.50639013166E+03 -0.44131744917E+03  0.80093239595E+03  0.12699999809E+01 0. -1.
       -4    1    3    3    0  502  0.43623277455E+03  0.50639013166E+03  0.43614041009E+03  0.79809151684E+03  0.12699999809E+01 0.  1.
</event>
<event>
 5   0  0.1990948E-05  0.1599528E+04  0.7818609E-02  0.8820838E-01
       -2   -1    0    0    0  501  0.00000000000E+00  0.00000000000E+00  0.51708530222E+03  0.51708530223E+03  0.25500000920E-02 0.  1.
        2   -1    0    0  501    0  0.00000000000E+00  0.00000000000E+00 -0.12369771681E+04  0.12369771681E+04  0.25500000920E-02 0. -1.
    10030    2    1    2    0    0  0.00000000000E+00  0.00000000000E+00 -0.71989186586E+03  0.17540624703E+04  0.15995283215E+04 0.  0.
        4    1    3    3  502    0  0.97605884759E+02 -0.79372682623E+03 -0.37045949356E+03  0.88134614806E+03  0.12699999809E+01 0. -1.
       -4    1    3    3    0  502 -0.97605884759E+02  0.79372682623E+03 -0.34943237230E+03  0.87271632226E+03  0.12699999809E+01 0.  1.
</event>
<event>
 5   0  0.1994525E-05  0.1600041E+04  0.7818609E-02  0.8820523E-01
       -2   -1    0    0    0  501  0.00000000000E+00  0.00000000000E+00  0.77027029977E+03  0.77027029978E+03  0.25500000920E-02 0. -1.
        2   -1    0    0  501    0  0.00000000000E+00  0.00000000000E+00 -0.83091948075E+03  0.83091948075E+03  0.25500000920E-02 0.  1.
    10030    2    1    2    0    0  0.00000000000E+00  0.00000000000E+00 -0.60649180979E+02  0.16011897805E+04  0.16000407464E+04 0.  0.
        5    1    3    3  502    0 -0.77510789398E+03  0.18513327862E+03  0.40038984363E+02  0.79792968890E+03  0.46999998093E+01 0. -1.
       -5    1    3    3    0  502  0.77510789398E+03 -0.18513327862E+03 -0.10068816534E+03  0.80326009163E+03  0.46999998093E+01 0.  1.
</event>
<event>
 5   0  0.1060251E-05  0.1599562E+04  0.7818609E-02  0.8820817E-01
        1   -1    0    0  501    0  0.00000000000E+00  0.00000000000E+00  0.83058070887E+03  0.83058070888E+03  0.50400001928E-02 0.  1.
       -1   -1    0    0    0  501  0.00000000000E+00  0.00000000000E+00 -0.77012366861E+03  0.77012366863E+03  0.50400001928E-02 0. -1.
    10030    2    1    2    0    0  0.00000000000E+00  0.00000000000E+00  0.60457040260E+02  0.16007043775E+04  0.15995622684E+04 0.  0.
        1    1    3    3  502    0  0.28243687862E+03 -0.64624882996E+03  0.40764727896E+03  0.81460692649E+03  0.50400001928E-02 0.  1.
       -1    1    3    3    0  502 -0.28243687862E+03  0.64624882996E+03 -0.34719023870E+03  0.78609745102E+03  0.50400001928E-02 0. -1.
</event>
<event>
 5   0  0.2125803E-05  0.1600268E+04  0.7818609E-02  0.8820384E-01
        2   -1    0    0  501    0  0.00000000000E+00  0.00000000000E+00  0.16631999486E+04  0.16631999486E+04  0.25500000920E-02 0. -1.
       -2   -1    0    0    0  501  0.00000000000E+00  0.00000000000E+00 -0.38492918864E+03  0.38492918864E+03  0.25500000920E-02 0.  1.
    10030    2    1    2    0    0  0.00000000000E+00  0.00000000000E+00  0.12782707600E+04  0.20481291373E+04  0.16002677361E+04 0.  0.
        3    1    3    3  502    0  0.69512184826E+03  0.28555683677E+03  0.28751640341E+03  0.80461343723E+03  0.10100000352E+00 0.  1.
       -3    1    3    3    0  502 -0.69512184826E+03 -0.28555683677E+03  0.99075435659E+03  0.12435157000E+04  0.10100000352E+00 0. -1.
</event>
<event>
 5   0  0.2046108E-05  0.1599815E+04  0.7818609E-02  0.8820662E-01
       -2   -1    0    0    0  501  0.00000000000E+00  0.00000000000E+00  0.14285877980E+04  0.14285877980E+04  0.25500000920E-02 0.  1.
        2   -1    0    0  501    0  0.00000000000E+00  0.00000000000E+00 -0.44789127884E+03  0.44789127885E+03  0.25500000920E-02 0. -1.
    10030    2    1    2    0    0  0.00000000000E+00  0.00000000000E+00  0.98069651912E+03  0.18764790768E+04  0.15998150090E+04 0.  0.
        1    1    3    3  502    0  0.66264719863E+03  0.13607084820E+03 -0.10366470316E+02  0.67655306467E+03  0.50400001928E-02 0. -1.
       -1    1    3    3    0  502 -0.66264719863E+03 -0.13607084820E+03  0.99106298943E+03  0.11999260121E+04  0.50400001928E-02 0.  1.
</event>
<event>
 5   0  0.2147844E-05  0.1600220E+04  0.7818609E-02  0.8820413E-01
        2   -1    0    0  501    0  0.00000000000E+00  0.00000000000E+00  0.12458246752E+04  0.12458246752E+04  0.25500000920E-02 0.  1.
       -2   -1    0    0    0  501  0.00000000000E+00  0.00000000000E+00 -0.51385721189E+03  0.51385721189E+03  0.25500000920E-02 0. -1.
    10030    2    1    2    0    0  0.00000000000E+00  0.00000000000E+00  0.73196746336E+03  0.17596818871E+04  0.16002199775E+04 0.  0.
        2    1    3    3  502    0  0.71778386513E+03 -0.18183802320E+03  0.69933778062E+03  0.10185048233E+04  0.25500000920E-02 0.  1.
       -2    1    3    3    0  502 -0.71778386513E+03  0.18183802320E+03  0.32629682733E+02  0.74117706381E+03  0.25500000920E-02 0. -1.
</event>
<event>
 5   0  0.1126485E-05  0.1600247E+04  0.7818609E-02  0.8820396E-01
       -1   -1    0    0    0  501  0.00000000000E+00  0.00000000000E+00  0.80892917248E+03  0.80892917249E+03  0.50400001928E-02 0. -1.
        1   -1    0    0  501    0  0.00000000000E+00  0.00000000000E+00 -0.79141386248E+03  0.79141386249E+03  0.50400001928E-02 0.  1.
    10030    2    1    2    0    0  0.00000000000E+00  0.00000000000E+00  0.17515309998E+02  0.16003430350E+04  0.16002471820E+04 0.  0.
        2    1    3    3  502    0 -0.67935397503E+03 -0.14764960443E+03 -0.38734122872E+03  0.79583632523E+03  0.25500000920E-02 0.  1.
       -2    1    3    3    0  502  0.67935397503E+03  0.14764960443E+03  0.40485653872E+03  0.80450670975E+03  0.25500000920E-02 0. -1.
</event>
<event>
 5   0  0.1090674E-05  0.1600018E+04  0.7818609E-02  0.8820537E-01
        1   -1    0    0  501    0  0.00000000000E+00  0.00000000000E+00  0.97367404579E+03  0.97367404580E+03  0.50400001928E-02 0.  1.
       -1   -1    0    0    0  501  0.00000000000E+00  0.00000000000E+00 -0.65731877502E+03  0.65731877504E+03  0.50400001928E-02 0. -1.
    10030    2    1    2    0    0  0.00000000000E+00  0.00000000000E+00  0.31635527077E+03  0.16309928208E+04  0.16000177887E+04 0.  0.
        4    1    3    3  502    0  0.12155526585E+03 -0.13025698494E+03  0.95319287941E+03  0.96970141953E+03  0.12699999809E+01 0.  1.
       -4    1    3    3    0  502 -0.12155526585E+03  0.13025698494E+03 -0.63683760863E+03  0.66129140132E+03  0.12699999809E+01 0. -1.
</event>
<event>
 5   0  0.1994525E-05  0.1599872E+04  0.7818609E-02  0.8820627E-01
        2   -1    0    0  501    0  0.00000000000E+00  0.00000000000E+00  0.14262393115E+04  0.14262393115E+04  0.25500000920E-02 0. -1.
       -2   -1    0    0    0  501  0.00000000000E+00  0.00000000000E+00 -0.44866069397E+03  0.44866069398E+03  0.25500000920E-02 0.  1.
    10030    2    1    2    0    0  0.00000000000E+00  0.00000000000E+00  0.97757861752E+03  0.18749000055E+04  0.15998718940E+04 0.  0.
        5    1    3    3  502    0 -0.66282246923E+03  0.85058740902E+02 -0.26458891048E+02  0.66879800989E+03  0.46999998093E+01 0.  1.
       -5    1    3    3    0  502  0.66282246923E+03 -0.85058740902E+02  0.10040375086E+04  0.12061019956E+04  0.46999998093E+01 0. -1.
</event>
<event>
 5   0  0.7597000E-06  0.1598263E+04  0.7818609E-02  0.8821616E-01
        4   -1    0    0  501    0  0.00000000000E+00  0.00000000000E+00  0.19299569922E+04  0.19299574101E+04  0.12699999809E+01 0.  1.
       -4   -1    0    0    0  501  0.00000000000E+00  0.00000000000E+00 -0.33089251174E+03  0.33089494893E+03  0.12699999809E+01 0. -1.
    10030    2    1    2    0    0  0.00000000000E+00  0.00000000000E+00  0.15990644805E+04  0.22608523590E+04  0.15982634878E+04 0.  0.
        5    1    3    3  502    0 -0.11788362202E+03  0.60671238319E+02 -0.31520827991E+03  0.34198815363E+03  0.46999998093E+01 0. -1.
       -5    1    3    3    0  502  0.11788362202E+03 -0.60671238319E+02  0.19142727604E+04  0.19188642054E+04  0.46999998093E+01 0.  1.
</event>
<event>
 5   0  0.1057506E-05  0.1598930E+04  0.7818609E-02  0.8821205E-01
        1   -1    0    0  501    0  0.00000000000E+00  0.00000000000E+00  0.65425122421E+03  0.65425122423E+03  0.50400001928E-02 0. -1.
       -1   -1    0    0    0  501  0.00000000000E+00  0.00000000000E+00 -0.97691009467E+03  0.97691009468E+03  0.50400001928E-02 0.  1.
    10030    2    1    2    0    0  0.00000000000E+00  0.00000000000E+00 -0.32265887046E+03  0.16311613189E+04  0.15989304243E+04 0.  0.
        5    1    3    3  502    0 -0.36071482740E+03  0.67809357724E+03  0.64944342137E+02  0.77082160308E+03  0.46999998093E+01 0. -1.
       -5    1    3    3    0  502  0.36071482740E+03 -0.67809357724E+03 -0.38760321260E+03  0.86033971582E+03  0.46999998093E+01 0.  1.
</event>
<event>
 5   0  0.1090674E-05  0.1599058E+04  0.7818609E-02  0.8821127E-01
        1   -1    0    0  501    0  0.00000000000E+00  0.00000000000E+00  0.91855073821E+03  0.91855073823E+03  0.50400001928E-02 0. -1.
       -1   -1    0    0    0  501  0.00000000000E+00  0.00000000000E+00 -0.69592995490E+03  0.69592995492E+03  0.50400001928E-02 0.  1.
    10030    2    1    2    0    0  0.00000000000E+00  0.00000000000E+00  0.22262078331E+03  0.16144806931E+04  0.15990584403E+04 0.  0.
        4    1    3    3  502    0  0.38262667104E+03 -0.66871865785E+03 -0.10442669660E+03  0.77749235406E+03  0.12699999809E+01 0. -1.
       -4    1    3    3    0  502 -0.38262667104E+03  0.66871865785E+03  0.32704747991E+03  0.83698833909E+03  0.12699999809E+01 0.  1.
</event>
<event>
 5   0  0.1081831E-05  0.1596216E+04  0.7818609E-02  0.8822876E-01
       -1   -1    0    0    0  501  0.00000000000E+00  0.00000000000E+00  0.99006675743E+03  0.99006675744E+03  0.50400001928E-02 0. -1.
        1   -1    0    0  501    0  0.00000000000E+00  0.00000000000E+00 -0.64336729205E+03  0.64336729207E+03  0.50400001928E-02 0.  1.
    10030    2    1    2    0    0  0.00000000000E+00  0.00000000000E+00  0.34669946538E+03  0.16334340495E+04  0.15962162369E+04 0.  0.
        3    1    3    3  502    0 -0.28925817104E+03 -0.66643998661E+03  0.51145320182E+03  0.88848012534E+03  0.10100000352E+00 0. -1.
       -3    1    3    3    0  502  0.28925817104E+03  0.66643998661E+03 -0.16475373644E+03  0.74495392417E+03  0.10100000352E+00 0.  1.
</event>
<event>
 5   0  0.1057506E-05  0.1600999E+04  0.7818609E-02  0.8819935E-01
       -1   -1    0    0    0  501  0.00000000000E+00  0.00000000000E+00  0.34188883317E+03  0.34188883320E+03  0.50400001928E-02 0. -1.
        1   -1    0    0  501    0  0.00000000000E+00  0.00000000000E+00 -0.18742915145E+04  0.18742915145E+04  0.50400001928E-02 0.  1.
    10030    2    1    2    0    0  0.00000000000E+00  0.00000000000E+00 -0.15324026813E+04  0.22161803477E+04  0.16009988619E+04 0.  0.
        5    1    3    3  502    0  0.80022074710E+03  0.16154025023E+02 -0.74852560133E+03  0.10958680862E+04  0.46999998093E+01 0. -1.
       -5    1    3    3    0  502 -0.80022074710E+03 -0.16154025023E+02 -0.78387707999E+03  0.11203122614E+04  0.46999998093E+01 0.  1.
</event>
<event>
 5   0  0.1060251E-05  0.1605599E+04  0.7818609E-02  0.8817116E-01
       -1   -1    0    0    0  501  0.00000000000E+00  0.00000000000E+00  0.51744133606E+03  0.51744133608E+03  0.50400001928E-02 0.  1.
        1   -1    0    0  501    0  0.00000000000E+00  0.00000000000E+00 -0.12455270777E+04  0.12455270778E+04  0.50400001928E-02 0. -1.
    10030    2    1    2    0    0  0.00000000000E+00  0.00000000000E+00 -0.72808574169E+03  0.17629684138E+04  0.16055991969E+04 0.  0.
        1    1    3    3  502    0 -0.13362219132E+03 -0.25357707295E+03 -0.11874287064E+04  0.12215331165E+04  0.50400001928E-02 0. -1.
       -1    1    3    3    0  502  0.13362219132E+03  0.25357707295E+03  0.45934296470E+03  0.54143529732E+03  0.50400001928E-02 0.  1.
</event>
<event>
 5   0  0.7597000E-06  0.1600489E+04  0.7818609E-02  0.8820248E-01
        3   -1    0    0  501    0  0.00000000000E+00  0.00000000000E+00  0.11089652340E+04  0.11089652386E+04  0.10100000352E+00 0. -1.
       -3   -1    0    0    0  501  0.00000000000E+00  0.00000000000E+00 -0.57746735265E+03  0.57746736148E+03  0.10100000352E+00 0.  1.
    10030    2    1    2    0    0  0.00000000000E+00  0.00000000000E+00  0.53149788132E+03  0.16864326000E+04  0.16004889617E+04 0.  0.
        1    1    3    3  502    0 -0.55613231339E+03 -0.71458674119E+02 -0.33587659682E+03  0.65360735952E+03  0.50400001928E-02 0.  1.
       -1    1    3    3    0  502  0.55613231339E+03  0.71458674119E+02  0.86737447814E+03  0.10328252405E+04  0.50400001928E-02 0. -1.
</event>
<event>
 5   0  0.2046108E-05  0.1600125E+04  0.7818609E-02  0.8820471E-01
       -2   -1    0    0    0  501  0.00000000000E+00  0.00000000000E+00  0.34089233004E+03  0.34089233005E+03  0.25500000920E-02 0. -1.
        2   -1    0    0  501    0  0.00000000000E+00  0.00000000000E+00 -0.18777182925E+04  0.18777182925E+04  0.25500000920E-02 0.  1.
    10030    2    1    2    0    0  0.00000000000E+00  0.00000000000E+00 -0.15368259624E+04  0.22186106225E+04  0.16001247000E+04 0.  0.
        1    1    3    3  502    0  0.34555846913E+03 -0.29730263196E+03 -0.16800459102E+04  0.17407911336E+04  0.50400001928E-02 0.  1.
       -1    1    3    3    0  502 -0.34555846913E+03  0.29730263196E+03  0.14321994771E+03  0.47781948893E+03  0.50400001928E-02 0. -1.
</event>
<event>
 5   0  0.1060251E-05  0.1600140E+04  0.7818609E-02  0.8820462E-01
        1   -1    0    0  501    0  0.00000000000E+00  0.00000000000E+00  0.10407366652E+04  0.10407366652E+04  0.50400001928E-02 0.  1.
       -1   -1    0    0    0  501  0.00000000000E+00  0.00000000000E+00 -0.61505643987E+03  0.61505643989E+03  0.50400001928E-02 0. -1.
    10030    2    1    2    0    0  0.00000000000E+00  0.00000000000E+00  0.42568022536E+03  0.16557931051E+04  0.16001397291E+04 0.  0.
        1    1    3    3  502    0 -0.42722217759E+03  0.11830430681E+03 -0.47635550280E+03  0.65071442516E+03  0.50400001928E-02 0. -1.
       -1    1    3    3    0  502  0.42722217759E+03 -0.11830430681E+03  0.90203572817E+03  0.10050786800E+04  0.50400001928E-02 0.  1.
</event>
<event>
 5   0  0.1990948E-05  0.1599834E+04  0.7818609E-02  0.8820650E-01
       -2   -1    0    0    0  501  0.00000000000E+00  0.00000000000E+00  0.10124257482E+04  0.10124257482E+04  0.25500000920E-02 0.  1.
        2   -1    0    0  501    0  0.00000000000E+00  0.00000000000E+00 -0.63201430509E+03  0.63201430509E+03  0.25500000920E-02 0. -1.
    10030    2    1    2    0    0  0.00000000000E+00  0.00000000000E+00  0.38041144314E+03  0.16444400533E+04  0.15998344361E+04 0.  0.
        4    1    3    3  502    0  0.27787244895E+03 -0.43391123675E+03  0.81912626053E+03  0.96770941034E+03  0.12699999809E+01 0.  1.
       -4    1    3    3    0  502 -0.27787244895E+03  0.43391123675E+03 -0.43871481739E+03  0.67673064299E+03  0.12699999809E+01 0. -1.
</event>
<event>
 5   0  0.1994525E-05  0.1600311E+04  0.7818609E-02  0.8820357E-01
       -2   -1    0    0    0  501  0.00000000000E+00  0.00000000000E+00  0.87766936132E+03  0.87766936132E+03  0.25500000920E-02 0. -1.
        2   -1    0    0  501    0  0.00000000000E+00  0.00000000000E+00 -0.72948744350E+03  0.72948744351E+03  0.25500000920E-02 0.  1.
    10030    2    1    2    0    0  0.00000000000E+00  0.00000000000E+00  0.14818191782E+03  0.16071568048E+04  0.16003109431E+04 0.  0.
        5    1    3    3  502    0 -0.55126149090E+03  0.27970768079E+03 -0.43611882144E+03  0.75653640657E+03  0.46999998093E+01 0.  1.
       -5    1    3    3    0  502  0.55126149090E+03 -0.27970768079E+03  0.58430073926E+03  0.85062039826E+03  0.46999998093E+01 0. -1.
</event>
<event>
 5   0  0.1126485E-05  0.1590490E+04  0.7818609E-02  0.8826412E-01
       -1   -1    0    0    0  501  0.00000000000E+00  0.00000000000E+00  0.43841344868E+03  0.43841344871E+03  0.50400001928E-02 0. -1.
        1   -1    0    0  501    0  0.00000000000E+00  0.00000000000E+00 -0.14425080012E+04  0.14425080012E+04  0.50400001928E-02 0.  1.
    10030    2    1    2    0    0  0.00000000000E+00  0.00000000000E+00 -0.10040945525E+04  0.18809214499E+04  0.15904903742E+04 0.  0.
        2    1    3    3  502    0  0.58553991057E+03 -0.30737707296E+03  0.20280273331E+02  0.66162598297E+03  0.25500000920E-02 0. -1.
       -2    1    3    3    0  502 -0.58553991057E+03  0.30737707296E+03 -0.10243748258E+04  0.12192954669E+04  0.25500000920E-02 0.  1.
</event>
<event>
 5   0  0.1060251E-05  0.1602494E+04  0.7818609E-02  0.8819017E-01
        1   -1    0    0  501    0  0.00000000000E+00  0.00000000000E+00  0.17045315130E+04  0.17045315131E+04  0.50400001928E-02 0. -1.
       -1   -1    0    0    0  501  0.00000000000E+00  0.00000000000E+00 -0.37664113655E+03  0.37664113659E+03  0.50400001928E-02 0.  1.
    10030    2    1    2    0    0  0.00000000000E+00  0.00000000000E+00  0.13278903765E+04  0.20811726496E+04  0.16024939144E+04 0.  0.
        1    1    3    3  502    0 -0.61348374047E+02  0.28997713242E+03  0.16307169352E+04  0.16574341867E+04  0.50400001928E-02 0. -1.
       -1    1    3    3    0  502  0.61348374047E+02 -0.28997713242E+03 -0.30282655871E+03  0.42373846298E+03  0.50400001928E-02 0.  1.
</event>
<event>
 5   0  0.2147844E-05  0.1599587E+04  0.7818609E-02  0.8820802E-01
       -2   -1    0    0    0  501  0.00000000000E+00  0.00000000000E+00  0.24590842676E+03  0.24590842678E+03  0.25500000920E-02 0. -1.
        2   -1    0    0  501    0  0.00000000000E+00  0.00000000000E+00 -0.26012512987E+04  0.26012512987E+04  0.25500000920E-02 0.  1.
    10030    2    1    2    0    0  0.00000000000E+00  0.00000000000E+00 -0.23553428719E+04  0.28471597255E+04  0.15995869648E+04 0.  0.
        2    1    3    3  502    0 -0.77555425119E+03 -0.45774708632E+02 -0.83953125667E+03  0.11438498378E+04  0.25500000920E-02 0. -1.
       -2    1    3    3    0  502  0.77555425119E+03  0.45774708632E+02 -0.15158116152E+04  0.17033098877E+04  0.25500000920E-02 0.  1.
</event>
<event>
 5   0  0.1081831E-05  0.1598752E+04  0.7818609E-02  0.8821315E-01
        1   -1    0    0  501    0  0.00000000000E+00  0.00000000000E+00  0.68804813358E+03  0.68804813360E+03  0.50400001928E-02 0. -1.
       -1   -1    0    0    0  501  0.00000000000E+00  0.00000000000E+00 -0.92871647762E+03  0.92871647763E+03  0.50400001928E-02 0.  1.
    10030    2    1    2    0    0  0.00000000000E+00  0.00000000000E+00 -0.24066834404E+03  0.16167646112E+04  0.15987515618E+04 0.  0.
        3    1    3    3  502    0 -0.74471134248E+03 -0.28545548558E+03 -0.65671372185E+02  0.80024531064E+03  0.10100000352E+00 0.  1.
       -3    1    3    3    0  502  0.74471134248E+03  0.28545548558E+03 -0.17499697185E+03  0.81651930059E+03  0.10100000352E+00 0. -1.
</event>
<event>
 5   0  0.1081831E-05  0.1596097E+04  0.7818609E-02  0.8822949E-01
        1   -1    0    0  501    0  0.00000000000E+00  0.00000000000E+00  0.40048843221E+03  0.40048843225E+03  0.50400001928E-02 0.  1.
       -1   -1    0    0    0  501  0.00000000000E+00  0.00000000000E+00 -0.15902624923E+04  0.15902624923E+04  0.50400001928E-02 0. -1.
    10030    2    1    2    0    0  0.00000000000E+00  0.00000000000E+00 -0.11897740601E+04  0.19907509245E+04  0.15960974060E+04 0.  0.
        3    1    3    3  502    0 -0.18592758405E+01 -0.79563188330E+03 -0.51751486551E+03  0.94913391935E+03  0.10100000352E+00 0.  1.
       -3    1    3    3    0  502  0.18592758405E+01  0.79563188330E+03 -0.67225919455E+03  0.10416170052E+04  0.10100000352E+00 0. -1.
</event>
<event>
 5   0  0.2147844E-05  0.1599851E+04  0.7818609E-02  0.8820640E-01
        2   -1    0    0  501    0  0.00000000000E+00  0.00000000000E+00  0.60785131801E+03  0.60785131802E+03  0.25500000920E-02 0.  1.
       -2   -1    0    0    0  501  0.00000000000E+00  0.00000000000E+00 -0.10526926490E+04  0.10526926490E+04  0.25500000920E-02 0. -1.
    10030    2    1    2    0    0  0.00000000000E+00  0.00000000000E+00 -0.44484133097E+03  0.16605439670E+04  0.15998507607E+04 0.  0.
        2    1    3    3  502    0 -0.15682519109E+03  0.78423457918E+03 -0.20560101567E+03  0.82576618567E+03  0.25500000920E-02 0.  1.
       -2    1    3    3    0  502  0.15682519109E+03 -0.78423457918E+03 -0.23924031530E+03  0.83477778134E+03  0.25500000920E-02 0. -1.
</event>
<event>
 5   0  0.1057506E-05  0.1600515E+04  0.7818609E-02  0.8820232E-01
       -1   -1    0    0    0  501  0.00000000000E+00  0.00000000000E+00  0.83992512674E+03  0.83992512675E+03  0.50400001928E-02 0. -1.
        1   -1    0    0  501    0  0.00000000000E+00  0.00000000000E+00 -0.76246353450E+03  0.76246353452E+03  0.50400001928E-02 0.  1.
    10030    2    1    2    0    0  0.00000000000E+00  0.00000000000E+00  0.77461592234E+02  0.16023886613E+04  0.16005152681E+04 0.  0.
        5    1    3    3  502    0 -0.68917973610E+03 -0.17454841387E+03  0.40652210209E+03  0.81897384996E+03  0.46999998093E+01 0.  1.
       -5    1    3    3    0  502  0.68917973610E+03  0.17454841387E+03 -0.32906050985E+03  0.78341481131E+03  0.46999998093E+01 0. -1.
</event>
<event>
 5   0  0.2125803E-05  0.1600479E+04  0.7818609E-02  0.8820254E-01
       -2   -1    0    0    0  501  0.00000000000E+00  0.00000000000E+00  0.43148745541E+03  0.43148745542E+03  0.25500000920E-02 0. -1.
        2   -1    0    0  501    0  0.00000000000E+00  0.00000000000E+00 -0.14841303417E+04  0.14841303417E+04  0.25500000920E-02 0.  1.
    10030    2    1    2    0    0  0.00000000000E+00  0.00000000000E+00 -0.10526428863E+04  0.19156177972E+04  0.16004794590E+04 0.  0.
        3    1    3    3  502    0 -0.40413326900E+02 -0.16489864790E+03 -0.14623258064E+04  0.14721486254E+04  0.10100000352E+00 0.  1.
       -3    1    3    3    0  502  0.40413326900E+02  0.16489864790E+03  0.40968292008E+03  0.44346917173E+03  0.10100000352E+00 0. -1.
</event>
<event>
 5   0  0.2125803E-05  0.1599570E+04  0.7818609E-02  0.8820812E-01
       -2   -1    0    0    0  501  0.00000000000E+00  0.00000000000E+00  0.52578554126E+03  0.52578554126E+03  0.25500000920E-02 0.  1.
        2   -1    0    0  501    0  0.00000000000E+00  0.00000000000E+00 -0.12165728044E+04  0.12165728044E+04  0.25500000920E-02 0. -1.
    10030    2    1    2    0    0  0.00000000000E+00  0.00000000000E+00 -0.69078726314E+03  0.17423583457E+04  0.15995704304E+04 0.  0.
        3    1    3    3  502    0  0.43436198359E+03  0.13984774099E+03 -0.10608589840E+04  0.11548374420E+04  0.10100000352E+00 0. -1.
       -3    1    3    3    0  502 -0.43436198359E+03 -0.13984774099E+03  0.37007172083E+03  0.58752090363E+03  0.10100000352E+00 0.  1.
</event>
<event>
 5   0  0.2147844E-05  0.1599870E+04  0.7818609E-02  0.8820628E-01
       -2   -1    0    0    0  501  0.00000000000E+00  0.00000000000E+00  0.48948495405E+03  0.48948495406E+03  0.25500000920E-02 0.  1.
        2   -1    0    0  501    0  0.00000000000E+00  0.00000000000E+00 -0.13072847408E+04  0.13072847408E+04  0.25500000920E-02 0. -1.
    10030    2    1    2    0    0  0.00000000000E+00  0.00000000000E+00 -0.81779978679E+03  0.17967696949E+04  0.15998702589E+04 0.  0.
        2    1    3    3  502    0 -0.43916613153E+03 -0.65559893903E+03 -0.55627225498E+03  0.96546138276E+03  0.25500000920E-02 0. -1.
       -2    1    3    3    0  502  0.43916613153E+03  0.65559893903E+03 -0.26152753181E+03  0.83130831215E+03  0.25500000920E-02 0.  1.
</event>
<event>
 5   0  0.1090674E-05  0.1599510E+04  0.7818609E-02  0.8820849E-01
       -1   -1    0    0    0  501  0.00000000000E+00  0.00000000000E+00  0.56266720318E+03  0.56266720320E+03  0.50400001928E-02 0. -1.
        1   -1    0    0  501    0  0.00000000000E+00  0.00000000000E+00 -0.11367436545E+04  0.11367436545E+04  0.50400001928E-02 0.  1.
    10030    2    1    2    0    0  0.00000000000E+00  0.00000000000E+00 -0.57407645127E+03  0.16994108577E+04  0.15995103911E+04 0.  0.
        4    1    3    3  502    0 -0.80037029871E+02 -0.75604726387E+03 -0.23357551058E+02  0.76063169764E+03  0.12699999809E+01 0. -1.
       -4    1    3    3    0  502  0.80037029871E+02  0.75604726387E+03 -0.55071890022E+03  0.93877916003E+03  0.12699999809E+01 0.  1.
</event>
<event>
 5   0  0.2046108E-05  0.1599713E+04  0.7818609E-02  0.8820725E-01
       -2   -1    0    0    0  501  0.00000000000E+00  0.00000000000E+00  0.12696577713E+04  0.12696577714E+04  0.25500000920E-02 0.  1.
        2   -1    0    0  501    0  0.00000000000E+00  0.00000000000E+00 -0.50389177910E+03  0.50389177910E+03  0.25500000920E-02 0. -1.
    10030    2    1    2    0    0  0.00000000000E+00  0.00000000000E+00  0.76576599225E+03  0.17735495505E+04  0.15997126158E+04 0.  0.
        1    1    3    3  502    0  0.47444748241E+03 -0.54579999922E+03  0.76173608160E+03  0.10503522794E+04  0.50400001928E-02 0.  1.
       -1    1    3    3    0  502 -0.47444748241E+03  0.54579999922E+03  0.40299106520E+01  0.72319727110E+03  0.50400001928E-02 0. -1.
</event>
<event>
 5   0  0.2147844E-05  0.1599163E+04  0.7818609E-02  0.8821062E-01
        2   -1    0    0  501    0  0.00000000000E+00  0.00000000000E+00  0.14921524412E+04  0.14921524412E+04  0.25500000920E-02 0. -1.
       -2   -1    0    0    0  501  0.00000000000E+00  0.00000000000E+00 -0.42846194781E+03  0.42846194782E+03  0.25500000920E-02 0.  1.
    10030    2    1    2    0    0  0.00000000000E+00  0.00000000000E+00  0.10636904934E+04  0.19206143890E+04  0.15991629578E+04 0.  0.
        2    1    3    3  502    0 -0.34237553804E+03 -0.32175324226E+03  0.13088773597E+04  0.13906495247E+04  0.25500000920E-02 0. -1.
       -2    1    3    3    0  502  0.34237553804E+03  0.32175324226E+03 -0.24518686630E+03  0.52996486427E+03  0.25500000920E-02 0.  1.
</event>
<event>
 5   0  0.2046108E-05  0.1599215E+04  0.7818609E-02  0.8821031E-01
        2   -1    0    0  501    0  0.00000000000E+00  0.00000000000E+00  0.16590131265E+04  0.16590131265E+04  0.25500000920E-02 0.  1.
       -2   -1    0    0    0  501  0.00000000000E+00  0.00000000000E+00 -0.38539297868E+03  0.38539297869E+03  0.25500000920E-02 0. -1.
    10030    2    1    2    0    0  0.00000000000E+00  0.00000000000E+00  0.12736201478E+04  0.20444061052E+04  0.15992148204E+04 0.  0.
        1    1    3    3  502    0  0.11932053992E+03  0.76620885425E+03  0.88620454986E+03  0.11775703392E+04  0.50400001928E-02 0.  1.
       -1    1    3    3    0  502 -0.11932053992E+03 -0.76620885425E+03  0.38741559792E+03  0.86683576594E+03  0.50400001928E-02 0. -1.
</event>
<event>
 5   0  0.2125803E-05  0.1604172E+04  0.7818609E-02  0.8817989E-01
        2   -1    0    0  501    0  0.00000000000E+00  0.00000000000E+00  0.58399027155E+03  0.58399027155E+03  0.25500000920E-02 0.  1.
       -2   -1    0    0    0  501  0.00000000000E+00  0.00000000000E+00 -0.11016313434E+04  0.11016313435E+04  0.25500000920E-02 0. -1.
    10030    2    1    2    0    0  0.00000000000E+00  0.00000000000E+00 -0.51764107190E+03  0.16856216150E+04  0.16041720449E+04 0.  0.
        3    1    3    3  502    0  0.35339896770E+03  0.92771663224E+02 -0.10091086129E+04  0.10732183444E+04  0.10100000352E+00 0. -1.
       -3    1    3    3    0  502 -0.35339896770E+03 -0.92771663224E+02  0.49146754098E+03  0.61240327065E+03  0.10100000352E+00 0.  1.
</event>
<event>
 5   0  0.1126485E-05  0.1599492E+04  0.7818609E-02  0.8820860E-01
       -1   -1    0    0    0  501  0.00000000000E+00  0.00000000000E+00  0.36954817844E+03  0.36954817847E+03  0.50400001928E-02 0. -1.
        1   -1    0    0  501    0  0.00000000000E+00  0.00000000000E+00 -0.17307444484E+04  0.17307444484E+04  0.50400001928E-02 0.  1.
    10030    2    1    2    0    0  0.00000000000E+00  0.00000000000E+00 -0.13611962700E+04  0.21002926269E+04  0.15994917421E+04 0.  0.
        2    1    3    3  502    0 -0.38923277338E+03 -0.19927203476E+03 -0.15598673589E+04  0.16199992818E+04  0.25500000920E-02 0.  1.
       -2    1    3    3    0  502  0.38923277338E+03  0.19927203476E+03  0.19867108895E+03  0.48029334505E+03  0.25500000920E-02 0. -1.
</event>
<event>
 5   0  0.2046108E-05  0.1599904E+04  0.7818609E-02  0.8820607E-01
       -2   -1    0    0    0  501  0.00000000000E+00  0.00000000000E+00  0.64500223622E+03  0.64500223622E+03  0.25500000920E-02 0.  1.
        2   -1    0    0  501    0  0.00000000000E+00  0.00000000000E+00 -0.99212542742E+03  0.99212542742E+03  0.25500000920E-02 0. -1.
    10030    2    1    2    0    0  0.00000000000E+00  0.00000000000E+00 -0.34712319120E+03  0.16371276636E+04  0.15999038962E+04 0.  0.
        1    1    3    3  502    0  0.41631129686E+03  0.24648547400E+03 -0.82544961019E+03  0.95678484718E+03  0.50400001928E-02 0. -1.
       -1    1    3    3    0  502 -0.41631129686E+03 -0.24648547400E+03  0.47832641899E+03  0.68034281647E+03  0.50400001928E-02 0.  1.
</event>
<event>
 5   0  0.1990948E-05  0.1599888E+04  0.7818609E-02  0.8820617E-01
        2   -1    0    0  501    0  0.00000000000E+00  0.00000000000E+00  0.13265838986E+04  0.13265838986E+04  0.25500000920E-02 0.  1.
       -2   -1    0    0    0  501  0.00000000000E+00  0.00000000000E+00 -0.48237469423E+03  0.48237469423E+03  0.25500000920E-02 0. -1.
    10030    2    1    2    0    0  0.00000000000E+00  0.00000000000E+00  0.84420920438E+03  0.18089585928E+04  0.15998881242E+04 0.  0.
        4    1    3    3  502    0  0.29625040674E+03 -0.32943898107E+03  0.11751859640E+04  0.12559291415E+04  0.12699999809E+01 0.  1.
       -4    1    3    3    0  502 -0.29625040674E+03  0.32943898107E+03 -0.33097675958E+03  0.55302945132E+03  0.12699999809E+01 0. -1.
</event>
<event>
 5   0  0.1060251E-05  0.1599826E+04  0.7818609E-02  0.8820655E-01
        1   -1    0    0  501    0  0.00000000000E+00  0.00000000000E+00  0.80376848124E+03  0.80376848126E+03  0.50400001928E-02 0. -1.
       -1   -1    0    0    0  501  0.00000000000E+00  0.00000000000E+00 -0.79607646442E+03  0.79607646444E+03  0.50400001928E-02 0.  1.
    10030    2    1    2    0    0  0.00000000000E+00  0.00000000000E+00  0.76920168229E+01  0.15998449457E+04  0.15998264541E+04 0.  0.
        1    1    3    3  502    0  0.43575198847E+03 -0.45881115793E+03 -0.48552014553E+03  0.79756961191E+03  0.50400001928E-02 0.  1.
       -1    1    3    3    0  502 -0.43575198847E+03  0.45881115793E+03  0.49321216235E+03  0.80227533379E+03  0.50400001928E-02 0. -1.
</event>
<event>
 5   0  0.1126485E-05  0.1599716E+04  0.7818609E-02  0.8820722E-01
        1   -1    0    0  501    0  0.00000000000E+00  0.00000000000E+00  0.19273033495E+04  0.19273033496E+04  0.50400001928E-02 0. -1.
       -1   -1    0    0    0  501  0.00000000000E+00  0.00000000000E+00 -0.33195239569E+03  0.33195239573E+03  0.50400001928E-02 0.  1.
    10030    2    1    2    0    0  0.00000000000E+00  0.00000000000E+00  0.15953509539E+04  0.22592557453E+04  0.15997161800E+04 0.  0.
        2    1    3    3  502    0  0.62473019736E+03  0.67045198203E+02  0.98644030759E+02  0.63601377572E+03  0.25500000920E-02 0.  1.
       -2    1    3    3    0  502 -0.62473019736E+03 -0.67045198203E+02  0.14967069231E+04  0.16232419696E+04  0.25500000920E-02 0. -1.
</event>
<event>
 5   0  0.1057506E-05  0.1600986E+04  0.7818609E-02  0.8819943E-01
       -1   -1    0    0    0  501  0.00000000000E+00  0.00000000000E+00  0.92673119608E+03  0.92673119609E+03  0.50400001928E-02 0. -1.
        1   -1    0    0  501    0  0.00000000000E+00  0.00000000000E+00 -0.69145081019E+03  0.69145081021E+03  0.50400001928E-02 0.  1.
    10030    2    1    2    0    0  0.00000000000E+00  0.00000000000E+00  0.23528038589E+03  0.16181820063E+04  0.16009859917E+04 0.  0.
        5    1    3    3  502    0  0.70349234597E+03  0.38107352780E+03  0.91902356270E+02  0.80534877383E+03  0.46999998093E+01 0.  1.
       -5    1    3    3    0  502 -0.70349234597E+03 -0.38107352780E+03  0.14337802962E+03  0.81283323247E+03  0.46999998093E+01 0. -1.
</event>
<event>
 5   0  0.7597000E-06  0.1599861E+04  0.7818609E-02  0.8820633E-01
        3   -1    0    0  501    0  0.00000000000E+00  0.00000000000E+00  0.17676361582E+04  0.17676361611E+04  0.10100000352E+00 0. -1.
       -3   -1    0    0    0  501  0.00000000000E+00  0.00000000000E+00 -0.36200267827E+03  0.36200269236E+03  0.10100000352E+00 0.  1.
    10030    2    1    2    0    0  0.00000000000E+00  0.00000000000E+00  0.14056334799E+04  0.21296388534E+04  0.15998612959E+04 0.  0.
        1    1    3    3  502    0  0.22936302836E+03 -0.31481540998E+03 -0.22724218155E+03  0.45094916592E+03  0.50400001928E-02 0.  1.
       -1    1    3    3    0  502 -0.22936302836E+03  0.31481540998E+03  0.16328756614E+04  0.16786896875E+04  0.50400001928E-02 0. -1.
</event>
<event>
 5   0  0.1081831E-05  0.1599497E+04  0.7818609E-02  0.8820857E-01
        1   -1    0    0  501    0  0.00000000000E+00  0.00000000000E+00  0.14552155598E+04  0.14552155598E+04  0.50400001928E-02 0.  1.
       -1   -1    0    0    0  501  0.00000000000E+00  0.00000000000E+00 -0.43952105368E+03  0.43952105371E+03  0.50400001928E-02 0. -1.
    10030    2    1    2    0    0  0.00000000000E+00  0.00000000000E+00  0.10156945061E+04  0.18947366135E+04  0.15994972663E+04 0.  0.
        3    1    3    3  502    0  0.90247420642E+02 -0.44448367768E+03  0.12881334586E+04  0.13656493525E+04  0.10100000352E+00 0.  1.
       -3    1    3    3    0  502 -0.90247420642E+02  0.44448367768E+03 -0.27243895252E+03  0.52908726096E+03  0.10100000352E+00 0. -1.
</event>
<event>
 5   0  0.1990948E-05  0.1600069E+04  0.7818609E-02  0.8820506E-01
        2   -1    0    0  501    0  0.00000000000E+00  0.00000000000E+00  0.15873592057E+04  0.15873592057E+04  0.25500000920E-02 0.  1.
       -2   -1    0    0    0  501  0.00000000000E+00  0.00000000000E+00 -0.40322020422E+03  0.40322020423E+03  0.25500000920E-02 0. -1.
    10030    2    1    2    0    0  0.00000000000E+00  0.00000000000E+00  0.11841390015E+04  0.19905794099E+04  0.16000691274E+04 0.  0.
        4    1    3    3  502    0  0.53500560067E+03  0.20415625849E+03  0.12871218344E+04  0.14087565439E+04  0.12699999809E+01 0.  1.
       -4    1    3    3    0  502 -0.53500560067E+03 -0.20415625849E+03 -0.10298283290E+03  0.58182286600E+03  0.12699999809E+01 0. -1.
</event>
<event>
 5   0  0.1060251E-05  0.1599814E+04  0.7818609E-02  0.8820662E-01
       -1   -1    0    0    0  501  0.00000000000E+00  0.00000000000E+00  0.83841637161E+03  0.83841637163E+03  0.50400001928E-02 0. -1.
        1   -1    0    0  501    0  0.00000000000E+00  0.00000000000E+00 -0.76316633566E+03  0.76316633568E+03  0.50400001928E-02 0.  1.
    10030    2    1    2    0    0  0.00000000000E+00  0.00000000000E+00  0.75250035952E+02  0.16015827073E+04  0.15998139268E+04 0.  0.
        1    1    3    3  502    0 -0.38696964865E+03  0.26849504875E+03  0.68488145222E+03  0.83120256484E+03  0.50400001928E-02 0. -1.
       -1    1    3    3    0  502  0.38696964865E+03 -0.26849504875E+03 -0.60963141627E+03  0.77038014246E+03  0.50400001928E-02 0.  1.
</event>
<event>
 5   0  0.1994525E-05  0.1599228E+04  0.7818609E-02  0.8821022E-01
        2   -1    0    0  501    0  0.00000000000E+00  0.00000000000E+00  0.18270359626E+04  0.18270359626E+04  0.25500000920E-02 0. -1.
       -2   -1    0    0    0  501  0.00000000000E+00  0.00000000000E+00 -0.34995624432E+03  0.34995624433E+03  0.25500000920E-02 0.  1.
    10030    2    1    2    0    0  0.00000000000E+00  0.00000000000E+00  0.14770797182E+04  0.21769922069E+04  0.15992281185E+04 0.  0.
        5    1    3    3  502    0  0.37800112394E+03 -0.63184330196E+03  0.11630525661E+04  0.13765261238E+04  0.46999998093E+01 0. -1.
       -5    1    3    3    0  502 -0.37800112394E+03  0.63184330196E+03  0.31402715213E+03  0.80046608311E+03  0.46999998093E+01 0.  1.
</event>
<event>
 5   0  0.1994525E-05  0.1599607E+04  0.7818609E-02  0.8820789E-01
        2   -1    0    0  501    0  0.00000000000E+00  0.00000000000E+00  0.73108792055E+03  0.73108792056E+03  0.25500000920E-02 0.  1.
       -2   -1    0    0    0  501  0.00000000000E+00  0.00000000000E+00 -0.87497785953E+03  0.87497785954E+03  0.25500000920E-02 0. -1.
    10030    2    1    2    0    0  0.00000000000E+00  0.00000000000E+00 -0.14388993898E+03  0.16060657801E+04  0.15996071316E+04 0.  0.
        5    1    3    3  502    0 -0.77965891729E+03 -0.32856339144E+02 -0.24791266454E+03  0.81879811039E+03  0.46999998093E+01 0. -1.
       -5    1    3    3    0  502  0.77965891729E+03  0.32856339144E+02  0.10402272556E+03  0.78726766971E+03  0.46999998093E+01 0.  1.
</event>
<event>
 5   0  0.1994525E-05  0.1602211E+04  0.7818609E-02  0.8819191E-01
       -2   -1    0    0    0  501  0.00000000000E+00  0.00000000000E+00  0.30375436058E+03  0.30375436059E+03  0.25500000920E-02 0. -1.
        2   -1    0    0  501    0  0.00000000000E+00  0.00000000000E+00 -0.21127933999E+04  0.21127933999E+04  0.25500000920E-02 0.  1.
    10030    2    1    2    0    0  0.00000000000E+00  0.00000000000E+00 -0.18090390393E+04  0.24165477605E+04  0.16022112323E+04 0.  0.
        5    1    3    3  502    0 -0.57020503597E+03  0.34386290788E+03 -0.15762831586E+04  0.17111593055E+04  0.46999998093E+01 0.  1.
       -5    1    3    3    0  502  0.57020503597E+03 -0.34386290788E+03 -0.23275588064E+03  0.70538845499E+03  0.46999998093E+01 0. -1.
</event>
<event>
 5   0  0.2147844E-05  0.1602870E+04  0.7818609E-02  0.8818787E-01
        2   -1    0    0  501    0  0.00000000000E+00  0.00000000000E+00  0.13679888783E+04  0.13679888783E+04  0.25500000920E-02 0.  1.
       -2   -1    0    0    0  501  0.00000000000E+00  0.00000000000E+00 -0.46952020004E+03  0.46952020005E+03  0.25500000920E-02 0. -1.
    10030    2    1    2    0    0  0.00000000000E+00  0.00000000000E+00  0.89846867825E+03  0.18375090784E+04  0.16028704399E+04 0.  0.
        2    1    3    3  502    0  0.57362173287E+03  0.55289901429E+03  0.34956330286E+03  0.87001937630E+03  0.25500000920E-02 0. -1.
       -2    1    3    3    0  502 -0.57362173287E+03 -0.55289901429E+03  0.54890537539E+03  0.96748970205E+03  0.25500000920E-02 0.  1.
</event>
<event>
 5   0  0.1090674E-05  0.1600552E+04  0.7818609E-02  0.8820209E-01
       -1   -1    0    0    0  501  0.00000000000E+00  0.00000000000E+00  0.63959811836E+03  0.63959811838E+03  0.50400001928E-02 0.  1.
        1   -1    0    0  501    0  0.00000000000E+00  0.00000000000E+00 -0.10013189266E+04  0.10013189267E+04  0.50400001928E-02 0. -1.
    10030    2    1    2    0    0  0.00000000000E+00  0.00000000000E+00 -0.36172080828E+03  0.16409170450E+04  0.16005520315E+04 0.  0.
        4    1    3    3  502    0 -0.24957653996E+03 -0.12455152224E+03 -0.94986967373E+03  0.98997754568E+03  0.12699999809E+01 0. -1.
       -4    1    3    3    0  502  0.24957653996E+03  0.12455152224E+03  0.58814886544E+03  0.65093949935E+03  0.12699999809E+01 0.  1.
</event>
<event>
 5   0  0.2046108E-05  0.1599770E+04  0.7818609E-02  0.8820690E-01
       -2   -1    0    0    0  501  0.00000000000E+00  0.00000000000E+00  0.38599200184E+03  0.38599200185E+03  0.25500000920E-02 0.  1.
        2   -1    0    0  501    0  0.00000000000E+00  0.00000000000E+00 -0.16575877704E+04  0.16575877704E+04  0.25500000920E-02 0. -1.
    10030    2    1    2    0    0  0.00000000000E+00  0.00000000000E+00 -0.12715957685E+04  0.20435797722E+04  0.15997695105E+04 0.  0.
        1    1    3    3  502    0 -0.61431599502E+03 -0.32465980773E+03 -0.12959802146E+03  0.70681240770E+03  0.50400001928E-02 0.  1.
       -1    1    3    3    0  502  0.61431599502E+03  0.32465980773E+03 -0.11419977471E+04  0.13367673645E+04  0.50400001928E-02 0. -1.
</event>
<event>
 5   0  0.1994525E-05  0.1600278E+04  0.7818609E-02  0.8820377E-01
       -2   -1    0    0    0  501  0.00000000000E+00  0.00000000000E+00  0.10259750059E+04  0.10259750059E+04  0.25500000920E-02 0. -1.
        2   -1    0    0  501    0  0.00000000000E+00  0.00000000000E+00 -0.62401386886E+03  0.62401386886E+03  0.25500000920E-02 0.  1.
    10030    2    1    2    0    0  0.00000000000E+00  0.00000000000E+00  0.40196113704E+03  0.16499888748E+04  0.16002782668E+04 0.  0.
        5    1    3    3  502    0  0.62716934457E+03 -0.49457864676E+03  0.15206077019E+03  0.81307686748E+03  0.46999998093E+01 0. -1.
       -5    1    3    3    0  502 -0.62716934457E+03  0.49457864676E+03  0.24990036685E+03  0.83691200729E+03  0.46999998093E+01 0.  1.
</event>
<event>
 5   0  0.1990948E-05  0.1599454E+04  0.7818609E-02  0.8820883E-01
       -2   -1    0    0    0  501  0.00000000000E+00  0.00000000000E+00  0.41433644689E+03  0.41433644690E+03  0.25500000920E-02 0. -1.
        2   -1    0    0  501    0  0.00000000000E+00  0.00000000000E+00 -0.15435847881E+04  0.15435847881E+04  0.25500000920E-02 0.  1.
    10030    2    1    2    0    0  0.00000000000E+00  0.00000000000E+00 -0.11292483412E+04  0.19579212350E+04  0.15994542026E+04 0.  0.
        4    1    3    3  502    0  0.55827271717E+03 -0.57216917065E+03 -0.59242640425E+03  0.99499580097E+03  0.12699999809E+01 0.  1.
       -4    1    3    3    0  502 -0.55827271717E+03  0.57216917065E+03 -0.53682193692E+03  0.96292543400E+03  0.12699999809E+01 0. -1.
</event>
<event>
 5   0  0.1994525E-05  0.1603853E+04  0.7818609E-02  0.8818185E-01
       -2   -1    0    0    0  501  0.00000000000E+00  0.00000000000E+00  0.58440181896E+03  0.58440181896E+03  0.25500000920E-02 0.  1.
        2   -1    0    0  501    0  0.00000000000E+00  0.00000000000E+00 -0.11004175184E+04  0.11004175184E+04  0.25500000920E-02 0. -1.
    10030    2    1    2    0    0  0.00000000000E+00  0.00000000000E+00 -0.51601569939E+03  0.16848193373E+04  0.16038528603E+04 0.  0.
        5    1    3    3  502    0 -0.70693879557E+03  0.34787897402E+03 -0.10120185352E+03  0.79438413026E+03  0.46999998093E+01 0.  1.
       -5    1    3    3    0  502  0.70693879557E+03 -0.34787897402E+03 -0.41481384587E+03  0.89043520706E+03  0.46999998093E+01 0. -1.
</event>
<event>
 5   0  0.1994525E-05  0.1599359E+04  0.7818609E-02  0.8820942E-01
       -2   -1    0    0    0  501  0.00000000000E+00  0.00000000000E+00  0.52685104003E+03  0.52685104004E+03  0.25500000920E-02 0. -1.
        2   -1    0    0  501    0  0.00000000000E+00  0.00000000000E+00 -0.12137910333E+04  0.12137910333E+04  0.25500000920E-02 0.  1.
    10030    2    1    2    0    0  0.00000000000E+00  0.00000000000E+00 -0.68693999331E+03  0.17406420734E+04  0.15993587069E+04 0.  0.
        5    1    3    3  502    0 -0.55449289594E+03  0.44744780454E+03  0.51632599356E+02  0.71439479614E+03  0.46999998093E+01 0. -1.
       -5    1    3    3    0  502  0.55449289594E+03 -0.44744780454E+03 -0.73857259267E+03  0.10262472773E+04  0.46999998093E+01 0.  1.
</event>
<event>
 5   0  0.1090674E-05  0.1600561E+04  0.7818609E-02  0.8820203E-01
        1   -1    0    0  501    0  0.00000000000E+00  0.00000000000E+00  0.19130702187E+04  0.19130702187E+04  0.50400001928E-02 0.  1.
       -1   -1    0    0    0  501  0.00000000000E+00  0.00000000000E+00 -0.33477551364E+03  0.33477551368E+03  0.50400001928E-02 0. -1.
    10030    2    1    2    0    0  0.00000000000E+00  0.00000000000E+00  0.15782947051E+04  0.22478457324E+04  0.16005612330E+04 0.  0.
        4    1    3    3  502    0  0.79154252716E+03 -0.64898311911E+02  0.92743790351E+03  0.12210217201E+04  0.12699999809E+01 0.  1.
       -4    1    3    3    0  502 -0.79154252716E+03  0.64898311911E+02  0.65085680156E+03  0.10268240123E+04  0.12699999809E+01 0. -1.
</event>
<event>
 5   0  0.1081831E-05  0.1597011E+04  0.7818609E-02  0.8822386E-01
       -1   -1    0    0    0  501  0.00000000000E+00  0.00000000000E+00  0.31386969576E+03  0.31386969580E+03  0.50400001928E-02 0. -1.
        1   -1    0    0  501    0  0.00000000000E+00  0.00000000000E+00 -0.20314520386E+04  0.20314520386E+04  0.50400001928E-02 0.  1.
    10030    2    1    2    0    0  0.00000000000E+00  0.00000000000E+00 -0.17175823429E+04  0.23453217344E+04  0.15970112503E+04 0.  0.
        3    1    3    3  502    0 -0.12588942205E+03  0.20869349710E+03  0.25791081778E+03  0.35485084535E+03  0.10100000352E+00 0. -1.
       -3    1    3    3    0  502  0.12588942205E+03 -0.20869349710E+03 -0.19754931606E+04  0.19904708891E+04  0.10100000352E+00 0.  1.
</event>
<event>
 5   0  0.1057506E-05  0.1598092E+04  0.7818609E-02  0.8821721E-01
       -1   -1    0    0    0  501  0.00000000000E+00  0.00000000000E+00  0.40165515230E+03  0.40165515233E+03  0.50400001928E-02 0. -1.
        1   -1    0    0  501    0  0.00000000000E+00  0.00000000000E+00 -0.15896085673E+04  0.15896085673E+04  0.50400001928E-02 0.  1.
    10030    2    1    2    0    0  0.00000000000E+00  0.00000000000E+00 -0.11879534150E+04  0.19912637196E+04  0.15980919513E+04 0.  0.
        5    1    3    3  502    0 -0.17779979110E+02  0.35015751494E+03 -0.14886249027E+04  0.15293634637E+04  0.46999998093E+01 0.  1.
       -5    1    3    3    0  502  0.17779979110E+02 -0.35015751494E+03  0.30067148775E+03  0.46190025597E+03  0.46999998093E+01 0. -1.
</event>
<event>
 5   0  0.2046108E-05  0.1600297E+04  0.7818609E-02  0.8820366E-01
       -2   -1    0    0    0  501  0.00000000000E+00  0.00000000000E+00  0.44121559407E+03  0.44121559408E+03  0.25500000920E-02 0.  1.
        2   -1    0    0  501    0  0.00000000000E+00  0.00000000000E+00 -0.14510758094E+04  0.14510758094E+04  0.25500000920E-02 0. -1.
    10030    2    1    2    0    0  0.00000000000E+00  0.00000000000E+00 -0.10098602153E+04  0.18922914035E+04  0.16002965666E+04 0.  0.
        1    1    3    3  502    0 -0.79059270043E+03  0.11258544348E+03 -0.44551237136E+03  0.91443620506E+03  0.50400001928E-02 0. -1.
       -1    1    3    3    0  502  0.79059270043E+03 -0.11258544348E+03 -0.56434784398E+03  0.97785519843E+03  0.50400001928E-02 0.  1.
</event>
<event>
 5   0  0.1994525E-05  0.1600130E+04  0.7818609E-02  0.8820468E-01
        2   -1    0    0  501    0  0.00000000000E+00  0.00000000000E+00  0.19849829805E+04  0.19849829805E+04  0.25500000920E-02 0.  1.
       -2   -1    0    0    0  501  0.00000000000E+00  0.00000000000E+00 -0.32247315411E+03  0.32247315412E+03  0.25500000920E-02 0. -1.
    10030    2    1    2    0    0  0.00000000000E+00  0.00000000000E+00  0.16625098264E+04  0.23074561347E+04  0.16001296480E+04 0.  0.
        5    1    3    3  502    0  0.18111512069E+03 -0.31582443335E+03  0.18585868703E+04  0.18939152579E+04  0.46999998093E+01 0.  1.
       -5    1    3    3    0  502 -0.18111512069E+03  0.31582443335E+03 -0.19607704385E+03  0.41354087678E+03  0.46999998093E+01 0. -1.
</event>
<event>
 5   0  0.1057506E-05  0.1600158E+04  0.7818609E-02  0.8820451E-01
        1   -1    0    0  501    0  0.00000000000E+00  0.00000000000E+00  0.13195322437E+04  0.13195322437E+04  0.50400001928E-02 0. -1.
       -1   -1    0    0    0  501  0.00000000000E+00  0.00000000000E+00 -0.48511632570E+03  0.48511632573E+03  0.50400001928E-02 0.  1.
    10030    2    1    2    0    0  0.00000000000E+00  0.00000000000E+00  0.83441591801E+03  0.18046485694E+04  0.16001582844E+04 0.  0.
        5    1    3    3  502    0 -0.18863481277E+03 -0.12403275470E+03  0.12828492563E+04  0.13025711195E+04  0.46999998093E+01 0. -1.
       -5    1    3    3    0  502  0.18863481277E+03  0.12403275470E+03 -0.44843333833E+03  0.50207744996E+03  0.46999998093E+01 0.  1.
</event>
<event>
 5   0  0.1060251E-05  0.1600279E+04  0.7818609E-02  0.8820377E-01
       -1   -1    0    0    0  501  0.00000000000E+00  0.00000000000E+00  0.98029918717E+03  0.98029918719E+03  0.50400001928E-02 0.  1.
        1   -1    0    0  501    0  0.00000000000E+00  0.00000000000E+00 -0.65308959622E+03  0.65308959624E+03  0.50400001928E-02 0. -1.
    10030    2    1    2    0    0  0.00000000000E+00  0.00000000000E+00  0.32720959095E+03  0.16333887834E+04  0.16002789761E+04 0.  0.
        1    1    3    3  502    0 -0.31249490512E+02 -0.72184207552E+03 -0.18729692619E+03  0.74639979316E+03  0.50400001928E-02 0. -1.
       -1    1    3    3    0  502  0.31249490512E+02  0.72184207552E+03  0.51450651714E+03  0.88698899027E+03  0.50400001928E-02 0.  1.
</event>
<event>
 5   0  0.1990948E-05  0.1600733E+04  0.7818609E-02  0.8820098E-01
       -2   -1    0    0    0  501  0.00000000000E+00  0.00000000000E+00  0.15502252618E+04  0.15502252618E+04  0.25500000920E-02 0. -1.
        2   -1    0    0  501    0  0.00000000000E+00  0.00000000000E+00 -0.41322150203E+03  0.41322150203E+03  0.25500000920E-02 0.  1.
    10030    2    1    2    0    0  0.00000000000E+00  0.00000000000E+00  0.11370037598E+04  0.19634467639E+04  0.16007328461E+04 0.  0.
        4    1    3    3  502    0  0.18784498581E+03  0.72252389016E+03  0.92242913791E+03  0.11866775627E+04  0.12699999809E+01 0. -1.
       -4    1    3    3    0  502 -0.18784498581E+03 -0.72252389016E+03  0.21457462188E+03  0.77676920111E+03  0.12699999809E+01 0.  1.
</event>
<event>
 5   0  0.1060251E-05  0.1600259E+04  0.7818609E-02  0.8820389E-01
       -1   -1    0    0    0  501  0.00000000000E+00  0.00000000000E+00  0.70493519045E+03  0.70493519046E+03  0.50400001928E-02 0. -1.
        1   -1    0    0  501    0  0.00000000000E+00  0.00000000000E+00 -0.90817905231E+03  0.90817905233E+03  0.50400001928E-02 0.  1.
    10030    2    1    2    0    0  0.00000000000E+00  0.00000000000E+00 -0.20324386187E+03  0.16131142428E+04  0.16002591955E+04 0.  0.
        1    1    3    3  502    0 -0.33945503185E+03  0.72241236123E+03 -0.15772904704E+03  0.81362632124E+03  0.50400001928E-02 0. -1.
       -1    1    3    3    0  502  0.33945503185E+03 -0.72241236123E+03 -0.45514814824E+02  0.79948792155E+03  0.50400001928E-02 0.  1.
</event>
<event>
 5   0  0.1990948E-05  0.1597054E+04  0.7818609E-02  0.8822360E-01
       -2   -1    0    0    0  501  0.00000000000E+00  0.00000000000E+00  0.76566167315E+03  0.76566167316E+03  0.25500000920E-02 0.  1.
        2   -1    0    0  501    0  0.00000000000E+00  0.00000000000E+00 -0.83280271956E+03  0.83280271957E+03  0.25500000920E-02 0. -1.
    10030    2    1    2    0    0  0.00000000000E+00  0.00000000000E+00 -0.67141046411E+02  0.15984643927E+04  0.15970536919E+04 0.  0.
        4    1    3    3  502    0  0.73404739699E+03  0.30685935305E+03 -0.10186030983E+03  0.80210060416E+03  0.12699999809E+01 0.  1.
       -4    1    3    3    0  502 -0.73404739699E+03 -0.30685935305E+03  0.34719263415E+02  0.79636378856E+03  0.12699999809E+01 0. -1.
</event>
<event>
 5   0  0.2046108E-05  0.1599921E+04  0.7818609E-02  0.8820597E-01
        2   -1    0    0  501    0  0.00000000000E+00  0.00000000000E+00  0.13824964466E+04  0.13824964466E+04  0.25500000920E-02 0. -1.
       -2   -1    0    0    0  501  0.00000000000E+00  0.00000000000E+00 -0.46288485449E+03  0.46288485450E+03  0.25500000920E-02 0.  1.
    10030    2    1    2    0    0  0.00000000000E+00  0.00000000000E+00  0.91961159213E+03  0.18453813011E+04  0.15999208312E+04 0.  0.
        1    1    3    3  502    0  0.70483120351E+02 -0.65539824431E+03 -0.62964656996E+02  0.66217767778E+03  0.50400001928E-02 0.  1.
       -1    1    3    3    0  502 -0.70483120351E+02  0.65539824431E+03  0.98257624912E+03  0.11832036233E+04  0.50400001928E-02 0. -1.
</event>
<event>
 5   0  0.7597000E-06  0.1599838E+04  0.7818609E-02  0.8820648E-01
       -4   -1    0    0    0  501  0.00000000000E+00  0.00000000000E+00  0.87210017544E+03  0.87210110016E+03  0.12699999809E+01 0. -1.
        4   -1    0    0  501    0  0.00000000000E+00  0.00000000000E+00 -0.73371012061E+03  0.73371121974E+03  0.12699999809E+01 0.  1.
    10030    2    1    2    0    0  0.00000000000E+00  0.00000000000E+00  0.13839005483E+03  0.16058123199E+04  0.15998379291E+04 0.  0.
        3    1    3    3  502    0 -0.56690852734E+03 -0.88687672022E+01  0.63557735665E+03  0.85171739438E+03  0.10100000352E+00 0. -1.
       -3    1    3    3    0  502  0.56690852734E+03  0.88687672022E+01 -0.49718730182E+03  0.75409492552E+03  0.10100000352E+00 0.  1.
</event>
<event>
 5   0  0.1060251E-05  0.1600816E+04  0.7818609E-02  0.8820047E-01
       -1   -1    0    0    0  501  0.00000000000E+00  0.00000000000E+00  0.72023603567E+03  0.72023603569E+03  0.50400001928E-02 0. -1.
        1   -1    0    0  501    0  0.00000000000E+00  0.00000000000E+00 -0.88950445234E+03  0.88950445236E+03  0.50400001928E-02 0.  1.
    10030    2    1    2    0    0  0.00000000000E+00  0.00000000000E+00 -0.16926841668E+03  0.16097404880E+04  0.16008162424E+04 0.  0.
        1    1    3    3  502    0  0.74721673122E+00 -0.33506525180E+03  0.64631830689E+03  0.72800867793E+03  0.50400001928E-02 0. -1.
       -1    1    3    3    0  502 -0.74721673122E+00  0.33506525180E+03 -0.81558672356E+03  0.88173181012E+03  0.50400001928E-02 0.  1.
</event>
<event>
 5   0  0.7597000E-06  0.1599745E+04  0.7818609E-02  0.8820705E-01
       -3   -1    0    0    0  501  0.00000000000E+00  0.00000000000E+00  0.35477662954E+03  0.35477664392E+03  0.10100000352E+00 0. -1.
        3   -1    0    0  501    0  0.00000000000E+00  0.00000000000E+00 -0.18033763543E+04  0.18033763571E+04  0.10100000352E+00 0.  1.
    10030    2    1    2    0    0  0.00000000000E+00  0.00000000000E+00 -0.14485997248E+04  0.21581530010E+04  0.15997447338E+04 0.  0.
        4    1    3    3  502    0  0.54008466473E+03  0.53030843151E+03 -0.10731715719E+04  0.13132468592E+04  0.12699999809E+01 0.  1.
       -4    1    3    3    0  502 -0.54008466473E+03 -0.53030843151E+03 -0.37542815282E+03  0.84490614179E+03  0.12699999809E+01 0. -1.
</event>
<event>
 5   0  0.1990948E-05  0.1600116E+04  0.7818609E-02  0.8820477E-01
        2   -1    0    0  501    0  0.00000000000E+00  0.00000000000E+00  0.16528675932E+04  0.16528675932E+04  0.25500000920E-02 0.  1.
       -2   -1    0    0    0  501  0.00000000000E+00  0.00000000000E+00 -0.38726213534E+03  0.38726213535E+03  0.25500000920E-02 0. -1.
    10030    2    1    2    0    0  0.00000000000E+00  0.00000000000E+00  0.12656054579E+04  0.20401297286E+04  0.16001162878E+04 0.  0.
        4    1    3    3  502    0 -0.63697448770E+03  0.19101263138E+03  0.11999491878E+04  0.13718972226E+04  0.12699999809E+01 0.  1.
       -4    1    3    3    0  502  0.63697448770E+03 -0.19101263138E+03  0.65656270149E+02  0.66823250598E+03  0.12699999809E+01 0. -1.
</event>
<event>
 5   0  0.1090674E-05  0.1600089E+04  0.7818609E-02  0.8820494E-01
       -1   -1    0    0    0  501  0.00000000000E+00  0.00000000000E+00  0.11267235639E+04  0.11267235639E+04  0.50400001928E-02 0. -1.
        1   -1    0    0  501    0  0.00000000000E+00  0.00000000000E+00 -0.56808152314E+03  0.56808152316E+03  0.50400001928E-02 0.  1.
    10030    2    1    2    0    0  0.00000000000E+00  0.00000000000E+00  0.55864204075E+03  0.16948050871E+04  0.16000885455E+04 0.  0.
        4    1    3    3  502    0 -0.60451522538E+03  0.34869284563E+03  0.69368663408E+03  0.98398583197E+03  0.12699999809E+01 0. -1.
       -4    1    3    3    0  502  0.60451522538E+03 -0.34869284563E+03 -0.13504459334E+03  0.71081925509E+03  0.12699999809E+01 0.  1.
</event>
<event>
 5   0  0.1990948E-05  0.1599551E+04  0.7818609E-02  0.8820824E-01
        2   -1    0    0  501    0  0.00000000000E+00  0.00000000000E+00  0.15437039714E+04  0.15437039714E+04  0.25500000920E-02 0. -1.
       -2   -1    0    0    0  501  0.00000000000E+00  0.00000000000E+00 -0.41435467867E+03  0.41435467867E+03  0.25500000920E-02 0.  1.
    10030    2    1    2    0    0  0.00000000000E+00  0.00000000000E+00  0.11293492927E+04  0.19580586500E+04  0.15995511408E+04 0.  0.
        4    1    3    3  502    0  0.54386270153E+03  0.12878419299E+03  0.12649662221E+04  0.13829364274E+04  0.12699999809E+01 0. -1.
       -4    1    3    3    0  502 -0.54386270153E+03 -0.12878419299E+03 -0.13561692937E+03  0.57512222259E+03  0.12699999809E+01 0.  1.
</event>
<event>
 5   0  0.1126485E-05  0.1599523E+04  0.7818609E-02  0.8820841E-01
        1   -1    0    0  501    0  0.00000000000E+00  0.00000000000E+00  0.21344296250E+04  0.21344296250E+04  0.50400001928E-02 0.  1.
       -1   -1    0    0    0  501  0.00000000000E+00  0.00000000000E+00 -0.29966711536E+03  0.29966711540E+03  0.50400001928E-02 0. -1.
    10030    2    1    2    0    0  0.00000000000E+00  0.00000000000E+00  0.18347625097E+04  0.24340967404E+04  0.15995228898E+04 0.  0.
        2    1    3    3  502    0 -0.42700741597E+03 -0.29096456926E+01 -0.11166737828E+03  0.44137671292E+03  0.25500000920E-02 0. -1.
       -2    1    3    3    0  502  0.42700741597E+03  0.29096456926E+01  0.19464298879E+04  0.19927200275E+04  0.25500000920E-02 0.  1.
</event>
<event>
 5   0  0.2046108E-05  0.1599322E+04  0.7818609E-02  0.8820965E-01
       -2   -1    0    0    0  501  0.00000000000E+00  0.00000000000E+00  0.38123287114E+03  0.38123287115E+03  0.25500000920E-02 0. -1.
        2   -1    0    0  501    0  0.00000000000E+00  0.00000000000E+00 -0.16773416743E+04  0.16773416743E+04  0.25500000920E-02 0.  1.
    10030    2    1    2    0    0  0.00000000000E+00  0.00000000000E+00 -0.12961088031E+04  0.20585745454E+04  0.15993220843E+04 0.  0.
        1    1    3    3  502    0 -0.43751224864E+03  0.18037119406E+03  0.18164325030E+03  0.50689743120E+03  0.50400001928E-02 0. -1.
       -1    1    3    3    0  502  0.43751224864E+03 -0.18037119406E+03 -0.14777520534E+04  0.15516771142E+04  0.50400001928E-02 0.  1.
</event>
<event>
 5   0  0.1081831E-05  0.1597777E+04  0.7818609E-02  0.8821915E-01
       -1   -1    0    0    0  501  0.00000000000E+00  0.00000000000E+00  0.35864332808E+03  0.35864332811E+03  0.50400001928E-02 0.  1.
        1   -1    0    0  501    0  0.00000000000E+00  0.00000000000E+00 -0.17795469570E+04  0.17795469570E+04  0.50400001928E-02 0. -1.
    10030    2    1    2    0    0  0.00000000000E+00  0.00000000000E+00 -0.14209036289E+04  0.21381902851E+04  0.15977767593E+04 0.  0.
        3    1    3    3  502    0 -0.78027943968E+03 -0.16435550300E+03 -0.64524976530E+03  0.10257660577E+04  0.10100000352E+00 0.  1.
       -3    1    3    3    0  502  0.78027943968E+03  0.16435550300E+03 -0.77565386362E+03  0.11124242274E+04  0.10100000352E+00 0. -1.
</event>
<event>
 5   0  0.1060251E-05  0.1599327E+04  0.7818609E-02  0.8820962E-01
       -1   -1    0    0    0  501  0.00000000000E+00  0.00000000000E+00  0.10426481034E+04  0.10426481034E+04  0.50400001928E-02 0. -1.
        1   -1    0    0  501    0  0.00000000000E+00  0.00000000000E+00 -0.61330504248E+03  0.61330504250E+03  0.50400001928E-02 0.  1.
    10030    2    1    2    0    0  0.00000000000E+00  0.00000000000E+00  0.42934306093E+03  0.16559531459E+04  0.15993265325E+04 0.  0.
        1    1    3    3  502    0 -0.24361200283E+03 -0.53492752826E+03  0.77605580750E+03  0.97352806061E+03  0.50400001928E-02 0. -1.
       -1    1    3    3    0  502  0.24361200283E+03  0.53492752826E+03 -0.34671274657E+03  0.68242508531E+03  0.50400001928E-02 0.  1.
</event>
<event>
 5   0  0.1081831E-05  0.1599816E+04  0.7818609E-02  0.8820661E-01
        1   -1    0    0  501    0  0.00000000000E+00  0.00000000000E+00  0.22321813466E+04  0.22321813466E+04  0.50400001928E-02 0.  1.
       -1   -1    0    0    0  501  0.00000000000E+00  0.00000000000E+00 -0.28664908962E+03  0.28664908967E+03  0.50400001928E-02 0. -1.
    10030    2    1    2    0    0  0.00000000000E+00  0.00000000000E+00  0.19455322570E+04  0.25188304363E+04  0.15998159281E+04 0.  0.
        3    1    3    3  502    0 -0.11520220274E+03  0.69171312824E+03  0.36682953809E+03  0.79139277196E+03  0.10100000352E+00 0. -1.
       -3    1    3    3    0  502  0.11520220274E+03 -0.69171312824E+03  0.15787027189E+04  0.17274376643E+04  0.10100000352E+00 0.  1.
</event>
<event>
 5   0  0.2125803E-05  0.1600164E+04  0.7818609E-02  0.8820448E-01
       -2   -1    0    0    0  501  0.00000000000E+00  0.00000000000E+00  0.52667022110E+03  0.52667022110E+03  0.25500000920E-02 0. -1.
        2   -1    0    0  501    0  0.00000000000E+00  0.00000000000E+00 -0.12154300449E+04  0.12154300449E+04  0.25500000920E-02 0.  1.
    10030    2    1    2    0    0  0.00000000000E+00  0.00000000000E+00 -0.68875982376E+03  0.17421002660E+04  0.16001635047E+04 0.  0.
        3    1    3    3  502    0 -0.23367537595E+03  0.76468007274E+03 -0.31376038468E+03  0.85894434288E+03  0.10100000352E+00 0.  1.
       -3    1    3    3    0  502  0.23367537595E+03 -0.76468007274E+03 -0.37499943909E+03  0.88315592309E+03  0.10100000352E+00 0. -1.
</event>
<event>
 5   0  0.2147844E-05  0.1599414E+04  0.7818609E-02  0.8820908E-01
       -2   -1    0    0    0  501  0.00000000000E+00  0.00000000000E+00  0.54120148042E+03  0.54120148043E+03  0.25500000920E-02 0. -1.
        2   -1    0    0  501    0  0.00000000000E+00  0.00000000000E+00 -0.11816877955E+04  0.11816877955E+04  0.25500000920E-02 0.  1.
    10030    2    1    2    0    0  0.00000000000E+00  0.00000000000E+00 -0.64048631503E+03  0.17228892759E+04  0.15994138730E+04 0.  0.
        2    1    3    3  502    0  0.26100705185E+03  0.71116086617E+03 -0.59626034044E+03  0.96405438243E+03  0.25500000920E-02 0.  1.
       -2    1    3    3    0  502 -0.26100705185E+03 -0.71116086617E+03 -0.44225974585E+02  0.75883489345E+03  0.25500000920E-02 0. -1.
</event>
<event>
 5   0  0.1090674E-05  0.1599752E+04  0.7818609E-02  0.8820700E-01
       -1   -1    0    0    0  501  0.00000000000E+00  0.00000000000E+00  0.42144236157E+03  0.42144236160E+03  0.50400001928E-02 0. -1.
        1   -1    0    0  501    0  0.00000000000E+00  0.00000000000E+00 -0.15181241017E+04  0.15181241017E+04  0.50400001928E-02 0.  1.
    10030    2    1    2    0    0  0.00000000000E+00  0.00000000000E+00 -0.10966817401E+04  0.19395664633E+04  0.15997522391E+04 0.  0.
        4    1    3    3  502    0 -0.10573108743E+03  0.32071057987E+03  0.33077906541E+03  0.47270576674E+03  0.12699999809E+01 0. -1.
       -4    1    3    3    0  502  0.10573108743E+03 -0.32071057987E+03 -0.14274608055E+04  0.14668606965E+04  0.12699999809E+01 0.  1.
</event>
<event>
 5   0  0.2046108E-05  0.1599814E+04  0.7818609E-02  0.8820663E-01
        2   -1    0    0  501    0  0.00000000000E+00  0.00000000000E+00  0.21627460734E+04  0.21627460734E+04  0.25500000920E-02 0. -1.
       -2   -1    0    0    0  501  0.00000000000E+00  0.00000000000E+00 -0.29585112870E+03  0.29585112871E+03  0.25500000920E-02 0.  1.
    10030    2    1    2    0    0  0.00000000000E+00  0.00000000000E+00  0.18668949447E+04  0.24585972021E+04  0.15998135728E+04 0.  0.
        1    1    3    3  502    0 -0.59392163936E+03  0.31762874052E+03  0.27026797229E+03  0.72572426402E+03  0.50400001928E-02 0.  1.
       -1    1    3    3    0  502  0.59392163936E+03 -0.31762874052E+03  0.15966269724E+04  0.17328729381E+04  0.50400001928E-02 0. -1.
</event>
<event>
 5   0  0.1994525E-05  0.1599894E+04  0.7818609E-02  0.8820613E-01
       -2   -1    0    0    0  501  0.00000000000E+00  0.00000000000E+00  0.97347958501E+03  0.97347958502E+03  0.25500000920E-02 0. -1.
        2   -1    0    0  501    0  0.00000000000E+00  0.00000000000E+00 -0.65734820674E+03  0.65734820674E+03  0.25500000920E-02 0.  1.
    10030    2    1    2    0    0  0.00000000000E+00  0.00000000000E+00  0.31613137827E+03  0.16308277918E+04  0.15998938209E+04 0.  0.
        5    1    3    3  502    0  0.40451199041E+03  0.39217132337E+02 -0.54425912140E+03  0.67927020770E+03  0.46999998093E+01 0.  1.
       -5    1    3    3    0  502 -0.40451199041E+03 -0.39217132337E+02  0.86039049967E+03  0.95155758406E+03  0.46999998093E+01 0. -1.
</event>
<event>
 5   0  0.1090674E-05  0.1599879E+04  0.7818609E-02  0.8820622E-01
        1   -1    0    0  501    0  0.00000000000E+00  0.00000000000E+00  0.22418340926E+04  0.22418340927E+04  0.50400001928E-02 0. -1.
       -1   -1    0    0    0  501  0.00000000000E+00  0.00000000000E+00 -0.28543739214E+03  0.28543739219E+03  0.50400001928E-02 0.  1.
    10030    2    1    2    0    0  0.00000000000E+00  0.00000000000E+00  0.19563967005E+04  0.25272714848E+04  0.15998790918E+04 0.  0.
        4    1    3    3  502    0  0.27695072538E+02 -0.43812457269E+02 -0.28278040333E+03  0.28749420492E+03  0.12699999809E+01 0.  1.
       -4    1    3    3    0  502 -0.27695072538E+02  0.43812457269E+02  0.22391771038E+04  0.22397772799E+04  0.12699999809E+01 0. -1.
</event>
<event>
 5   0  0.2046108E-05  0.1600596E+04  0.7818609E-02  0.8820182E-01
       -2   -1    0    0    0  501  0.00000000000E+00  0.00000000000E+00  0.57205636392E+03  0.57205636392E+03  0.25500000920E-02 0.  1.
        2   -1    0    0  501    0  0.00000000000E+00  0.00000000000E+00 -0.11196042816E+04  0.11196042816E+04  0.25500000920E-02 0. -1.
    10030    2    1    2    0    0  0.00000000000E+00  0.00000000000E+00 -0.54754791769E+03  0.16916606455E+04  0.16005958320E+04 0.  0.
        1    1    3    3  502    0 -0.24721592361E+03 -0.32378188842E+03  0.45427690594E+03  0.61017860619E+03  0.50400001928E-02 0.  1.
       -1    1    3    3    0  502  0.24721592361E+03  0.32378188842E+03 -0.10018248236E+04  0.10814820393E+04  0.50400001928E-02 0. -1.
</event>
<event>
 5   0  0.1060251E-05  0.1600004E+04  0.7818609E-02  0.8820546E-01
       -1   -1    0    0    0  501  0.00000000000E+00  0.00000000000E+00  0.37474226047E+03  0.37474226050E+03  0.50400001928E-02 0.  1.
        1   -1    0    0  501    0  0.00000000000E+00  0.00000000000E+00 -0.17078481121E+04  0.17078481121E+04  0.50400001928E-02 0. -1.
    10030    2    1    2    0    0  0.00000000000E+00  0.00000000000E+00 -0.13331058517E+04  0.20825903726E+04  0.16000035776E+04 0.  0.
        1    1    3    3  502    0 -0.25778487879E+03  0.17012718242E+03  0.29400671861E+03  0.42642262199E+03  0.50400001928E-02 0.  1.
       -1    1    3    3    0  502  0.25778487879E+03 -0.17012718242E+03 -0.16271125703E+04  0.16561677507E+04  0.50400001928E-02 0. -1.
</event>
<event>
 5   0  0.2046108E-05  0.1593781E+04  0.7818609E-02  0.8824378E-01
       -2   -1    0    0    0  501  0.00000000000E+00  0.00000000000E+00  0.41262003685E+03  0.41262003686E+03  0.25500000920E-02 0. -1.
        2   -1    0    0  501    0  0.00000000000E+00  0.00000000000E+00 -0.15390297767E+04  0.15390297767E+04  0.25500000920E-02 0.  1.
    10030    2    1    2    0    0  0.00000000000E+00  0.00000000000E+00 -0.11264097399E+04  0.19516498136E+04  0.15937810680E+04 0.  0.
        1    1    3    3  502    0  0.43544475127E+03 -0.42132070731E+03 -0.11970289122E+04  0.13416413404E+04  0.50400001928E-02 0.  1.
       -1    1    3    3    0  502 -0.43544475127E+03  0.42132070731E+03  0.70619172268E+02  0.61000847316E+03  0.50400001928E-02 0. -1.
</event>
<event>
 5   0  0.1090674E-05  0.1600220E+04  0.7818609E-02  0.8820413E-01
        1   -1    0    0  501    0  0.00000000000E+00  0.00000000000E+00  0.11392941159E+04  0.11392941159E+04  0.50400001928E-02 0.  1.
       -1   -1    0    0    0  501  0.00000000000E+00  0.00000000000E+00 -0.56190582035E+03  0.56190582038E+03  0.50400001928E-02 0. -1.
    10030    2    1    2    0    0  0.00000000000E+00  0.00000000000E+00  0.57738829556E+03  0.17011999363E+04  0.16002199784E+04 0.  0.
        4    1    3    3  502    0  0.62416940571E+03  0.48624518847E+03  0.41516575669E+03  0.89352450932E+03  0.12699999809E+01 0.  1.
       -4    1    3    3    0  502 -0.62416940571E+03 -0.48624518847E+03  0.16222253886E+03  0.80767542698E+03  0.12699999809E+01 0. -1.
</event>
<event>
 5   0  0.2147844E-05  0.1600158E+04  0.7818609E-02  0.8820451E-01
       -2   -1    0    0    0  501  0.00000000000E+00  0.00000000000E+00  0.28023524151E+03  0.28023524152E+03  0.25500000920E-02 0.  1.
        2   -1    0    0  501    0  0.00000000000E+00  0.00000000000E+00 -0.22842478645E+04  0.22842478645E+04  0.25500000920E-02 0. -1.
    10030    2    1    2    0    0  0.00000000000E+00  0.00000000000E+00 -0.20040126230E+04  0.25644831060E+04  0.16001584322E+04 0.  0.
        2    1    3    3  502    0 -0.43423098960E+03 -0.40088578394E+03 -0.13767659222E+03  0.60681200396E+03  0.25500000920E-02 0.  1.
       -2    1    3    3    0  502  0.43423098960E+03  0.40088578394E+03 -0.18663360308E+04  0.19576711021E+04  0.25500000920E-02 0. -1.
</event>
<event>
 5   0  0.2147844E-05  0.1600724E+04  0.7818609E-02  0.8820103E-01
       -2   -1    0    0    0  501  0.00000000000E+00  0.00000000000E+00  0.22276201481E+03  0.22276201483E+03  0.25500000920E-02 0.  1.
        2   -1    0    0  501    0  0.00000000000E+00  0.00000000000E+00 -0.28756216632E+04  0.28756216632E+04  0.25500000920E-02 0. -1.
    10030    2    1    2    0    0  0.00000000000E+00  0.00000000000E+00 -0.26528596484E+04  0.30983836781E+04  0.16007239307E+04 0.  0.
        2    1    3    3  502    0 -0.35583556403E+03 -0.56573766285E+03 -0.21787622944E+04  0.22789653766E+04  0.25500000920E-02 0. -1.
       -2    1    3    3    0  502  0.35583556403E+03  0.56573766285E+03 -0.47409735397E+03  0.81941830150E+03  0.25500000920E-02 0.  1.
</event>
<event>
 5   0  0.1090674E-05  0.1600895E+04  0.7818609E-02  0.8819998E-01
        1   -1    0    0  501    0  0.00000000000E+00  0.00000000000E+00  0.70085439777E+03  0.70085439779E+03  0.50400001928E-02 0.  1.
       -1   -1    0    0    0  501  0.00000000000E+00  0.00000000000E+00 -0.91419357135E+03  0.91419357137E+03  0.50400001928E-02 0. -1.
    10030    2    1    2    0    0  0.00000000000E+00  0.00000000000E+00 -0.21333917358E+03  0.16150479692E+04  0.16008954806E+04 0.  0.
        4    1    3    3  502    0  0.36426291304E+03  0.31037639009E+03  0.54063653687E+03  0.72201831780E+03  0.12699999809E+01 0.  1.
       -4    1    3    3    0  502 -0.36426291304E+03 -0.31037639009E+03 -0.75397571046E+03  0.89302965136E+03  0.12699999809E+01 0. -1.
</event>
<event>
 5   0  0.1057506E-05  0.1599886E+04  0.7818609E-02  0.8820618E-01
       -1   -1    0    0    0  501  0.00000000000E+00  0.00000000000E+00  0.18217659199E+04  0.18217659199E+04  0.50400001928E-02 0.  1.
        1   -1    0    0  501    0  0.00000000000E+00  0.00000000000E+00 -0.35125754237E+03  0.35125754240E+03  0.50400001928E-02 0. -1.
    10030    2    1    2    0    0  0.00000000000E+00  0.00000000000E+00  0.14705083775E+04  0.21730234623E+04  0.15998862708E+04 0.  0.
        5    1    3    3  502    0  0.29918172032E+03  0.71894614774E+03  0.98382872521E+03  0.12547247968E+04  0.46999998093E+01 0.  1.
       -5    1    3    3    0  502 -0.29918172032E+03 -0.71894614774E+03  0.48667965233E+03  0.91829866553E+03  0.46999998093E+01 0. -1.
</event>
<event>
 5   0  0.1126485E-05  0.1600034E+04  0.7818609E-02  0.8820527E-01
       -1   -1    0    0    0  501  0.00000000000E+00  0.00000000000E+00  0.55567541041E+03  0.55567541043E+03  0.50400001928E-02 0.  1.
        1   -1    0    0  501    0  0.00000000000E+00  0.00000000000E+00 -0.11517999126E+04  0.11517999126E+04  0.50400001928E-02 0. -1.
    10030    2    1    2    0    0  0.00000000000E+00  0.00000000000E+00 -0.59612450215E+03  0.17074753230E+04  0.16000336111E+04 0.  0.
        2    1    3    3  502    0 -0.69036873122E+03 -0.32762271312E+03 -0.45345389907E+02  0.76550756469E+03  0.25500000920E-02 0.  1.
       -2    1    3    3    0  502  0.69036873122E+03  0.32762271312E+03 -0.55077911224E+03  0.94196775831E+03  0.25500000920E-02 0. -1.
</event>
<event>
 5   0  0.2125803E-05  0.1595182E+04  0.7818609E-02  0.8823513E-01
        2   -1    0    0  501    0  0.00000000000E+00  0.00000000000E+00  0.10530437459E+04  0.10530437459E+04  0.25500000920E-02 0. -1.
       -2   -1    0    0    0  501  0.00000000000E+00  0.00000000000E+00 -0.60410737532E+03  0.60410737533E+03  0.25500000920E-02 0.  1.
    10030    2    1    2    0    0  0.00000000000E+00  0.00000000000E+00  0.44893637061E+03  0.16571511213E+04  0.15951821131E+04 0.  0.
        3    1    3    3  502    0  0.60098360709E+03 -0.40022228291E+03  0.57644028943E+03  0.92392780519E+03  0.10100000352E+00 0. -1.
       -3    1    3    3    0  502 -0.60098360709E+03  0.40022228291E+03 -0.12750391881E+03  0.73322331608E+03  0.10100000352E+00 0.  1.
</event>
<event>
 5   0  0.1126485E-05  0.1598658E+04  0.7818609E-02  0.8821373E-01
        1   -1    0    0  501    0  0.00000000000E+00  0.00000000000E+00  0.11882796287E+04  0.11882796287E+04  0.50400001928E-02 0. -1.
       -1   -1    0    0    0  501  0.00000000000E+00  0.00000000000E+00 -0.53769097119E+03  0.53769097121E+03  0.50400001928E-02 0.  1.
    10030    2    1    2    0    0  0.00000000000E+00  0.00000000000E+00  0.65058865753E+03  0.17259705999E+04  0.15986584721E+04 0.  0.
        2    1    3    3  502    0  0.21043278780E+03  0.15567991811E+03 -0.49010602803E+03  0.55562767552E+03  0.25500000920E-02 0.  1.
       -2    1    3    3    0  502 -0.21043278780E+03 -0.15567991811E+03  0.11406946856E+04  0.11703429244E+04  0.25500000920E-02 0. -1.
</event>
<event>
 5   0  0.1060251E-05  0.1600326E+04  0.7818609E-02  0.8820348E-01
       -1   -1    0    0    0  501  0.00000000000E+00  0.00000000000E+00  0.58969908471E+03  0.58969908473E+03  0.50400001928E-02 0. -1.
        1   -1    0    0  501    0  0.00000000000E+00  0.00000000000E+00 -0.10857420773E+04  0.10857420774E+04  0.50400001928E-02 0.  1.
    10030    2    1    2    0    0  0.00000000000E+00  0.00000000000E+00 -0.49604299264E+03  0.16754411621E+04  0.16003263533E+04 0.  0.
        1    1    3    3  502    0 -0.32792856353E+03 -0.45660207078E+03  0.34812490280E+03  0.66122125026E+03  0.50400001928E-02 0. -1.
       -1    1    3    3    0  502  0.32792856353E+03  0.45660207078E+03 -0.84416789545E+03  0.10142199118E+04  0.50400001928E-02 0.  1.
</event>
<event>
 5   0  0.2046108E-05  0.1600815E+04  0.7818609E-02  0.8820047E-01
       -2   -1    0    0    0  501  0.00000000000E+00  0.00000000000E+00  0.93923681740E+03  0.93923681740E+03  0.25500000920E-02 0.  1.
        2   -1    0    0  501    0  0.00000000000E+00  0.00000000000E+00 -0.68209865615E+03  0.68209865615E+03  0.25500000920E-02 0. -1.
    10030    2    1    2    0    0  0.00000000000E+00  0.00000000000E+00  0.25713816125E+03  0.16213354736E+04  0.16008150061E+04 0.  0.
        1    1    3    3  502    0  0.11058155719E+03 -0.51321252467E+03  0.74049670522E+03  0.90771732755E+03  0.50400001928E-02 0.  1.
       -1    1    3    3    0  502 -0.11058155719E+03  0.51321252467E+03 -0.48335854396E+03  0.71361814601E+03  0.50400001928E-02 0. -1.
</event>
<event>
 5   0  0.1057506E-05  0.1588990E+04  0.7818609E-02  0.8827341E-01
        1   -1    0    0  501    0  0.00000000000E+00  0.00000000000E+00  0.98830071408E+03  0.98830071409E+03  0.50400001928E-02 0. -1.
       -1   -1    0    0    0  501  0.00000000000E+00  0.00000000000E+00 -0.63869448703E+03  0.63869448705E+03  0.50400001928E-02 0.  1.
    10030    2    1    2    0    0  0.00000000000E+00  0.00000000000E+00  0.34960622705E+03  0.16269952011E+04  0.15889898900E+04 0.  0.
        5    1    3    3  502    0 -0.74225208817E+03 -0.15751315261E+03 -0.66310687321E+02  0.76168743779E+03  0.46999998093E+01 0. -1.
       -5    1    3    3    0  502  0.74225208817E+03  0.15751315261E+03  0.41591691437E+03  0.86530776334E+03  0.46999998093E+01 0.  1.
</event>
<event>
 5   0  0.1057506E-05  0.1596568E+04  0.7818609E-02  0.8822659E-01
       -1   -1    0    0    0  501  0.00000000000E+00  0.00000000000E+00  0.47155525230E+03  0.47155525233E+03  0.50400001928E-02 0. -1.
        1   -1    0    0  501    0  0.00000000000E+00  0.00000000000E+00 -0.13513942677E+04  0.13513942677E+04  0.50400001928E-02 0.  1.
    10030    2    1    2    0    0  0.00000000000E+00  0.00000000000E+00 -0.87983901536E+03  0.18229495200E+04  0.15965676495E+04 0.  0.
        5    1    3    3  502    0 -0.26910737825E+03  0.73161589742E+03 -0.63620951391E+03  0.10062133163E+04  0.46999998093E+01 0.  1.
       -5    1    3    3    0  502  0.26910737825E+03 -0.73161589742E+03 -0.24362950145E+03  0.81673620366E+03  0.46999998093E+01 0. -1.
</event>
<event>
 5   0  0.2147844E-05  0.1600592E+04  0.7818609E-02  0.8820184E-01
       -2   -1    0    0    0  501  0.00000000000E+00  0.00000000000E+00  0.34637490232E+03  0.34637490233E+03  0.25500000920E-02 0. -1.
        2   -1    0    0  501    0  0.00000000000E+00  0.00000000000E+00 -0.18490761877E+04  0.18490761877E+04  0.25500000920E-02 0.  1.
    10030    2    1    2    0    0  0.00000000000E+00  0.00000000000E+00 -0.15027012854E+04  0.21954510900E+04  0.16005918704E+04 0.  0.
        2    1    3    3  502    0  0.43485463561E+03  0.62087255493E+03 -0.39925512671E+03  0.85672979392E+03  0.25500000920E-02 0. -1.
       -2    1    3    3    0  502 -0.43485463561E+03 -0.62087255493E+03 -0.11034461587E+04  0.13387212961E+04  0.25500000920E-02 0.  1.
</event>
<event>
 5   0  0.2147844E-05  0.1600350E+04  0.7818609E-02  0.8820333E-01
       -2   -1    0    0    0  501  0.00000000000E+00  0.00000000000E+00  0.53574470809E+03  0.53574470809E+03  0.25500000920E-02 0.  1.
        2   -1    0    0  501    0  0.00000000000E+00  0.00000000000E+00 -0.11951208237E+04  0.11951208237E+04  0.25500000920E-02 0. -1.
    10030    2    1    2    0    0  0.00000000000E+00  0.00000000000E+00 -0.65937611559E+03  0.17308655318E+04  0.16003495328E+04 0.  0.
        2    1    3    3  502    0 -0.50924949712E+03  0.23529264399E+03  0.28744478702E+03  0.63033497779E+03  0.25500000920E-02 0.  1.
       -2    1    3    3    0  502  0.50924949712E+03 -0.23529264399E+03 -0.94682090261E+03  0.11005305540E+04  0.25500000920E-02 0. -1.
</event>
<event>
 5   0  0.1081831E-05  0.1599814E+04  0.7818609E-02  0.8820663E-01
       -1   -1    0    0    0  501  0.00000000000E+00  0.00000000000E+00  0.80611862184E+03  0.80611862186E+03  0.50400001928E-02 0.  1.
        1   -1    0    0  501    0  0.00000000000E+00  0.00000000000E+00 -0.79374280982E+03  0.79374280983E+03  0.50400001928E-02 0. -1.
    10030    2    1    2    0    0  0.00000000000E+00  0.00000000000E+00  0.12375812023E+02  0.15998614317E+04  0.15998135641E+04 0.  0.
        3    1    3    3  502    0 -0.75783405636E+02  0.58137876576E+03  0.55036083407E+03  0.80414019407E+03  0.10100000352E+00 0.  1.
       -3    1    3    3    0  502  0.75783405636E+02 -0.58137876576E+03 -0.53798502205E+03  0.79572123762E+03  0.10100000352E+00 0. -1.
</event>
<event>
 5   0  0.1994525E-05  0.1600301E+04  0.7818609E-02  0.8820363E-01
       -2   -1    0    0    0  501  0.00000000000E+00  0.00000000000E+00  0.98897510271E+03  0.98897510271E+03  0.25500000920E-02 0.  1.
        2   -1    0    0  501    0  0.00000000000E+00  0.00000000000E+00 -0.64737831676E+03  0.64737831677E+03  0.25500000920E-02 0. -1.
    10030    2    1    2    0    0  0.00000000000E+00  0.00000000000E+00  0.34159678594E+03  0.16363534195E+04  0.16003012683E+04 0.  0.
        5    1    3    3  502    0 -0.16551506707E+03 -0.10943692705E+03  0.96340448249E+03  0.98363711058E+03  0.46999998093E+01 0.  1.
       -5    1    3    3    0  502  0.16551506707E+03  0.10943692705E+03 -0.62180769654E+03  0.65271630890E+03  0.46999998093E+01 0. -1.
</event>
<event>
 5   0  0.1090674E-05  0.1600729E+04  0.7818609E-02  0.8820100E-01
        1   -1    0    0  501    0  0.00000000000E+00  0.00000000000E+00  0.19089149823E+04  0.19089149823E+04  0.50400001928E-02 0. -1.
       -1   -1    0    0    0  501  0.00000000000E+00  0.00000000000E+00 -0.33557464277E+03  0.33557464281E+03  0.50400001928E-02 0.  1.
    10030    2    1    2    0    0  0.00000000000E+00  0.00000000000E+00  0.15733403396E+04  0.22444896251E+04  0.16007291630E+04 0.  0.
        4    1    3    3  502    0 -0.12537873687E+03  0.71148429597E+03  0.12696594535E+04  0.14608102108E+04  0.12699999809E+01 0. -1.
       -4    1    3    3    0  502  0.12537873687E+03 -0.71148429597E+03  0.30368088605E+03  0.78367941438E+03  0.12699999809E+01 0.  1.
</event>
<event>
 5   0  0.2147844E-05  0.1599960E+04  0.7818609E-02  0.8820573E-01
       -2   -1    0    0    0  501  0.00000000000E+00  0.00000000000E+00  0.44157080463E+03  0.44157080464E+03  0.25500000920E-02 0. -1.
        2   -1    0    0  501    0  0.00000000000E+00  0.00000000000E+00 -0.14492982010E+04  0.14492982010E+04  0.25500000920E-02 0.  1.
    10030    2    1    2    0    0  0.00000000000E+00  0.00000000000E+00 -0.10077273964E+04  0.18908690056E+04  0.15999597155E+04 0.  0.
        2    1    3    3  502    0 -0.19708205225E+03 -0.15799816945E+03  0.39320372132E+03  0.46734775418E+03  0.25500000920E-02 0. -1.
       -2    1    3    3    0  502  0.19708205225E+03  0.15799816945E+03 -0.14009311177E+04  0.14235212515E+04  0.25500000920E-02 0.  1.
</event>
<event>
 5   0  0.1057506E-05  0.1600147E+04  0.7818609E-02  0.8820458E-01
       -1   -1    0    0    0  501  0.00000000000E+00  0.00000000000E+00  0.75692499157E+03  0.75692499159E+03  0.50400001928E-02 0.  1.
        1   -1    0    0  501    0  0.00000000000E+00  0.00000000000E+00 -0.84568146554E+03  0.84568146555E+03  0.50400001928E-02 0. -1.
    10030    2    1    2    0    0  0.00000000000E+00  0.00000000000E+00 -0.88756473970E+02  0.16026064571E+04  0.16001467885E+04 0.  0.
        5    1    3    3  502    0  0.62397118395E+03 -0.34195835156E+03  0.32199795286E+03  0.78101237138E+03  0.46999998093E+01 0. -1.
       -5    1    3    3    0  502 -0.62397118395E+03  0.34195835156E+03 -0.41075442683E+03  0.82159408576E+03  0.46999998093E+01 0.  1.
</event>
<event>
 5   0  0.1057506E-05  0.1606521E+04  0.7818609E-02  0.8816552E-01
       -1   -1    0    0    0  501  0.00000000000E+00  0.00000000000E+00  0.34148913440E+03  0.34148913443E+03  0.50400001928E-02 0. -1.
        1   -1    0    0  501    0  0.00000000000E+00  0.00000000000E+00 -0.18894514399E+04  0.18894514399E+04  0.50400001928E-02 0.  1.
    10030    2    1    2    0    0  0.00000000000E+00  0.00000000000E+00 -0.15479623055E+04  0.22309405744E+04  0.16065206339E+04 0.  0.
        5    1    3    3  502    0 -0.64654993389E+03 -0.87745662555E+02 -0.12340504513E+03  0.66406100132E+03  0.46999998093E+01 0. -1.
       -5    1    3    3    0  502  0.64654993389E+03  0.87745662555E+02 -0.14245572604E+04  0.15668795730E+04  0.46999998093E+01 0.  1.
</event>
<event>
 5   0  0.1126485E-05  0.1600072E+04  0.7818609E-02  0.8820504E-01
        1   -1    0    0  501    0  0.00000000000E+00  0.00000000000E+00  0.73417093396E+03  0.73417093398E+03  0.50400001928E-02 0. -1.
       -1   -1    0    0    0  501  0.00000000000E+00  0.00000000000E+00 -0.87180981684E+03  0.87180981685E+03  0.50400001928E-02 0.  1.
    10030    2    1    2    0    0  0.00000000000E+00  0.00000000000E+00 -0.13763888288E+03  0.16059807508E+04  0.16000717828E+04 0.  0.
        2    1    3    3  502    0 -0.27788512843E+03  0.43001642184E+03 -0.68584424523E+03  0.85587183409E+03  0.25500000920E-02 0.  1.
       -2    1    3    3    0  502  0.27788512843E+03 -0.43001642184E+03  0.54820536236E+03  0.75010891675E+03  0.25500000920E-02 0. -1.
</event>
<event>
 5   0  0.1057506E-05  0.1599356E+04  0.7818609E-02  0.8820944E-01
       -1   -1    0    0    0  501  0.00000000000E+00  0.00000000000E+00  0.81196028209E+03  0.81196028211E+03  0.50400001928E-02 0. -1.
        1   -1    0    0  501    0  0.00000000000E+00  0.00000000000E+00 -0.78758143094E+03  0.78758143096E+03  0.50400001928E-02 0.  1.
    10030    2    1    2    0    0  0.00000000000E+00  0.00000000000E+00  0.24378851148E+02  0.15995417131E+04  0.15993559214E+04 0.  0.
        5    1    3    3  502    0 -0.39915009703E+03 -0.26504270508E+03 -0.62811484032E+03  0.79001188478E+03  0.46999998093E+01 0.  1.
       -5    1    3    3    0  502  0.39915009703E+03  0.26504270508E+03  0.65249369147E+03  0.80952982828E+03  0.46999998093E+01 0. -1.
</event>
<event>
 5   0  0.2147844E-05  0.1599866E+04  0.7818609E-02  0.8820630E-01
       -2   -1    0    0    0  501  0.00000000000E+00  0.00000000000E+00  0.77674472434E+03  0.77674472434E+03  0.25500000920E-02 0.  1.
        2   -1    0    0  501    0  0.00000000000E+00  0.00000000000E+00 -0.82381339253E+03  0.82381339254E+03  0.25500000920E-02 0. -1.
    10030    2    1    2    0    0  0.00000000000E+00  0.00000000000E+00 -0.47068668196E+02  0.16005581169E+04  0.15998658775E+04 0.  0.
        2    1    3    3  502    0  0.55086476122E+03  0.61591126447E+02 -0.60053968961E+03  0.81724743549E+03  0.25500000920E-02 0. -1.
       -2    1    3    3    0  502 -0.55086476122E+03 -0.61591126447E+02  0.55347102142E+03  0.78331068138E+03  0.25500000920E-02 0.  1.
</event>
<event>
 5   0  0.2147844E-05  0.1600402E+04  0.7818609E-02  0.8820301E-01
       -2   -1    0    0    0  501  0.00000000000E+00  0.00000000000E+00  0.68007688420E+03  0.68007688421E+03  0.25500000920E-02 0.  1.
        2   -1    0    0  501    0  0.00000000000E+00  0.00000000000E+00 -0.94154246462E+03  0.94154246463E+03  0.25500000920E-02 0. -1.
    10030    2    1    2    0    0  0.00000000000E+00  0.00000000000E+00 -0.26146558042E+03  0.16216193488E+04  0.16004015317E+04 0.  0.
        2    1    3    3  502    0  0.59496560157E+03 -0.45997462896E+02 -0.67092506723E+03  0.89790883696E+03  0.25500000920E-02 0.  1.
       -2    1    3    3    0  502 -0.59496560157E+03  0.45997462896E+02  0.40945948682E+03  0.72371051187E+03  0.25500000920E-02 0. -1.
</event>
<event>
 5   0  0.1090674E-05  0.1599420E+04  0.7818609E-02  0.8820905E-01
       -1   -1    0    0    0  501  0.00000000000E+00  0.00000000000E+00  0.87889404689E+03  0.87889404691E+03  0.50400001928E-02 0. -1.
        1   -1    0    0  501    0  0.00000000000E+00  0.00000000000E+00 -0.72765984542E+03  0.72765984544E+03  0.50400001928E-02 0.  1.
    10030    2    1    2    0    0  0.00000000000E+00  0.00000000000E+00  0.15123420147E+03  0.16065538923E+04  0.15994197777E+04 0.  0.
        4    1    3    3  502    0 -0.75588100292E+03 -0.45330238643E+02 -0.18267452985E+03  0.77896246243E+03  0.12699999809E+01 0.  1.
       -4    1    3    3    0  502  0.75588100292E+03  0.45330238643E+02  0.33390873132E+03  0.82759142991E+03  0.12699999809E+01 0. -1.
</event>
<event>
 5   0  0.1990948E-05  0.1600034E+04  0.7818609E-02  0.8820527E-01
        2   -1    0    0  501    0  0.00000000000E+00  0.00000000000E+00  0.22679495161E+04  0.22679495161E+04  0.25500000920E-02 0.  1.
       -2   -1    0    0    0  501  0.00000000000E+00  0.00000000000E+00 -0.28220528495E+03  0.28220528497E+03  0.25500000920E-02 0. -1.
    10030    2    1    2    0    0  0.00000000000E+00  0.00000000000E+00  0.19857442311E+04  0.25501548011E+04  0.16000341740E+04 0.  0.
        4    1    3    3  502    0  0.30887382283E+03 -0.44655042395E+03  0.19293173213E+04  0.20042647676E+04  0.12699999809E+01 0.  1.
       -4    1    3    3    0  502 -0.30887382283E+03  0.44655042395E+03  0.56426909851E+02  0.54589003345E+03  0.12699999809E+01 0. -1.
</event>
<event>
 5   0  0.7597000E-06  0.1600256E+04  0.7818609E-02  0.8820391E-01
       -3   -1    0    0    0  501  0.00000000000E+00  0.00000000000E+00  0.39639283144E+03  0.39639284431E+03  0.10100000352E+00 0. -1.
        3   -1    0    0  501    0  0.00000000000E+00  0.00000000000E+00 -0.16150766100E+04  0.16150766131E+04  0.10100000352E+00 0.  1.
    10030    2    1    2    0    0  0.00000000000E+00  0.00000000000E+00 -0.12186837785E+04  0.20114694574E+04  0.16002559877E+04 0.  0.
        4    1    3    3  502    0 -0.20338904469E+03  0.62763808284E+03 -0.40355499676E+02  0.66100442191E+03  0.12699999809E+01 0. -1.
       -4    1    3    3    0  502  0.20338904469E+03 -0.62763808284E+03 -0.11783282788E+04  0.13504650355E+04  0.12699999809E+01 0.  1.
</event>
<event>
 5   0  0.1057506E-05  0.1600217E+04  0.7818609E-02  0.8820415E-01
       -1   -1    0    0    0  501  0.00000000000E+00  0.00000000000E+00  0.10916185857E+04  0.10916185857E+04  0.50400001928E-02 0.  1.
        1   -1    0    0  501    0  0.00000000000E+00  0.00000000000E+00 -0.58644414323E+03  0.58644414325E+03  0.50400001928E-02 0. -1.
    10030    2    1    2    0    0  0.00000000000E+00  0.00000000000E+00  0.50517444245E+03  0.16780627290E+04  0.16002166431E+04 0.  0.
        5    1    3    3  502    0  0.79827270484E+03 -0.35769219959E+02  0.21021761884E+03  0.82627615581E+03  0.46999998093E+01 0. -1.
       -5    1    3    3    0  502 -0.79827270484E+03  0.35769219959E+02  0.29495682362E+03  0.85178657314E+03  0.46999998093E+01 0.  1.
</event>
<event>
 5   0  0.1081831E-05  0.1600551E+04  0.7818609E-02  0.8820210E-01
        1   -1    0    0  501    0  0.00000000000E+00  0.00000000000E+00  0.24502828211E+04  0.24502828211E+04  0.50400001928E-02 0. -1.
       -1   -1    0    0    0  501  0.00000000000E+00  0.00000000000E+00 -0.26137423278E+03  0.26137423283E+03  0.50400001928E-02 0.  1.
    10030    2    1    2    0    0  0.00000000000E+00  0.00000000000E+00  0.21889085883E+04  0.27116570539E+04  0.16005508958E+04 0.  0.
        3    1    3    3  502    0  0.25554088540E+03 -0.75784437414E+03  0.10461905525E+04  0.13168689843E+04  0.10100000352E+00 0. -1.
       -3    1    3    3    0  502 -0.25554088540E+03  0.75784437414E+03  0.11427180358E+04  0.13947880696E+04  0.10100000352E+00 0.  1.
</event>
<event>
 5   0  0.2147844E-05  0.1599776E+04  0.7818609E-02  0.8820686E-01
       -2   -1    0    0    0  501  0.00000000000E+00  0.00000000000E+00  0.11293997615E+04  0.11293997615E+04  0.25500000920E-02 0.  1.
        2   -1    0    0  501    0  0.00000000000E+00  0.00000000000E+00 -0.56651388113E+03  0.56651388113E+03  0.25500000920E-02 0. -1.
    10030    2    1    2    0    0  0.00000000000E+00  0.00000000000E+00  0.56288588036E+03  0.16959136426E+04  0.15997757871E+04 0.  0.
        2    1    3    3  502    0 -0.13732885042E+03  0.70233564617E+02  0.11134846135E+04  0.11241174099E+04  0.25500000920E-02 0.  1.
       -2    1    3    3    0  502  0.13732885042E+03 -0.70233564617E+02 -0.55059873316E+03  0.57179623269E+03  0.25500000920E-02 0. -1.
</event>
<event>
 5   0  0.1060251E-05  0.1598593E+04  0.7818609E-02  0.8821413E-01
        1   -1    0    0  501    0  0.00000000000E+00  0.00000000000E+00  0.59653320611E+03  0.59653320613E+03  0.50400001928E-02 0. -1.
       -1   -1    0    0    0  501  0.00000000000E+00  0.00000000000E+00 -0.10709794088E+04  0.10709794088E+04  0.50400001928E-02 0.  1.
    10030    2    1    2    0    0  0.00000000000E+00  0.00000000000E+00 -0.47444620271E+03  0.16675126150E+04  0.15985928568E+04 0.  0.
        1    1    3    3  502    0  0.63966966143E+03  0.38404104263E+03 -0.53630734716E+03  0.91885274599E+03  0.50400001928E-02 0.  1.
       -1    1    3    3    0  502 -0.63966966143E+03 -0.38404104263E+03  0.61861144456E+02  0.74865986896E+03  0.50400001928E-02 0. -1.
</event>
<event>
 5   0  0.2147844E-05  0.1602668E+04  0.7818609E-02  0.8818910E-01
        2   -1    0    0  501    0  0.00000000000E+00  0.00000000000E+00  0.16755305419E+04  0.16755305419E+04  0.25500000920E-02 0. -1.
       -2   -1    0    0    0  501  0.00000000000E+00  0.00000000000E+00 -0.38324361233E+03  0.38324361234E+03  0.25500000920E-02 0.  1.
    10030    2    1    2    0    0  0.00000000000E+00  0.00000000000E+00  0.12922869296E+04  0.20587741543E+04  0.16026682470E+04 0.  0.
        2    1    3    3  502    0 -0.18340728315E+03 -0.51862900362E+03 -0.10236911012E+03  0.55954777242E+03  0.25500000920E-02 0.  1.
       -2    1    3    3    0  502  0.18340728315E+03  0.51862900362E+03  0.13946560397E+04  0.14992263818E+04  0.25500000920E-02 0. -1.
</event>
<event>
 5   0  0.2147844E-05  0.1599906E+04  0.7818609E-02  0.8820606E-01
       -2   -1    0    0    0  501  0.00000000000E+00  0.00000000000E+00  0.99723746867E+03  0.99723746867E+03  0.25500000920E-02 0.  1.
        2   -1    0    0  501    0  0.00000000000E+00  0.00000000000E+00 -0.64169756104E+03  0.64169756105E+03  0.25500000920E-02 0. -1.
    10030    2    1    2    0    0  0.00000000000E+00  0.00000000000E+00  0.35553990763E+03  0.16389350297E+04  0.15999060615E+04 0.  0.
        2    1    3    3  502    0  0.77608945442E+02 -0.57763595064E+03 -0.38353694598E+03  0.69770124611E+03  0.25500000920E-02 0. -1.
       -2    1    3    3    0  502 -0.77608945442E+02  0.57763595064E+03  0.73907685360E+03  0.94123378362E+03  0.25500000920E-02 0.  1.
</event>
<event>
 5   0  0.1081831E-05  0.1598888E+04  0.7818609E-02  0.8821231E-01
       -1   -1    0    0    0  501  0.00000000000E+00  0.00000000000E+00  0.35216791791E+03  0.35216791795E+03  0.50400001928E-02 0.  1.
        1   -1    0    0  501    0  0.00000000000E+00  0.00000000000E+00 -0.18147894946E+04  0.18147894946E+04  0.50400001928E-02 0. -1.
    10030    2    1    2    0    0  0.00000000000E+00  0.00000000000E+00 -0.14626215767E+04  0.21669574126E+04  0.15988879108E+04 0.  0.
        3    1    3    3  502    0  0.17860655579E+03 -0.30825253601E+03 -0.17012582294E+04  0.17381598031E+04  0.10100000352E+00 0. -1.
       -3    1    3    3    0  502 -0.17860655579E+03  0.30825253601E+03  0.23863665267E+03  0.42879760952E+03  0.10100000352E+00 0.  1.
</event>
<event>
 5   0  0.1060251E-05  0.1599879E+04  0.7818609E-02  0.8820623E-01
       -1   -1    0    0    0  501  0.00000000000E+00  0.00000000000E+00  0.79409172959E+03  0.79409172960E+03  0.50400001928E-02 0. -1.
        1   -1    0    0  501    0  0.00000000000E+00  0.00000000000E+00 -0.80583002450E+03  0.80583002451E+03  0.50400001928E-02 0.  1.
    10030    2    1    2    0    0  0.00000000000E+00  0.00000000000E+00 -0.11738294908E+02  0.15999217541E+04  0.15998786928E+04 0.  0.
        1    1    3    3  502    0  0.47489935547E+03  0.44563591104E+03 -0.47040527171E+03  0.80336908250E+03  0.50400001928E-02 0.  1.
       -1    1    3    3    0  502 -0.47489935547E+03 -0.44563591104E+03  0.45866697680E+03  0.79655267162E+03  0.50400001928E-02 0. -1.
</event>
<event>
 5   0  0.1081831E-05  0.1599784E+04  0.7818609E-02  0.8820680E-01
       -1   -1    0    0    0  501  0.00000000000E+00  0.00000000000E+00  0.50126174929E+03  0.50126174932E+03  0.50400001928E-02 0. -1.
        1   -1    0    0  501    0  0.00000000000E+00  0.00000000000E+00 -0.12764341064E+04  0.12764341065E+04  0.50400001928E-02 0.  1.
    10030    2    1    2    0    0  0.00000000000E+00  0.00000000000E+00 -0.77517235716E+03  0.17776958558E+04  0.15997844768E+04 0.  0.
        3    1    3    3  502    0  0.45120315677E+03 -0.64638037978E+03 -0.23670822530E+03  0.82305691065E+03  0.10100000352E+00 0. -1.
       -3    1    3    3    0  502 -0.45120315677E+03  0.64638037978E+03 -0.53846413186E+03  0.95463894512E+03  0.10100000352E+00 0.  1.
</event>
<event>
 5   0  0.7597000E-06  0.1599699E+04  0.7818609E-02  0.8820733E-01
       -3   -1    0    0    0  501  0.00000000000E+00  0.00000000000E+00  0.67141678179E+03  0.67141678939E+03  0.10100000352E+00 0. -1.
        3   -1    0    0  501    0  0.00000000000E+00  0.00000000000E+00 -0.95284964540E+03  0.95284965075E+03  0.10100000352E+00 0.  1.
    10030    2    1    2    0    0  0.00000000000E+00  0.00000000000E+00 -0.28143286361E+03  0.16242664401E+04  0.15996990379E+04 0.  0.
        4    1    3    3  502    0  0.64434889640E+03 -0.14294383847E+03 -0.59947288942E+03  0.89162088316E+03  0.12699999809E+01 0.  1.
       -4    1    3    3    0  502 -0.64434889640E+03  0.14294383847E+03  0.31804002581E+03  0.73264555698E+03  0.12699999809E+01 0. -1.
</event>
<event>
 5   0  0.1090674E-05  0.1601681E+04  0.7818609E-02  0.8819516E-01
        1   -1    0    0  501    0  0.00000000000E+00  0.00000000000E+00  0.12801359058E+04  0.12801359058E+04  0.50400001928E-02 0. -1.
       -1   -1    0    0    0  501  0.00000000000E+00  0.00000000000E+00 -0.50099807148E+03  0.50099807150E+03  0.50400001928E-02 0.  1.
    10030    2    1    2    0    0  0.00000000000E+00  0.00000000000E+00  0.77913783432E+03  0.17811339773E+04  0.16016811419E+04 0.  0.
        4    1    3    3  502    0  0.55025361237E+03 -0.30612711621E+03 -0.16069572456E+03  0.64985966023E+03  0.12699999809E+01 0.  1.
       -4    1    3    3    0  502 -0.55025361237E+03  0.30612711621E+03  0.93983355888E+03  0.11312743171E+04  0.12699999809E+01 0. -1.
</event>
<event>
 5   0  0.1090674E-05  0.1600096E+04  0.7818609E-02  0.8820489E-01
       -1   -1    0    0    0  501  0.00000000000E+00  0.00000000000E+00  0.95125690776E+03  0.95125690777E+03  0.50400001928E-02 0.  1.
        1   -1    0    0  501    0  0.00000000000E+00  0.00000000000E+00 -0.67287514735E+03  0.67287514737E+03  0.50400001928E-02 0. -1.
    10030    2    1    2    0    0  0.00000000000E+00  0.00000000000E+00  0.27838176041E+03  0.16241320551E+04  0.16000964121E+04 0.  0.
        4    1    3    3  502    0 -0.10322918875E+03  0.27243970947E+03  0.89549818577E+03  0.94169967310E+03  0.12699999809E+01 0.  1.
       -4    1    3    3    0  502  0.10322918875E+03 -0.27243970947E+03 -0.61711642536E+03  0.68243238204E+03  0.12699999809E+01 0. -1.
</event>
<event>
 5   0  0.2046108E-05  0.1599745E+04  0.7818609E-02  0.8820704E-01
       -2   -1    0    0    0  501  0.00000000000E+00  0.00000000000E+00  0.61711758447E+03  0.61711758448E+03  0.25500000920E-02 0.  1.
        2   -1    0    0  501    0  0.00000000000E+00  0.00000000000E+00 -0.10367494836E+04  0.10367494836E+04  0.25500000920E-02 0. -1.
    10030    2    1    2    0    0  0.00000000000E+00  0.00000000000E+00 -0.41963189912E+03  0.16538670681E+04  0.15997454010E+04 0.  0.
        1    1    3    3  502    0 -0.50169929444E+03  0.52644419021E+02  0.43192837709E+03  0.66410521746E+03  0.50400001928E-02 0.  1.
       -1    1    3    3    0  502  0.50169929444E+03 -0.52644419021E+02 -0.85156027621E+03  0.98976185062E+03  0.50400001928E-02 0. -1.
</event>
<event>
 5   0  0.2125803E-05  0.1600480E+04  0.7818609E-02  0.8820253E-01
       -2   -1    0    0    0  501  0.00000000000E+00  0.00000000000E+00  0.57193022200E+03  0.57193022201E+03  0.25500000920E-02 0.  1.
        2   -1    0    0  501    0  0.00000000000E+00  0.00000000000E+00 -0.11196892520E+04  0.11196892520E+04  0.25500000920E-02 0. -1.
    10030    2    1    2    0    0  0.00000000000E+00  0.00000000000E+00 -0.54775903001E+03  0.16916194740E+04  0.16004800811E+04 0.  0.
        3    1    3    3  502    0  0.47399608782E+03 -0.29197986174E+03  0.33371182722E+03  0.64906711884E+03  0.10100000352E+00 0. -1.
       -3    1    3    3    0  502 -0.47399608782E+03  0.29197986174E+03 -0.88147085723E+03  0.10425523552E+04  0.10100000352E+00 0.  1.
</event>
<event>
 5   0  0.1057506E-05  0.1600082E+04  0.7818609E-02  0.8820498E-01
        1   -1    0    0  501    0  0.00000000000E+00  0.00000000000E+00  0.13292057518E+04  0.13292057518E+04  0.50400001928E-02 0. -1.
       -1   -1    0    0    0  501  0.00000000000E+00  0.00000000000E+00 -0.48153969641E+03  0.48153969644E+03  0.50400001928E-02 0.  1.
    10030    2    1    2    0    0  0.00000000000E+00  0.00000000000E+00  0.84766605535E+03  0.18107454482E+04  0.16000816657E+04 0.  0.
        5    1    3    3  502    0 -0.67188894936E+03 -0.38164431955E+03  0.65837882844E+03  0.10151708815E+04  0.46999998093E+01 0. -1.
       -5    1    3    3    0  502  0.67188894936E+03  0.38164431955E+03  0.18928722691E+03  0.79557456670E+03  0.46999998093E+01 0.  1.
</event>
<event>
 5   0  0.2147844E-05  0.1599762E+04  0.7818609E-02  0.8820694E-01
       -2   -1    0    0    0  501  0.00000000000E+00  0.00000000000E+00  0.66479120705E+03  0.66479120706E+03  0.25500000920E-02 0. -1.
        2   -1    0    0  501    0  0.00000000000E+00  0.00000000000E+00 -0.96242242591E+03  0.96242242592E+03  0.25500000920E-02 0.  1.
    10030    2    1    2    0    0  0.00000000000E+00  0.00000000000E+00 -0.29763121886E+03  0.16272136330E+04  0.15997624401E+04 0.  0.
        2    1    3    3  502    0  0.44150713142E+03  0.64483267870E+03  0.24616015390E+02  0.78188469664E+03  0.25500000920E-02 0. -1.
       -2    1    3    3    0  502 -0.44150713142E+03 -0.64483267870E+03 -0.32224723425E+03  0.84532893634E+03  0.25500000920E-02 0.  1.
</event>
<event>
 5   0  0.1990948E-05  0.1600457E+04  0.7818609E-02  0.8820267E-01
       -2   -1    0    0    0  501  0.00000000000E+00  0.00000000000E+00  0.34589939609E+03  0.34589939610E+03  0.25500000920E-02 0.  1.
        2   -1    0    0  501    0  0.00000000000E+00  0.00000000000E+00 -0.18513062584E+04  0.18513062584E+04  0.25500000920E-02 0. -1.
    10030    2    1    2    0    0  0.00000000000E+00  0.00000000000E+00 -0.15054068623E+04  0.21972056545E+04  0.16004570807E+04 0.  0.
        4    1    3    3  502    0 -0.43350196194E+03 -0.51843835013E+03 -0.16435292769E+03  0.69549678046E+03  0.12699999809E+01 0.  1.
       -4    1    3    3    0  502  0.43350196194E+03  0.51843835013E+03 -0.13410539346E+04  0.15017088740E+04  0.12699999809E+01 0. -1.
</event>
<event>
 5   0  0.1090674E-05  0.1600358E+04  0.7818609E-02  0.8820328E-01
        1   -1    0    0  501    0  0.00000000000E+00  0.00000000000E+00  0.91602856857E+03  0.91602856858E+03  0.50400001928E-02 0. -1.
       -1   -1    0    0    0  501  0.00000000000E+00  0.00000000000E+00 -0.69898124599E+03  0.69898124601E+03  0.50400001928E-02 0.  1.
    10030    2    1    2    0    0  0.00000000000E+00  0.00000000000E+00  0.21704732258E+03  0.16150098146E+04  0.16003584477E+04 0.  0.
        4    1    3    3  502    0  0.68951623442E+03  0.30569781687E+03  0.37818036167E+03  0.84374509872E+03  0.12699999809E+01 0. -1.
       -4    1    3    3    0  502 -0.68951623442E+03 -0.30569781687E+03 -0.16113303909E+03  0.77126471587E+03  0.12699999809E+01 0.  1.
</event>
<event>
 5   0  0.1994525E-05  0.1599498E+04  0.7818609E-02  0.8820857E-01
        2   -1    0    0  501    0  0.00000000000E+00  0.00000000000E+00  0.93429012196E+03  0.93429012196E+03  0.25500000920E-02 0. -1.
       -2   -1    0    0    0  501  0.00000000000E+00  0.00000000000E+00 -0.68458198423E+03  0.68458198423E+03  0.25500000920E-02 0.  1.
    10030    2    1    2    0    0  0.00000000000E+00  0.00000000000E+00  0.24970813773E+03  0.16188721062E+04  0.15994976531E+04 0.  0.
        5    1    3    3  502    0  0.12107300755E+03  0.70077706003E+03  0.49511163589E+03  0.86654762305E+03  0.46999998093E+01 0.  1.
       -5    1    3    3    0  502 -0.12107300755E+03 -0.70077706003E+03 -0.24540349816E+03  0.75232448314E+03  0.46999998093E+01 0. -1.
</event>
<event>
 5   0  0.2125803E-05  0.1599884E+04  0.7818609E-02  0.8820619E-01
       -2   -1    0    0    0  501  0.00000000000E+00  0.00000000000E+00  0.46019270049E+03  0.46019270049E+03  0.25500000920E-02 0. -1.
        2   -1    0    0  501    0  0.00000000000E+00  0.00000000000E+00 -0.13905205101E+04  0.13905205101E+04  0.25500000920E-02 0.  1.
    10030    2    1    2    0    0  0.00000000000E+00  0.00000000000E+00 -0.93032780959E+03  0.18507132106E+04  0.15998842316E+04 0.  0.
        3    1    3    3  502    0  0.12935780741E+03  0.70373343378E+03 -0.87891788251E+03  0.11333449795E+04  0.10100000352E+00 0.  1.
       -3    1    3    3    0  502 -0.12935780741E+03 -0.70373343378E+03 -0.51409927081E+02  0.71736823108E+03  0.10100000352E+00 0. -1.
</event>
<event>
 5   0  0.1090674E-05  0.1601813E+04  0.7818609E-02  0.8819435E-01
       -1   -1    0    0    0  501  0.00000000000E+00  0.00000000000E+00  0.52913075796E+03  0.52913075798E+03  0.50400001928E-02 0. -1.
        1   -1    0    0  501    0  0.00000000000E+00  0.00000000000E+00 -0.12122731145E+04  0.12122731145E+04  0.50400001928E-02 0.  1.
    10030    2    1    2    0    0  0.00000000000E+00  0.00000000000E+00 -0.68314235658E+03  0.17414038725E+04  0.16018127131E+04 0.  0.
        4    1    3    3  502    0  0.10059591102E+02 -0.38825262705E+03  0.41990289056E+03  0.57198019912E+03  0.12699999809E+01 0. -1.
       -4    1    3    3    0  502 -0.10059591102E+02  0.38825262705E+03 -0.11030452471E+04  0.11694236734E+04  0.12699999809E+01 0.  1.
</event>
<event>
 5   0  0.1081831E-05  0.1600308E+04  0.7818609E-02  0.8820359E-01
       -1   -1    0    0    0  501  0.00000000000E+00  0.00000000000E+00  0.89980686821E+03  0.89980686822E+03  0.50400001928E-02 0. -1.
        1   -1    0    0  501    0  0.00000000000E+00  0.00000000000E+00 -0.71153725457E+03  0.71153725459E+03  0.50400001928E-02 0.  1.
    10030    2    1    2    0    0  0.00000000000E+00  0.00000000000E+00  0.18826961364E+03  0.16113441228E+04  0.16003076063E+04 0.  0.
        3    1    3    3  502    0 -0.35076926129E+03  0.64195972542E+02  0.81537491583E+03  0.88994183019E+03  0.10100000352E+00 0. -1.
       -3    1    3    3    0  502  0.35076926129E+03 -0.64195972542E+02 -0.62710530219E+03  0.72140229262E+03  0.10100000352E+00 0.  1.
</event>
<event>
 5   0  0.1990948E-05  0.1599664E+04  0.7818609E-02  0.8820754E-01
       -2   -1    0    0    0  501  0.00000000000E+00  0.00000000000E+00  0.40994958691E+03  0.40994958691E+03  0.25500000920E-02 0.  1.
        2   -1    0    0  501    0  0.00000000000E+00  0.00000000000E+00 -0.15605128944E+04  0.15605128944E+04  0.25500000920E-02 0. -1.
    10030    2    1    2    0    0  0.00000000000E+00  0.00000000000E+00 -0.11505633075E+04  0.19704624813E+04  0.15996644854E+04 0.  0.
        4    1    3    3  502    0 -0.56573292803E+03 -0.29328614109E+03  0.20148721440E+02  0.63755634283E+03  0.12699999809E+01 0.  1.
       -4    1    3    3    0  502  0.56573292803E+03  0.29328614109E+03 -0.11707120289E+04  0.13329061385E+04  0.12699999809E+01 0. -1.
</event>
<event>
 5   0  0.2125803E-05  0.1600155E+04  0.7818609E-02  0.8820453E-01
       -2   -1    0    0    0  501  0.00000000000E+00  0.00000000000E+00  0.63271392066E+03  0.63271392066E+03  0.25500000920E-02 0.  1.
        2   -1    0    0  501    0  0.00000000000E+00  0.00000000000E+00 -0.10117121011E+04  0.10117121011E+04  0.25500000920E-02 0. -1.
    10030    2    1    2    0    0  0.00000000000E+00  0.00000000000E+00 -0.37899818041E+03  0.16444260217E+04  0.16001554050E+04 0.  0.
        3    1    3    3  502    0  0.54046677477E+02 -0.42206134062E+03 -0.88578956186E+03  0.98269017330E+03  0.10100000352E+00 0. -1.
       -3    1    3    3    0  502 -0.54046677477E+02  0.42206134062E+03  0.50679138145E+03  0.66173584844E+03  0.10100000352E+00 0.  1.
</event>
<event>
 5   0  0.2147844E-05  0.1600547E+04  0.7818609E-02  0.8820212E-01
       -2   -1    0    0    0  501  0.00000000000E+00  0.00000000000E+00  0.31870881803E+03  0.31870881804E+03  0.25500000920E-02 0. -1.
        2   -1    0    0  501    0  0.00000000000E+00  0.00000000000E+00 -0.20094760193E+04  0.20094760193E+04  0.25500000920E-02 0.  1.
    10030    2    1    2    0    0  0.00000000000E+00  0.00000000000E+00 -0.16907672013E+04  0.23281848374E+04  0.16005470652E+04 0.  0.
        2    1    3    3  502    0 -0.51238963854E+03 -0.11775439629E+03  0.32256973140E+02  0.52673499205E+03  0.25500000920E-02 0. -1.
       -2    1    3    3    0  502  0.51238963854E+03  0.11775439629E+03 -0.17230241744E+04  0.18014498453E+04  0.25500000920E-02 0.  1.
</event>
<event>
 5   0  0.2147844E-05  0.1600531E+04  0.7818609E-02  0.8820222E-01
        2   -1    0    0  501    0  0.00000000000E+00  0.00000000000E+00  0.91938350058E+03  0.91938350059E+03  0.25500000920E-02 0.  1.
       -2   -1    0    0    0  501  0.00000000000E+00  0.00000000000E+00 -0.69658089816E+03  0.69658089816E+03  0.25500000920E-02 0. -1.
    10030    2    1    2    0    0  0.00000000000E+00  0.00000000000E+00  0.22280260242E+03  0.16159643988E+04  0.16005311426E+04 0.  0.
        2    1    3    3  502    0 -0.64020122929E+02  0.67981245639E+03  0.53277612972E+03  0.86607964785E+03  0.25500000920E-02 0.  1.
       -2    1    3    3    0  502  0.64020122929E+02 -0.67981245639E+03 -0.30997352730E+03  0.74988475090E+03  0.25500000920E-02 0. -1.
</event>
<event>
 5   0  0.1990948E-05  0.1592621E+04  0.7818609E-02  0.8825094E-01
        2   -1    0    0  501    0  0.00000000000E+00  0.00000000000E+00  0.19842510565E+04  0.19842510565E+04  0.25500000920E-02 0.  1.
       -2   -1    0    0    0  501  0.00000000000E+00  0.00000000000E+00 -0.31957182677E+03  0.31957182678E+03  0.25500000920E-02 0. -1.
    10030    2    1    2    0    0  0.00000000000E+00  0.00000000000E+00  0.16646792298E+04  0.23038228833E+04  0.15926214050E+04 0.  0.
        4    1    3    3  502    0 -0.46085677586E+03 -0.20379927814E+03  0.17242774862E+04  0.17964012847E+04  0.12699999809E+01 0.  1.
       -4    1    3    3    0  502  0.46085677586E+03  0.20379927814E+03 -0.59598256408E+02  0.50742159857E+03  0.12699999809E+01 0. -1.
</event>
<event>
 5   0  0.1994525E-05  0.1602546E+04  0.7818609E-02  0.8818985E-01
        2   -1    0    0  501    0  0.00000000000E+00  0.00000000000E+00  0.68378036871E+03  0.68378036872E+03  0.25500000920E-02 0.  1.
       -2   -1    0    0    0  501  0.00000000000E+00  0.00000000000E+00 -0.93895446660E+03  0.93895446660E+03  0.25500000920E-02 0. -1.
    10030    2    1    2    0    0  0.00000000000E+00  0.00000000000E+00 -0.25517409788E+03  0.16227348353E+04  0.16025462631E+04 0.  0.
        5    1    3    3  502    0  0.32796747983E+03 -0.71163196406E+03 -0.29712937359E+03  0.83802784844E+03  0.46999998093E+01 0.  1.
       -5    1    3    3    0  502 -0.32796747983E+03  0.71163196406E+03  0.41955275712E+02  0.78470698688E+03  0.46999998093E+01 0. -1.
</event>
<event>
 5   0  0.1994525E-05  0.1600642E+04  0.7818609E-02  0.8820153E-01
       -2   -1    0    0    0  501  0.00000000000E+00  0.00000000000E+00  0.54039416457E+03  0.54039416458E+03  0.25500000920E-02 0.  1.
        2   -1    0    0  501    0  0.00000000000E+00  0.00000000000E+00 -0.11852718098E+04  0.11852718098E+04  0.25500000920E-02 0. -1.
    10030    2    1    2    0    0  0.00000000000E+00  0.00000000000E+00 -0.64487764525E+03  0.17256659744E+04  0.16006423329E+04 0.  0.
        5    1    3    3  502    0 -0.13679606558E+03 -0.66689963934E+03 -0.77604400280E+03  0.10323442627E+04  0.46999998093E+01 0. -1.
       -5    1    3    3    0  502  0.13679606558E+03  0.66689963934E+03  0.13116635756E+03  0.69332171166E+03  0.46999998093E+01 0.  1.
</event>
<event>
 5   0  0.2125803E-05  0.1599287E+04  0.7818609E-02  0.8820986E-01
       -2   -1    0    0    0  501  0.00000000000E+00  0.00000000000E+00  0.70185505045E+03  0.70185505045E+03  0.25500000920E-02 0. -1.
        2   -1    0    0  501    0  0.00000000000E+00  0.00000000000E+00 -0.91105673479E+03  0.91105673479E+03  0.25500000920E-02 0.  1.
    10030    2    1    2    0    0  0.00000000000E+00  0.00000000000E+00 -0.20920168434E+03  0.16129117852E+04  0.15992870544E+04 0.  0.
        3    1    3    3  502    0  0.29316179065E+03 -0.69542591692E+03  0.16197794248E+03  0.77187946304E+03  0.10100000352E+00 0. -1.
       -3    1    3    3    0  502 -0.29316179065E+03  0.69542591692E+03 -0.37117962682E+03  0.84103232220E+03  0.10100000352E+00 0.  1.
</event>
<event>
 5   0  0.1060251E-05  0.1593846E+04  0.7818609E-02  0.8824338E-01
        1   -1    0    0  501    0  0.00000000000E+00  0.00000000000E+00  0.64562715336E+03  0.64562715338E+03  0.50400001928E-02 0. -1.
       -1   -1    0    0    0  501  0.00000000000E+00  0.00000000000E+00 -0.98367317400E+03  0.98367317401E+03  0.50400001928E-02 0.  1.
    10030    2    1    2    0    0  0.00000000000E+00  0.00000000000E+00 -0.33804602063E+03  0.16293003274E+04  0.15938458033E+04 0.  0.
        1    1    3    3  502    0  0.19845626106E+03  0.76757092065E+03 -0.86378432674E+02  0.79750312817E+03  0.50400001928E-02 0. -1.
       -1    1    3    3    0  502 -0.19845626106E+03 -0.76757092065E+03 -0.25166758796E+03  0.83179719922E+03  0.50400001928E-02 0.  1.
</event>
<event>
 5   0  0.1060251E-05  0.1598925E+04  0.7818609E-02  0.8821209E-01
        1   -1    0    0  501    0  0.00000000000E+00  0.00000000000E+00  0.76137643837E+03  0.76137643838E+03  0.50400001928E-02 0. -1.
       -1   -1    0    0    0  501  0.00000000000E+00  0.00000000000E+00 -0.83945404177E+03  0.83945404179E+03  0.50400001928E-02 0.  1.
    10030    2    1    2    0    0  0.00000000000E+00  0.00000000000E+00 -0.78077603407E+02  0.16008304802E+04  0.15989252997E+04 0.  0.
        1    1    3    3  502    0  0.59935138743E+03 -0.52681491255E+03 -0.87928234216E+02  0.80279973349E+03  0.50400001928E-02 0. -1.
       -1    1    3    3    0  502 -0.59935138743E+03  0.52681491255E+03  0.98506308092E+01  0.79803074668E+03  0.50400001928E-02 0.  1.
</event>
<event>
 5   0  0.2147844E-05  0.1599608E+04  0.7818609E-02  0.8820789E-01
       -2   -1    0    0    0  501  0.00000000000E+00  0.00000000000E+00  0.51590573624E+03  0.51590573625E+03  0.25500000920E-02 0. -1.
        2   -1    0    0  501    0  0.00000000000E+00  0.00000000000E+00 -0.12399282719E+04  0.12399282719E+04  0.25500000920E-02 0.  1.
    10030    2    1    2    0    0  0.00000000000E+00  0.00000000000E+00 -0.72402253562E+03  0.17558340081E+04  0.15996075869E+04 0.  0.
        2    1    3    3  502    0 -0.60665921001E+03  0.48857629050E+03 -0.16277993808E+03  0.79576346798E+03  0.25500000920E-02 0. -1.
       -2    1    3    3    0  502  0.60665921001E+03 -0.48857629050E+03 -0.56124259754E+03  0.96007054013E+03  0.25500000920E-02 0.  1.
</event>
<event>
 5   0  0.1990948E-05  0.1599885E+04  0.7818609E-02  0.8820619E-01
       -2   -1    0    0    0  501  0.00000000000E+00  0.00000000000E+00  0.12448181942E+04  0.12448181942E+04  0.25500000920E-02 0.  1.
        2   -1    0    0  501    0  0.00000000000E+00  0.00000000000E+00 -0.51405709028E+03  0.51405709029E+03  0.25500000920E-02 0. -1.
    10030    2    1    2    0    0  0.00000000000E+00  0.00000000000E+00  0.73076110394E+03  0.17588752845E+04  0.15998845194E+04 0.  0.
        4    1    3    3  502    0 -0.77595150574E+03  0.22679157170E+02  0.15308153956E+03  0.79123362800E+03  0.12699999809E+01 0. -1.
       -4    1    3    3    0  502  0.77595150574E+03 -0.22679157170E+02  0.57767956438E+03  0.96764165652E+03  0.12699999809E+01 0.  1.
</event>
<event>
 5   0  0.1057506E-05  0.1599868E+04  0.7818609E-02  0.8820629E-01
       -1   -1    0    0    0  501  0.00000000000E+00  0.00000000000E+00  0.66403705564E+03  0.66403705566E+03  0.50400001928E-02 0. -1.
        1   -1    0    0  501    0  0.00000000000E+00  0.00000000000E+00 -0.96364273997E+03  0.96364273998E+03  0.50400001928E-02 0.  1.
    10030    2    1    2    0    0  0.00000000000E+00  0.00000000000E+00 -0.29960568433E+03  0.16276797956E+04  0.15998681043E+04 0.  0.
        5    1    3    3  502    0 -0.66514938673E+03  0.42828023086E+03 -0.29318080279E+02  0.79166236657E+03  0.46999998093E+01 0. -1.
       -5    1    3    3    0  502  0.66514938673E+03 -0.42828023086E+03 -0.27028760405E+03  0.83601742907E+03  0.46999998093E+01 0.  1.
</event>
<event>
 5   0  0.7597000E-06  0.1599674E+04  0.7818609E-02  0.8820748E-01
       -3   -1    0    0    0  501  0.00000000000E+00  0.00000000000E+00  0.10931606742E+04  0.10931606789E+04  0.10100000352E+00 0. -1.
        3   -1    0    0  501    0  0.00000000000E+00  0.00000000000E+00 -0.58521954941E+03  0.58521955812E+03  0.10100000352E+00 0.  1.
    10030    2    1    2    0    0  0.00000000000E+00  0.00000000000E+00  0.50794112483E+03  0.16783802370E+04  0.15996737273E+04 0.  0.
        5    1    3    3  502    0  0.19578479201E+03  0.77401368534E+03  0.30415760025E+03  0.85437860792E+03  0.46999998093E+01 0. -1.
       -5    1    3    3    0  502 -0.19578479201E+03 -0.77401368534E+03  0.20378352458E+03  0.82400162911E+03  0.46999998093E+01 0.  1.
</event>
<event>
 5   0  0.2046108E-05  0.1599949E+04  0.7818609E-02  0.8820579E-01
       -2   -1    0    0    0  501  0.00000000000E+00  0.00000000000E+00  0.73792194089E+03  0.73792194089E+03  0.25500000920E-02 0. -1.
        2   -1    0    0  501    0  0.00000000000E+00  0.00000000000E+00 -0.86724551203E+03  0.86724551204E+03  0.25500000920E-02 0.  1.
    10030    2    1    2    0    0  0.00000000000E+00  0.00000000000E+00 -0.12932357115E+03  0.16051674529E+04  0.15999493635E+04 0.  0.
        1    1    3    3  502    0  0.33569743150E+03  0.28997623630E+03 -0.73255100409E+03  0.85639357584E+03  0.50400001928E-02 0. -1.
       -1    1    3    3    0  502 -0.33569743150E+03 -0.28997623630E+03  0.60322743294E+03  0.74877387709E+03  0.50400001928E-02 0.  1.
</event>
<event>
 5   0  0.1057506E-05  0.1600023E+04  0.7818609E-02  0.8820534E-01
       -1   -1    0    0    0  501  0.00000000000E+00  0.00000000000E+00  0.10059047779E+04  0.10059047779E+04  0.50400001928E-02 0.  1.
        1   -1    0    0  501    0  0.00000000000E+00  0.00000000000E+00 -0.63626111965E+03  0.63626111967E+03  0.50400001928E-02 0. -1.
    10030    2    1    2    0    0  0.00000000000E+00  0.00000000000E+00  0.36964365827E+03  0.16421658976E+04  0.16000226252E+04 0.  0.
        5    1    3    3  502    0 -0.26937554067E+03 -0.47013707772E+03  0.78888495689E+03  0.95705465829E+03  0.46999998093E+01 0.  1.
       -5    1    3    3    0  502  0.26937554067E+03  0.47013707772E+03 -0.41924129862E+03  0.68511123930E+03  0.46999998093E+01 0. -1.
</event>
<event>
 5   0  0.1090674E-05  0.1599772E+04  0.7818609E-02  0.8820688E-01
       -1   -1    0    0    0  501  0.00000000000E+00  0.00000000000E+00  0.71113523323E+03  0.71113523325E+03  0.50400001928E-02 0.  1.
        1   -1    0    0  501    0  0.00000000000E+00  0.00000000000E+00 -0.89971314311E+03  0.89971314312E+03  0.50400001928E-02 0. -1.
    10030    2    1    2    0    0  0.00000000000E+00  0.00000000000E+00 -0.18857790988E+03  0.16108483764E+04  0.15997721286E+04 0.  0.
        4    1    3    3  502    0 -0.15624176991E+03  0.29675218906E+03  0.63692256946E+03  0.71982312047E+03  0.12699999809E+01 0.  1.
       -4    1    3    3    0  502  0.15624176991E+03 -0.29675218906E+03 -0.82550047934E+03  0.89102525590E+03  0.12699999809E+01 0. -1.
</event>
<event>
 5   0  0.1060251E-05  0.1595847E+04  0.7818609E-02  0.8823103E-01
       -1   -1    0    0    0  501  0.00000000000E+00  0.00000000000E+00  0.18281437640E+04  0.18281437640E+04  0.50400001928E-02 0.  1.
        1   -1    0    0  501    0  0.00000000000E+00  0.00000000000E+00 -0.34826707415E+03  0.34826707418E+03  0.50400001928E-02 0. -1.
    10030    2    1    2    0    0  0.00000000000E+00  0.00000000000E+00  0.14798766898E+04  0.21764108382E+04  0.15958474612E+04 0.  0.
        1    1    3    3  502    0 -0.78336113355E+03  0.12269168303E+03  0.61815228983E+03  0.10053955282E+04  0.50400001928E-02 0. -1.
       -1    1    3    3    0  502  0.78336113355E+03 -0.12269168303E+03  0.86172440000E+03  0.11710153100E+04  0.50400001928E-02 0.  1.
</event>
<event>
 5   0  0.1060251E-05  0.1600314E+04  0.7818609E-02  0.8820355E-01
       -1   -1    0    0    0  501  0.00000000000E+00  0.00000000000E+00  0.42917800234E+03  0.42917800237E+03  0.50400001928E-02 0.  1.
        1   -1    0    0  501    0  0.00000000000E+00  0.00000000000E+00 -0.14918081812E+04  0.14918081812E+04  0.50400001928E-02 0. -1.
    10030    2    1    2    0    0  0.00000000000E+00  0.00000000000E+00 -0.10626301788E+04  0.19209861835E+04  0.16003140381E+04 0.  0.
        1    1    3    3  502    0  0.18598180970E+02  0.73189985716E+03 -0.14377989550E+03  0.74612060126E+03  0.50400001928E-02 0.  1.
       -1    1    3    3    0  502 -0.18598180970E+02 -0.73189985716E+03 -0.91885028332E+03  0.11748655823E+04  0.50400001928E-02 0. -1.
</event>
<event>
 5   0  0.1060251E-05  0.1600019E+04  0.7818609E-02  0.8820536E-01
       -1   -1    0    0    0  501  0.00000000000E+00  0.00000000000E+00  0.32817064726E+03  0.32817064730E+03  0.50400001928E-02 0.  1.
        1   -1    0    0  501    0  0.00000000000E+00  0.00000000000E+00 -0.19502511726E+04  0.19502511726E+04  0.50400001928E-02 0. -1.
    10030    2    1    2    0    0  0.00000000000E+00  0.00000000000E+00 -0.16220805253E+04  0.22784218199E+04  0.16000189870E+04 0.  0.
        1    1    3    3  502    0  0.60626745826E+03  0.50689796399E+03 -0.63370027555E+03  0.10129569666E+04  0.50400001928E-02 0.  1.
       -1    1    3    3    0  502 -0.60626745826E+03 -0.50689796399E+03 -0.98838024974E+03  0.12654648533E+04  0.50400001928E-02 0. -1.
</event>
<event>
 5   0  0.1126485E-05  0.1599463E+04  0.7818609E-02  0.8820878E-01
        1   -1    0    0  501    0  0.00000000000E+00  0.00000000000E+00  0.53518353078E+03  0.53518353081E+03  0.50400001928E-02 0.  1.
       -1   -1    0    0    0  501  0.00000000000E+00  0.00000000000E+00 -0.11950483745E+04  0.11950483745E+04  0.50400001928E-02 0. -1.
    10030    2    1    2    0    0  0.00000000000E+00  0.00000000000E+00 -0.65986484373E+03  0.17302319053E+04  0.15994626705E+04 0.  0.
        2    1    3    3  502    0  0.55633713787E+02  0.67466368189E+02  0.52999623509E+03  0.53716182866E+03  0.25500000920E-02 0.  1.
       -2    1    3    3    0  502 -0.55633713787E+02 -0.67466368189E+02 -0.11898610788E+04  0.11930700767E+04  0.25500000920E-02 0. -1.
</event>
<event>
 5   0  0.1057506E-05  0.1600193E+04  0.7818609E-02  0.8820430E-01
        1   -1    0    0  501    0  0.00000000000E+00  0.00000000000E+00  0.63913193176E+03  0.63913193178E+03  0.50400001928E-02 0.  1.
       -1   -1    0    0    0  501  0.00000000000E+00  0.00000000000E+00 -0.10015992633E+04  0.10015992633E+04  0.50400001928E-02 0. -1.
    10030    2    1    2    0    0  0.00000000000E+00  0.00000000000E+00 -0.36246733155E+03  0.16407311951E+04  0.16001925785E+04 0.  0.
        5    1    3    3  502    0 -0.32335633097E+03 -0.33408521302E+03  0.48638349256E+03  0.67287683730E+03  0.46999998093E+01 0.  1.
       -5    1    3    3    0  502  0.32335633097E+03  0.33408521302E+03 -0.84885082411E+03  0.96785435781E+03  0.46999998093E+01 0. -1.
</event>
<event>
 5   0  0.2125803E-05  0.1600414E+04  0.7818609E-02  0.8820294E-01
        2   -1    0    0  501    0  0.00000000000E+00  0.00000000000E+00  0.10887527591E+04  0.10887527591E+04  0.25500000920E-02 0. -1.
       -2   -1    0    0    0  501  0.00000000000E+00  0.00000000000E+00 -0.58813262346E+03  0.58813262346E+03  0.25500000920E-02 0.  1.
    10030    2    1    2    0    0  0.00000000000E+00  0.00000000000E+00  0.50062013561E+03  0.16768853825E+04  0.16004137171E+04 0.  0.
        3    1    3    3  502    0  0.13159012937E+03 -0.54902689990E+03  0.84449094820E+03  0.10158304341E+04  0.10100000352E+00 0. -1.
       -3    1    3    3    0  502 -0.13159012937E+03  0.54902689990E+03 -0.34387081259E+03  0.66105494848E+03  0.10100000352E+00 0.  1.
</event>
<event>
 5   0  0.1081831E-05  0.1595986E+04  0.7818609E-02  0.8823018E-01
       -1   -1    0    0    0  501  0.00000000000E+00  0.00000000000E+00  0.99629781117E+03  0.99629781119E+03  0.50400001928E-02 0. -1.
        1   -1    0    0  501    0  0.00000000000E+00  0.00000000000E+00 -0.63915920984E+03  0.63915920986E+03  0.50400001928E-02 0.  1.
    10030    2    1    2    0    0  0.00000000000E+00  0.00000000000E+00  0.35713860133E+03  0.16354570210E+04  0.15959861175E+04 0.  0.
        3    1    3    3  502    0  0.27661750220E+03 -0.19682434843E+03  0.91860404054E+03  0.97933163952E+03  0.10100000352E+00 0. -1.
       -3    1    3    3    0  502 -0.27661750220E+03  0.19682434843E+03 -0.56146543921E+03  0.65612538153E+03  0.10100000352E+00 0.  1.
</event>
<event>
 5   0  0.1126485E-05  0.1599321E+04  0.7818609E-02  0.8820965E-01
       -1   -1    0    0    0  501  0.00000000000E+00  0.00000000000E+00  0.46054726268E+03  0.46054726271E+03  0.50400001928E-02 0. -1.
        1   -1    0    0  501    0  0.00000000000E+00  0.00000000000E+00 -0.13884720997E+04  0.13884720997E+04  0.50400001928E-02 0.  1.
    10030    2    1    2    0    0  0.00000000000E+00  0.00000000000E+00 -0.92792483700E+03  0.18490193624E+04  0.15993211370E+04 0.  0.
        2    1    3    3  502    0  0.92049685615E+02  0.49029092736E+03 -0.11865178523E+04  0.12871219646E+04  0.25500000920E-02 0.  1.
       -2    1    3    3    0  502 -0.92049685615E+02 -0.49029092736E+03  0.25859301527E+03  0.56189739777E+03  0.25500000920E-02 0. -1.
</event>
<event>
 5   0  0.1994525E-05  0.1600208E+04  0.7818609E-02  0.8820420E-01
       -2   -1    0    0    0  501  0.00000000000E+00  0.00000000000E+00  0.39971223231E+03  0.39971223232E+03  0.25500000920E-02 0.  1.
        2   -1    0    0  501    0  0.00000000000E+00  0.00000000000E+00 -0.16015680747E+04  0.16015680747E+04  0.25500000920E-02 0. -1.
    10030    2    1    2    0    0  0.00000000000E+00  0.00000000000E+00 -0.12018558424E+04  0.20012803070E+04  0.16002079244E+04 0.  0.
        5    1    3    3  502    0  0.30505251797E+03 -0.49996545877E+03  0.80780620680E+02  0.59124453263E+03  0.46999998093E+01 0.  1.
       -5    1    3    3    0  502 -0.30505251797E+03  0.49996545877E+03 -0.12826364631E+04  0.14100357744E+04  0.46999998093E+01 0. -1.
</event>
<event>
 5   0  0.2125803E-05  0.1598255E+04  0.7818609E-02  0.8821621E-01
       -2   -1    0    0    0  501  0.00000000000E+00  0.00000000000E+00  0.10185019552E+04  0.10185019552E+04  0.25500000920E-02 0.  1.
        2   -1    0    0  501    0  0.00000000000E+00  0.00000000000E+00 -0.62700387487E+03  0.62700387488E+03  0.25500000920E-02 0. -1.
    10030    2    1    2    0    0  0.00000000000E+00  0.00000000000E+00  0.39149808036E+03  0.16455058301E+04  0.15982548889E+04 0.  0.
        3    1    3    3  502    0  0.87017070210E+02 -0.66219407674E+03 -0.25600755614E+03  0.71527116871E+03  0.10100000352E+00 0. -1.
       -3    1    3    3    0  502 -0.87017070210E+02  0.66219407674E+03  0.64750563651E+03  0.93023466141E+03  0.10100000352E+00 0.  1.
</event>
<event>
 5   0  0.1060251E-05  0.1603453E+04  0.7818609E-02  0.8818429E-01
        1   -1    0    0  501    0  0.00000000000E+00  0.00000000000E+00  0.53163986439E+03  0.53163986441E+03  0.50400001928E-02 0.  1.
       -1   -1    0    0    0  501  0.00000000000E+00  0.00000000000E+00 -0.12090242923E+04  0.12090242923E+04  0.50400001928E-02 0. -1.
    10030    2    1    2    0    0  0.00000000000E+00  0.00000000000E+00 -0.67738442794E+03  0.17406641568E+04  0.16034531622E+04 0.  0.
        1    1    3    3  502    0  0.62946914336E+03  0.42667840253E+03 -0.63034569262E+02  0.76305911866E+03  0.50400001928E-02 0.  1.
       -1    1    3    3    0  502 -0.62946914336E+03 -0.42667840253E+03 -0.61434985868E+03  0.97760503809E+03  0.50400001928E-02 0. -1.
</event>
<event>
 5   0  0.1990948E-05  0.1599922E+04  0.7818609E-02  0.8820596E-01
        2   -1    0    0  501    0  0.00000000000E+00  0.00000000000E+00  0.12610098243E+04  0.12610098243E+04  0.25500000920E-02 0.  1.
       -2   -1    0    0    0  501  0.00000000000E+00  0.00000000000E+00 -0.50747997057E+03  0.50747997058E+03  0.25500000920E-02 0. -1.
    10030    2    1    2    0    0  0.00000000000E+00  0.00000000000E+00  0.75352985374E+03  0.17684897949E+04  0.15999215338E+04 0.  0.
        4    1    3    3  502    0 -0.34701949169E+03  0.89896462282E+02  0.11672573325E+04  0.12210631412E+04  0.12699999809E+01 0.  1.
       -4    1    3    3    0  502  0.34701949169E+03 -0.89896462282E+02 -0.41372747880E+03  0.54742665368E+03  0.12699999809E+01 0. -1.
</event>
<event>
 5   0  0.2046108E-05  0.1598397E+04  0.7818609E-02  0.8821534E-01
       -2   -1    0    0    0  501  0.00000000000E+00  0.00000000000E+00  0.33687348919E+03  0.33687348920E+03  0.25500000920E-02 0. -1.
        2   -1    0    0  501    0  0.00000000000E+00  0.00000000000E+00 -0.18960175254E+04  0.18960175254E+04  0.25500000920E-02 0.  1.
    10030    2    1    2    0    0  0.00000000000E+00  0.00000000000E+00 -0.15591440362E+04  0.22328910146E+04  0.15983967459E+04 0.  0.
        1    1    3    3  502    0  0.32139451886E+03  0.47949262673E+03 -0.74321884644E+01  0.57728922846E+03  0.50400001928E-02 0. -1.
       -1    1    3    3    0  502 -0.32139451886E+03 -0.47949262673E+03 -0.15517118477E+04  0.16556017861E+04  0.50400001928E-02 0.  1.
</event>
<event>
 5   0  0.2125803E-05  0.1600267E+04  0.7818609E-02  0.8820384E-01
       -2   -1    0    0    0  501  0.00000000000E+00  0.00000000000E+00  0.11575375220E+04  0.11575375220E+04  0.25500000920E-02 0. -1.
        2   -1    0    0  501    0  0.00000000000E+00  0.00000000000E+00 -0.55308222924E+03  0.55308222925E+03  0.25500000920E-02 0.  1.
    10030    2    1    2    0    0  0.00000000000E+00  0.00000000000E+00  0.60445529279E+03  0.17106197513E+04  0.16002667692E+04 0.  0.
        3    1    3    3  502    0  0.79859699697E+03 -0.15686745921E+02  0.25197308991E+03  0.83755219885E+03  0.10100000352E+00 0. -1.
       -3    1    3    3    0  502 -0.79859699697E+03  0.15686745921E+02  0.35248220288E+03  0.87306755243E+03  0.10100000352E+00 0.  1.
</event>
<event>
 5   0  0.1057506E-05  0.1602025E+04  0.7818609E-02  0.8819305E-01
        1   -1    0    0  501    0  0.00000000000E+00  0.00000000000E+00  0.20660426960E+04  0.20660426960E+04  0.50400001928E-02 0.  1.
       -1   -1    0    0    0  501  0.00000000000E+00  0.00000000000E+00 -0.31055546295E+03  0.31055546299E+03  0.50400001928E-02 0. -1.
    10030    2    1    2    0    0  0.00000000000E+00  0.00000000000E+00  0.17554872331E+04  0.23765981590E+04  0.16020247763E+04 0.  0.
        5    1    3    3  502    0 -0.16171461353E+03 -0.76151639111E+02 -0.28056991200E+03  0.33270445426E+03  0.46999998093E+01 0. -1.
       -5    1    3    3    0  502  0.16171461353E+03  0.76151639111E+02  0.20360571451E+04  0.20438937048E+04  0.46999998093E+01 0.  1.
</event>
<event>
 5   0  0.1126485E-05  0.1599878E+04  0.7818609E-02  0.8820623E-01
        1   -1    0    0  501    0  0.00000000000E+00  0.00000000000E+00  0.85698925714E+03  0.85698925715E+03  0.50400001928E-02 0. -1.
       -1   -1    0    0    0  501  0.00000000000E+00  0.00000000000E+00 -0.74668683742E+03  0.74668683744E+03  0.50400001928E-02 0.  1.
    10030    2    1    2    0    0  0.00000000000E+00  0.00000000000E+00  0.11030241971E+03  0.16036760946E+04  0.15998782430E+04 0.  0.
        2    1    3    3  502    0 -0.10219710047E+03  0.12797125181E+03  0.84000525834E+03  0.85582108100E+03  0.25500000920E-02 0. -1.
       -2    1    3    3    0  502  0.10219710047E+03 -0.12797125181E+03 -0.72970283863E+03  0.74785501359E+03  0.25500000920E-02 0.  1.
</event>
<event>
 5   0  0.1060251E-05  0.1599856E+04  0.7818609E-02  0.8820637E-01
       -1   -1    0    0    0  501  0.00000000000E+00  0.00000000000E+00  0.23848163315E+03  0.23848163320E+03  0.50400001928E-02 0.  1.
        1   -1    0    0  501    0  0.00000000000E+00  0.00000000000E+00 -0.26831610856E+04  0.26831610856E+04  0.50400001928E-02 0. -1.
    10030    2    1    2    0    0  0.00000000000E+00  0.00000000000E+00 -0.24446794525E+04  0.29216427188E+04  0.15998557907E+04 0.  0.
        1    1    3    3  502    0  0.13816220229E+03 -0.35164952209E+03 -0.25099515276E+04  0.25382282898E+04  0.50400001928E-02 0. -1.
       -1    1    3    3    0  502 -0.13816220229E+03  0.35164952209E+03  0.65272075116E+02  0.38341442897E+03  0.50400001928E-02 0.  1.
</event>
<event>
 5   0  0.2147844E-05  0.1599594E+04  0.7818609E-02  0.8820798E-01
       -2   -1    0    0    0  501  0.00000000000E+00  0.00000000000E+00  0.91589284211E+03  0.91589284211E+03  0.25500000920E-02 0. -1.
        2   -1    0    0  501    0  0.00000000000E+00  0.00000000000E+00 -0.69841706145E+03  0.69841706146E+03  0.25500000920E-02 0.  1.
    10030    2    1    2    0    0  0.00000000000E+00  0.00000000000E+00  0.21747578066E+03  0.16143099036E+04  0.15995939327E+04 0.  0.
        2    1    3    3  502    0  0.23008072017E+02  0.65544583491E+03  0.57070077204E+03  0.86938943236E+03  0.25500000920E-02 0. -1.
       -2    1    3    3    0  502 -0.23008072017E+02 -0.65544583491E+03 -0.35322499138E+03  0.74492047121E+03  0.25500000920E-02 0.  1.
</event>
<event>
 5   0  0.1990948E-05  0.1599612E+04  0.7818609E-02  0.8820786E-01
       -2   -1    0    0    0  501  0.00000000000E+00  0.00000000000E+00  0.82675597037E+03  0.82675597037E+03  0.25500000920E-02 0. -1.
        2   -1    0    0  501    0  0.00000000000E+00  0.00000000000E+00 -0.77373494392E+03  0.77373494393E+03  0.25500000920E-02 0.  1.
    10030    2    1    2    0    0  0.00000000000E+00  0.00000000000E+00  0.53021026447E+02  0.16004909143E+04  0.15996124335E+04 0.  0.
        4    1    3    3  502    0  0.38341839996E+03 -0.68457666589E+03  0.18162303824E+03  0.80538402134E+03  0.12699999809E+01 0. -1.
       -4    1    3    3    0  502 -0.38341839996E+03  0.68457666589E+03 -0.12860201180E+03  0.79510689296E+03  0.12699999809E+01 0.  1.
</event>
<event>
 5   0  0.1126485E-05  0.1599366E+04  0.7818609E-02  0.8820937E-01
       -1   -1    0    0    0  501  0.00000000000E+00  0.00000000000E+00  0.72976498591E+03  0.72976498593E+03  0.50400001928E-02 0. -1.
        1   -1    0    0  501    0  0.00000000000E+00  0.00000000000E+00 -0.87630020206E+03  0.87630020208E+03  0.50400001928E-02 0.  1.
    10030    2    1    2    0    0  0.00000000000E+00  0.00000000000E+00 -0.14653521615E+03  0.16060651880E+04  0.15993663803E+04 0.  0.
        2    1    3    3  502    0 -0.28179561025E+03  0.29036980384E+03 -0.76591730557E+03  0.86622901585E+03  0.25500000920E-02 0.  1.
       -2    1    3    3    0  502  0.28179561025E+03 -0.29036980384E+03  0.61938208942E+03  0.73983617216E+03  0.25500000920E-02 0. -1.
</event>
<event>
 5   0  0.1057506E-05  0.1599441E+04  0.7818609E-02  0.8820891E-01
        1   -1    0    0  501    0  0.00000000000E+00  0.00000000000E+00  0.69773081725E+03  0.69773081727E+03  0.50400001928E-02 0. -1.
       -1   -1    0    0    0  501  0.00000000000E+00  0.00000000000E+00 -0.91661888162E+03  0.91661888164E+03  0.50400001928E-02 0.  1.
    10030    2    1    2    0    0  0.00000000000E+00  0.00000000000E+00 -0.21888806437E+03  0.16143496989E+04  0.15994414543E+04 0.  0.
        5    1    3    3  502    0  0.47866192292E+03  0.76393551620E+02 -0.75143714444E+03  0.89422205476E+03  0.46999998093E+01 0.  1.
       -5    1    3    3    0  502 -0.47866192292E+03 -0.76393551620E+02  0.53254908006E+03  0.72012764414E+03  0.46999998093E+01 0. -1.
</event>
<event>
 5   0  0.1126485E-05  0.1599737E+04  0.7818609E-02  0.8820709E-01
        1   -1    0    0  501    0  0.00000000000E+00  0.00000000000E+00  0.66006590806E+03  0.66006590808E+03  0.50400001928E-02 0. -1.
       -1   -1    0    0    0  501  0.00000000000E+00  0.00000000000E+00 -0.96928179022E+03  0.96928179023E+03  0.50400001928E-02 0.  1.
    10030    2    1    2    0    0  0.00000000000E+00  0.00000000000E+00 -0.30921588216E+03  0.16293476983E+04  0.15997373098E+04 0.  0.
        2    1    3    3  502    0  0.28335326023E+03 -0.74014060650E+03 -0.44473770713E+02  0.79377270284E+03  0.25500000920E-02 0. -1.
       -2    1    3    3    0  502 -0.28335326023E+03  0.74014060650E+03 -0.26474211145E+03  0.83557499547E+03  0.25500000920E-02 0.  1.
</event>
<event>
 5   0  0.7597000E-06  0.1600163E+04  0.7818609E-02  0.8820448E-01
        3   -1    0    0  501    0  0.00000000000E+00  0.00000000000E+00  0.65756244433E+03  0.65756245209E+03  0.10100000352E+00 0. -1.
       -3   -1    0    0    0  501  0.00000000000E+00  0.00000000000E+00 -0.97348988013E+03  0.97348988537E+03  0.10100000352E+00 0.  1.
    10030    2    1    2    0    0  0.00000000000E+00  0.00000000000E+00 -0.31592743580E+03  0.16310523375E+04  0.16001629863E+04 0.  0.
        3    1    3    3  502    0  0.19468554941E+03  0.56003632288E+03  0.38960955047E+03  0.70946371162E+03  0.10100000352E+00 0. -1.
       -3    1    3    3    0  502 -0.19468554941E+03 -0.56003632288E+03 -0.70553698627E+03  0.92158862584E+03  0.10100000352E+00 0.  1.
</event>
<event>
 5   0  0.2147844E-05  0.1600355E+04  0.7818609E-02  0.8820330E-01
        2   -1    0    0  501    0  0.00000000000E+00  0.00000000000E+00  0.13222301258E+04  0.13222301258E+04  0.25500000920E-02 0. -1.
       -2   -1    0    0    0  501  0.00000000000E+00  0.00000000000E+00 -0.48424524191E+03  0.48424524192E+03  0.25500000920E-02 0.  1.
    10030    2    1    2    0    0  0.00000000000E+00  0.00000000000E+00  0.83798488386E+03  0.18064753677E+04  0.16003545196E+04 0.  0.
        2    1    3    3  502    0 -0.21007953890E+03  0.26389793018E+03  0.12380574620E+04  0.12831842461E+04  0.25500000920E-02 0. -1.
       -2    1    3    3    0  502  0.21007953890E+03 -0.26389793018E+03 -0.40007257810E+03  0.52329112163E+03  0.25500000920E-02 0.  1.
</event>
<event>
 5   0  0.2125803E-05  0.1599574E+04  0.7818609E-02  0.8820810E-01
        2   -1    0    0  501    0  0.00000000000E+00  0.00000000000E+00  0.20218121532E+04  0.20218121532E+04  0.25500000920E-02 0.  1.
       -2   -1    0    0    0  501  0.00000000000E+00  0.00000000000E+00 -0.31637923478E+03  0.31637923479E+03  0.25500000920E-02 0. -1.
    10030    2    1    2    0    0  0.00000000000E+00  0.00000000000E+00  0.17054329184E+04  0.23381913879E+04  0.15995741707E+04 0.  0.
        3    1    3    3  502    0 -0.14052781567E+03  0.51663843419E+03  0.17211979883E+04  0.18025498228E+04  0.10100000352E+00 0.  1.
       -3    1    3    3    0  502  0.14052781567E+03 -0.51663843419E+03 -0.15765069920E+02  0.53564156513E+03  0.10100000352E+00 0. -1.
</event>
<event>
 5   0  0.2147844E-05  0.1599354E+04  0.7818609E-02  0.8820945E-01
        2   -1    0    0  501    0  0.00000000000E+00  0.00000000000E+00  0.16818421212E+04  0.16818421212E+04  0.25500000920E-02 0. -1.
       -2   -1    0    0    0  501  0.00000000000E+00  0.00000000000E+00 -0.38022802142E+03  0.38022802143E+03  0.25500000920E-02 0.  1.
    10030    2    1    2    0    0  0.00000000000E+00  0.00000000000E+00  0.13016140998E+04  0.20620701426E+04  0.15993542473E+04 0.  0.
        2    1    3    3  502    0  0.50738453468E+03  0.25957520478E+02  0.14470257910E+04  0.15336220195E+04  0.25500000920E-02 0.  1.
       -2    1    3    3    0  502 -0.50738453468E+03 -0.25957520478E+02 -0.14541169120E+03  0.52844812314E+03  0.25500000920E-02 0. -1.
</event>
<event>
 5   0  0.1081831E-05  0.1600416E+04  0.7818609E-02  0.8820293E-01
        1   -1    0    0  501    0  0.00000000000E+00  0.00000000000E+00  0.66789999159E+03  0.66789999161E+03  0.50400001928E-02 0.  1.
       -1   -1    0    0    0  501  0.00000000000E+00  0.00000000000E+00 -0.95872531653E+03  0.95872531654E+03  0.50400001928E-02 0. -1.
    10030    2    1    2    0    0  0.00000000000E+00  0.00000000000E+00 -0.29082532494E+03  0.16266253081E+04  0.16004157346E+04 0.  0.
        3    1    3    3  502    0  0.36850736581E+03 -0.47724440675E+03 -0.68012025649E+03  0.90891334896E+03  0.10100000352E+00 0. -1.
       -3    1    3    3    0  502 -0.36850736581E+03  0.47724440675E+03  0.38929493155E+03  0.71771195919E+03  0.10100000352E+00 0.  1.
</event>
<event>
 5   0  0.1057506E-05  0.1602829E+04  0.7818609E-02  0.8818812E-01
       -1   -1    0    0    0  501  0.00000000000E+00  0.00000000000E+00  0.86842828905E+03  0.86842828906E+03  0.50400001928E-02 0.  1.
        1   -1    0    0  501    0  0.00000000000E+00  0.00000000000E+00 -0.73957200559E+03  0.73957200561E+03  0.50400001928E-02 0. -1.
    10030    2    1    2    0    0  0.00000000000E+00  0.00000000000E+00  0.12885628345E+03  0.16080002947E+04  0.16028290632E+04 0.  0.
        5    1    3    3  502    0 -0.73134744550E+03 -0.26441720862E+03 -0.12973597767E+03  0.78844090466E+03  0.46999998093E+01 0. -1.
       -5    1    3    3    0  502  0.73134744550E+03  0.26441720862E+03  0.25859226112E+03  0.81955939001E+03  0.46999998093E+01 0.  1.
</event>
<event>
 5   0  0.1994525E-05  0.1600574E+04  0.7818609E-02  0.8820196E-01
        2   -1    0    0  501    0  0.00000000000E+00  0.00000000000E+00  0.10369968793E+04  0.10369968793E+04  0.25500000920E-02 0. -1.
       -2   -1    0    0    0  501  0.00000000000E+00  0.00000000000E+00 -0.61760935575E+03  0.61760935576E+03  0.25500000920E-02 0.  1.
    10030    2    1    2    0    0  0.00000000000E+00  0.00000000000E+00  0.41938752353E+03  0.16546062350E+04  0.16005736154E+04 0.  0.
        5    1    3    3  502    0  0.13152830443E+03  0.10698831122E+03  0.10182029107E+04  0.10322332348E+04  0.46999998093E+01 0. -1.
       -5    1    3    3    0  502 -0.13152830443E+03 -0.10698831122E+03 -0.59881538715E+03  0.62237300029E+03  0.46999998093E+01 0.  1.
</event>
<event>
 5   0  0.1057506E-05  0.1600543E+04  0.7818609E-02  0.8820214E-01
        1   -1    0    0  501    0  0.00000000000E+00  0.00000000000E+00  0.21825754539E+04  0.21825754539E+04  0.50400001928E-02 0. -1.
       -1   -1    0    0    0  501  0.00000000000E+00  0.00000000000E+00 -0.29343076795E+03  0.29343076799E+03  0.50400001928E-02 0.  1.
    10030    2    1    2    0    0  0.00000000000E+00  0.00000000000E+00  0.18891446859E+04  0.24760062219E+04  0.16005433972E+04 0.  0.
        5    1    3    3  502    0  0.52702191874E+03  0.43145915783E+03  0.29465061870E+03  0.74212545085E+03  0.46999998093E+01 0.  1.
       -5    1    3    3    0  502 -0.52702191874E+03 -0.43145915783E+03  0.15944940672E+04  0.17338807710E+04  0.46999998093E+01 0. -1.
</event>
<event>
 5   0  0.1126485E-05  0.1599648E+04  0.7818609E-02  0.8820764E-01
       -1   -1    0    0    0  501  0.00000000000E+00  0.00000000000E+00  0.67131349206E+03  0.67131349208E+03  0.50400001928E-02 0. -1.
        1   -1    0    0  501    0  0.00000000000E+00  0.00000000000E+00 -0.95293548068E+03  0.95293548069E+03  0.50400001928E-02 0.  1.
    10030    2    1    2    0    0  0.00000000000E+00  0.00000000000E+00 -0.28162198861E+03  0.16242489728E+04  0.15996480179E+04 0.  0.
        2    1    3    3  502    0 -0.66277606436E+03  0.24753206090E+03 -0.51960888763E+03  0.87780272771E+03  0.25500000920E-02 0.  1.
       -2    1    3    3    0  502  0.66277606436E+03 -0.24753206090E+03  0.23798689902E+03  0.74644624506E+03  0.25500000920E-02 0. -1.
</event>
<event>
 5   0  0.1994525E-05  0.1592807E+04  0.7818609E-02  0.8824979E-01
        2   -1    0    0  501    0  0.00000000000E+00  0.00000000000E+00  0.29729410679E+04  0.29729410679E+04  0.25500000920E-02 0. -1.
       -2   -1    0    0    0  501  0.00000000000E+00  0.00000000000E+00 -0.21334368912E+03  0.21334368913E+03  0.25500000920E-02 0.  1.
    10030    2    1    2    0    0  0.00000000000E+00  0.00000000000E+00  0.27595973788E+04  0.31862847570E+04  0.15928065984E+04 0.  0.
        5    1    3    3  502    0  0.18320272139E+03 -0.71876154204E+03  0.19597648143E+04  0.20954430578E+04  0.46999998093E+01 0. -1.
       -5    1    3    3    0  502 -0.18320272139E+03  0.71876154204E+03  0.79983256451E+03  0.10908416992E+04  0.46999998093E+01 0.  1.
</event>
<event>
 5   0  0.1060251E-05  0.1600149E+04  0.7818609E-02  0.8820456E-01
        1   -1    0    0  501    0  0.00000000000E+00  0.00000000000E+00  0.78218488772E+03  0.78218488774E+03  0.50400001928E-02 0.  1.
       -1   -1    0    0    0  501  0.00000000000E+00  0.00000000000E+00 -0.81837375523E+03  0.81837375524E+03  0.50400001928E-02 0. -1.
    10030    2    1    2    0    0  0.00000000000E+00  0.00000000000E+00 -0.36188867505E+02  0.16005586430E+04  0.16001494729E+04 0.  0.
        1    1    3    3  502    0 -0.56685104085E+03  0.49034325439E+03 -0.29809988963E+03  0.80661028624E+03  0.50400001928E-02 0. -1.
       -1    1    3    3    0  502  0.56685104085E+03 -0.49034325439E+03  0.26191102212E+03  0.79394835674E+03  0.50400001928E-02 0.  1.
</event>
<event>
 5   0  0.2125803E-05  0.1599831E+04  0.7818609E-02  0.8820652E-01
        2   -1    0    0  501    0  0.00000000000E+00  0.00000000000E+00  0.11372158757E+04  0.11372158757E+04  0.25500000920E-02 0. -1.
       -2   -1    0    0    0  501  0.00000000000E+00  0.00000000000E+00 -0.56265936409E+03  0.56265936410E+03  0.25500000920E-02 0.  1.
    10030    2    1    2    0    0  0.00000000000E+00  0.00000000000E+00  0.57455651165E+03  0.16998752398E+04  0.15998314430E+04 0.  0.
        3    1    3    3  502    0  0.15484227008E+03 -0.49004805449E+03 -0.36403159847E+03  0.62979539471E+03  0.10100000352E+00 0.  1.
       -3    1    3    3    0  502 -0.15484227008E+03  0.49004805449E+03  0.93858811012E+03  0.10700798451E+04  0.10100000352E+00 0. -1.
</event>
<event>
 5   0  0.2046108E-05  0.1599930E+04  0.7818609E-02  0.8820591E-01
        2   -1    0    0  501    0  0.00000000000E+00  0.00000000000E+00  0.22229046349E+04  0.22229046349E+04  0.25500000920E-02 0.  1.
       -2   -1    0    0    0  501  0.00000000000E+00  0.00000000000E+00 -0.28788623619E+03  0.28788623620E+03  0.25500000920E-02 0. -1.
    10030    2    1    2    0    0  0.00000000000E+00  0.00000000000E+00  0.19350183987E+04  0.25107908711E+04  0.15999295594E+04 0.  0.
        1    1    3    3  502    0 -0.35960394714E+02  0.66072918600E+03  0.26203791393E+03  0.71170223801E+03  0.50400001928E-02 0. -1.
       -1    1    3    3    0  502  0.35960394714E+02 -0.66072918600E+03  0.16729804847E+04  0.17990886330E+04  0.50400001928E-02 0.  1.
</event>
<event>
 5   0  0.2125803E-05  0.1600056E+04  0.7818609E-02  0.8820514E-01
        2   -1    0    0  501    0  0.00000000000E+00  0.00000000000E+00  0.10661564082E+04  0.10661564082E+04  0.25500000920E-02 0.  1.
       -2   -1    0    0    0  501  0.00000000000E+00  0.00000000000E+00 -0.60032905554E+03  0.60032905554E+03  0.25500000920E-02 0. -1.
    10030    2    1    2    0    0  0.00000000000E+00  0.00000000000E+00  0.46582735270E+03  0.16664854638E+04  0.16000558360E+04 0.  0.
        3    1    3    3  502    0  0.15426389798E+03 -0.11255805794E+03 -0.57624387195E+03  0.60706150989E+03  0.10100000352E+00 0. -1.
       -3    1    3    3    0  502 -0.15426389798E+03  0.11255805794E+03  0.10420712247E+04  0.10594239539E+04  0.10100000352E+00 0.  1.
</event>
<event>
 5   0  0.1126485E-05  0.1599763E+04  0.7818609E-02  0.8820694E-01
        1   -1    0    0  501    0  0.00000000000E+00  0.00000000000E+00  0.17210528970E+04  0.17210528970E+04  0.50400001928E-02 0. -1.
       -1   -1    0    0    0  501  0.00000000000E+00  0.00000000000E+00 -0.37175524102E+03  0.37175524106E+03  0.50400001928E-02 0.  1.
    10030    2    1    2    0    0  0.00000000000E+00  0.00000000000E+00  0.13492976560E+04  0.20928081381E+04  0.15997630257E+04 0.  0.
        2    1    3    3  502    0  0.10696390707E+03  0.27218663305E+03  0.16486058040E+04  0.16743440320E+04  0.25500000920E-02 0. -1.
       -2    1    3    3    0  502 -0.10696390707E+03 -0.27218663305E+03 -0.29930814797E+03  0.41846410608E+03  0.25500000920E-02 0.  1.
</event>
<event>
 5   0  0.1990948E-05  0.1602415E+04  0.7818609E-02  0.8819066E-01
        2   -1    0    0  501    0  0.00000000000E+00  0.00000000000E+00  0.10482732276E+04  0.10482732277E+04  0.25500000920E-02 0.  1.
       -2   -1    0    0    0  501  0.00000000000E+00  0.00000000000E+00 -0.61237248360E+03  0.61237248360E+03  0.25500000920E-02 0. -1.
    10030    2    1    2    0    0  0.00000000000E+00  0.00000000000E+00  0.43590074405E+03  0.16606457113E+04  0.16024152769E+04 0.  0.
        4    1    3    3  502    0  0.41518766885E+03 -0.44132419390E+03 -0.32529721749E+03  0.68772649876E+03  0.12699999809E+01 0. -1.
       -4    1    3    3    0  502 -0.41518766885E+03  0.44132419390E+03  0.76119796154E+03  0.97291921250E+03  0.12699999809E+01 0.  1.
</event>
<event>
 5   0  0.1057506E-05  0.1600856E+04  0.7818609E-02  0.8820022E-01
       -1   -1    0    0    0  501  0.00000000000E+00  0.00000000000E+00  0.52143782178E+03  0.52143782181E+03  0.50400001928E-02 0.  1.
        1   -1    0    0  501    0  0.00000000000E+00  0.00000000000E+00 -0.12286886618E+04  0.12286886618E+04  0.50400001928E-02 0. -1.
    10030    2    1    2    0    0  0.00000000000E+00  0.00000000000E+00 -0.70725084005E+03  0.17501264836E+04  0.16008556956E+04 0.  0.
        5    1    3    3  502    0 -0.21896474723E+03  0.92779575485E+02  0.48190874882E+03  0.53741207871E+03  0.46999998093E+01 0.  1.
       -5    1    3    3    0  502  0.21896474723E+03 -0.92779575485E+02 -0.11891595889E+04  0.12127144049E+04  0.46999998093E+01 0. -1.
</event>
<event>
 5   0  0.7597000E-06  0.1600251E+04  0.7818609E-02  0.8820394E-01
       -4   -1    0    0    0  501  0.00000000000E+00  0.00000000000E+00  0.12555539019E+04  0.12555545442E+04  0.12699999809E+01 0.  1.
        4   -1    0    0  501    0  0.00000000000E+00  0.00000000000E+00 -0.50989362982E+03  0.50989521142E+03  0.12699999809E+01 0. -1.
    10030    2    1    2    0    0  0.00000000000E+00  0.00000000000E+00  0.74566027208E+03  0.17654497556E+04  0.16002511048E+04 0.  0.
        5    1    3    3  502    0 -0.18798071107E+03  0.19203675145E+03 -0.45860354018E+03  0.53155823642E+03  0.46999998093E+01 0. -1.
       -5    1    3    3    0  502  0.18798071107E+03 -0.19203675145E+03  0.12042638123E+04  0.12338915192E+04  0.46999998093E+01 0.  1.
</event>
<event>
 5   0  0.7597000E-06  0.1599927E+04  0.7818609E-02  0.8820593E-01
        3   -1    0    0  501    0  0.00000000000E+00  0.00000000000E+00  0.19334950440E+04  0.19334950466E+04  0.10100000352E+00 0. -1.
       -3   -1    0    0    0  501  0.00000000000E+00  0.00000000000E+00 -0.33097651114E+03  0.33097652655E+03  0.10100000352E+00 0.  1.
    10030    2    1    2    0    0  0.00000000000E+00  0.00000000000E+00  0.16025185328E+04  0.22644715731E+04  0.15999268288E+04 0.  0.
        1    1    3    3  502    0 -0.68046063885E+03  0.10772615823E+03  0.22579795808E+03  0.72499401659E+03  0.50400001928E-02 0.  1.
       -1    1    3    3    0  502  0.68046063885E+03 -0.10772615823E+03  0.13767205747E+04  0.15394775565E+04  0.50400001928E-02 0. -1.
</event>
<event>
 5   0  0.1126485E-05  0.1600665E+04  0.7818609E-02  0.8820139E-01
        1   -1    0    0  501    0  0.00000000000E+00  0.00000000000E+00  0.14523773179E+04  0.14523773179E+04  0.50400001928E-02 0.  1.
       -1   -1    0    0    0  501  0.00000000000E+00  0.00000000000E+00 -0.44102340474E+03  0.44102340477E+03  0.50400001928E-02 0. -1.
    10030    2    1    2    0    0  0.00000000000E+00  0.00000000000E+00  0.10113539131E+04  0.18934007226E+04  0.16006653488E+04 0.  0.
        2    1    3    3  502    0  0.26966129219E+03  0.26865740868E+03  0.13384457778E+04  0.13915211518E+04  0.25500000920E-02 0.  1.
       -2    1    3    3    0  502 -0.26966129219E+03 -0.26865740868E+03 -0.32709186465E+03  0.50187957088E+03  0.25500000920E-02 0. -1.
</event>
<event>
 5   0  0.1081831E-05  0.1599601E+04  0.7818609E-02  0.8820793E-01
        1   -1    0    0  501    0  0.00000000000E+00  0.00000000000E+00  0.14328008779E+04  0.14328008779E+04  0.50400001928E-02 0.  1.
       -1   -1    0    0    0  501  0.00000000000E+00  0.00000000000E+00 -0.44645489226E+03  0.44645489229E+03  0.50400001928E-02 0. -1.
    10030    2    1    2    0    0  0.00000000000E+00  0.00000000000E+00  0.98634598563E+03  0.18792557702E+04  0.15996011523E+04 0.  0.
        3    1    3    3  502    0  0.29173721669E+03  0.18417916428E+03  0.13408813138E+04  0.13845559852E+04  0.10100000352E+00 0.  1.
       -3    1    3    3    0  502 -0.29173721669E+03 -0.18417916428E+03 -0.35453532818E+03  0.49469978501E+03  0.10100000352E+00 0. -1.
</event>
<event>
 5   0  0.1057506E-05  0.1600395E+04  0.7818609E-02  0.8820306E-01
       -1   -1    0    0    0  501  0.00000000000E+00  0.00000000000E+00  0.64924277289E+03  0.64924277291E+03  0.50400001928E-02 0. -1.
        1   -1    0    0  501    0  0.00000000000E+00  0.00000000000E+00 -0.98625010026E+03  0.98625010028E+03  0.50400001928E-02 0.  1.
    10030    2    1    2    0    0  0.00000000000E+00  0.00000000000E+00 -0.33700732737E+03  0.16354928732E+04  0.16003946387E+04 0.  0.
        5    1    3    3  502    0 -0.44443488387E+03 -0.29308088702E+03 -0.77899508073E+03  0.94354342673E+03  0.46999998093E+01 0.  1.
       -5    1    3    3    0  502  0.44443488387E+03  0.29308088702E+03  0.44198775335E+03  0.69194944645E+03  0.46999998093E+01 0. -1.
</event>
<event>
 5   0  0.1994525E-05  0.1599250E+04  0.7818609E-02  0.8821009E-01
        2   -1    0    0  501    0  0.00000000000E+00  0.00000000000E+00  0.15178699854E+04  0.15178699854E+04  0.25500000920E-02 0. -1.
       -2   -1    0    0    0  501  0.00000000000E+00  0.00000000000E+00 -0.42124837615E+03  0.42124837616E+03  0.25500000920E-02 0.  1.
    10030    2    1    2    0    0  0.00000000000E+00  0.00000000000E+00  0.10966216093E+04  0.19391183616E+04  0.15992501575E+04 0.  0.
        5    1    3    3  502    0  0.49135396180E+02 -0.30602809703E+03 -0.34543093924E+03  0.46412509855E+03  0.46999998093E+01 0.  1.
       -5    1    3    3    0  502 -0.49135396180E+02  0.30602809703E+03  0.14420525485E+04  0.14749932630E+04  0.46999998093E+01 0. -1.
</event>
<event>
 5   0  0.1060251E-05  0.1600389E+04  0.7818609E-02  0.8820309E-01
       -1   -1    0    0    0  501  0.00000000000E+00  0.00000000000E+00  0.13660700425E+04  0.13660700425E+04  0.50400001928E-02 0. -1.
        1   -1    0    0  501    0  0.00000000000E+00  0.00000000000E+00 -0.46872514773E+03  0.46872514775E+03  0.50400001928E-02 0.  1.
    10030    2    1    2    0    0  0.00000000000E+00  0.00000000000E+00  0.89734489479E+03  0.18347951903E+04  0.16003891808E+04 0.  0.
        1    1    3    3  502    0  0.77276958181E+03  0.20376081338E+03  0.40252675845E+03  0.89482908253E+03  0.50400001928E-02 0. -1.
       -1    1    3    3    0  502 -0.77276958181E+03 -0.20376081338E+03  0.49481813634E+03  0.93996610775E+03  0.50400001928E-02 0.  1.
</event>
<event>
 5   0  0.1057506E-05  0.1600933E+04  0.7818609E-02  0.8819975E-01
        1   -1    0    0  501    0  0.00000000000E+00  0.00000000000E+00  0.12698349034E+04  0.12698349034E+04  0.50400001928E-02 0. -1.
       -1   -1    0    0    0  501  0.00000000000E+00  0.00000000000E+00 -0.50459019477E+03  0.50459019479E+03  0.50400001928E-02 0.  1.
    10030    2    1    2    0    0  0.00000000000E+00  0.00000000000E+00  0.76524470865E+03  0.17744250982E+04  0.16009325298E+04 0.  0.
        5    1    3    3  502    0 -0.46956148679E+03  0.56118511869E+03  0.74230057159E+03  0.10423286218E+04  0.46999998093E+01 0. -1.
       -5    1    3    3    0  502  0.46956148679E+03 -0.56118511869E+03  0.22944137067E+02  0.73209647639E+03  0.46999998093E+01 0.  1.
</event>
<event>
 5   0  0.1090674E-05  0.1599718E+04  0.7818609E-02  0.8820721E-01
       -1   -1    0    0    0  501  0.00000000000E+00  0.00000000000E+00  0.29350751738E+03  0.29350751742E+03  0.50400001928E-02 0.  1.
        1   -1    0    0  501    0  0.00000000000E+00  0.00000000000E+00 -0.21797551718E+04  0.21797551718E+04  0.50400001928E-02 0. -1.
    10030    2    1    2    0    0  0.00000000000E+00  0.00000000000E+00 -0.18862476544E+04  0.24732626892E+04  0.15997181365E+04 0.  0.
        4    1    3    3  502    0  0.38977154135E+03 -0.12231082134E+03 -0.20063051998E+04  0.20474725783E+04  0.12699999809E+01 0. -1.
       -4    1    3    3    0  502 -0.38977154135E+03  0.12231082134E+03  0.12005754533E+03  0.42579011092E+03  0.12699999809E+01 0.  1.
</event>
<event>
 5   0  0.1126485E-05  0.1604846E+04  0.7818609E-02  0.8817577E-01
        1   -1    0    0  501    0  0.00000000000E+00  0.00000000000E+00  0.59055658769E+03  0.59055658771E+03  0.50400001928E-02 0.  1.
       -1   -1    0    0    0  501  0.00000000000E+00  0.00000000000E+00 -0.10902977383E+04  0.10902977383E+04  0.50400001928E-02 0. -1.
    10030    2    1    2    0    0  0.00000000000E+00  0.00000000000E+00 -0.49974115057E+03  0.16808543260E+04  0.16048458018E+04 0.  0.
        2    1    3    3  502    0 -0.19186459795E+03 -0.75022848201E+03 -0.29606329820E+02  0.77493956793E+03  0.25500000920E-02 0.  1.
       -2    1    3    3    0  502  0.19186459795E+03  0.75022848201E+03 -0.47013482075E+03  0.90591475805E+03  0.25500000920E-02 0. -1.
</event>
<event>
 5   0  0.2147844E-05  0.1603680E+04  0.7818609E-02  0.8818290E-01
       -2   -1    0    0    0  501  0.00000000000E+00  0.00000000000E+00  0.74912477517E+03  0.74912477517E+03  0.25500000920E-02 0.  1.
        2   -1    0    0  501    0  0.00000000000E+00  0.00000000000E+00 -0.85826518872E+03  0.85826518872E+03  0.25500000920E-02 0. -1.
    10030    2    1    2    0    0  0.00000000000E+00  0.00000000000E+00 -0.10914041355E+03  0.16073899639E+04  0.16036804127E+04 0.  0.
        2    1    3    3  502    0 -0.36366041848E+03 -0.48686238652E+03  0.46976875581E+03  0.76809281166E+03  0.25500000920E-02 0. -1.
       -2    1    3    3    0  502  0.36366041848E+03  0.48686238652E+03 -0.57890916936E+03  0.83929715224E+03  0.25500000920E-02 0.  1.
</event>
<event>
 5   0  0.2125803E-05  0.1606377E+04  0.7818609E-02  0.8816640E-01
       -2   -1    0    0    0  501  0.00000000000E+00  0.00000000000E+00  0.62759993478E+03  0.62759993478E+03  0.25500000920E-02 0.  1.
        2   -1    0    0  501    0  0.00000000000E+00  0.00000000000E+00 -0.10279030903E+04  0.10279030903E+04  0.25500000920E-02 0. -1.
    10030    2    1    2    0    0  0.00000000000E+00  0.00000000000E+00 -0.40030315548E+03  0.16555030250E+04  0.16063771816E+04 0.  0.
        3    1    3    3  502    0 -0.22706421404E+03  0.51558415419E+03  0.38982990523E+03  0.68509309044E+03  0.10100000352E+00 0.  1.
       -3    1    3    3    0  502  0.22706421404E+03 -0.51558415419E+03 -0.79013306071E+03  0.97040993460E+03  0.10100000352E+00 0. -1.
</event>
<event>
 5   0  0.1990948E-05  0.1603457E+04  0.7818609E-02  0.8818427E-01
        2   -1    0    0  501    0  0.00000000000E+00  0.00000000000E+00  0.63622825706E+03  0.63622825707E+03  0.25500000920E-02 0. -1.
       -2   -1    0    0    0  501  0.00000000000E+00  0.00000000000E+00 -0.10102801040E+04  0.10102801040E+04  0.25500000920E-02 0.  1.
    10030    2    1    2    0    0  0.00000000000E+00  0.00000000000E+00 -0.37405184695E+03  0.16465083611E+04  0.16034572021E+04 0.  0.
        4    1    3    3  502    0  0.21600411319E+03  0.14569622601E+03  0.59154093263E+03  0.64638027125E+03  0.12699999809E+01 0. -1.
       -4    1    3    3    0  502 -0.21600411319E+03 -0.14569622601E+03 -0.96559277958E+03  0.10001280898E+04  0.12699999809E+01 0.  1.
</event>
<event>
 5   0  0.1057506E-05  0.1598933E+04  0.7818609E-02  0.8821204E-01
        1   -1    0    0  501    0  0.00000000000E+00  0.00000000000E+00  0.54311942186E+03  0.54311942188E+03  0.50400001928E-02 0.  1.
       -1   -1    0    0    0  501  0.00000000000E+00  0.00000000000E+00 -0.11768071154E+04  0.11768071154E+04  0.50400001928E-02 0. -1.
    10030    2    1    2    0    0  0.00000000000E+00  0.00000000000E+00 -0.63368769356E+03  0.17199265373E+04  0.15989331446E+04 0.  0.
        5    1    3    3  502    0  0.63049746589E+03 -0.48988998875E+03 -0.35994397963E+03  0.87584303049E+03  0.46999998093E+01 0. -1.
       -5    1    3    3    0  502 -0.63049746589E+03  0.48988998875E+03 -0.27374371392E+03  0.84408350682E+03  0.46999998093E+01 0.  1.
</event>
<event>
 5   0  0.2046108E-05  0.1599760E+04  0.7818609E-02  0.8820695E-01
       -2   -1    0    0    0  501  0.00000000000E+00  0.00000000000E+00  0.75714092636E+03  0.75714092636E+03  0.25500000920E-02 0.  1.
        2   -1    0    0  501    0  0.00000000000E+00  0.00000000000E+00 -0.84503193127E+03  0.84503193128E+03  0.25500000920E-02 0. -1.
    10030    2    1    2    0    0  0.00000000000E+00  0.00000000000E+00 -0.87891004916E+02  0.16021728576E+04  0.15997603061E+04 0.  0.
        1    1    3    3  502    0 -0.37563969427E+02  0.29387123936E+03  0.70016684045E+03  0.76026637543E+03  0.50400001928E-02 0.  1.
       -1    1    3    3    0  502  0.37563969427E+02 -0.29387123936E+03 -0.78805784536E+03  0.84190648221E+03  0.50400001928E-02 0. -1.
</event>
<event>
 5   0  0.1994525E-05  0.1599522E+04  0.7818609E-02  0.8820842E-01
        2   -1    0    0  501    0  0.00000000000E+00  0.00000000000E+00  0.46231896379E+03  0.46231896380E+03  0.25500000920E-02 0.  1.
       -2   -1    0    0    0  501  0.00000000000E+00  0.00000000000E+00 -0.13834987124E+04  0.13834987124E+04  0.25500000920E-02 0. -1.
    10030    2    1    2    0    0  0.00000000000E+00  0.00000000000E+00 -0.92117974863E+03  0.18458176762E+04  0.15995220425E+04 0.  0.
        5    1    3    3  502    0 -0.68623757530E+03 -0.40420240801E+03 -0.54455341315E+03  0.96481195378E+03  0.46999998093E+01 0.  1.
       -5    1    3    3    0  502  0.68623757530E+03  0.40420240801E+03 -0.37662633547E+03  0.88100572243E+03  0.46999998093E+01 0. -1.
</event>
<event>
 5   0  0.1090674E-05  0.1599888E+04  0.7818609E-02  0.8820617E-01
        1   -1    0    0  501    0  0.00000000000E+00  0.00000000000E+00  0.91568103235E+03  0.91568103236E+03  0.50400001928E-02 0. -1.
       -1   -1    0    0    0  501  0.00000000000E+00  0.00000000000E+00 -0.69883564180E+03  0.69883564181E+03  0.50400001928E-02 0.  1.
    10030    2    1    2    0    0  0.00000000000E+00  0.00000000000E+00  0.21684539055E+03  0.16145166742E+04  0.15998881735E+04 0.  0.
        4    1    3    3  502    0  0.22597032893E+03  0.59466253757E+03  0.59785498683E+03  0.87299388390E+03  0.12699999809E+01 0.  1.
       -4    1    3    3    0  502 -0.22597032893E+03 -0.59466253757E+03 -0.38100959628E+03  0.74152279028E+03  0.12699999809E+01 0. -1.
</event>
<event>
 5   0  0.1126485E-05  0.1600180E+04  0.7818609E-02  0.8820438E-01
       -1   -1    0    0    0  501  0.00000000000E+00  0.00000000000E+00  0.53061406751E+03  0.53061406753E+03  0.50400001928E-02 0.  1.
        1   -1    0    0  501    0  0.00000000000E+00  0.00000000000E+00 -0.12064206072E+04  0.12064206072E+04  0.50400001928E-02 0. -1.
    10030    2    1    2    0    0  0.00000000000E+00  0.00000000000E+00 -0.67580653965E+03  0.17370346747E+04  0.16001796718E+04 0.  0.
        2    1    3    3  502    0  0.14873415513E+03 -0.47882935273E+03  0.33891454685E+03  0.60519622273E+03  0.25500000920E-02 0.  1.
       -2    1    3    3    0  502 -0.14873415513E+03  0.47882935273E+03 -0.10147210865E+04  0.11318384520E+04  0.25500000920E-02 0. -1.
</event>
<event>
 5   0  0.1126485E-05  0.1599645E+04  0.7818609E-02  0.8820766E-01
        1   -1    0    0  501    0  0.00000000000E+00  0.00000000000E+00  0.58543473180E+03  0.58543473182E+03  0.50400001928E-02 0. -1.
       -1   -1    0    0    0  501  0.00000000000E+00  0.00000000000E+00 -0.10927191857E+04  0.10927191857E+04  0.50400001928E-02 0.  1.
    10030    2    1    2    0    0  0.00000000000E+00  0.00000000000E+00 -0.50728445391E+03  0.16781539175E+04  0.15996446649E+04 0.  0.
        2    1    3    3  502    0  0.16875263126E+03  0.65098330482E+03  0.20057277569E+03  0.70177357607E+03  0.25500000920E-02 0. -1.
       -2    1    3    3    0  502 -0.16875263126E+03 -0.65098330482E+03 -0.70785722961E+03  0.97638034148E+03  0.25500000920E-02 0.  1.
</event>
<event>
 5   0  0.1057506E-05  0.1599813E+04  0.7818609E-02  0.8820663E-01
       -1   -1    0    0    0  501  0.00000000000E+00  0.00000000000E+00  0.26668763725E+03  0.26668763730E+03  0.50400001928E-02 0.  1.
        1   -1    0    0  501    0  0.00000000000E+00  0.00000000000E+00 -0.23992513923E+04  0.23992513923E+04  0.50400001928E-02 0. -1.
    10030    2    1    2    0    0  0.00000000000E+00  0.00000000000E+00 -0.21325637551E+04  0.26659390296E+04  0.15998133454E+04 0.  0.
        5    1    3    3  502    0 -0.39890931426E+03  0.22623028109E+03 -0.21584072553E+04  0.22065930189E+04  0.46999998093E+01 0. -1.
       -5    1    3    3    0  502  0.39890931426E+03 -0.22623028109E+03  0.25843500259E+02  0.45934601075E+03  0.46999998093E+01 0.  1.
</event>
<event>
 5   0  0.1126485E-05  0.1599702E+04  0.7818609E-02  0.8820731E-01
       -1   -1    0    0    0  501  0.00000000000E+00  0.00000000000E+00  0.80208686056E+03  0.80208686058E+03  0.50400001928E-02 0.  1.
        1   -1    0    0  501    0  0.00000000000E+00  0.00000000000E+00 -0.79762164461E+03  0.79762164463E+03  0.50400001928E-02 0. -1.
    10030    2    1    2    0    0  0.00000000000E+00  0.00000000000E+00  0.44652159495E+01  0.15997085052E+04  0.15997022734E+04 0.  0.
        2    1    3    3  502    0 -0.23254723673E+03 -0.43083865734E+03 -0.63027414445E+03  0.79808875643E+03  0.25500000920E-02 0. -1.
       -2    1    3    3    0  502  0.23254723673E+03  0.43083865734E+03  0.63473936040E+03  0.80161974877E+03  0.25500000920E-02 0.  1.
</event>
<event>
 5   0  0.2147844E-05  0.1601792E+04  0.7818609E-02  0.8819448E-01
       -2   -1    0    0    0  501  0.00000000000E+00  0.00000000000E+00  0.64324512069E+03  0.64324512070E+03  0.25500000920E-02 0. -1.
        2   -1    0    0  501    0  0.00000000000E+00  0.00000000000E+00 -0.99718548129E+03  0.99718548129E+03  0.25500000920E-02 0.  1.
    10030    2    1    2    0    0  0.00000000000E+00  0.00000000000E+00 -0.35394036060E+03  0.16404306020E+04  0.16017923652E+04 0.  0.
        2    1    3    3  502    0  0.34256556172E+03  0.62632914568E+03 -0.54876356497E+03  0.90043368054E+03  0.25500000920E-02 0.  1.
       -2    1    3    3    0  502 -0.34256556172E+03 -0.62632914568E+03  0.19482320437E+03  0.73999692146E+03  0.25500000920E-02 0. -1.
</event>
<event>
 5   0  0.2147844E-05  0.1600152E+04  0.7818609E-02  0.8820455E-01
       -2   -1    0    0    0  501  0.00000000000E+00  0.00000000000E+00  0.33528646566E+03  0.33528646567E+03  0.25500000920E-02 0.  1.
        2   -1    0    0  501    0  0.00000000000E+00  0.00000000000E+00 -0.19091777163E+04  0.19091777163E+04  0.25500000920E-02 0. -1.
    10030    2    1    2    0    0  0.00000000000E+00  0.00000000000E+00 -0.15738912506E+04  0.22444641819E+04  0.16001518038E+04 0.  0.
        2    1    3    3  502    0 -0.29451327621E+03 -0.72262412742E+03 -0.53919593148E+03  0.94850195146E+03  0.25500000920E-02 0.  1.
       -2    1    3    3    0  502  0.29451327621E+03  0.72262412742E+03 -0.10346953191E+04  0.12959622305E+04  0.25500000920E-02 0. -1.
</event>
<event>
 5   0  0.2125803E-05  0.1599561E+04  0.7818609E-02  0.8820818E-01
        2   -1    0    0  501    0  0.00000000000E+00  0.00000000000E+00  0.17922230902E+04  0.17922230902E+04  0.25500000920E-02 0. -1.
       -2   -1    0    0    0  501  0.00000000000E+00  0.00000000000E+00 -0.35690248146E+03  0.35690248147E+03  0.25500000920E-02 0.  1.
    10030    2    1    2    0    0  0.00000000000E+00  0.00000000000E+00  0.14353206087E+04  0.21491255717E+04  0.15995610251E+04 0.  0.
        3    1    3    3  502    0 -0.33268710692E+03  0.58083836556E+03  0.13057627640E+04  0.14673344282E+04  0.10100000352E+00 0. -1.
       -3    1    3    3    0  502  0.33268710692E+03 -0.58083836556E+03  0.12955784472E+03  0.68179114350E+03  0.10100000352E+00 0.  1.
</event>
<event>
 5   0  0.1060251E-05  0.1600350E+04  0.7818609E-02  0.8820333E-01
        1   -1    0    0  501    0  0.00000000000E+00  0.00000000000E+00  0.18756516750E+04  0.18756516750E+04  0.50400001928E-02 0.  1.
       -1   -1    0    0    0  501  0.00000000000E+00  0.00000000000E+00 -0.34136386998E+03  0.34136387002E+03  0.50400001928E-02 0. -1.
    10030    2    1    2    0    0  0.00000000000E+00  0.00000000000E+00  0.15342878051E+04  0.22170155451E+04  0.16003496050E+04 0.  0.
        1    1    3    3  502    0  0.56344816700E+03 -0.49864385077E+03  0.38988518716E+03  0.84742550469E+03  0.50400001928E-02 0. -1.
       -1    1    3    3    0  502 -0.56344816700E+03  0.49864385077E+03  0.11444026179E+04  0.13695900404E+04  0.50400001928E-02 0.  1.
</event>
<event>
 5   0  0.1126485E-05  0.1600602E+04  0.7818609E-02  0.8820178E-01
       -1   -1    0    0    0  501  0.00000000000E+00  0.00000000000E+00  0.10689542320E+04  0.10689542320E+04  0.50400001928E-02 0. -1.
        1   -1    0    0  501    0  0.00000000000E+00  0.00000000000E+00 -0.59916668397E+03  0.59916668399E+03  0.50400001928E-02 0.  1.
    10030    2    1    2    0    0  0.00000000000E+00  0.00000000000E+00  0.46978754802E+03  0.16681209160E+04  0.16006020899E+04 0.  0.
        2    1    3    3  502    0 -0.30047984328E+03 -0.74363152678E+02  0.10040390612E+04  0.10506723805E+04  0.25500000920E-02 0. -1.
       -2    1    3    3    0  502  0.30047984328E+03  0.74363152678E+02 -0.53425151316E+03  0.61744853552E+03  0.25500000920E-02 0.  1.
</event>
<event>
 5   0  0.1126485E-05  0.1600055E+04  0.7818609E-02  0.8820514E-01
        1   -1    0    0  501    0  0.00000000000E+00  0.00000000000E+00  0.84638289664E+03  0.84638289666E+03  0.50400001928E-02 0. -1.
       -1   -1    0    0    0  501  0.00000000000E+00  0.00000000000E+00 -0.75621105419E+03  0.75621105421E+03  0.50400001928E-02 0.  1.
    10030    2    1    2    0    0  0.00000000000E+00  0.00000000000E+00  0.90171842452E+02  0.16025939509E+04  0.16000551272E+04 0.  0.
        2    1    3    3  502    0 -0.48764818329E+03 -0.53820886700E+03 -0.29096779054E+03  0.78238851622E+03  0.25500000920E-02 0.  1.
       -2    1    3    3    0  502  0.48764818329E+03  0.53820886700E+03  0.38113963299E+03  0.82020543464E+03  0.25500000920E-02 0. -1.
</event>
<event>
 5   0  0.2125803E-05  0.1597623E+04  0.7818609E-02  0.8822010E-01
        2   -1    0    0  501    0  0.00000000000E+00  0.00000000000E+00  0.90814609875E+03  0.90814609876E+03  0.25500000920E-02 0. -1.
       -2   -1    0    0    0  501  0.00000000000E+00  0.00000000000E+00 -0.70263996233E+03  0.70263996233E+03  0.25500000920E-02 0.  1.
    10030    2    1    2    0    0  0.00000000000E+00  0.00000000000E+00  0.20550613643E+03  0.16107860611E+04  0.15976229100E+04 0.  0.
        3    1    3    3  502    0  0.59322724679E+03  0.48914148742E+03 -0.11564599608E+03  0.77752939987E+03  0.10100000352E+00 0.  1.
       -3    1    3    3    0  502 -0.59322724679E+03 -0.48914148742E+03  0.32115213251E+03  0.83325666122E+03  0.10100000352E+00 0. -1.
</event>
<event>
 5   0  0.2147844E-05  0.1599836E+04  0.7818609E-02  0.8820649E-01
       -2   -1    0    0    0  501  0.00000000000E+00  0.00000000000E+00  0.52877411332E+03  0.52877411332E+03  0.25500000920E-02 0. -1.
        2   -1    0    0  501    0  0.00000000000E+00  0.00000000000E+00 -0.12100989480E+04  0.12100989480E+04  0.25500000920E-02 0.  1.
    10030    2    1    2    0    0  0.00000000000E+00  0.00000000000E+00 -0.68132483468E+03  0.17388730613E+04  0.15998362394E+04 0.  0.
        2    1    3    3  502    0 -0.89927487546E+00  0.75804263234E+03 -0.63044270240E+02  0.76066025344E+03  0.25500000920E-02 0. -1.
       -2    1    3    3    0  502  0.89927487546E+00 -0.75804263234E+03 -0.61828056444E+03  0.97821280789E+03  0.25500000920E-02 0.  1.
</event>
<event>
 5   0  0.2147844E-05  0.1600265E+04  0.7818609E-02  0.8820385E-01
       -2   -1    0    0    0  501  0.00000000000E+00  0.00000000000E+00  0.44159165668E+03  0.44159165668E+03  0.25500000920E-02 0. -1.
        2   -1    0    0  501    0  0.00000000000E+00  0.00000000000E+00 -0.14497822167E+04  0.14497822167E+04  0.25500000920E-02 0.  1.
    10030    2    1    2    0    0  0.00000000000E+00  0.00000000000E+00 -0.10081905600E+04  0.18913738733E+04  0.16002646417E+04 0.  0.
        2    1    3    3  502    0  0.22664517424E+03 -0.16460318587E+03  0.38174804772E+03  0.47349109363E+03  0.25500000920E-02 0. -1.
       -2    1    3    3    0  502 -0.22664517424E+03  0.16460318587E+03 -0.13899386077E+04  0.14178827797E+04  0.25500000920E-02 0.  1.
</event>
<event>
 5   0  0.1090674E-05  0.1600094E+04  0.7818609E-02  0.8820490E-01
        1   -1    0    0  501    0  0.00000000000E+00  0.00000000000E+00  0.16136681745E+04  0.16136681745E+04  0.50400001928E-02 0.  1.
       -1   -1    0    0    0  501  0.00000000000E+00  0.00000000000E+00 -0.39665866554E+03  0.39665866557E+03  0.50400001928E-02 0. -1.
    10030    2    1    2    0    0  0.00000000000E+00  0.00000000000E+00  0.12170095089E+04  0.20103268400E+04  0.16000943281E+04 0.  0.
        4    1    3    3  502    0  0.12478044406E+03  0.77863718388E+03  0.43888026559E+03  0.90247632865E+03  0.12699999809E+01 0. -1.
       -4    1    3    3    0  502 -0.12478044406E+03 -0.77863718388E+03  0.77812924333E+03  0.11078505114E+04  0.12699999809E+01 0.  1.
</event>
<event>
 5   0  0.7597000E-06  0.1599138E+04  0.7818609E-02  0.8821078E-01
        3   -1    0    0  501    0  0.00000000000E+00  0.00000000000E+00  0.14121042086E+04  0.14121042122E+04  0.10100000352E+00 0.  1.
       -3   -1    0    0    0  501  0.00000000000E+00  0.00000000000E+00 -0.45273584787E+03  0.45273585914E+03  0.10100000352E+00 0. -1.
    10030    2    1    2    0    0  0.00000000000E+00  0.00000000000E+00  0.95936836068E+03  0.18648400713E+04  0.15991375301E+04 0.  0.
        4    1    3    3  502    0  0.58102386864E+03 -0.30488361777E+03  0.10125102878E+04  0.12065328226E+04  0.12699999809E+01 0.  1.
       -4    1    3    3    0  502 -0.58102386864E+03  0.30488361777E+03 -0.53141927128E+02  0.65830724866E+03  0.12699999809E+01 0. -1.
</event>
<event>
 5   0  0.2046108E-05  0.1599650E+04  0.7818609E-02  0.8820763E-01
        2   -1    0    0  501    0  0.00000000000E+00  0.00000000000E+00  0.18247235768E+04  0.18247235768E+04  0.25500000920E-02 0.  1.
       -2   -1    0    0    0  501  0.00000000000E+00  0.00000000000E+00 -0.35058449151E+03  0.35058449152E+03  0.25500000920E-02 0. -1.
    10030    2    1    2    0    0  0.00000000000E+00  0.00000000000E+00  0.14741390853E+04  0.21753080683E+04  0.15996496958E+04 0.  0.
        1    1    3    3  502    0  0.31085186536E+03 -0.60091300298E+03  0.15694000763E+03  0.69451816777E+03  0.50400001928E-02 0. -1.
       -1    1    3    3    0  502 -0.31085186536E+03  0.60091300298E+03  0.13171990777E+04  0.14807899006E+04  0.50400001928E-02 0.  1.
</event>
<event>
 5   0  0.2125803E-05  0.1597923E+04  0.7818609E-02  0.8821825E-01
       -2   -1    0    0    0  501  0.00000000000E+00  0.00000000000E+00  0.36228353337E+03  0.36228353338E+03  0.25500000920E-02 0. -1.
        2   -1    0    0  501    0  0.00000000000E+00  0.00000000000E+00 -0.17619889744E+04  0.17619889744E+04  0.25500000920E-02 0.  1.
    10030    2    1    2    0    0  0.00000000000E+00  0.00000000000E+00 -0.13997054410E+04  0.21242725078E+04  0.15979231413E+04 0.  0.
        3    1    3    3  502    0 -0.21903950578E+03  0.55095516047E+03  0.12100157881E+02  0.59302303325E+03  0.10100000352E+00 0. -1.
       -3    1    3    3    0  502  0.21903950578E+03 -0.55095516047E+03 -0.14118055989E+04  0.15312494745E+04  0.10100000352E+00 0.  1.
</event>
<event>
 5   0  0.1126485E-05  0.1599665E+04  0.7818609E-02  0.8820754E-01
        1   -1    0    0  501    0  0.00000000000E+00  0.00000000000E+00  0.13111495193E+04  0.13111495193E+04  0.50400001928E-02 0.  1.
       -1   -1    0    0    0  501  0.00000000000E+00  0.00000000000E+00 -0.48791686451E+03  0.48791686454E+03  0.50400001928E-02 0. -1.
    10030    2    1    2    0    0  0.00000000000E+00  0.00000000000E+00  0.82323265476E+03  0.17990663838E+04  0.15996649179E+04 0.  0.
        2    1    3    3  502    0 -0.47015718227E+02 -0.26634314020E+03  0.12581609740E+04  0.12869025536E+04  0.25500000920E-02 0.  1.
       -2    1    3    3    0  502  0.47015718227E+02  0.26634314020E+03 -0.43492831922E+03  0.51216383019E+03  0.25500000920E-02 0. -1.
</event>
<event>
 5   0  0.2125803E-05  0.1599717E+04  0.7818609E-02  0.8820722E-01
        2   -1    0    0  501    0  0.00000000000E+00  0.00000000000E+00  0.13214720663E+04  0.13214720663E+04  0.25500000920E-02 0.  1.
       -2   -1    0    0    0  501  0.00000000000E+00  0.00000000000E+00 -0.48413727097E+03  0.48413727098E+03  0.25500000920E-02 0. -1.
    10030    2    1    2    0    0  0.00000000000E+00  0.00000000000E+00  0.83733479532E+03  0.18056093373E+04  0.15997173248E+04 0.  0.
        3    1    3    3  502    0  0.73269095270E+03 -0.31990572686E+03  0.44627256982E+03  0.91560631443E+03  0.10100000352E+00 0. -1.
       -3    1    3    3    0  502 -0.73269095270E+03  0.31990572686E+03  0.39106222549E+03  0.89000302284E+03  0.10100000352E+00 0.  1.
</event>
<event>
 5   0  0.2147844E-05  0.1599741E+04  0.7818609E-02  0.8820707E-01
        2   -1    0    0  501    0  0.00000000000E+00  0.00000000000E+00  0.12126196476E+04  0.12126196476E+04  0.25500000920E-02 0. -1.
       -2   -1    0    0    0  501  0.00000000000E+00  0.00000000000E+00 -0.52761187234E+03  0.52761187234E+03  0.25500000920E-02 0.  1.
    10030    2    1    2    0    0  0.00000000000E+00  0.00000000000E+00  0.68500777523E+03  0.17402315199E+04  0.15997406323E+04 0.  0.
        2    1    3    3  502    0  0.23432978749E+03 -0.76422763699E+03  0.31100978230E+03  0.85771872728E+03  0.25500000920E-02 0. -1.
       -2    1    3    3    0  502 -0.23432978749E+03  0.76422763699E+03  0.37399799294E+03  0.88251279264E+03  0.25500000920E-02 0.  1.
</event>
<event>
 5   0  0.1994525E-05  0.1599705E+04  0.7818609E-02  0.8820729E-01
        2   -1    0    0  501    0  0.00000000000E+00  0.00000000000E+00  0.10553702608E+04  0.10553702608E+04  0.25500000920E-02 0.  1.
       -2   -1    0    0    0  501  0.00000000000E+00  0.00000000000E+00 -0.60619855517E+03  0.60619855518E+03  0.25500000920E-02 0. -1.
    10030    2    1    2    0    0  0.00000000000E+00  0.00000000000E+00  0.44917170565E+03  0.16615688160E+04  0.15997048819E+04 0.  0.
        5    1    3    3  502    0  0.25897845908E+02 -0.53130359807E+03 -0.39583066859E+03  0.66306728160E+03  0.46999998093E+01 0. -1.
       -5    1    3    3    0  502 -0.25897845908E+02  0.53130359807E+03  0.84500237423E+03  0.99850153440E+03  0.46999998093E+01 0.  1.
</event>
<event>
 5   0  0.1057506E-05  0.1599871E+04  0.7818609E-02  0.8820627E-01
        1   -1    0    0  501    0  0.00000000000E+00  0.00000000000E+00  0.17728335911E+04  0.17728335911E+04  0.50400001928E-02 0. -1.
       -1   -1    0    0    0  501  0.00000000000E+00  0.00000000000E+00 -0.36094565772E+03  0.36094565776E+03  0.50400001928E-02 0.  1.
    10030    2    1    2    0    0  0.00000000000E+00  0.00000000000E+00  0.14118879333E+04  0.21337792488E+04  0.15998707280E+04 0.  0.
        5    1    3    3  502    0 -0.65699465045E+03 -0.45464658066E+03  0.65379206801E+03  0.10323815391E+04  0.46999998093E+01 0. -1.
       -5    1    3    3    0  502  0.65699465045E+03  0.45464658066E+03  0.75809586533E+03  0.11013977098E+04  0.46999998093E+01 0.  1.
</event>
<event>
 5   0  0.1057506E-05  0.1600297E+04  0.7818609E-02  0.8820366E-01
       -1   -1    0    0    0  501  0.00000000000E+00  0.00000000000E+00  0.54037453693E+03  0.54037453695E+03  0.50400001928E-02 0. -1.
        1   -1    0    0  501    0  0.00000000000E+00  0.00000000000E+00 -0.11848029007E+04  0.11848029007E+04  0.50400001928E-02 0.  1.
    10030    2    1    2    0    0  0.00000000000E+00  0.00000000000E+00 -0.64442836376E+03  0.17251774377E+04  0.16002966211E+04 0.  0.
        5    1    3    3  502    0  0.38657912996E+03  0.45658405313E+03 -0.89499818464E+03  0.10765483091E+04  0.46999998093E+01 0.  1.
       -5    1    3    3    0  502 -0.38657912996E+03 -0.45658405313E+03  0.25056982088E+03  0.64862912857E+03  0.46999998093E+01 0. -1.
</event>
<event>
 5   0  0.2046108E-05  0.1600881E+04  0.7818609E-02  0.8820007E-01
        2   -1    0    0  501    0  0.00000000000E+00  0.00000000000E+00  0.17879427730E+04  0.17879427730E+04  0.25500000920E-02 0. -1.
       -2   -1    0    0    0  501  0.00000000000E+00  0.00000000000E+00 -0.35834739266E+03  0.35834739267E+03  0.25500000920E-02 0.  1.
    10030    2    1    2    0    0  0.00000000000E+00  0.00000000000E+00  0.14295953804E+04  0.21462901657E+04  0.16008805464E+04 0.  0.
        1    1    3    3  502    0  0.39845843081E+03  0.45498966963E+03  0.11834466078E+02  0.60491716389E+03  0.50400001928E-02 0.  1.
       -1    1    3    3    0  502 -0.39845843081E+03 -0.45498966963E+03  0.14177609143E+04  0.15413730018E+04  0.50400001928E-02 0. -1.
</event>
<event>
 5   0  0.1090674E-05  0.1600252E+04  0.7818609E-02  0.8820393E-01
        1   -1    0    0  501    0  0.00000000000E+00  0.00000000000E+00  0.20179461523E+04  0.20179461523E+04  0.50400001928E-02 0.  1.
       -1   -1    0    0    0  501  0.00000000000E+00  0.00000000000E+00 -0.31725418560E+03  0.31725418564E+03  0.50400001928E-02 0. -1.
    10030    2    1    2    0    0  0.00000000000E+00  0.00000000000E+00  0.17006919667E+04  0.23352003380E+04  0.16002523091E+04 0.  0.
        4    1    3    3  502    0 -0.50438758690E+03  0.17100607389E+02 -0.55696217760E+02  0.50774299617E+03  0.12699999809E+01 0. -1.
       -4    1    3    3    0  502  0.50438758690E+03 -0.17100607389E+02  0.17563881845E+04  0.18274573418E+04  0.12699999809E+01 0.  1.
</event>
<event>
 5   0  0.2147844E-05  0.1600867E+04  0.7818609E-02  0.8820016E-01
       -2   -1    0    0    0  501  0.00000000000E+00  0.00000000000E+00  0.28544450289E+03  0.28544450291E+03  0.25500000920E-02 0.  1.
        2   -1    0    0  501    0  0.00000000000E+00  0.00000000000E+00 -0.22445476640E+04  0.22445476640E+04  0.25500000920E-02 0. -1.
    10030    2    1    2    0    0  0.00000000000E+00  0.00000000000E+00 -0.19591031611E+04  0.25299921669E+04  0.16008670053E+04 0.  0.
        2    1    3    3  502    0  0.49436242308E+03 -0.26196725999E+03 -0.74894305068E+02  0.56447338963E+03  0.25500000920E-02 0.  1.
       -2    1    3    3    0  502 -0.49436242308E+03  0.26196725999E+03 -0.18842088560E+04  0.19655187773E+04  0.25500000920E-02 0. -1.
</event>
<event>
 5   0  0.1060251E-05  0.1600548E+04  0.7818609E-02  0.8820211E-01
       -1   -1    0    0    0  501  0.00000000000E+00  0.00000000000E+00  0.92375907960E+03  0.92375907962E+03  0.50400001928E-02 0.  1.
        1   -1    0    0  501    0  0.00000000000E+00  0.00000000000E+00 -0.69329624076E+03  0.69329624077E+03  0.50400001928E-02 0. -1.
    10030    2    1    2    0    0  0.00000000000E+00  0.00000000000E+00  0.23046283885E+03  0.16170553204E+04  0.16005482777E+04 0.  0.
        1    1    3    3  502    0 -0.33046851499E+03  0.60616209504E+03  0.52412356581E+03  0.86680299787E+03  0.50400001928E-02 0.  1.
       -1    1    3    3    0  502  0.33046851499E+03 -0.60616209504E+03 -0.29366072696E+03  0.75025232252E+03  0.50400001928E-02 0. -1.
</event>
<event>
 5   0  0.1990948E-05  0.1600365E+04  0.7818609E-02  0.8820324E-01
       -2   -1    0    0    0  501  0.00000000000E+00  0.00000000000E+00  0.24883616905E+03  0.24883616906E+03  0.25500000920E-02 0. -1.
        2   -1    0    0  501    0  0.00000000000E+00  0.00000000000E+00 -0.25731461629E+04  0.25731461629E+04  0.25500000920E-02 0.  1.
    10030    2    1    2    0    0  0.00000000000E+00  0.00000000000E+00 -0.23243099938E+04  0.28219823319E+04  0.16003647504E+04 0.  0.
        4    1    3    3  502    0 -0.32889412014E+03  0.38271156770E+02 -0.24466757198E+04  0.24689794884E+04  0.12699999809E+01 0.  1.
       -4    1    3    3    0  502  0.32889412014E+03 -0.38271156770E+02  0.12236572597E+03  0.35300284347E+03  0.12699999809E+01 0. -1.
</event>
<event>
 5   0  0.1090674E-05  0.1600031E+04  0.7818609E-02  0.8820529E-01
        1   -1    0    0  501    0  0.00000000000E+00  0.00000000000E+00  0.25703688002E+04  0.25703688002E+04  0.50400001928E-02 0. -1.
       -1   -1    0    0    0  501  0.00000000000E+00  0.00000000000E+00 -0.24900111800E+03  0.24900111805E+03  0.50400001928E-02 0.  1.
    10030    2    1    2    0    0  0.00000000000E+00  0.00000000000E+00  0.23213676822E+04  0.28193699183E+04  0.16000308810E+04 0.  0.
        4    1    3    3  502    0 -0.12398846358E+03  0.47852244164E+03  0.52305100551E+02  0.49708581019E+03  0.12699999809E+01 0.  1.
       -4    1    3    3    0  502  0.12398846358E+03 -0.47852244164E+03  0.22690625817E+04  0.23222841081E+04  0.12699999809E+01 0. -1.
</event>
<event>
 5   0  0.7597000E-06  0.1599851E+04  0.7818609E-02  0.8820640E-01
        4   -1    0    0  501    0  0.00000000000E+00  0.00000000000E+00  0.10993285737E+04  0.10993293072E+04  0.12699999809E+01 0. -1.
       -4   -1    0    0    0  501  0.00000000000E+00  0.00000000000E+00 -0.58206352539E+03  0.58206491089E+03  0.12699999809E+01 0.  1.
    10030    2    1    2    0    0  0.00000000000E+00  0.00000000000E+00  0.51726504827E+03  0.16813942181E+04  0.15998510514E+04 0.  0.
        2    1    3    3  502    0 -0.30094422079E+02 -0.74791070922E+03 -0.37891217886E+02  0.74947438088E+03  0.25500000920E-02 0. -1.
       -2    1    3    3    0  502  0.30094422079E+02  0.74791070922E+03  0.55515626616E+03  0.93191983725E+03  0.25500000920E-02 0.  1.
</event>
<event>
 5   0  0.1090674E-05  0.1597143E+04  0.7818609E-02  0.8822305E-01
       -1   -1    0    0    0  501  0.00000000000E+00  0.00000000000E+00  0.91958191525E+03  0.91958191526E+03  0.50400001928E-02 0. -1.
        1   -1    0    0  501    0  0.00000000000E+00  0.00000000000E+00 -0.69348550244E+03  0.69348550246E+03  0.50400001928E-02 0.  1.
    10030    2    1    2    0    0  0.00000000000E+00  0.00000000000E+00  0.22609641280E+03  0.16130674177E+04  0.15971433581E+04 0.  0.
        4    1    3    3  502    0 -0.19130561729E+03  0.31725662086E+03  0.82753745195E+03  0.90668045637E+03  0.12699999809E+01 0. -1.
       -4    1    3    3    0  502  0.19130561729E+03 -0.31725662086E+03 -0.60144103915E+03  0.70638696135E+03  0.12699999809E+01 0.  1.
</event>
<event>
 5   0  0.1057506E-05  0.1601100E+04  0.7818609E-02  0.8819873E-01
       -1   -1    0    0    0  501  0.00000000000E+00  0.00000000000E+00  0.31989016631E+03  0.31989016635E+03  0.50400001928E-02 0. -1.
        1   -1    0    0  501    0  0.00000000000E+00  0.00000000000E+00 -0.20034373744E+04  0.20034373744E+04  0.50400001928E-02 0.  1.
    10030    2    1    2    0    0  0.00000000000E+00  0.00000000000E+00 -0.16835472081E+04  0.23233275407E+04  0.16010995159E+04 0.  0.
        5    1    3    3  502    0 -0.21271874511E+03 -0.15668336144E+03  0.25478680247E+03  0.36706585919E+03  0.46999998093E+01 0. -1.
       -5    1    3    3    0  502  0.21271874511E+03  0.15668336144E+03 -0.19383340105E+04  0.19562616815E+04  0.46999998093E+01 0.  1.
</event>
<event>
 5   0  0.2046108E-05  0.1599848E+04  0.7818609E-02  0.8820641E-01
       -2   -1    0    0    0  501  0.00000000000E+00  0.00000000000E+00  0.36717390362E+03  0.36717390363E+03  0.25500000920E-02 0. -1.
        2   -1    0    0  501    0  0.00000000000E+00  0.00000000000E+00 -0.17427122805E+04  0.17427122805E+04  0.25500000920E-02 0.  1.
    10030    2    1    2    0    0  0.00000000000E+00  0.00000000000E+00 -0.13755383769E+04  0.21098861841E+04  0.15998480814E+04 0.  0.
        1    1    3    3  502    0 -0.59665381420E+03  0.50921156290E+03 -0.48098053511E+03  0.92012741779E+03  0.50400001928E-02 0. -1.
       -1    1    3    3    0  502  0.59665381420E+03 -0.50921156290E+03 -0.89455784177E+03  0.11897587663E+04  0.50400001928E-02 0.  1.
</event>
<event>
 5   0  0.1081831E-05  0.1599463E+04  0.7818609E-02  0.8820878E-01
        1   -1    0    0  501    0  0.00000000000E+00  0.00000000000E+00  0.72945276484E+03  0.72945276486E+03  0.50400001928E-02 0. -1.
       -1   -1    0    0    0  501  0.00000000000E+00  0.00000000000E+00 -0.87678100479E+03  0.87678100481E+03  0.50400001928E-02 0.  1.
    10030    2    1    2    0    0  0.00000000000E+00  0.00000000000E+00 -0.14732823995E+03  0.16062337697E+04  0.15994628200E+04 0.  0.
        3    1    3    3  502    0  0.60198402453E+03  0.40966501127E+03 -0.40576047839E+03  0.83357768880E+03  0.10100000352E+00 0.  1.
       -3    1    3    3    0  502 -0.60198402453E+03 -0.40966501127E+03  0.25843223843E+03  0.77265608087E+03  0.10100000352E+00 0. -1.
</event>
<event>
 5   0  0.2046108E-05  0.1599590E+04  0.7818609E-02  0.8820800E-01
        2   -1    0    0  501    0  0.00000000000E+00  0.00000000000E+00  0.75838888217E+03  0.75838888217E+03  0.25500000920E-02 0.  1.
       -2   -1    0    0    0  501  0.00000000000E+00  0.00000000000E+00 -0.84346134970E+03  0.84346134970E+03  0.25500000920E-02 0. -1.
    10030    2    1    2    0    0  0.00000000000E+00  0.00000000000E+00 -0.85072467532E+02  0.16018502319E+04  0.15995895851E+04 0.  0.
        1    1    3    3  502    0 -0.40392850784E+03 -0.39591502403E+03 -0.60881287017E+03  0.83099943238E+03  0.50400001928E-02 0. -1.
       -1    1    3    3    0  502  0.40392850784E+03  0.39591502403E+03  0.52374040264E+03  0.77085079949E+03  0.50400001928E-02 0.  1.
</event>
<event>
 5   0  0.1081831E-05  0.1599785E+04  0.7818609E-02  0.8820680E-01
       -1   -1    0    0    0  501  0.00000000000E+00  0.00000000000E+00  0.20608170566E+04  0.20608170567E+04  0.50400001928E-02 0.  1.
        1   -1    0    0  501    0  0.00000000000E+00  0.00000000000E+00 -0.31047281913E+03  0.31047281917E+03  0.50400001928E-02 0. -1.
    10030    2    1    2    0    0  0.00000000000E+00  0.00000000000E+00  0.17503442375E+04  0.23712898758E+04  0.15997845872E+04 0.  0.
        3    1    3    3  502    0 -0.17416000379E+03  0.31293691861E+03 -0.18499459781E+03  0.40309333084E+03  0.10100000352E+00 0. -1.
       -3    1    3    3    0  502  0.17416000379E+03 -0.31293691861E+03  0.19353388353E+04  0.19681965450E+04  0.10100000352E+00 0.  1.
</event>
<event>
 5   0  0.1057506E-05  0.1600204E+04  0.7818609E-02  0.8820423E-01
       -1   -1    0    0    0  501  0.00000000000E+00  0.00000000000E+00  0.10501172701E+04  0.10501172701E+04  0.50400001928E-02 0. -1.
        1   -1    0    0  501    0  0.00000000000E+00  0.00000000000E+00 -0.60961088756E+03  0.60961088758E+03  0.50400001928E-02 0.  1.
    10030    2    1    2    0    0  0.00000000000E+00  0.00000000000E+00  0.44050638251E+03  0.16597281577E+04  0.16002036384E+04 0.  0.
        5    1    3    3  502    0 -0.43717105848E+02  0.63392176508E+03 -0.28401374863E+03  0.69602721857E+03  0.46999998093E+01 0.  1.
       -5    1    3    3    0  502  0.43717105848E+02 -0.63392176508E+03  0.72452013114E+03  0.96370093909E+03  0.46999998093E+01 0. -1.
</event>
<event>
 5   0  0.1990948E-05  0.1598571E+04  0.7818609E-02  0.8821426E-01
        2   -1    0    0  501    0  0.00000000000E+00  0.00000000000E+00  0.25920579395E+04  0.25920579395E+04  0.25500000920E-02 0.  1.
       -2   -1    0    0    0  501  0.00000000000E+00  0.00000000000E+00 -0.24646730546E+03  0.24646730547E+03  0.25500000920E-02 0. -1.
    10030    2    1    2    0    0  0.00000000000E+00  0.00000000000E+00  0.23455906340E+04  0.28385252450E+04  0.15985712821E+04 0.  0.
        4    1    3    3  502    0 -0.14965841046E+03 -0.46497731904E+03  0.49409856375E+02  0.49096282329E+03  0.12699999809E+01 0. -1.
       -4    1    3    3    0  502  0.14965841046E+03  0.46497731904E+03  0.22961807777E+04  0.23475624217E+04  0.12699999809E+01 0.  1.
</event>
<event>
 5   0  0.2147844E-05  0.1600304E+04  0.7818609E-02  0.8820361E-01
       -2   -1    0    0    0  501  0.00000000000E+00  0.00000000000E+00  0.87853204234E+03  0.87853204235E+03  0.25500000920E-02 0. -1.
        2   -1    0    0  501    0  0.00000000000E+00  0.00000000000E+00 -0.72876522898E+03  0.72876522898E+03  0.25500000920E-02 0.  1.
    10030    2    1    2    0    0  0.00000000000E+00  0.00000000000E+00  0.14976681336E+03  0.16072972713E+04  0.16003044773E+04 0.  0.
        2    1    3    3  502    0 -0.63598823236E+03  0.14298048558E+03 -0.39116917659E+03  0.76022218836E+03  0.25500000920E-02 0.  1.
       -2    1    3    3    0  502  0.63598823236E+03 -0.14298048558E+03  0.54093598996E+03  0.84707508297E+03  0.25500000920E-02 0. -1.
</event>
<event>
 5   0  0.1090674E-05  0.1600154E+04  0.7818609E-02  0.8820453E-01
        1   -1    0    0  501    0  0.00000000000E+00  0.00000000000E+00  0.14716368133E+04  0.14716368133E+04  0.50400001928E-02 0. -1.
       -1   -1    0    0    0  501  0.00000000000E+00  0.00000000000E+00 -0.43497372234E+03  0.43497372237E+03  0.50400001928E-02 0.  1.
    10030    2    1    2    0    0  0.00000000000E+00  0.00000000000E+00  0.10366630909E+04  0.19066105356E+04  0.16001541709E+04 0.  0.
        4    1    3    3  502    0 -0.23613403505E+03  0.65243465216E+03  0.43677753421E+02  0.69522630624E+03  0.12699999809E+01 0.  1.
       -4    1    3    3    0  502  0.23613403505E+03 -0.65243465216E+03  0.99298533749E+03  0.12113842294E+04  0.12699999809E+01 0. -1.
</event>
<event>
 5   0  0.1994525E-05  0.1600242E+04  0.7818609E-02  0.8820399E-01
        2   -1    0    0  501    0  0.00000000000E+00  0.00000000000E+00  0.10589434402E+04  0.10589434402E+04  0.25500000920E-02 0. -1.
       -2   -1    0    0    0  501  0.00000000000E+00  0.00000000000E+00 -0.60455891719E+03  0.60455891719E+03  0.25500000920E-02 0.  1.
    10030    2    1    2    0    0  0.00000000000E+00  0.00000000000E+00  0.45438452299E+03  0.16635023574E+04  0.16002421061E+04 0.  0.
        5    1    3    3  502    0 -0.27827561812E+02  0.64157534609E+03  0.72332046011E+03  0.96726825437E+03  0.46999998093E+01 0. -1.
       -5    1    3    3    0  502  0.27827561812E+02 -0.64157534609E+03 -0.26893593711E+03  0.69623410300E+03  0.46999998093E+01 0.  1.
</event>
<event>
 5   0  0.1060251E-05  0.1600549E+04  0.7818609E-02  0.8820211E-01
       -1   -1    0    0    0  501  0.00000000000E+00  0.00000000000E+00  0.88020008703E+03  0.88020008704E+03  0.50400001928E-02 0. -1.
        1   -1    0    0  501    0  0.00000000000E+00  0.00000000000E+00 -0.72760635896E+03  0.72760635898E+03  0.50400001928E-02 0.  1.
    10030    2    1    2    0    0  0.00000000000E+00  0.00000000000E+00  0.15259372807E+03  0.16078064460E+04  0.16005488815E+04 0.  0.
        1    1    3    3  502    0  0.15749226839E+03  0.28340743530E+03  0.81126713011E+03  0.87365779652E+03  0.50400001928E-02 0. -1.
       -1    1    3    3    0  502 -0.15749226839E+03 -0.28340743530E+03 -0.65867340204E+03  0.73414864950E+03  0.50400001928E-02 0.  1.
</event>
<event>
 5   0  0.1990948E-05  0.1600880E+04  0.7818609E-02  0.8820007E-01
        2   -1    0    0  501    0  0.00000000000E+00  0.00000000000E+00  0.13060177700E+04  0.13060177700E+04  0.25500000920E-02 0. -1.
       -2   -1    0    0    0  501  0.00000000000E+00  0.00000000000E+00 -0.49057867919E+03  0.49057867920E+03  0.25500000920E-02 0.  1.
    10030    2    1    2    0    0  0.00000000000E+00  0.00000000000E+00  0.81543909079E+03  0.17965964492E+04  0.16008803486E+04 0.  0.
        4    1    3    3  502    0 -0.92964928114E+02 -0.67216387280E+03  0.88419075153E+03  0.11145589476E+04  0.12699999809E+01 0. -1.
       -4    1    3    3    0  502  0.92964928114E+02  0.67216387280E+03 -0.68751660744E+02  0.68203750154E+03  0.12699999809E+01 0.  1.
</event>
<event>
 5   0  0.1126485E-05  0.1599216E+04  0.7818609E-02  0.8821030E-01
        1   -1    0    0  501    0  0.00000000000E+00  0.00000000000E+00  0.66271309246E+03  0.66271309248E+03  0.50400001928E-02 0. -1.
       -1   -1    0    0    0  501  0.00000000000E+00  0.00000000000E+00 -0.96478082207E+03  0.96478082208E+03  0.50400001928E-02 0.  1.
    10030    2    1    2    0    0  0.00000000000E+00  0.00000000000E+00 -0.30206772961E+03  0.16274939146E+04  0.15992159106E+04 0.  0.
        2    1    3    3  502    0  0.16115410902E+03  0.68104892814E+02  0.64299581803E+03  0.66637267748E+03  0.25500000920E-02 0. -1.
       -2    1    3    3    0  502 -0.16115410902E+03 -0.68104892814E+02 -0.94506354764E+03  0.96112123708E+03  0.25500000920E-02 0.  1.
</event>
<event>
 5   0  0.1126485E-05  0.1599390E+04  0.7818609E-02  0.8820923E-01
       -1   -1    0    0    0  501  0.00000000000E+00  0.00000000000E+00  0.73920378569E+03  0.73920378571E+03  0.50400001928E-02 0. -1.
        1   -1    0    0  501    0  0.00000000000E+00  0.00000000000E+00 -0.86513618853E+03  0.86513618854E+03  0.50400001928E-02 0.  1.
    10030    2    1    2    0    0  0.00000000000E+00  0.00000000000E+00 -0.12593240283E+03  0.16043399743E+04  0.15993898158E+04 0.  0.
        2    1    3    3  502    0 -0.68803645734E+03  0.40511244929E+03 -0.18087562502E+02  0.79864724573E+03  0.25500000920E-02 0. -1.
       -2    1    3    3    0  502  0.68803645734E+03 -0.40511244929E+03 -0.10784484033E+03  0.80569272852E+03  0.25500000920E-02 0.  1.
</event>
<event>
 5   0  0.2147844E-05  0.1597179E+04  0.7818609E-02  0.8822283E-01
       -2   -1    0    0    0  501  0.00000000000E+00  0.00000000000E+00  0.67061125353E+03  0.67061125353E+03  0.25500000920E-02 0. -1.
        2   -1    0    0  501    0  0.00000000000E+00  0.00000000000E+00 -0.95099090447E+03  0.95099090447E+03  0.25500000920E-02 0.  1.
    10030    2    1    2    0    0  0.00000000000E+00  0.00000000000E+00 -0.28037965094E+03  0.16216021580E+04  0.15971790163E+04 0.  0.
        2    1    3    3  502    0  0.13634968708E+03 -0.63060001621E+03  0.33764215776E+03  0.72818256249E+03  0.25500000920E-02 0. -1.
       -2    1    3    3    0  502 -0.13634968708E+03  0.63060001621E+03 -0.61802180870E+03  0.89341959551E+03  0.25500000920E-02 0.  1.
</event>
<event>
 5   0  0.1057506E-05  0.1600275E+04  0.7818609E-02  0.8820379E-01
        1   -1    0    0  501    0  0.00000000000E+00  0.00000000000E+00  0.47880282846E+03  0.47880282848E+03  0.50400001928E-02 0.  1.
       -1   -1    0    0    0  501  0.00000000000E+00  0.00000000000E+00 -0.13371273064E+04  0.13371273064E+04  0.50400001928E-02 0. -1.
    10030    2    1    2    0    0  0.00000000000E+00  0.00000000000E+00 -0.85832447796E+03  0.18159301349E+04  0.16002753967E+04 0.  0.
        5    1    3    3  502    0 -0.60603931854E+03  0.51855448670E+03 -0.35725173364E+03  0.87397557316E+03  0.46999998093E+01 0.  1.
       -5    1    3    3    0  502  0.60603931854E+03 -0.51855448670E+03 -0.50107274432E+03  0.94195456174E+03  0.46999998093E+01 0. -1.
</event>
<event>
 5   0  0.1060251E-05  0.1600338E+04  0.7818609E-02  0.8820340E-01
       -1   -1    0    0    0  501  0.00000000000E+00  0.00000000000E+00  0.53824091687E+03  0.53824091689E+03  0.50400001928E-02 0.  1.
        1   -1    0    0  501    0  0.00000000000E+00  0.00000000000E+00 -0.11895608871E+04  0.11895608871E+04  0.50400001928E-02 0. -1.
    10030    2    1    2    0    0  0.00000000000E+00  0.00000000000E+00 -0.65131997020E+03  0.17278018040E+04  0.16003378925E+04 0.  0.
        1    1    3    3  502    0  0.64466161940E+03 -0.26279754544E+03  0.10024606423E+03  0.70334943438E+03  0.50400001928E-02 0.  1.
       -1    1    3    3    0  502 -0.64466161940E+03  0.26279754544E+03 -0.75156603443E+03  0.10244523696E+04  0.50400001928E-02 0. -1.
</event>
<event>
 5   0  0.1057506E-05  0.1599978E+04  0.7818609E-02  0.8820561E-01
       -1   -1    0    0    0  501  0.00000000000E+00  0.00000000000E+00  0.60147332455E+03  0.60147332457E+03  0.50400001928E-02 0.  1.
        1   -1    0    0  501    0  0.00000000000E+00  0.00000000000E+00 -0.10640250695E+04  0.10640250695E+04  0.50400001928E-02 0. -1.
    10030    2    1    2    0    0  0.00000000000E+00  0.00000000000E+00 -0.46255174496E+03  0.16654983941E+04  0.15999783698E+04 0.  0.
        5    1    3    3  502    0 -0.60796585552E+03 -0.33512190728E+03 -0.64508669455E+03  0.94767510662E+03  0.46999998093E+01 0. -1.
       -5    1    3    3    0  502  0.60796585552E+03  0.33512190728E+03  0.18253494959E+03  0.71782328747E+03  0.46999998093E+01 0.  1.
</event>
<event>
 5   0  0.2147844E-05  0.1598642E+04  0.7818609E-02  0.8821383E-01
        2   -1    0    0  501    0  0.00000000000E+00  0.00000000000E+00  0.15376364114E+04  0.15376364114E+04  0.25500000920E-02 0. -1.
       -2   -1    0    0    0  501  0.00000000000E+00  0.00000000000E+00 -0.41551691050E+03  0.41551691051E+03  0.25500000920E-02 0.  1.
    10030    2    1    2    0    0  0.00000000000E+00  0.00000000000E+00  0.11221195009E+04  0.19531533219E+04  0.15986418375E+04 0.  0.
        2    1    3    3  502    0  0.48297008645E+03  0.31970911709E+03  0.12340697399E+04  0.13632322424E+04  0.25500000920E-02 0. -1.
       -2    1    3    3    0  502 -0.48297008645E+03 -0.31970911709E+03 -0.11195023900E+03  0.58992107945E+03  0.25500000920E-02 0.  1.
</event>
<event>
 5   0  0.2147844E-05  0.1600045E+04  0.7818609E-02  0.8820520E-01
       -2   -1    0    0    0  501  0.00000000000E+00  0.00000000000E+00  0.70432964690E+03  0.70432964690E+03  0.25500000920E-02 0.  1.
        2   -1    0    0  501    0  0.00000000000E+00  0.00000000000E+00 -0.90871706794E+03  0.90871706794E+03  0.25500000920E-02 0. -1.
    10030    2    1    2    0    0  0.00000000000E+00  0.00000000000E+00 -0.20438742104E+03  0.16130467148E+04  0.16000454639E+04 0.  0.
        2    1    3    3  502    0 -0.58622769361E+03  0.99124110896E+02 -0.64184499736E+03  0.87490199380E+03  0.25500000920E-02 0. -1.
       -2    1    3    3    0  502  0.58622769361E+03 -0.99124110896E+02  0.43745757632E+03  0.73814472104E+03  0.25500000920E-02 0.  1.
</event>
<event>
 5   0  0.1060251E-05  0.1598889E+04  0.7818609E-02  0.8821231E-01
       -1   -1    0    0    0  501  0.00000000000E+00  0.00000000000E+00  0.35744562519E+03  0.35744562523E+03  0.50400001928E-02 0. -1.
        1   -1    0    0  501    0  0.00000000000E+00  0.00000000000E+00 -0.17879966930E+04  0.17879966930E+04  0.50400001928E-02 0.  1.
    10030    2    1    2    0    0  0.00000000000E+00  0.00000000000E+00 -0.14305510678E+04  0.21454423183E+04  0.15988891091E+04 0.  0.
        1    1    3    3  502    0 -0.59414671852E+03 -0.38627801066E+03 -0.21881438710E+03  0.74168777843E+03  0.50400001928E-02 0. -1.
       -1    1    3    3    0  502  0.59414671852E+03  0.38627801066E+03 -0.12117366807E+04  0.14037545398E+04  0.50400001928E-02 0.  1.
</event>
<event>
 5   0  0.2125803E-05  0.1597971E+04  0.7818609E-02  0.8821796E-01
        2   -1    0    0  501    0  0.00000000000E+00  0.00000000000E+00  0.17752798574E+04  0.17752798574E+04  0.25500000920E-02 0.  1.
       -2   -1    0    0    0  501  0.00000000000E+00  0.00000000000E+00 -0.35959259881E+03  0.35959259882E+03  0.25500000920E-02 0. -1.
    10030    2    1    2    0    0  0.00000000000E+00  0.00000000000E+00  0.14156872586E+04  0.21348724562E+04  0.15979705849E+04 0.  0.
        3    1    3    3  502    0  0.16007048907E+03 -0.10541369163E+03 -0.32842546033E+03  0.38026030696E+03  0.10100000352E+00 0. -1.
       -3    1    3    3    0  502 -0.16007048907E+03  0.10541369163E+03  0.17441127189E+04  0.17546121493E+04  0.10100000352E+00 0.  1.
</event>
<event>
 5   0  0.2125803E-05  0.1600071E+04  0.7818609E-02  0.8820504E-01
        2   -1    0    0  501    0  0.00000000000E+00  0.00000000000E+00  0.53383761267E+03  0.53383761268E+03  0.25500000920E-02 0. -1.
       -2   -1    0    0    0  501  0.00000000000E+00  0.00000000000E+00 -0.11989725933E+04  0.11989725933E+04  0.25500000920E-02 0.  1.
    10030    2    1    2    0    0  0.00000000000E+00  0.00000000000E+00 -0.66513498064E+03  0.17328102060E+04  0.16000708320E+04 0.  0.
        3    1    3    3  502    0  0.73317842035E+03 -0.26564290094E+03 -0.13902397205E+03  0.79211389451E+03  0.10100000352E+00 0. -1.
       -3    1    3    3    0  502 -0.73317842035E+03  0.26564290094E+03 -0.52611100860E+03  0.94069631149E+03  0.10100000352E+00 0.  1.
</event>
<event>
 5   0  0.1990948E-05  0.1600801E+04  0.7818609E-02  0.8820056E-01
       -2   -1    0    0    0  501  0.00000000000E+00  0.00000000000E+00  0.12004561439E+04  0.12004561439E+04  0.25500000920E-02 0. -1.
        2   -1    0    0  501    0  0.00000000000E+00  0.00000000000E+00 -0.53366478033E+03  0.53366478034E+03  0.25500000920E-02 0.  1.
    10030    2    1    2    0    0  0.00000000000E+00  0.00000000000E+00  0.66679136354E+03  0.17341209242E+04  0.16008012548E+04 0.  0.
        4    1    3    3  502    0  0.79208858764E+03 -0.33110190314E+02  0.45274838898E+03  0.91295308313E+03  0.12699999809E+01 0. -1.
       -4    1    3    3    0  502 -0.79208858764E+03  0.33110190314E+02  0.21404297456E+03  0.82116784108E+03  0.12699999809E+01 0.  1.
</event>
<event>
 5   0  0.1090674E-05  0.1599529E+04  0.7818609E-02  0.8820838E-01
       -1   -1    0    0    0  501  0.00000000000E+00  0.00000000000E+00  0.32603191818E+03  0.32603191822E+03  0.50400001928E-02 0. -1.
        1   -1    0    0  501    0  0.00000000000E+00  0.00000000000E+00 -0.19618420925E+04  0.19618420925E+04  0.50400001928E-02 0.  1.
    10030    2    1    2    0    0  0.00000000000E+00  0.00000000000E+00 -0.16358101743E+04  0.22878740107E+04  0.15995288564E+04 0.  0.
        4    1    3    3  502    0 -0.78739910294E+03 -0.11239627593E+03 -0.93750136873E+03  0.12294473146E+04  0.12699999809E+01 0.  1.
       -4    1    3    3    0  502  0.78739910294E+03  0.11239627593E+03 -0.69830880558E+03  0.10584266961E+04  0.12699999809E+01 0. -1.
</event>
<event>
 5   0  0.1090674E-05  0.1599703E+04  0.7818609E-02  0.8820730E-01
       -1   -1    0    0    0  501  0.00000000000E+00  0.00000000000E+00  0.49988591389E+03  0.49988591391E+03  0.50400001928E-02 0. -1.
        1   -1    0    0  501    0  0.00000000000E+00  0.00000000000E+00 -0.12798170308E+04  0.12798170308E+04  0.50400001928E-02 0.  1.
    10030    2    1    2    0    0  0.00000000000E+00  0.00000000000E+00 -0.77993111692E+03  0.17797029447E+04  0.15997031051E+04 0.  0.
        4    1    3    3  502    0 -0.40623104576E+03 -0.60306153919E+02 -0.11535637076E+04  0.12244881931E+04  0.12699999809E+01 0.  1.
       -4    1    3    3    0  502  0.40623104576E+03  0.60306153919E+02  0.37363259064E+03  0.55521475163E+03  0.12699999809E+01 0. -1.
</event>
<event>
 5   0  0.1994525E-05  0.1599463E+04  0.7818609E-02  0.8820878E-01
        2   -1    0    0  501    0  0.00000000000E+00  0.00000000000E+00  0.14630467409E+04  0.14630467409E+04  0.25500000920E-02 0. -1.
       -2   -1    0    0    0  501  0.00000000000E+00  0.00000000000E+00 -0.43714958342E+03  0.43714958343E+03  0.25500000920E-02 0.  1.
    10030    2    1    2    0    0  0.00000000000E+00  0.00000000000E+00  0.10258971574E+04  0.19001963243E+04  0.15994627514E+04 0.  0.
        5    1    3    3  502    0 -0.50945578519E+03  0.10793915163E+03  0.12339828928E+04  0.13393774402E+04  0.46999998093E+01 0. -1.
       -5    1    3    3    0  502  0.50945578519E+03 -0.10793915163E+03 -0.20808573537E+03  0.56081888411E+03  0.46999998093E+01 0.  1.
</event>
<event>
 5   0  0.1090674E-05  0.1603097E+04  0.7818609E-02  0.8818648E-01
        1   -1    0    0  501    0  0.00000000000E+00  0.00000000000E+00  0.30650728411E+03  0.30650728415E+03  0.50400001928E-02 0.  1.
       -1   -1    0    0    0  501  0.00000000000E+00  0.00000000000E+00 -0.20961329575E+04  0.20961329575E+04  0.50400001928E-02 0. -1.
    10030    2    1    2    0    0  0.00000000000E+00  0.00000000000E+00 -0.17896256734E+04  0.24026402416E+04  0.16030970276E+04 0.  0.
        4    1    3    3  502    0 -0.74619603395E+03 -0.29187471152E+03 -0.92761589072E+03  0.12257537362E+04  0.12699999809E+01 0. -1.
       -4    1    3    3    0  502  0.74619603395E+03  0.29187471152E+03 -0.86200978264E+03  0.11768865054E+04  0.12699999809E+01 0.  1.
</event>
<event>
 5   0  0.2125803E-05  0.1599838E+04  0.7818609E-02  0.8820648E-01
       -2   -1    0    0    0  501  0.00000000000E+00  0.00000000000E+00  0.64815556064E+03  0.64815556065E+03  0.25500000920E-02 0.  1.
        2   -1    0    0  501    0  0.00000000000E+00  0.00000000000E+00 -0.98721735219E+03  0.98721735219E+03  0.25500000920E-02 0. -1.
    10030    2    1    2    0    0  0.00000000000E+00  0.00000000000E+00 -0.33906179154E+03  0.16353729128E+04  0.15998380123E+04 0.  0.
        3    1    3    3  502    0 -0.27605305355E+03  0.65139414175E+03 -0.55111959635E+03  0.89680122433E+03  0.10100000352E+00 0.  1.
       -3    1    3    3    0  502  0.27605305355E+03 -0.65139414175E+03  0.21205780481E+03  0.73857168851E+03  0.10100000352E+00 0. -1.
</event>
<event>
 5   0  0.1994525E-05  0.1602270E+04  0.7818609E-02  0.8819155E-01
       -2   -1    0    0    0  501  0.00000000000E+00  0.00000000000E+00  0.31664234734E+03  0.31664234735E+03  0.25500000920E-02 0.  1.
        2   -1    0    0  501    0  0.00000000000E+00  0.00000000000E+00 -0.20269476786E+04  0.20269476786E+04  0.25500000920E-02 0. -1.
    10030    2    1    2    0    0  0.00000000000E+00  0.00000000000E+00 -0.17103053313E+04  0.23435900260E+04  0.16022702280E+04 0.  0.
        5    1    3    3  502    0 -0.16883428458E+03 -0.78156026601E+03 -0.92760889209E+03  0.12246721242E+04  0.46999998093E+01 0.  1.
       -5    1    3    3    0  502  0.16883428458E+03  0.78156026601E+03 -0.78269643922E+03  0.11189179018E+04  0.46999998093E+01 0. -1.
</event>
<event>
 5   0  0.1090674E-05  0.1600403E+04  0.7818609E-02  0.8820300E-01
       -1   -1    0    0    0  501  0.00000000000E+00  0.00000000000E+00  0.46383160213E+03  0.46383160216E+03  0.50400001928E-02 0.  1.
        1   -1    0    0  501    0  0.00000000000E+00  0.00000000000E+00 -0.13805065774E+04  0.13805065774E+04  0.50400001928E-02 0. -1.
    10030    2    1    2    0    0  0.00000000000E+00  0.00000000000E+00 -0.91667497525E+03  0.18443381796E+04  0.16004031712E+04 0.  0.
        4    1    3    3  502    0 -0.99414897532E+02  0.46099483413E+03  0.28666626691E+03  0.55188651046E+03  0.12699999809E+01 0.  1.
       -4    1    3    3    0  502  0.99414897532E+02 -0.46099483413E+03 -0.12033412422E+04  0.12924516691E+04  0.12699999809E+01 0. -1.
</event>
<event>
 5   0  0.1081831E-05  0.1599502E+04  0.7818609E-02  0.8820854E-01
       -1   -1    0    0    0  501  0.00000000000E+00  0.00000000000E+00  0.51417342419E+03  0.51417342421E+03  0.50400001928E-02 0.  1.
        1   -1    0    0  501    0  0.00000000000E+00  0.00000000000E+00 -0.12439419580E+04  0.12439419581E+04  0.50400001928E-02 0. -1.
    10030    2    1    2    0    0  0.00000000000E+00  0.00000000000E+00 -0.72976853385E+03  0.17581153823E+04  0.15995022927E+04 0.  0.
        3    1    3    3  502    0  0.48099542336E+03  0.63870532543E+03 -0.34582095139E+03  0.87114478168E+03  0.10100000352E+00 0.  1.
       -3    1    3    3    0  502 -0.48099542336E+03 -0.63870532543E+03 -0.38394758246E+03  0.88697060059E+03  0.10100000352E+00 0. -1.
</event>
<event>
 5   0  0.1090674E-05  0.1599730E+04  0.7818609E-02  0.8820714E-01
       -1   -1    0    0    0  501  0.00000000000E+00  0.00000000000E+00  0.83486838416E+03  0.83486838417E+03  0.50400001928E-02 0.  1.
        1   -1    0    0  501    0  0.00000000000E+00  0.00000000000E+00 -0.76632950098E+03  0.76632950099E+03  0.50400001928E-02 0. -1.
    10030    2    1    2    0    0  0.00000000000E+00  0.00000000000E+00  0.68538883177E+02  0.16011978852E+04  0.15997303176E+04 0.  0.
        4    1    3    3  502    0 -0.23646908528E+03 -0.55649633225E+03 -0.48982992411E+03  0.77816499764E+03  0.12699999809E+01 0.  1.
       -4    1    3    3    0  502  0.23646908528E+03  0.55649633225E+03  0.55836880729E+03  0.82303288753E+03  0.12699999809E+01 0. -1.
</event>
<event>
 5   0  0.1994525E-05  0.1600341E+04  0.7818609E-02  0.8820339E-01
        2   -1    0    0  501    0  0.00000000000E+00  0.00000000000E+00  0.15952097484E+04  0.15952097484E+04  0.25500000920E-02 0.  1.
       -2   -1    0    0    0  501  0.00000000000E+00  0.00000000000E+00 -0.40137215260E+03  0.40137215261E+03  0.25500000920E-02 0. -1.
    10030    2    1    2    0    0  0.00000000000E+00  0.00000000000E+00  0.11938375958E+04  0.19965819010E+04  0.16003409269E+04 0.  0.
        5    1    3    3  502    0 -0.19510190058E+03  0.18744642308E+03 -0.34255615567E+03  0.43654063147E+03  0.46999998093E+01 0. -1.
       -5    1    3    3    0  502  0.19510190058E+03 -0.18744642308E+03  0.15363937514E+04  0.15600412695E+04  0.46999998093E+01 0.  1.
</event>
<event>
 5   0  0.1090674E-05  0.1599810E+04  0.7818609E-02  0.8820665E-01
        1   -1    0    0  501    0  0.00000000000E+00  0.00000000000E+00  0.19391333065E+04  0.19391333065E+04  0.50400001928E-02 0.  1.
       -1   -1    0    0    0  501  0.00000000000E+00  0.00000000000E+00 -0.32996580376E+03  0.32996580380E+03  0.50400001928E-02 0. -1.
    10030    2    1    2    0    0  0.00000000000E+00  0.00000000000E+00  0.16091675027E+04  0.22690991103E+04  0.15998095888E+04 0.  0.
        4    1    3    3  502    0 -0.57146095878E+03 -0.43727746869E+03  0.13001298348E+04  0.14859738935E+04  0.12699999809E+01 0.  1.
       -4    1    3    3    0  502  0.57146095878E+03  0.43727746869E+03  0.30903766793E+03  0.78312521677E+03  0.12699999809E+01 0. -1.
</event>
<event>
 5   0  0.7597000E-06  0.1599931E+04  0.7818609E-02  0.8820591E-01
       -3   -1    0    0    0  501  0.00000000000E+00  0.00000000000E+00  0.48818343377E+03  0.48818344422E+03  0.10100000352E+00 0. -1.
        3   -1    0    0  501    0  0.00000000000E+00  0.00000000000E+00 -0.13108692051E+04  0.13108692090E+04  0.10100000352E+00 0.  1.
    10030    2    1    2    0    0  0.00000000000E+00  0.00000000000E+00 -0.82268577134E+03  0.17990526532E+04  0.15999308018E+04 0.  0.
        5    1    3    3  502    0  0.48791019837E+03 -0.49253653572E+03  0.37418058062E+02  0.69431318708E+03  0.46999998093E+01 0. -1.
       -5    1    3    3    0  502 -0.48791019837E+03  0.49253653572E+03 -0.86010382940E+03  0.11047394661E+04  0.46999998093E+01 0.  1.
</event>
<event>
 5   0  0.1126485E-05  0.1599931E+04  0.7818609E-02  0.8820591E-01
        1   -1    0    0  501    0  0.00000000000E+00  0.00000000000E+00  0.11173310029E+04  0.11173310029E+04  0.50400001928E-02 0.  1.
       -1   -1    0    0    0  501  0.00000000000E+00  0.00000000000E+00 -0.57274379812E+03  0.57274379814E+03  0.50400001928E-02 0. -1.
    10030    2    1    2    0    0  0.00000000000E+00  0.00000000000E+00  0.54458720475E+03  0.16900748010E+04  0.15999305014E+04 0.  0.
        2    1    3    3  502    0 -0.78898149642E+03 -0.25496892400E+02  0.40922148066E+03  0.88915921716E+03  0.25500000920E-02 0.  1.
       -2    1    3    3    0  502  0.78898149642E+03  0.25496892400E+02  0.13536572409E+03  0.80091558386E+03  0.25500000920E-02 0. -1.
</event>
<event>
 5   0  0.1057506E-05  0.1600315E+04  0.7818609E-02  0.8820354E-01
        1   -1    0    0  501    0  0.00000000000E+00  0.00000000000E+00  0.35578282319E+03  0.35578282322E+03  0.50400001928E-02 0.  1.
       -1   -1    0    0    0  501  0.00000000000E+00  0.00000000000E+00 -0.17995595592E+04  0.17995595592E+04  0.50400001928E-02 0. -1.
    10030    2    1    2    0    0  0.00000000000E+00  0.00000000000E+00 -0.14437767360E+04  0.21553423824E+04  0.16003154446E+04 0.  0.
        5    1    3    3  502    0  0.62733265907E+02  0.70148304487E+03 -0.21042098225E+03  0.73505986468E+03  0.46999998093E+01 0.  1.
       -5    1    3    3    0  502 -0.62733265907E+02 -0.70148304487E+03 -0.12333557538E+04  0.14202825178E+04  0.46999998093E+01 0. -1.
</event>
<event>
 5   0  0.2147844E-05  0.1599626E+04  0.7818609E-02  0.8820778E-01
       -2   -1    0    0    0  501  0.00000000000E+00  0.00000000000E+00  0.44988935391E+03  0.44988935392E+03  0.25500000920E-02 0.  1.
        2   -1    0    0  501    0  0.00000000000E+00  0.00000000000E+00 -0.14219065812E+04  0.14219065812E+04  0.25500000920E-02 0. -1.
    10030    2    1    2    0    0  0.00000000000E+00  0.00000000000E+00 -0.97201722727E+03  0.18717959351E+04  0.15996257477E+04 0.  0.
        2    1    3    3  502    0 -0.24939649672E+03 -0.15202944693E+03  0.38525071812E+03  0.48345597641E+03  0.25500000920E-02 0.  1.
       -2    1    3    3    0  502  0.24939649672E+03  0.15202944693E+03 -0.13572679454E+04  0.13883399587E+04  0.25500000920E-02 0. -1.
</event>
<event>
 5   0  0.1990948E-05  0.1602127E+04  0.7818609E-02  0.8819242E-01
        2   -1    0    0  501    0  0.00000000000E+00  0.00000000000E+00  0.57922132576E+03  0.57922132577E+03  0.25500000920E-02 0. -1.
       -2   -1    0    0    0  501  0.00000000000E+00  0.00000000000E+00 -0.11078719443E+04  0.11078719443E+04  0.25500000920E-02 0.  1.
    10030    2    1    2    0    0  0.00000000000E+00  0.00000000000E+00 -0.52865061858E+03  0.16870932701E+04  0.16021274062E+04 0.  0.
        4    1    3    3  502    0 -0.40100609082E+03  0.38927596664E+03 -0.86865972284E+03  0.10329148029E+04  0.12699999809E+01 0.  1.
       -4    1    3    3    0  502  0.40100609082E+03 -0.38927596664E+03  0.34000910426E+03  0.65417846721E+03  0.12699999809E+01 0. -1.
</event>
<event>
 5   0  0.2125803E-05  0.1599742E+04  0.7818609E-02  0.8820707E-01
       -2   -1    0    0    0  501  0.00000000000E+00  0.00000000000E+00  0.50729891763E+03  0.50729891764E+03  0.25500000920E-02 0.  1.
        2   -1    0    0  501    0  0.00000000000E+00  0.00000000000E+00 -0.12611763869E+04  0.12611763869E+04  0.25500000920E-02 0. -1.
    10030    2    1    2    0    0  0.00000000000E+00  0.00000000000E+00 -0.75387746928E+03  0.17684753046E+04  0.15997417492E+04 0.  0.
        3    1    3    3  502    0  0.57362811020E+03  0.16846503532E+03 -0.96436528928E+03  0.11346497690E+04  0.10100000352E+00 0. -1.
       -3    1    3    3    0  502 -0.57362811020E+03 -0.16846503532E+03  0.21048782000E+03  0.63382553555E+03  0.10100000352E+00 0.  1.
</event>
<event>
 5   0  0.1060251E-05  0.1599913E+04  0.7818609E-02  0.8820601E-01
       -1   -1    0    0    0  501  0.00000000000E+00  0.00000000000E+00  0.81439922574E+03  0.81439922576E+03  0.50400001928E-02 0.  1.
        1   -1    0    0  501    0  0.00000000000E+00  0.00000000000E+00 -0.78577027785E+03  0.78577027786E+03  0.50400001928E-02 0. -1.
    10030    2    1    2    0    0  0.00000000000E+00  0.00000000000E+00  0.28628947893E+02  0.16001695036E+04  0.15999133800E+04 0.  0.
        1    1    3    3  502    0  0.35907655698E+01  0.67388440173E+03  0.44542596454E+03  0.80779785244E+03  0.50400001928E-02 0.  1.
       -1    1    3    3    0  502 -0.35907655698E+01 -0.67388440173E+03 -0.41679701665E+03  0.79237165118E+03  0.50400001928E-02 0. -1.
</event>
<event>
 5   0  0.1081831E-05  0.1600053E+04  0.7818609E-02  0.8820515E-01
       -1   -1    0    0    0  501  0.00000000000E+00  0.00000000000E+00  0.91707261641E+03  0.91707261642E+03  0.50400001928E-02 0.  1.
        1   -1    0    0  501    0  0.00000000000E+00  0.00000000000E+00 -0.69791939751E+03  0.69791939753E+03  0.50400001928E-02 0. -1.
    10030    2    1    2    0    0  0.00000000000E+00  0.00000000000E+00  0.21915321890E+03  0.16149920140E+04  0.16000534590E+04 0.  0.
        3    1    3    3  502    0  0.49256480399E+03 -0.52042058166E+02  0.74370517036E+03  0.89354678253E+03  0.10100000352E+00 0.  1.
       -3    1    3    3    0  502 -0.49256480399E+03  0.52042058166E+02 -0.52455195147E+03  0.72144523142E+03  0.10100000352E+00 0. -1.
</event>
<event>
 5   0  0.1057506E-05  0.1599326E+04  0.7818609E-02  0.8820962E-01
       -1   -1    0    0    0  501  0.00000000000E+00  0.00000000000E+00  0.71174843793E+03  0.71174843795E+03  0.50400001928E-02 0. -1.
        1   -1    0    0  501    0  0.00000000000E+00  0.00000000000E+00 -0.89843665113E+03  0.89843665115E+03  0.50400001928E-02 0.  1.
    10030    2    1    2    0    0  0.00000000000E+00  0.00000000000E+00 -0.18668821320E+03  0.16101850891E+04  0.15993259618E+04 0.  0.
        5    1    3    3  502    0  0.36283229803E+03 -0.23934940407E+03  0.58240867169E+03  0.72674435986E+03  0.46999998093E+01 0. -1.
       -5    1    3    3    0  502 -0.36283229803E+03  0.23934940407E+03 -0.76909688489E+03  0.88344072924E+03  0.46999998093E+01 0.  1.
</event>
<event>
 5   0  0.1057506E-05  0.1600107E+04  0.7818609E-02  0.8820482E-01
        1   -1    0    0  501    0  0.00000000000E+00  0.00000000000E+00  0.10772240037E+04  0.10772240037E+04  0.50400001928E-02 0. -1.
       -1   -1    0    0    0  501  0.00000000000E+00  0.00000000000E+00 -0.59419930117E+03  0.59419930119E+03  0.50400001928E-02 0.  1.
    10030    2    1    2    0    0  0.00000000000E+00  0.00000000000E+00  0.48302470256E+03  0.16714233049E+04  0.16001071842E+04 0.  0.
        5    1    3    3  502    0 -0.36084018752E+03  0.42082829427E+03 -0.36105272626E+03  0.66157634127E+03  0.46999998093E+01 0.  1.
       -5    1    3    3    0  502  0.36084018752E+03 -0.42082829427E+03  0.84407742882E+03  0.10098469637E+04  0.46999998093E+01 0. -1.
</event>
<event>
 5   0  0.2147844E-05  0.1597054E+04  0.7818609E-02  0.8822360E-01
       -2   -1    0    0    0  501  0.00000000000E+00  0.00000000000E+00  0.40440585743E+03  0.40440585744E+03  0.25500000920E-02 0.  1.
        2   -1    0    0  501    0  0.00000000000E+00  0.00000000000E+00 -0.15767455376E+04  0.15767455376E+04  0.25500000920E-02 0. -1.
    10030    2    1    2    0    0  0.00000000000E+00  0.00000000000E+00 -0.11723396802E+04  0.19811513950E+04  0.15970537012E+04 0.  0.
        2    1    3    3  502    0  0.38849579885E+03 -0.62744011579E+02  0.27576112039E+03  0.48053094826E+03  0.25500000920E-02 0.  1.
       -2    1    3    3    0  502 -0.38849579885E+03  0.62744011579E+02 -0.14481008006E+04  0.15006204468E+04  0.25500000920E-02 0. -1.
</event>
<event>
 5   0  0.2147844E-05  0.1599914E+04  0.7818609E-02  0.8820601E-01
        2   -1    0    0  501    0  0.00000000000E+00  0.00000000000E+00  0.18991717828E+04  0.18991717828E+04  0.25500000920E-02 0. -1.
       -2   -1    0    0    0  501  0.00000000000E+00  0.00000000000E+00 -0.33695271088E+03  0.33695271089E+03  0.25500000920E-02 0.  1.
    10030    2    1    2    0    0  0.00000000000E+00  0.00000000000E+00  0.15622190719E+04  0.22361244937E+04  0.15999138485E+04 0.  0.
        2    1    3    3  502    0  0.37077610117E+03  0.60796031488E+03  0.27170301571E+03  0.76217661367E+03  0.25500000920E-02 0.  1.
       -2    1    3    3    0  502 -0.37077610117E+03 -0.60796031488E+03  0.12905160562E+04  0.14739478800E+04  0.25500000920E-02 0. -1.
</event>
<event>
 5   0  0.1081831E-05  0.1601521E+04  0.7818609E-02  0.8819614E-01
        1   -1    0    0  501    0  0.00000000000E+00  0.00000000000E+00  0.83742148594E+03  0.83742148596E+03  0.50400001928E-02 0. -1.
       -1   -1    0    0    0  501  0.00000000000E+00  0.00000000000E+00 -0.76570488471E+03  0.76570488472E+03  0.50400001928E-02 0.  1.
    10030    2    1    2    0    0  0.00000000000E+00  0.00000000000E+00  0.71716601236E+02  0.16031263707E+04  0.16015214296E+04 0.  0.
        3    1    3    3  502    0  0.59470337021E+03 -0.40887276797E+02 -0.49934922907E+03  0.77762042843E+03  0.10100000352E+00 0.  1.
       -3    1    3    3    0  502 -0.59470337021E+03  0.40887276797E+02  0.57106583031E+03  0.82550594225E+03  0.10100000352E+00 0. -1.
</event>
<event>
 5   0  0.1060251E-05  0.1600106E+04  0.7818609E-02  0.8820483E-01
        1   -1    0    0  501    0  0.00000000000E+00  0.00000000000E+00  0.13354109710E+04  0.13354109710E+04  0.50400001928E-02 0.  1.
       -1   -1    0    0    0  501  0.00000000000E+00  0.00000000000E+00 -0.47931675583E+03  0.47931675586E+03  0.50400001928E-02 0. -1.
    10030    2    1    2    0    0  0.00000000000E+00  0.00000000000E+00  0.85609421513E+03  0.18147277268E+04  0.16001060644E+04 0.  0.
        1    1    3    3  502    0  0.19801431210E+03 -0.47405965607E+03 -0.26751991160E+03  0.57923149814E+03  0.50400001928E-02 0. -1.
       -1    1    3    3    0  502 -0.19801431210E+03  0.47405965607E+03  0.11236141267E+04  0.12354962287E+04  0.50400001928E-02 0.  1.
</event>
<event>
 5   0  0.2046108E-05  0.1599990E+04  0.7818609E-02  0.8820554E-01
       -2   -1    0    0    0  501  0.00000000000E+00  0.00000000000E+00  0.64413121050E+03  0.64413121050E+03  0.25500000920E-02 0. -1.
        2   -1    0    0  501    0  0.00000000000E+00  0.00000000000E+00 -0.99357354236E+03  0.99357354237E+03  0.25500000920E-02 0.  1.
    10030    2    1    2    0    0  0.00000000000E+00  0.00000000000E+00 -0.34944233187E+03  0.16377047529E+04  0.15999896607E+04 0.  0.
        1    1    3    3  502    0 -0.58662540742E+03  0.51084428553E+03  0.16499183485E+02  0.77805107529E+03  0.50400001928E-02 0. -1.
       -1    1    3    3    0  502  0.58662540742E+03 -0.51084428553E+03 -0.36594151535E+03  0.85965367757E+03  0.50400001928E-02 0.  1.
</event>
<event>
 5   0  0.1994525E-05  0.1599207E+04  0.7818609E-02  0.8821035E-01
        2   -1    0    0  501    0  0.00000000000E+00  0.00000000000E+00  0.17203126121E+04  0.17203126121E+04  0.25500000920E-02 0. -1.
       -2   -1    0    0    0  501  0.00000000000E+00  0.00000000000E+00 -0.37165681988E+03  0.37165681989E+03  0.25500000920E-02 0.  1.
    10030    2    1    2    0    0  0.00000000000E+00  0.00000000000E+00  0.13486557923E+04  0.20919694320E+04  0.15992071969E+04 0.  0.
        5    1    3    3  502    0 -0.12264863047E+03  0.99968460139E+02  0.16996102626E+04  0.17069661726E+04  0.46999998093E+01 0. -1.
       -5    1    3    3    0  502  0.12264863047E+03 -0.99968460139E+02 -0.35095447031E+03  0.38500325948E+03  0.46999998093E+01 0.  1.
</event>
<event>
 5   0  0.1126485E-05  0.1600425E+04  0.7818609E-02  0.8820287E-01
       -1   -1    0    0    0  501  0.00000000000E+00  0.00000000000E+00  0.42356367476E+03  0.42356367479E+03  0.50400001928E-02 0.  1.
        1   -1    0    0  501    0  0.00000000000E+00  0.00000000000E+00 -0.15117926079E+04  0.15117926079E+04  0.50400001928E-02 0. -1.
    10030    2    1    2    0    0  0.00000000000E+00  0.00000000000E+00 -0.10882289331E+04  0.19353562827E+04  0.16004254841E+04 0.  0.
        2    1    3    3  502    0  0.45973136237E+03  0.64876698411E+03 -0.65287476674E+03  0.10288328272E+04  0.25500000920E-02 0. -1.
       -2    1    3    3    0  502 -0.45973136237E+03 -0.64876698411E+03 -0.43535416639E+03  0.90652345553E+03  0.25500000920E-02 0.  1.
</event>
<event>
 5   0  0.1126485E-05  0.1599718E+04  0.7818609E-02  0.8820721E-01
       -1   -1    0    0    0  501  0.00000000000E+00  0.00000000000E+00  0.11286971185E+04  0.11286971185E+04  0.50400001928E-02 0. -1.
        1   -1    0    0  501    0  0.00000000000E+00  0.00000000000E+00 -0.56682584207E+03  0.56682584209E+03  0.50400001928E-02 0.  1.
    10030    2    1    2    0    0  0.00000000000E+00  0.00000000000E+00  0.56187127645E+03  0.16955229606E+04  0.15997183435E+04 0.  0.
        2    1    3    3  502    0  0.53849717924E+03 -0.24946906769E+03 -0.28742617566E+03  0.65941476648E+03  0.25500000920E-02 0.  1.
       -2    1    3    3    0  502 -0.53849717924E+03  0.24946906769E+03  0.84929745211E+03  0.10361081941E+04  0.25500000920E-02 0. -1.
</event>
<event>
 5   0  0.1081831E-05  0.1599223E+04  0.7818609E-02  0.8821026E-01
        1   -1    0    0  501    0  0.00000000000E+00  0.00000000000E+00  0.17210695969E+04  0.17210695969E+04  0.50400001928E-02 0. -1.
       -1   -1    0    0    0  501  0.00000000000E+00  0.00000000000E+00 -0.37150067918E+03  0.37150067922E+03  0.50400001928E-02 0.  1.
    10030    2    1    2    0    0  0.00000000000E+00  0.00000000000E+00  0.13495689177E+04  0.20925702761E+04  0.15992229666E+04 0.  0.
        3    1    3    3  502    0  0.78531404321E+03 -0.13886559362E+03  0.75082027322E+03  0.10953231909E+04  0.10100000352E+00 0. -1.
       -3    1    3    3    0  502 -0.78531404321E+03  0.13886559362E+03  0.59874864445E+03  0.99724708522E+03  0.10100000352E+00 0.  1.
</event>
<event>
 5   0  0.2125803E-05  0.1599822E+04  0.7818609E-02  0.8820657E-01
       -2   -1    0    0    0  501  0.00000000000E+00  0.00000000000E+00  0.66044387266E+03  0.66044387267E+03  0.25500000920E-02 0.  1.
        2   -1    0    0  501    0  0.00000000000E+00  0.00000000000E+00 -0.96882986237E+03  0.96882986237E+03  0.25500000920E-02 0. -1.
    10030    2    1    2    0    0  0.00000000000E+00  0.00000000000E+00 -0.30838598971E+03  0.16292737350E+04  0.15998221729E+04 0.  0.
        3    1    3    3  502    0 -0.50119485478E+03 -0.29110220734E+03 -0.71563211452E+03  0.92090505000E+03  0.10100000352E+00 0. -1.
       -3    1    3    3    0  502  0.50119485478E+03  0.29110220734E+03  0.40724612481E+03  0.70836868504E+03  0.10100000352E+00 0.  1.
</event>
<event>
 5   0  0.1057506E-05  0.1599544E+04  0.7818609E-02  0.8820828E-01
       -1   -1    0    0    0  501  0.00000000000E+00  0.00000000000E+00  0.59665615251E+03  0.59665615253E+03  0.50400001928E-02 0. -1.
        1   -1    0    0  501    0  0.00000000000E+00  0.00000000000E+00 -0.10720329793E+04  0.10720329794E+04  0.50400001928E-02 0.  1.
    10030    2    1    2    0    0  0.00000000000E+00  0.00000000000E+00 -0.47537682683E+03  0.16686891319E+04  0.15995437760E+04 0.  0.
        5    1    3    3  502    0  0.69422824331E+03  0.33941791416E+03 -0.22733764361E+02  0.77310819961E+03  0.46999998093E+01 0. -1.
       -5    1    3    3    0  502 -0.69422824331E+03 -0.33941791416E+03 -0.45264306247E+03  0.89558093228E+03  0.46999998093E+01 0.  1.
</event>
<event>
 5   0  0.1126485E-05  0.1599931E+04  0.7818609E-02  0.8820591E-01
       -1   -1    0    0    0  501  0.00000000000E+00  0.00000000000E+00  0.84668738666E+03  0.84668738668E+03  0.50400001928E-02 0.  1.
        1   -1    0    0  501    0  0.00000000000E+00  0.00000000000E+00 -0.75582166027E+03  0.75582166029E+03  0.50400001928E-02 0. -1.
    10030    2    1    2    0    0  0.00000000000E+00  0.00000000000E+00  0.90865726390E+02  0.16025090470E+04  0.15999308314E+04 0.  0.
        2    1    3    3  502    0 -0.72138146955E+03 -0.77471454917E+02 -0.29208436120E+03  0.78211656740E+03  0.25500000920E-02 0. -1.
       -2    1    3    3    0  502  0.72138146955E+03  0.77471454917E+02  0.38295008759E+03  0.82039247957E+03  0.25500000920E-02 0.  1.
</event>
<event>
 5   0  0.2125803E-05  0.1596574E+04  0.7818609E-02  0.8822655E-01
        2   -1    0    0  501    0  0.00000000000E+00  0.00000000000E+00  0.93449270347E+03  0.93449270348E+03  0.25500000920E-02 0. -1.
       -2   -1    0    0    0  501  0.00000000000E+00  0.00000000000E+00 -0.68193386653E+03  0.68193386654E+03  0.25500000920E-02 0.  1.
    10030    2    1    2    0    0  0.00000000000E+00  0.00000000000E+00  0.25255883694E+03  0.16164265700E+04  0.15965741104E+04 0.  0.
        3    1    3    3  502    0 -0.24737044195E+03 -0.59498119621E+03 -0.35082051238E+03  0.73366872735E+03  0.10100000352E+00 0.  1.
       -3    1    3    3    0  502  0.24737044195E+03  0.59498119621E+03  0.60337934932E+03  0.88275784266E+03  0.10100000352E+00 0. -1.
</event>
<event>
 5   0  0.1994525E-05  0.1599898E+04  0.7818609E-02  0.8820611E-01
        2   -1    0    0  501    0  0.00000000000E+00  0.00000000000E+00  0.87135896291E+03  0.87135896291E+03  0.25500000920E-02 0. -1.
       -2   -1    0    0    0  501  0.00000000000E+00  0.00000000000E+00 -0.73439087667E+03  0.73439087667E+03  0.25500000920E-02 0.  1.
    10030    2    1    2    0    0  0.00000000000E+00  0.00000000000E+00  0.13696808624E+03  0.16057498396E+04  0.15998975876E+04 0.  0.
        5    1    3    3  502    0 -0.67802563828E+03  0.53074965994E+02  0.49116615401E+03  0.83892907866E+03  0.46999998093E+01 0. -1.
       -5    1    3    3    0  502  0.67802563828E+03 -0.53074965994E+02 -0.35419806777E+03  0.76682076093E+03  0.46999998093E+01 0.  1.
</event>
<event>
 5   0  0.1994525E-05  0.1599628E+04  0.7818609E-02  0.8820777E-01
       -2   -1    0    0    0  501  0.00000000000E+00  0.00000000000E+00  0.40018567815E+03  0.40018567816E+03  0.25500000920E-02 0. -1.
        2   -1    0    0  501    0  0.00000000000E+00  0.00000000000E+00 -0.15985139746E+04  0.15985139746E+04  0.25500000920E-02 0.  1.
    10030    2    1    2    0    0  0.00000000000E+00  0.00000000000E+00 -0.11983282964E+04  0.19986996527E+04  0.15996279554E+04 0.  0.
        5    1    3    3  502    0  0.40102457971E+02  0.48379331026E+02 -0.15954074892E+04  0.15966514689E+04  0.46999998093E+01 0.  1.
       -5    1    3    3    0  502 -0.40102457971E+02 -0.48379331026E+02  0.39707919272E+03  0.40204818380E+03  0.46999998093E+01 0. -1.
</event>
<event>
 5   0  0.1994525E-05  0.1601069E+04  0.7818609E-02  0.8819892E-01
        2   -1    0    0  501    0  0.00000000000E+00  0.00000000000E+00  0.10991044625E+04  0.10991044625E+04  0.25500000920E-02 0.  1.
       -2   -1    0    0    0  501  0.00000000000E+00  0.00000000000E+00 -0.58307064158E+03  0.58307064159E+03  0.25500000920E-02 0. -1.
    10030    2    1    2    0    0  0.00000000000E+00  0.00000000000E+00  0.51603382091E+03  0.16821751041E+04  0.16010690730E+04 0.  0.
        5    1    3    3  502    0 -0.63941223986E+03 -0.24785823227E+03 -0.17588264759E+03  0.70798199943E+03  0.46999998093E+01 0. -1.
       -5    1    3    3    0  502  0.63941223986E+03  0.24785823227E+03  0.69191646850E+03  0.97419310466E+03  0.46999998093E+01 0.  1.
</event>
<event>
 5   0  0.2147844E-05  0.1599613E+04  0.7818609E-02  0.8820786E-01
        2   -1    0    0  501    0  0.00000000000E+00  0.00000000000E+00  0.15419409317E+04  0.15419409317E+04  0.25500000920E-02 0.  1.
       -2   -1    0    0    0  501  0.00000000000E+00  0.00000000000E+00 -0.41486052486E+03  0.41486052487E+03  0.25500000920E-02 0. -1.
    10030    2    1    2    0    0  0.00000000000E+00  0.00000000000E+00  0.11270804069E+04  0.19568014566E+04  0.15996129835E+04 0.  0.
        2    1    3    3  502    0  0.76111414887E+02 -0.76666681914E+03  0.82624861210E+03  0.11297157731E+04  0.25500000920E-02 0.  1.
       -2    1    3    3    0  502 -0.76111414887E+02  0.76666681914E+03  0.30083179476E+03  0.82708568346E+03  0.25500000920E-02 0. -1.
</event>
<event>
 5   0  0.1990948E-05  0.1599796E+04  0.7818609E-02  0.8820673E-01
        2   -1    0    0  501    0  0.00000000000E+00  0.00000000000E+00  0.13206792277E+04  0.13206792277E+04  0.25500000920E-02 0.  1.
       -2   -1    0    0    0  501  0.00000000000E+00  0.00000000000E+00 -0.48447553886E+03  0.48447553886E+03  0.25500000920E-02 0. -1.
    10030    2    1    2    0    0  0.00000000000E+00  0.00000000000E+00  0.83620368885E+03  0.18051547666E+04  0.15997959626E+04 0.  0.
        4    1    3    3  502    0 -0.55161379885E+02  0.51361527743E+03 -0.27102544961E+03  0.58335224203E+03  0.12699999809E+01 0. -1.
       -4    1    3    3    0  502  0.55161379885E+02 -0.51361527743E+03  0.11072291385E+04  0.12218025245E+04  0.12699999809E+01 0.  1.
</event>
<event>
 5   0  0.1994525E-05  0.1595682E+04  0.7818609E-02  0.8823205E-01
        2   -1    0    0  501    0  0.00000000000E+00  0.00000000000E+00  0.13877756311E+04  0.13877756311E+04  0.25500000920E-02 0.  1.
       -2   -1    0    0    0  501  0.00000000000E+00  0.00000000000E+00 -0.45868367586E+03  0.45868367587E+03  0.25500000920E-02 0. -1.
    10030    2    1    2    0    0  0.00000000000E+00  0.00000000000E+00  0.92909195527E+03  0.18464593070E+04  0.15956817073E+04 0.  0.
        5    1    3    3  502    0 -0.68078591013E+03  0.13869201539E+03  0.10704564016E+02  0.69486805097E+03  0.46999998093E+01 0. -1.
       -5    1    3    3    0  502  0.68078591013E+03 -0.13869201539E+03  0.91838739125E+03  0.11515912560E+04  0.46999998093E+01 0.  1.
</event>
<event>
 5   0  0.1994525E-05  0.1599990E+04  0.7818609E-02  0.8820554E-01
       -2   -1    0    0    0  501  0.00000000000E+00  0.00000000000E+00  0.35389163289E+03  0.35389163289E+03  0.25500000920E-02 0. -1.
        2   -1    0    0  501    0  0.00000000000E+00  0.00000000000E+00 -0.18084413267E+04  0.18084413267E+04  0.25500000920E-02 0.  1.
    10030    2    1    2    0    0  0.00000000000E+00  0.00000000000E+00 -0.14545496938E+04  0.21623329596E+04  0.15999903176E+04 0.  0.
        5    1    3    3  502    0 -0.12385331942E+03  0.48716869823E+03  0.11378593072E+03  0.51540499929E+03  0.46999998093E+01 0. -1.
       -5    1    3    3    0  502  0.12385331942E+03 -0.48716869823E+03 -0.15683356245E+04  0.16469279603E+04  0.46999998093E+01 0.  1.
</event>
<event>
 5   0  0.2046108E-05  0.1599623E+04  0.7818609E-02  0.8820780E-01
       -2   -1    0    0    0  501  0.00000000000E+00  0.00000000000E+00  0.47709726480E+03  0.47709726481E+03  0.25500000920E-02 0. -1.
        2   -1    0    0  501    0  0.00000000000E+00  0.00000000000E+00 -0.13408131731E+04  0.13408131731E+04  0.25500000920E-02 0.  1.
    10030    2    1    2    0    0  0.00000000000E+00  0.00000000000E+00 -0.86371590831E+03  0.18179104379E+04  0.15996228274E+04 0.  0.
        1    1    3    3  502    0  0.11556421250E+03  0.27102048126E+03  0.41317703826E+03  0.50746670181E+03  0.50400001928E-02 0. -1.
       -1    1    3    3    0  502 -0.11556421250E+03 -0.27102048126E+03 -0.12768929466E+04  0.13104437361E+04  0.50400001928E-02 0.  1.
</event>
<event>
 5   0  0.7597000E-06  0.1600212E+04  0.7818609E-02  0.8820418E-01
       -3   -1    0    0    0  501  0.00000000000E+00  0.00000000000E+00  0.57187433130E+03  0.57187434022E+03  0.10100000352E+00 0.  1.
        3   -1    0    0  501    0  0.00000000000E+00  0.00000000000E+00 -0.11194237929E+04  0.11194237975E+04  0.10100000352E+00 0. -1.
    10030    2    1    2    0    0  0.00000000000E+00  0.00000000000E+00 -0.54754946159E+03  0.16912981377E+04  0.16002121664E+04 0.  0.
        1    1    3    3  502    0 -0.26350171700E+03 -0.24720451537E+03 -0.10282910046E+04  0.10899200050E+04  0.50400001928E-02 0. -1.
       -1    1    3    3    0  502  0.26350171700E+03  0.24720451537E+03  0.48074154296E+03  0.60137813265E+03  0.50400001928E-02 0.  1.
</event>
<event>
 5   0  0.2046108E-05  0.1599894E+04  0.7818609E-02  0.8820613E-01
       -2   -1    0    0    0  501  0.00000000000E+00  0.00000000000E+00  0.90822394457E+03  0.90822394458E+03  0.25500000920E-02 0. -1.
        2   -1    0    0  501    0  0.00000000000E+00  0.00000000000E+00 -0.70457832220E+03  0.70457832220E+03  0.25500000920E-02 0.  1.
    10030    2    1    2    0    0  0.00000000000E+00  0.00000000000E+00  0.20364562237E+03  0.16128022668E+04  0.15998936253E+04 0.  0.
        1    1    3    3  502    0 -0.62393830679E+03 -0.31636148068E+03 -0.28929125179E+03  0.75701586874E+03  0.50400001928E-02 0.  1.
       -1    1    3    3    0  502  0.62393830679E+03  0.31636148068E+03  0.49293687416E+03  0.85578639804E+03  0.50400001928E-02 0. -1.
</event>
<event>
 5   0  0.1126485E-05  0.1599252E+04  0.7818609E-02  0.8821008E-01
       -1   -1    0    0    0  501  0.00000000000E+00  0.00000000000E+00  0.50736883411E+03  0.50736883413E+03  0.50400001928E-02 0.  1.
        1   -1    0    0  501    0  0.00000000000E+00  0.00000000000E+00 -0.12602304631E+04  0.12602304631E+04  0.50400001928E-02 0. -1.
    10030    2    1    2    0    0  0.00000000000E+00  0.00000000000E+00 -0.75286162899E+03  0.17675992972E+04  0.15992519011E+04 0.  0.
        2    1    3    3  502    0  0.62107924526E+03 -0.83872377158E+02  0.17246236265E+03  0.65001328531E+03  0.25500000920E-02 0.  1.
       -2    1    3    3    0  502 -0.62107924526E+03  0.83872377158E+02 -0.92532399164E+03  0.11175860119E+04  0.25500000920E-02 0. -1.
</event>
<event>
 5   0  0.2125803E-05  0.1600193E+04  0.7818609E-02  0.8820429E-01
        2   -1    0    0  501    0  0.00000000000E+00  0.00000000000E+00  0.18727792785E+04  0.18727792785E+04  0.25500000920E-02 0. -1.
       -2   -1    0    0    0  501  0.00000000000E+00  0.00000000000E+00 -0.34182052391E+03  0.34182052391E+03  0.25500000920E-02 0.  1.
    10030    2    1    2    0    0  0.00000000000E+00  0.00000000000E+00  0.15309587546E+04  0.22145998024E+04  0.16001929810E+04 0.  0.
        3    1    3    3  502    0  0.13651162503E+03  0.41640582424E+03  0.16919305913E+04  0.17477580983E+04  0.10100000352E+00 0. -1.
       -3    1    3    3    0  502 -0.13651162503E+03 -0.41640582424E+03 -0.16097183675E+03  0.46684170406E+03  0.10100000352E+00 0.  1.
</event>
<event>
 5   0  0.1090674E-05  0.1600500E+04  0.7818609E-02  0.8820241E-01
       -1   -1    0    0    0  501  0.00000000000E+00  0.00000000000E+00  0.31704052963E+03  0.31704052967E+03  0.50400001928E-02 0. -1.
        1   -1    0    0  501    0  0.00000000000E+00  0.00000000000E+00 -0.20199302455E+04  0.20199302455E+04  0.50400001928E-02 0.  1.
    10030    2    1    2    0    0  0.00000000000E+00  0.00000000000E+00 -0.17028897159E+04  0.23369707752E+04  0.16004996156E+04 0.  0.
        4    1    3    3  502    0 -0.57822294351E+03  0.30219061533E+03 -0.15280750176E+04  0.16615281558E+04  0.12699999809E+01 0.  1.
       -4    1    3    3    0  502  0.57822294351E+03 -0.30219061533E+03 -0.17481469832E+03  0.67544261936E+03  0.12699999809E+01 0. -1.
</event>
<event>
 5   0  0.1060251E-05  0.1599386E+04  0.7818609E-02  0.8820925E-01
        1   -1    0    0  501    0  0.00000000000E+00  0.00000000000E+00  0.65857714386E+03  0.65857714388E+03  0.50400001928E-02 0.  1.
       -1   -1    0    0    0  501  0.00000000000E+00  0.00000000000E+00 -0.97104637701E+03  0.97104637702E+03  0.50400001928E-02 0. -1.
    10030    2    1    2    0    0  0.00000000000E+00  0.00000000000E+00 -0.31246923314E+03  0.16296235209E+04  0.15993860692E+04 0.  0.
        1    1    3    3  502    0  0.43953064986E+03  0.56541521323E+03 -0.51880957848E+03  0.88433304488E+03  0.50400001928E-02 0. -1.
       -1    1    3    3    0  502 -0.43953064986E+03 -0.56541521323E+03  0.20634034534E+03  0.74529047603E+03  0.50400001928E-02 0.  1.
</event>
<event>
 5   0  0.1057506E-05  0.1600649E+04  0.7818609E-02  0.8820149E-01
        1   -1    0    0  501    0  0.00000000000E+00  0.00000000000E+00  0.21066335663E+04  0.21066335663E+04  0.50400001928E-02 0.  1.
       -1   -1    0    0    0  501  0.00000000000E+00  0.00000000000E+00 -0.30404870104E+03  0.30404870108E+03  0.50400001928E-02 0. -1.
    10030    2    1    2    0    0  0.00000000000E+00  0.00000000000E+00  0.18025848652E+04  0.24106822673E+04  0.16006488677E+04 0.  0.
        5    1    3    3  502    0  0.78296739285E+03 -0.16299446535E+03  0.94627252582E+03  0.12389749461E+04  0.46999998093E+01 0. -1.
       -5    1    3    3    0  502 -0.78296739285E+03  0.16299446535E+03  0.85631233940E+03  0.11717073212E+04  0.46999998093E+01 0.  1.
</event>
<event>
 5   0  0.1990948E-05  0.1593512E+04  0.7818609E-02  0.8824544E-01
        2   -1    0    0  501    0  0.00000000000E+00  0.00000000000E+00  0.76547545704E+03  0.76547545705E+03  0.25500000920E-02 0.  1.
       -2   -1    0    0    0  501  0.00000000000E+00  0.00000000000E+00 -0.82931443429E+03  0.82931443429E+03  0.25500000920E-02 0. -1.
    10030    2    1    2    0    0  0.00000000000E+00  0.00000000000E+00 -0.63838977243E+02  0.15947898913E+04  0.15935116512E+04 0.  0.
        4    1    3    3  502    0  0.77247751294E+03 -0.19001023948E+02  0.16249308732E+03  0.78961266659E+03  0.12699999809E+01 0.  1.
       -4    1    3    3    0  502 -0.77247751294E+03  0.19001023948E+02 -0.22633206457E+03  0.80517722475E+03  0.12699999809E+01 0. -1.
</event>
<event>
 5   0  0.1126485E-05  0.1600268E+04  0.7818609E-02  0.8820383E-01
        1   -1    0    0  501    0  0.00000000000E+00  0.00000000000E+00  0.49602441060E+03  0.49602441062E+03  0.50400001928E-02 0.  1.
       -1   -1    0    0    0  501  0.00000000000E+00  0.00000000000E+00 -0.12906912797E+04  0.12906912797E+04  0.50400001928E-02 0. -1.
    10030    2    1    2    0    0  0.00000000000E+00  0.00000000000E+00 -0.79466686910E+03  0.17867156903E+04  0.16002679542E+04 0.  0.
        2    1    3    3  502    0  0.36336600206E+03 -0.62387024531E+03 -0.78243311914E+03  0.10646363324E+04  0.25500000920E-02 0. -1.
       -2    1    3    3    0  502 -0.36336600206E+03  0.62387024531E+03 -0.12233749956E+02  0.72207935788E+03  0.25500000920E-02 0.  1.
</event>
<event>
 5   0  0.2147844E-05  0.1598800E+04  0.7818609E-02  0.8821286E-01
        2   -1    0    0  501    0  0.00000000000E+00  0.00000000000E+00  0.90223961109E+03  0.90223961110E+03  0.25500000920E-02 0. -1.
       -2   -1    0    0    0  501  0.00000000000E+00  0.00000000000E+00 -0.70828198057E+03  0.70828198058E+03  0.25500000920E-02 0.  1.
    10030    2    1    2    0    0  0.00000000000E+00  0.00000000000E+00  0.19395763052E+03  0.16105215917E+04  0.15987996231E+04 0.  0.
        2    1    3    3  502    0  0.41807021721E+03  0.48137569365E+03 -0.38877529799E+03  0.74676066935E+03  0.25500000920E-02 0.  1.
       -2    1    3    3    0  502 -0.41807021721E+03 -0.48137569365E+03  0.58273292851E+03  0.86376092232E+03  0.25500000920E-02 0. -1.
</event>
<event>
 5   0  0.2046108E-05  0.1599875E+04  0.7818609E-02  0.8820625E-01
       -2   -1    0    0    0  501  0.00000000000E+00  0.00000000000E+00  0.33755897102E+03  0.33755897103E+03  0.25500000920E-02 0. -1.
        2   -1    0    0  501    0  0.00000000000E+00  0.00000000000E+00 -0.18956684940E+04  0.18956684940E+04  0.25500000920E-02 0.  1.
    10030    2    1    2    0    0  0.00000000000E+00  0.00000000000E+00 -0.15581095229E+04  0.22332274650E+04  0.15998748779E+04 0.  0.
        1    1    3    3  502    0 -0.44031044109E+03  0.30731892348E+03  0.48620687068E+02  0.53914949364E+03  0.50400001928E-02 0. -1.
       -1    1    3    3    0  502  0.44031044109E+03 -0.30731892348E+03 -0.16067302100E+04  0.16940779713E+04  0.50400001928E-02 0.  1.
</event>
<event>
 5   0  0.1994525E-05  0.1594786E+04  0.7818609E-02  0.8823758E-01
        2   -1    0    0  501    0  0.00000000000E+00  0.00000000000E+00  0.49923634454E+03  0.49923634455E+03  0.25500000920E-02 0. -1.
       -2   -1    0    0    0  501  0.00000000000E+00  0.00000000000E+00 -0.12736162148E+04  0.12736162148E+04  0.25500000920E-02 0.  1.
    10030    2    1    2    0    0  0.00000000000E+00  0.00000000000E+00 -0.77437987023E+03  0.17728525593E+04  0.15947858833E+04 0.  0.
        5    1    3    3  502    0  0.52642888875E+03  0.57768806697E+03 -0.56282635913E+03  0.96314405888E+03  0.46999998093E+01 0. -1.
       -5    1    3    3    0  502 -0.52642888875E+03 -0.57768806697E+03 -0.21155351110E+03  0.80970850044E+03  0.46999998093E+01 0.  1.
</event>
<event>
 5   0  0.1126485E-05  0.1600302E+04  0.7818609E-02  0.8820362E-01
       -1   -1    0    0    0  501  0.00000000000E+00  0.00000000000E+00  0.10967231572E+04  0.10967231572E+04  0.50400001928E-02 0.  1.
        1   -1    0    0  501    0  0.00000000000E+00  0.00000000000E+00 -0.58377713683E+03  0.58377713686E+03  0.50400001928E-02 0. -1.
    10030    2    1    2    0    0  0.00000000000E+00  0.00000000000E+00  0.51294602039E+03  0.16805002941E+04  0.16003023523E+04 0.  0.
        2    1    3    3  502    0 -0.46216633634E+03  0.63875080340E+03  0.11309648057E+03  0.79648673888E+03  0.25500000920E-02 0.  1.
       -2    1    3    3    0  502  0.46216633634E+03 -0.63875080340E+03  0.39984953982E+03  0.88401355521E+03  0.25500000920E-02 0. -1.
</event>
<event>
 5   0  0.1090674E-05  0.1600350E+04  0.7818609E-02  0.8820333E-01
        1   -1    0    0  501    0  0.00000000000E+00  0.00000000000E+00  0.21836104816E+04  0.21836104816E+04  0.50400001928E-02 0. -1.
       -1   -1    0    0    0  501  0.00000000000E+00  0.00000000000E+00 -0.29322091866E+03  0.29322091871E+03  0.50400001928E-02 0.  1.
    10030    2    1    2    0    0  0.00000000000E+00  0.00000000000E+00  0.18903895630E+04  0.24768314003E+04  0.16003503010E+04 0.  0.
        4    1    3    3  502    0 -0.57240272199E+03  0.36352030010E+03  0.28768218092E+03  0.73658301287E+03  0.12699999809E+01 0.  1.
       -4    1    3    3    0  502  0.57240272199E+03 -0.36352030010E+03  0.16027073820E+04  0.17402483875E+04  0.12699999809E+01 0. -1.
</event>
<event>
 5   0  0.1990948E-05  0.1602868E+04  0.7818609E-02  0.8818788E-01
        2   -1    0    0  501    0  0.00000000000E+00  0.00000000000E+00  0.12285786491E+04  0.12285786491E+04  0.25500000920E-02 0.  1.
       -2   -1    0    0    0  501  0.00000000000E+00  0.00000000000E+00 -0.52279626254E+03  0.52279626255E+03  0.25500000920E-02 0. -1.
    10030    2    1    2    0    0  0.00000000000E+00  0.00000000000E+00  0.70578238656E+03  0.17513749116E+04  0.16028678373E+04 0.  0.
        4    1    3    3  502    0 -0.63321237536E+03 -0.13892825727E+03  0.86775558029E+03  0.10831714237E+04  0.12699999809E+01 0.  1.
       -4    1    3    3    0  502  0.63321237536E+03  0.13892825727E+03 -0.16197319374E+03  0.66820348800E+03  0.12699999809E+01 0. -1.
</event>
<event>
 5   0  0.2125803E-05  0.1599799E+04  0.7818609E-02  0.8820671E-01
       -2   -1    0    0    0  501  0.00000000000E+00  0.00000000000E+00  0.12016048060E+04  0.12016048060E+04  0.25500000920E-02 0.  1.
        2   -1    0    0  501    0  0.00000000000E+00  0.00000000000E+00 -0.53248734704E+03  0.53248734704E+03  0.25500000920E-02 0. -1.
    10030    2    1    2    0    0  0.00000000000E+00  0.00000000000E+00  0.66911745900E+03  0.17340921531E+04  0.15997991816E+04 0.  0.
        3    1    3    3  502    0  0.28364985972E+03  0.69759023137E+03  0.62692220504E+03  0.97985755862E+03  0.10100000352E+00 0.  1.
       -3    1    3    3    0  502 -0.28364985972E+03 -0.69759023137E+03  0.42195253960E+02  0.75423459446E+03  0.10100000352E+00 0. -1.
</event>
<event>
 5   0  0.1060251E-05  0.1599046E+04  0.7818609E-02  0.8821134E-01
        1   -1    0    0  501    0  0.00000000000E+00  0.00000000000E+00  0.85640782447E+03  0.85640782449E+03  0.50400001928E-02 0. -1.
       -1   -1    0    0    0  501  0.00000000000E+00  0.00000000000E+00 -0.74641644527E+03  0.74641644529E+03  0.50400001928E-02 0.  1.
    10030    2    1    2    0    0  0.00000000000E+00  0.00000000000E+00  0.10999137921E+03  0.16028242698E+04  0.15990458206E+04 0.  0.
        1    1    3    3  502    0  0.75736289651E+03 -0.23951179358E+03 -0.36172114270E+02  0.79515588292E+03  0.50400001928E-02 0.  1.
       -1    1    3    3    0  502 -0.75736289651E+03  0.23951179358E+03  0.14616349348E+03  0.80766838685E+03  0.50400001928E-02 0. -1.
</event>
<event>
 5   0  0.1081831E-05  0.1600548E+04  0.7818609E-02  0.8820211E-01
        1   -1    0    0  501    0  0.00000000000E+00  0.00000000000E+00  0.18851503338E+04  0.18851503338E+04  0.50400001928E-02 0.  1.
       -1   -1    0    0    0  501  0.00000000000E+00  0.00000000000E+00 -0.33972815450E+03  0.33972815453E+03  0.50400001928E-02 0. -1.
    10030    2    1    2    0    0  0.00000000000E+00  0.00000000000E+00  0.15454221793E+04  0.22248784884E+04  0.16005482110E+04 0.  0.
        3    1    3    3  502    0  0.56867441482E+03  0.56126117436E+03  0.71001992046E+03  0.10688933500E+04  0.10100000352E+00 0.  1.
       -3    1    3    3    0  502 -0.56867441482E+03 -0.56126117436E+03  0.83540225888E+03  0.11559851384E+04  0.10100000352E+00 0. -1.
</event>
<event>
 5   0  0.1126485E-05  0.1600206E+04  0.7818609E-02  0.8820421E-01
        1   -1    0    0  501    0  0.00000000000E+00  0.00000000000E+00  0.14430111273E+04  0.14430111273E+04  0.50400001928E-02 0. -1.
       -1   -1    0    0    0  501  0.00000000000E+00  0.00000000000E+00 -0.44363150301E+03  0.44363150304E+03  0.50400001928E-02 0.  1.
    10030    2    1    2    0    0  0.00000000000E+00  0.00000000000E+00  0.99937962431E+03  0.18866426304E+04  0.16002064808E+04 0.  0.
        2    1    3    3  502    0 -0.74496650305E+03 -0.18909455693E+03  0.76182399276E+03  0.10821772674E+04  0.25500000920E-02 0. -1.
       -2    1    3    3    0  502  0.74496650305E+03  0.18909455693E+03  0.23755563154E+03  0.80446536297E+03  0.25500000920E-02 0.  1.
</event>
<event>
 5   0  0.1126485E-05  0.1599038E+04  0.7818609E-02  0.8821139E-01
        1   -1    0    0  501    0  0.00000000000E+00  0.00000000000E+00  0.51154289194E+03  0.51154289197E+03  0.50400001928E-02 0. -1.
       -1   -1    0    0    0  501  0.00000000000E+00  0.00000000000E+00 -0.12496128216E+04  0.12496128216E+04  0.50400001928E-02 0.  1.
    10030    2    1    2    0    0  0.00000000000E+00  0.00000000000E+00 -0.73806992969E+03  0.17611557136E+04  0.15990379065E+04 0.  0.
        2    1    3    3  502    0  0.30365336857E+03 -0.70629003956E+03 -0.12728275679E+03  0.77926368349E+03  0.25500000920E-02 0. -1.
       -2    1    3    3    0  502 -0.30365336857E+03  0.70629003956E+03 -0.61078717289E+03  0.98189203011E+03  0.25500000920E-02 0.  1.
</event>
<event>
 5   0  0.1994525E-05  0.1600370E+04  0.7818609E-02  0.8820321E-01
       -2   -1    0    0    0  501  0.00000000000E+00  0.00000000000E+00  0.36086016625E+03  0.36086016626E+03  0.25500000920E-02 0.  1.
        2   -1    0    0  501    0  0.00000000000E+00  0.00000000000E+00 -0.17743605554E+04  0.17743605554E+04  0.25500000920E-02 0. -1.
    10030    2    1    2    0    0  0.00000000000E+00  0.00000000000E+00 -0.14135003892E+04  0.21352207217E+04  0.16003700135E+04 0.  0.
        5    1    3    3  502    0 -0.38820489048E+03  0.45868576689E+03 -0.17922845521E+01  0.60093341729E+03  0.46999998093E+01 0.  1.
       -5    1    3    3    0  502  0.38820489048E+03 -0.45868576689E+03 -0.14117081046E+04  0.15342873044E+04  0.46999998093E+01 0. -1.
</event>
<event>
 5   0  0.1057506E-05  0.1601292E+04  0.7818609E-02  0.8819755E-01
       -1   -1    0    0    0  501  0.00000000000E+00  0.00000000000E+00  0.24620001690E+04  0.24620001690E+04  0.50400001928E-02 0.  1.
        1   -1    0    0  501    0  0.00000000000E+00  0.00000000000E+00 -0.26037125347E+03  0.26037125352E+03  0.50400001928E-02 0. -1.
    10030    2    1    2    0    0  0.00000000000E+00  0.00000000000E+00  0.22016289155E+04  0.27223714225E+04  0.16012920659E+04 0.  0.
        5    1    3    3  502    0  0.40395534496E+03 -0.24732422839E+03  0.34037793408E+01  0.47369069062E+03  0.46999998093E+01 0. -1.
       -5    1    3    3    0  502 -0.40395534496E+03  0.24732422839E+03  0.21982251362E+04  0.22486807319E+04  0.46999998093E+01 0.  1.
</event>
<event>
 5   0  0.1081831E-05  0.1599711E+04  0.7818609E-02  0.8820726E-01
       -1   -1    0    0    0  501  0.00000000000E+00  0.00000000000E+00  0.33243727897E+03  0.33243727901E+03  0.50400001928E-02 0.  1.
        1   -1    0    0  501    0  0.00000000000E+00  0.00000000000E+00 -0.19244795125E+04  0.19244795125E+04  0.50400001928E-02 0. -1.
    10030    2    1    2    0    0  0.00000000000E+00  0.00000000000E+00 -0.15920422335E+04  0.22569167915E+04  0.15997108897E+04 0.  0.
        3    1    3    3  502    0 -0.71176464777E+03  0.36451550622E+03 -0.77206800318E+03  0.11115617301E+04  0.10100000352E+00 0. -1.
       -3    1    3    3    0  502  0.71176464777E+03 -0.36451550622E+03 -0.81997423037E+03  0.11453550614E+04  0.10100000352E+00 0.  1.
</event>
<event>
 5   0  0.1057506E-05  0.1600413E+04  0.7818609E-02  0.8820294E-01
        1   -1    0    0  501    0  0.00000000000E+00  0.00000000000E+00  0.14453934125E+04  0.14453934125E+04  0.50400001928E-02 0.  1.
       -1   -1    0    0    0  501  0.00000000000E+00  0.00000000000E+00 -0.44301479921E+03  0.44301479924E+03  0.50400001928E-02 0. -1.
    10030    2    1    2    0    0  0.00000000000E+00  0.00000000000E+00  0.10023786133E+04  0.18884082118E+04  0.16004132872E+04 0.  0.
        5    1    3    3  502    0  0.35563102971E+03  0.38819839581E+03  0.12122375658E+04  0.13216328650E+04  0.46999998093E+01 0.  1.
       -5    1    3    3    0  502 -0.35563102971E+03 -0.38819839581E+03 -0.20985895250E+03  0.56677534680E+03  0.46999998093E+01 0. -1.
</event>
<event>
 5   0  0.1060251E-05  0.1600186E+04  0.7818609E-02  0.8820434E-01
        1   -1    0    0  501    0  0.00000000000E+00  0.00000000000E+00  0.72075902832E+03  0.72075902834E+03  0.50400001928E-02 0.  1.
       -1   -1    0    0    0  501  0.00000000000E+00  0.00000000000E+00 -0.88815920780E+03  0.88815920782E+03  0.50400001928E-02 0. -1.
    10030    2    1    2    0    0  0.00000000000E+00  0.00000000000E+00 -0.16740017949E+03  0.16089182362E+04  0.16001859487E+04 0.  0.
        1    1    3    3  502    0 -0.10876263278E+02 -0.37093127005E+03  0.62899838133E+03  0.73030628091E+03  0.50400001928E-02 0.  1.
       -1    1    3    3    0  502  0.10876263278E+02  0.37093127005E+03 -0.79639856081E+03  0.87861195524E+03  0.50400001928E-02 0. -1.
</event>
<event>
 5   0  0.2147844E-05  0.1600579E+04  0.7818609E-02  0.8820193E-01
       -2   -1    0    0    0  501  0.00000000000E+00  0.00000000000E+00  0.35753472163E+03  0.35753472164E+03  0.25500000920E-02 0. -1.
        2   -1    0    0  501    0  0.00000000000E+00  0.00000000000E+00 -0.17913306823E+04  0.17913306823E+04  0.25500000920E-02 0.  1.
    10030    2    1    2    0    0  0.00000000000E+00  0.00000000000E+00 -0.14337959606E+04  0.21488654039E+04  0.16005785415E+04 0.  0.
        2    1    3    3  502    0  0.66401089840E+03 -0.10222930070E+03 -0.13307680715E+03  0.68488739200E+03  0.25500000920E-02 0. -1.
       -2    1    3    3    0  502 -0.66401089840E+03  0.10222930070E+03 -0.13007191535E+04  0.14639780119E+04  0.25500000920E-02 0.  1.
</event>
<event>
 5   0  0.2046108E-05  0.1602282E+04  0.7818609E-02  0.8819148E-01
       -2   -1    0    0    0  501  0.00000000000E+00  0.00000000000E+00  0.45462047235E+03  0.45462047236E+03  0.25500000920E-02 0. -1.
        2   -1    0    0  501    0  0.00000000000E+00  0.00000000000E+00 -0.14117853355E+04  0.14117853355E+04  0.25500000920E-02 0.  1.
    10030    2    1    2    0    0  0.00000000000E+00  0.00000000000E+00 -0.95716486311E+03  0.18664058078E+04  0.16022815184E+04 0.  0.
        1    1    3    3  502    0 -0.35634832771E+03 -0.71521333802E+03 -0.54562179634E+03  0.96758327508E+03  0.50400001928E-02 0. -1.
       -1    1    3    3    0  502  0.35634832771E+03  0.71521333802E+03 -0.41154306677E+03  0.89882253275E+03  0.50400001928E-02 0.  1.
</event>
<event>
 5   0  0.1057506E-05  0.1599919E+04  0.7818609E-02  0.8820598E-01
        1   -1    0    0  501    0  0.00000000000E+00  0.00000000000E+00  0.20185490952E+04  0.20185490952E+04  0.50400001928E-02 0. -1.
       -1   -1    0    0    0  501  0.00000000000E+00  0.00000000000E+00 -0.31702713787E+03  0.31702713791E+03  0.50400001928E-02 0.  1.
    10030    2    1    2    0    0  0.00000000000E+00  0.00000000000E+00  0.17015219573E+04  0.23355762331E+04  0.15999185509E+04 0.  0.
        5    1    3    3  502    0  0.28455044159E+03 -0.65547579727E+03  0.32584776563E+03  0.78537655362E+03  0.46999998093E+01 0.  1.
       -5    1    3    3    0  502 -0.28455044159E+03  0.65547579727E+03  0.13756741917E+04  0.15501996795E+04  0.46999998093E+01 0. -1.
</event>
<event>
 5   0  0.1126485E-05  0.1602129E+04  0.7818609E-02  0.8819241E-01
       -1   -1    0    0    0  501  0.00000000000E+00  0.00000000000E+00  0.74004042205E+03  0.74004042207E+03  0.50400001928E-02 0.  1.
        1   -1    0    0  501    0  0.00000000000E+00  0.00000000000E+00 -0.86712050540E+03  0.86712050541E+03  0.50400001928E-02 0. -1.
    10030    2    1    2    0    0  0.00000000000E+00  0.00000000000E+00 -0.12708008335E+03  0.16071609275E+04  0.16021288647E+04 0.  0.
        2    1    3    3  502    0  0.23133017171E+03  0.75795488736E+03  0.53853008520E+02  0.79429805876E+03  0.25500000920E-02 0. -1.
       -2    1    3    3    0  502 -0.23133017171E+03 -0.75795488736E+03 -0.18093309187E+03  0.81286286873E+03  0.25500000920E-02 0.  1.
</event>
<event>
 5   0  0.1081831E-05  0.1599705E+04  0.7818609E-02  0.8820729E-01
       -1   -1    0    0    0  501  0.00000000000E+00  0.00000000000E+00  0.24993279856E+03  0.24993279861E+03  0.50400001928E-02 0.  1.
        1   -1    0    0  501    0  0.00000000000E+00  0.00000000000E+00 -0.25597443426E+04  0.25597443426E+04  0.50400001928E-02 0. -1.
    10030    2    1    2    0    0  0.00000000000E+00  0.00000000000E+00 -0.23098115440E+04  0.28096771412E+04  0.15997050568E+04 0.  0.
        3    1    3    3  502    0  0.20354575372E+03 -0.60672536104E+03 -0.31218114489E+03  0.71204186325E+03  0.10100000352E+00 0.  1.
       -3    1    3    3    0  502 -0.20354575372E+03  0.60672536104E+03 -0.19976303991E+04  0.20976352779E+04  0.10100000352E+00 0. -1.
</event>
<event>
 5   0  0.2147844E-05  0.1598908E+04  0.7818609E-02  0.8821219E-01
        2   -1    0    0  501    0  0.00000000000E+00  0.00000000000E+00  0.96286984749E+03  0.96286984749E+03  0.25500000920E-02 0.  1.
       -2   -1    0    0    0  501  0.00000000000E+00  0.00000000000E+00 -0.66377293613E+03  0.66377293613E+03  0.25500000920E-02 0. -1.
    10030    2    1    2    0    0  0.00000000000E+00  0.00000000000E+00  0.29909691136E+03  0.16266427836E+04  0.15989083098E+04 0.  0.
        2    1    3    3  502    0  0.25783635024E+03  0.48801375677E+03  0.73793151300E+03  0.92150959202E+03  0.25500000920E-02 0.  1.
       -2    1    3    3    0  502 -0.25783635024E+03 -0.48801375677E+03 -0.43883460163E+03  0.70513319160E+03  0.25500000920E-02 0. -1.
</event>
<event>
 5   0  0.2046108E-05  0.1599748E+04  0.7818609E-02  0.8820703E-01
       -2   -1    0    0    0  501  0.00000000000E+00  0.00000000000E+00  0.47115340335E+03  0.47115340336E+03  0.25500000920E-02 0. -1.
        2   -1    0    0  501    0  0.00000000000E+00  0.00000000000E+00 -0.13579409912E+04  0.13579409912E+04  0.25500000920E-02 0.  1.
    10030    2    1    2    0    0  0.00000000000E+00  0.00000000000E+00 -0.88678758786E+03  0.18290943946E+04  0.15997481296E+04 0.  0.
        1    1    3    3  502    0  0.24373152991E+03 -0.53690785137E+03  0.17457663813E+03  0.61494073059E+03  0.50400001928E-02 0. -1.
       -1    1    3    3    0  502 -0.24373152991E+03  0.53690785137E+03 -0.10613642260E+04  0.12141536640E+04  0.50400001928E-02 0.  1.
</event>
<event>
 5   0  0.1060251E-05  0.1599652E+04  0.7818609E-02  0.8820762E-01
       -1   -1    0    0    0  501  0.00000000000E+00  0.00000000000E+00  0.39698298888E+03  0.39698298891E+03  0.50400001928E-02 0.  1.
        1   -1    0    0  501    0  0.00000000000E+00  0.00000000000E+00 -0.16114576656E+04  0.16114576656E+04  0.50400001928E-02 0. -1.
    10030    2    1    2    0    0  0.00000000000E+00  0.00000000000E+00 -0.12144746767E+04  0.20084406545E+04  0.15996515628E+04 0.  0.
        1    1    3    3  502    0  0.14314114285E+03  0.76950472112E+03 -0.40056935519E+03  0.87925122175E+03  0.50400001928E-02 0.  1.
       -1    1    3    3    0  502 -0.14314114285E+03 -0.76950472112E+03 -0.81390532149E+03  0.11291894327E+04  0.50400001928E-02 0. -1.
</event>
<event>
 5   0  0.2147844E-05  0.1599683E+04  0.7818609E-02  0.8820743E-01
       -2   -1    0    0    0  501  0.00000000000E+00  0.00000000000E+00  0.47495397937E+03  0.47495397938E+03  0.25500000920E-02 0. -1.
        2   -1    0    0  501    0  0.00000000000E+00  0.00000000000E+00 -0.13469646772E+04  0.13469646772E+04  0.25500000920E-02 0.  1.
    10030    2    1    2    0    0  0.00000000000E+00  0.00000000000E+00 -0.87201069784E+03  0.18219186566E+04  0.15996827605E+04 0.  0.
        2    1    3    3  502    0  0.58274086288E+03  0.52295567233E+03 -0.24998474538E+03  0.82192573960E+03  0.25500000920E-02 0. -1.
       -2    1    3    3    0  502 -0.58274086288E+03 -0.52295567233E+03 -0.62202595246E+03  0.99999291699E+03  0.25500000920E-02 0.  1.
</event>
<event>
 5   0  0.1090674E-05  0.1599890E+04  0.7818609E-02  0.8820615E-01
        1   -1    0    0  501    0  0.00000000000E+00  0.00000000000E+00  0.16493829360E+04  0.16493829361E+04  0.50400001928E-02 0.  1.
       -1   -1    0    0    0  501  0.00000000000E+00  0.00000000000E+00 -0.38797074646E+03  0.38797074650E+03  0.50400001928E-02 0. -1.
    10030    2    1    2    0    0  0.00000000000E+00  0.00000000000E+00  0.12614121896E+04  0.20373536825E+04  0.15998904074E+04 0.  0.
        4    1    3    3  502    0  0.71846714285E+03 -0.32306241215E+03  0.80782944177E+03  0.11283414277E+04  0.12699999809E+01 0. -1.
       -4    1    3    3    0  502 -0.71846714285E+03  0.32306241215E+03  0.45358274781E+03  0.90901225488E+03  0.12699999809E+01 0.  1.
</event>
<event>
 5   0  0.1081831E-05  0.1601511E+04  0.7818609E-02  0.8819620E-01
        1   -1    0    0  501    0  0.00000000000E+00  0.00000000000E+00  0.74018892781E+03  0.74018892782E+03  0.50400001928E-02 0. -1.
       -1   -1    0    0    0  501  0.00000000000E+00  0.00000000000E+00 -0.86627820283E+03  0.86627820284E+03  0.50400001928E-02 0.  1.
    10030    2    1    2    0    0  0.00000000000E+00  0.00000000000E+00 -0.12608927502E+03  0.16064671307E+04  0.16015112040E+04 0.  0.
        3    1    3    3  502    0 -0.11265403235E+03  0.71168294741E+03  0.28735851640E+03  0.77573093002E+03  0.10100000352E+00 0.  1.
       -3    1    3    3    0  502  0.11265403235E+03 -0.71168294741E+03 -0.41344779142E+03  0.83073620065E+03  0.10100000352E+00 0. -1.
</event>
<event>
 5   0  0.1994525E-05  0.1599722E+04  0.7818609E-02  0.8820719E-01
        2   -1    0    0  501    0  0.00000000000E+00  0.00000000000E+00  0.17531993113E+04  0.17531993113E+04  0.25500000920E-02 0. -1.
       -2   -1    0    0    0  501  0.00000000000E+00  0.00000000000E+00 -0.36491990558E+03  0.36491990559E+03  0.25500000920E-02 0.  1.
    10030    2    1    2    0    0  0.00000000000E+00  0.00000000000E+00  0.13882794057E+04  0.21181192169E+04  0.15997216347E+04 0.  0.
        5    1    3    3  502    0 -0.49887741734E+03 -0.51241750845E+03  0.21986765431E+03  0.74820736157E+03  0.46999998093E+01 0.  1.
       -5    1    3    3    0  502  0.49887741734E+03  0.51241750845E+03  0.11684117514E+04  0.13699118553E+04  0.46999998093E+01 0. -1.
</event>
<event>
 5   0  0.2147844E-05  0.1599794E+04  0.7818609E-02  0.8820675E-01
        2   -1    0    0  501    0  0.00000000000E+00  0.00000000000E+00  0.12960417825E+04  0.12960417825E+04  0.25500000920E-02 0. -1.
       -2   -1    0    0    0  501  0.00000000000E+00  0.00000000000E+00 -0.49368403614E+03  0.49368403614E+03  0.25500000920E-02 0.  1.
    10030    2    1    2    0    0  0.00000000000E+00  0.00000000000E+00  0.80235774637E+03  0.17897258187E+04  0.15997939095E+04 0.  0.
        2    1    3    3  502    0  0.28638433290E+03  0.69722475903E+03  0.70073093452E+03  0.10291560588E+04  0.25500000920E-02 0. -1.
       -2    1    3    3    0  502 -0.28638433290E+03 -0.69722475903E+03  0.10162681185E+03  0.76056975987E+03  0.25500000920E-02 0.  1.
</event>
<event>
 5   0  0.7597000E-06  0.1600039E+04  0.7818609E-02  0.8820524E-01
       -3   -1    0    0    0  501  0.00000000000E+00  0.00000000000E+00  0.32872687812E+03  0.32872689364E+03  0.10100000352E+00 0.  1.
        3   -1    0    0  501    0  0.00000000000E+00  0.00000000000E+00 -0.19469992790E+04  0.19469992816E+04  0.10100000352E+00 0. -1.
    10030    2    1    2    0    0  0.00000000000E+00  0.00000000000E+00 -0.16182724008E+04  0.22757261752E+04  0.16000387687E+04 0.  0.
        4    1    3    3  502    0  0.14235969235E+03 -0.78699279219E+03 -0.78049663504E+03  0.11174974484E+04  0.12699999809E+01 0. -1.
       -4    1    3    3    0  502 -0.14235969235E+03  0.78699279219E+03 -0.83777576579E+03  0.11582287268E+04  0.12699999809E+01 0.  1.
</event>
<event>
 5   0  0.1057506E-05  0.1600284E+04  0.7818609E-02  0.8820373E-01
       -1   -1    0    0    0  501  0.00000000000E+00  0.00000000000E+00  0.47438570829E+03  0.47438570832E+03  0.50400001928E-02 0.  1.
        1   -1    0    0  501    0  0.00000000000E+00  0.00000000000E+00 -0.13495927670E+04  0.13495927670E+04  0.50400001928E-02 0. -1.
    10030    2    1    2    0    0  0.00000000000E+00  0.00000000000E+00 -0.87520705867E+03  0.18239784753E+04  0.16002843756E+04 0.  0.
        5    1    3    3  502    0 -0.71260707156E+02 -0.76078875759E+03 -0.70811393259E+03  0.10417893518E+04  0.46999998093E+01 0. -1.
       -5    1    3    3    0  502  0.71260707156E+02  0.76078875759E+03 -0.16709312608E+03  0.78218912345E+03  0.46999998093E+01 0.  1.
</event>
<event>
 5   0  0.1126485E-05  0.1599665E+04  0.7818609E-02  0.8820754E-01
       -1   -1    0    0    0  501  0.00000000000E+00  0.00000000000E+00  0.91634461262E+03  0.91634461264E+03  0.50400001928E-02 0. -1.
        1   -1    0    0  501    0  0.00000000000E+00  0.00000000000E+00 -0.69813463469E+03  0.69813463471E+03  0.50400001928E-02 0.  1.
    10030    2    1    2    0    0  0.00000000000E+00  0.00000000000E+00  0.21820997793E+03  0.16144792473E+04  0.15996648542E+04 0.  0.
        2    1    3    3  502    0 -0.30158381398E+01  0.62087526555E+03 -0.39978347144E+03  0.73845921668E+03  0.25500000920E-02 0.  1.
       -2    1    3    3    0  502  0.30158381398E+01 -0.62087526555E+03  0.61799344938E+03  0.87602003067E+03  0.25500000920E-02 0. -1.
</event>
<event>
 5   0  0.1060251E-05  0.1600041E+04  0.7818609E-02  0.8820523E-01
        1   -1    0    0  501    0  0.00000000000E+00  0.00000000000E+00  0.99045339683E+03  0.99045339684E+03  0.50400001928E-02 0. -1.
       -1   -1    0    0    0  501  0.00000000000E+00  0.00000000000E+00 -0.64620221615E+03  0.64620221617E+03  0.50400001928E-02 0.  1.
    10030    2    1    2    0    0  0.00000000000E+00  0.00000000000E+00  0.34425118068E+03  0.16366556130E+04  0.16000414745E+04 0.  0.
        1    1    3    3  502    0 -0.34312795352E+03  0.59719204824E+03  0.58845043639E+03  0.90589682143E+03  0.50400001928E-02 0. -1.
       -1    1    3    3    0  502  0.34312795352E+03 -0.59719204824E+03 -0.24419925570E+03  0.73075879158E+03  0.50400001928E-02 0.  1.
</event>
<event>
 5   0  0.2147844E-05  0.1601166E+04  0.7818609E-02  0.8819832E-01
        2   -1    0    0  501    0  0.00000000000E+00  0.00000000000E+00  0.14955399716E+04  0.14955399716E+04  0.25500000920E-02 0.  1.
       -2   -1    0    0    0  501  0.00000000000E+00  0.00000000000E+00 -0.42856310523E+03  0.42856310524E+03  0.25500000920E-02 0. -1.
    10030    2    1    2    0    0  0.00000000000E+00  0.00000000000E+00  0.10669768663E+04  0.19241030768E+04  0.16011661428E+04 0.  0.
        2    1    3    3  502    0 -0.78610525074E+03 -0.38304632973E+02  0.70970918733E+03  0.10597715984E+04  0.25500000920E-02 0.  1.
       -2    1    3    3    0  502  0.78610525074E+03  0.38304632973E+02  0.35726767901E+03  0.86433147844E+03  0.25500000920E-02 0. -1.
</event>
<event>
 5   0  0.1060251E-05  0.1601216E+04  0.7818609E-02  0.8819801E-01
       -1   -1    0    0    0  501  0.00000000000E+00  0.00000000000E+00  0.68566321859E+03  0.68566321861E+03  0.50400001928E-02 0. -1.
        1   -1    0    0  501    0  0.00000000000E+00  0.00000000000E+00 -0.93482267355E+03  0.93482267357E+03  0.50400001928E-02 0.  1.
    10030    2    1    2    0    0  0.00000000000E+00  0.00000000000E+00 -0.24915945496E+03  0.16204858922E+04  0.16012164416E+04 0.  0.
        1    1    3    3  502    0 -0.68071701452E+03  0.40725367970E+03 -0.14913733721E+02  0.79338113978E+03  0.50400001928E-02 0. -1.
       -1    1    3    3    0  502  0.68071701452E+03 -0.40725367970E+03 -0.23424572124E+03  0.82710475239E+03  0.50400001928E-02 0.  1.
</event>
<event>
 5   0  0.1994525E-05  0.1600217E+04  0.7818609E-02  0.8820415E-01
       -2   -1    0    0    0  501  0.00000000000E+00  0.00000000000E+00  0.33533246069E+03  0.33533246070E+03  0.25500000920E-02 0.  1.
        2   -1    0    0  501    0  0.00000000000E+00  0.00000000000E+00 -0.19090716009E+04  0.19090716009E+04  0.25500000920E-02 0. -1.
    10030    2    1    2    0    0  0.00000000000E+00  0.00000000000E+00 -0.15737391402E+04  0.22444040616E+04  0.16002170822E+04 0.  0.
        5    1    3    3  502    0 -0.19617406466E+02 -0.20803888384E+02  0.33459620668E+03  0.33584870988E+03  0.46999998093E+01 0.  1.
       -5    1    3    3    0  502  0.19617406466E+02  0.20803888384E+02 -0.19083353469E+04  0.19085553517E+04  0.46999998093E+01 0. -1.
</event>
<event>
 5   0  0.1081831E-05  0.1598898E+04  0.7818609E-02  0.8821225E-01
       -1   -1    0    0    0  501  0.00000000000E+00  0.00000000000E+00  0.56813136300E+03  0.56813136302E+03  0.50400001928E-02 0.  1.
        1   -1    0    0  501    0  0.00000000000E+00  0.00000000000E+00 -0.11249492889E+04  0.11249492889E+04  0.50400001928E-02 0. -1.
    10030    2    1    2    0    0  0.00000000000E+00  0.00000000000E+00 -0.55681792594E+03  0.16930806520E+04  0.15988983368E+04 0.  0.
        3    1    3    3  502    0 -0.47527638103E+03 -0.18454183931E+03  0.37363519279E+03  0.63209698331E+03  0.10100000352E+00 0.  1.
       -3    1    3    3    0  502  0.47527638103E+03  0.18454183931E+03 -0.93045311873E+03  0.10609836687E+04  0.10100000352E+00 0. -1.
</event>
<event>
 5   0  0.7597000E-06  0.1599689E+04  0.7818609E-02  0.8820739E-01
       -3   -1    0    0    0  501  0.00000000000E+00  0.00000000000E+00  0.11463236681E+04  0.11463236725E+04  0.10100000352E+00 0. -1.
        3   -1    0    0  501    0  0.00000000000E+00  0.00000000000E+00 -0.55808917276E+03  0.55808918190E+03  0.10100000352E+00 0.  1.
    10030    2    1    2    0    0  0.00000000000E+00  0.00000000000E+00  0.58823449530E+03  0.17044128544E+04  0.15996885187E+04 0.  0.
        2    1    3    3  502    0 -0.20572938271E+03 -0.10439874317E+03 -0.52187012460E+03  0.57058925984E+03  0.25500000920E-02 0.  1.
       -2    1    3    3    0  502  0.20572938271E+03  0.10439874317E+03  0.11101046199E+04  0.11338235946E+04  0.25500000920E-02 0. -1.
</event>
<event>
 5   0  0.1057506E-05  0.1599617E+04  0.7818609E-02  0.8820783E-01
        1   -1    0    0  501    0  0.00000000000E+00  0.00000000000E+00  0.22335275582E+04  0.22335275582E+04  0.50400001928E-02 0. -1.
       -1   -1    0    0    0  501  0.00000000000E+00  0.00000000000E+00 -0.28640513325E+03  0.28640513329E+03  0.50400001928E-02 0.  1.
    10030    2    1    2    0    0  0.00000000000E+00  0.00000000000E+00  0.19471224250E+04  0.25199326915E+04  0.15996171517E+04 0.  0.
        5    1    3    3  502    0 -0.60324138726E+03 -0.11884724626E+03  0.16775497232E+03  0.63732931831E+03  0.46999998093E+01 0.  1.
       -5    1    3    3    0  502  0.60324138726E+03  0.11884724626E+03  0.17793674527E+04  0.18826033732E+04  0.46999998093E+01 0. -1.
</event>
<event>
 5   0  0.2147844E-05  0.1598335E+04  0.7818609E-02  0.8821572E-01
       -2   -1    0    0    0  501  0.00000000000E+00  0.00000000000E+00  0.85806993716E+03  0.85806993716E+03  0.25500000920E-02 0.  1.
        2   -1    0    0  501    0  0.00000000000E+00  0.00000000000E+00 -0.74430841618E+03  0.74430841618E+03  0.25500000920E-02 0. -1.
    10030    2    1    2    0    0  0.00000000000E+00  0.00000000000E+00  0.11376152098E+03  0.16023783533E+04  0.15983349785E+04 0.  0.
        2    1    3    3  502    0 -0.69083818013E+03 -0.35550699448E+03 -0.13074519610E+03  0.78786859346E+03  0.25500000920E-02 0.  1.
       -2    1    3    3    0  502  0.69083818013E+03  0.35550699448E+03  0.24450671708E+03  0.81450975989E+03  0.25500000920E-02 0. -1.
</event>
<event>
 5   0  0.7597000E-06  0.1600905E+04  0.7818609E-02  0.8819992E-01
        3   -1    0    0  501    0  0.00000000000E+00  0.00000000000E+00  0.69508861390E+03  0.69508862124E+03  0.10100000352E+00 0. -1.
       -3   -1    0    0    0  501  0.00000000000E+00  0.00000000000E+00 -0.92178741726E+03  0.92178742280E+03  0.10100000352E+00 0.  1.
    10030    2    1    2    0    0  0.00000000000E+00  0.00000000000E+00 -0.22669880336E+03  0.16168760440E+04  0.16009046800E+04 0.  0.
        4    1    3    3  502    0 -0.39609785826E+03  0.58583806750E+02 -0.81337075378E+03  0.90658654950E+03  0.12699999809E+01 0.  1.
       -4    1    3    3    0  502  0.39609785826E+03 -0.58583806750E+02  0.58667195042E+03  0.71028949453E+03  0.12699999809E+01 0. -1.
</event>
<event>
 5   0  0.1060251E-05  0.1600272E+04  0.7818609E-02  0.8820381E-01
        1   -1    0    0  501    0  0.00000000000E+00  0.00000000000E+00  0.18161690295E+04  0.18161690295E+04  0.50400001928E-02 0.  1.
       -1   -1    0    0    0  501  0.00000000000E+00  0.00000000000E+00 -0.35250980594E+03  0.35250980598E+03  0.50400001928E-02 0. -1.
    10030    2    1    2    0    0  0.00000000000E+00  0.00000000000E+00  0.14636592235E+04  0.21686788355E+04  0.16002717172E+04 0.  0.
        1    1    3    3  502    0 -0.29283577164E+03  0.51051389171E+03  0.14664400487E+04  0.15801340574E+04  0.50400001928E-02 0.  1.
       -1    1    3    3    0  502  0.29283577164E+03 -0.51051389171E+03 -0.27808251999E+01  0.58854477807E+03  0.50400001928E-02 0. -1.
</event>
<event>
 5   0  0.2147844E-05  0.1600296E+04  0.7818609E-02  0.8820366E-01
       -2   -1    0    0    0  501  0.00000000000E+00  0.00000000000E+00  0.10832000199E+04  0.10832000199E+04  0.25500000920E-02 0.  1.
        2   -1    0    0  501    0  0.00000000000E+00  0.00000000000E+00 -0.59106051031E+03  0.59106051032E+03  0.25500000920E-02 0. -1.
    10030    2    1    2    0    0  0.00000000000E+00  0.00000000000E+00  0.49213950956E+03  0.16742605302E+04  0.16002959183E+04 0.  0.
        2    1    3    3  502    0  0.79131952457E+03 -0.68579124355E+02  0.14492101062E+03  0.80739815803E+03  0.25500000920E-02 0. -1.
       -2    1    3    3    0  502 -0.79131952457E+03  0.68579124355E+02  0.34721849894E+03  0.86686237216E+03  0.25500000920E-02 0.  1.
</event>
<event>
 5   0  0.1126485E-05  0.1602132E+04  0.7818609E-02  0.8819239E-01
        1   -1    0    0  501    0  0.00000000000E+00  0.00000000000E+00  0.12124601780E+04  0.12124601780E+04  0.50400001928E-02 0.  1.
       -1   -1    0    0    0  501  0.00000000000E+00  0.00000000000E+00 -0.52926025186E+03  0.52926025188E+03  0.50400001928E-02 0. -1.
    10030    2    1    2    0    0  0.00000000000E+00  0.00000000000E+00  0.68319992617E+03  0.17417204299E+04  0.16021323032E+04 0.  0.
        2    1    3    3  502    0  0.33042768042E+03 -0.15321685399E+03  0.11172394595E+04  0.11751092997E+04  0.25500000920E-02 0.  1.
       -2    1    3    3    0  502 -0.33042768042E+03  0.15321685399E+03 -0.43403953336E+03  0.56661113020E+03  0.25500000920E-02 0. -1.
</event>
<event>
 5   0  0.1126485E-05  0.1600269E+04  0.7818609E-02  0.8820383E-01
        1   -1    0    0  501    0  0.00000000000E+00  0.00000000000E+00  0.14310555983E+04  0.14310555983E+04  0.50400001928E-02 0.  1.
       -1   -1    0    0    0  501  0.00000000000E+00  0.00000000000E+00 -0.44737280372E+03  0.44737280375E+03  0.50400001928E-02 0. -1.
    10030    2    1    2    0    0  0.00000000000E+00  0.00000000000E+00  0.98368279457E+03  0.18784284021E+04  0.16002691715E+04 0.  0.
        2    1    3    3  502    0  0.72053131974E+03 -0.33121168301E+03  0.36679348170E+03  0.87372994678E+03  0.25500000920E-02 0.  1.
       -2    1    3    3    0  502 -0.72053131974E+03  0.33121168301E+03  0.61688931287E+03  0.10046984553E+04  0.25500000920E-02 0. -1.
</event>
<event>
 5   0  0.1090674E-05  0.1600229E+04  0.7818609E-02  0.8820407E-01
        1   -1    0    0  501    0  0.00000000000E+00  0.00000000000E+00  0.10992460622E+04  0.10992460622E+04  0.50400001928E-02 0. -1.
       -1   -1    0    0    0  501  0.00000000000E+00  0.00000000000E+00 -0.58238414266E+03  0.58238414268E+03  0.50400001928E-02 0.  1.
    10030    2    1    2    0    0  0.00000000000E+00  0.00000000000E+00  0.51686191950E+03  0.16816302049E+04  0.16002293280E+04 0.  0.
        4    1    3    3  502    0  0.74814572457E+03 -0.28219334503E+03  0.22821500775E+03  0.83152799822E+03  0.12699999809E+01 0.  1.
       -4    1    3    3    0  502 -0.74814572457E+03  0.28219334503E+03  0.28864691175E+03  0.85010220664E+03  0.12699999809E+01 0. -1.
</event>
<event>
 5   0  0.1090674E-05  0.1599756E+04  0.7818609E-02  0.8820698E-01
       -1   -1    0    0    0  501  0.00000000000E+00  0.00000000000E+00  0.43657215981E+03  0.43657215984E+03  0.50400001928E-02 0. -1.
        1   -1    0    0  501    0  0.00000000000E+00  0.00000000000E+00 -0.14655193758E+04  0.14655193759E+04  0.50400001928E-02 0.  1.
    10030    2    1    2    0    0  0.00000000000E+00  0.00000000000E+00 -0.10289472160E+04  0.19020915357E+04  0.15997561804E+04 0.  0.
        4    1    3    3  502    0  0.19393839509E+03  0.52800192931E+03  0.16168895388E+03  0.58527179084E+03  0.12699999809E+01 0. -1.
       -4    1    3    3    0  502 -0.19393839509E+03 -0.52800192931E+03 -0.11906361699E+04  0.13168197449E+04  0.12699999809E+01 0.  1.
</event>
<event>
 5   0  0.1057506E-05  0.1600259E+04  0.7818609E-02  0.8820389E-01
       -1   -1    0    0    0  501  0.00000000000E+00  0.00000000000E+00  0.11037510922E+04  0.11037510922E+04  0.50400001928E-02 0. -1.
        1   -1    0    0  501    0  0.00000000000E+00  0.00000000000E+00 -0.58002852965E+03  0.58002852968E+03  0.50400001928E-02 0.  1.
    10030    2    1    2    0    0  0.00000000000E+00  0.00000000000E+00  0.52372256255E+03  0.16837796219E+04  0.16002588830E+04 0.  0.
        5    1    3    3  502    0  0.24043813893E+03 -0.57227071573E+03  0.79306796563E+03  0.10071162588E+04  0.46999998093E+01 0. -1.
       -5    1    3    3    0  502 -0.24043813893E+03  0.57227071573E+03 -0.26934540307E+03  0.67666336305E+03  0.46999998093E+01 0.  1.
</event>
<event>
 5   0  0.1081831E-05  0.1597952E+04  0.7818609E-02  0.8821807E-01
        1   -1    0    0  501    0  0.00000000000E+00  0.00000000000E+00  0.13469596054E+04  0.13469596054E+04  0.50400001928E-02 0.  1.
       -1   -1    0    0    0  501  0.00000000000E+00  0.00000000000E+00 -0.47392883695E+03  0.47392883698E+03  0.50400001928E-02 0. -1.
    10030    2    1    2    0    0  0.00000000000E+00  0.00000000000E+00  0.87303076841E+03  0.18208884424E+04  0.15979524389E+04 0.  0.
        3    1    3    3  502    0 -0.32274608730E+03 -0.33257407486E+03 -0.30512537374E+03  0.55486219554E+03  0.10100000352E+00 0. -1.
       -3    1    3    3    0  502  0.32274608730E+03  0.33257407486E+03  0.11781561422E+04  0.12660262468E+04  0.10100000352E+00 0.  1.
</event>
<event>
 5   0  0.1994525E-05  0.1600218E+04  0.7818609E-02  0.8820414E-01
        2   -1    0    0  501    0  0.00000000000E+00  0.00000000000E+00  0.21095668777E+04  0.21095668777E+04  0.25500000920E-02 0.  1.
       -2   -1    0    0    0  501  0.00000000000E+00  0.00000000000E+00 -0.30346230110E+03  0.30346230111E+03  0.25500000920E-02 0. -1.
    10030    2    1    2    0    0  0.00000000000E+00  0.00000000000E+00  0.18061045766E+04  0.24130291788E+04  0.16002175090E+04 0.  0.
        5    1    3    3  502    0  0.73032976005E+03 -0.28084845341E+03  0.11549028811E+04  0.13950197729E+04  0.46999998093E+01 0.  1.
       -5    1    3    3    0  502 -0.73032976005E+03  0.28084845341E+03  0.65120169556E+03  0.10180094059E+04  0.46999998093E+01 0. -1.
</event>
<event>
 5   0  0.1057506E-05  0.1600054E+04  0.7818609E-02  0.8820515E-01
        1   -1    0    0  501    0  0.00000000000E+00  0.00000000000E+00  0.56479934775E+03  0.56479934777E+03  0.50400001928E-02 0.  1.
       -1   -1    0    0    0  501  0.00000000000E+00  0.00000000000E+00 -0.11332225472E+04  0.11332225472E+04  0.50400001928E-02 0. -1.
    10030    2    1    2    0    0  0.00000000000E+00  0.00000000000E+00 -0.56842319947E+03  0.16980218950E+04  0.16000541935E+04 0.  0.
        5    1    3    3  502    0  0.52842655389E+03  0.57097567145E+03 -0.48210546433E+03  0.91525712725E+03  0.46999998093E+01 0. -1.
       -5    1    3    3    0  502 -0.52842655389E+03 -0.57097567145E+03 -0.86317735137E+02  0.78276476775E+03  0.46999998093E+01 0.  1.
</event>
<event>
 5   0  0.2046108E-05  0.1600054E+04  0.7818609E-02  0.8820515E-01
       -2   -1    0    0    0  501  0.00000000000E+00  0.00000000000E+00  0.19763998788E+04  0.19763998788E+04  0.25500000920E-02 0.  1.
        2   -1    0    0  501    0  0.00000000000E+00  0.00000000000E+00 -0.32384315383E+03  0.32384315384E+03  0.25500000920E-02 0. -1.
    10030    2    1    2    0    0  0.00000000000E+00  0.00000000000E+00  0.16525567249E+04  0.23002430326E+04  0.16000544615E+04 0.  0.
        1    1    3    3  502    0 -0.30170282351E+03  0.14116609478E+03  0.18719713387E+04  0.19013755950E+04  0.50400001928E-02 0.  1.
       -1    1    3    3    0  502  0.30170282351E+03 -0.14116609478E+03 -0.21941461380E+03  0.39886743764E+03  0.50400001928E-02 0. -1.
</event>
<event>
 5   0  0.1081831E-05  0.1599295E+04  0.7818609E-02  0.8820981E-01
       -1   -1    0    0    0  501  0.00000000000E+00  0.00000000000E+00  0.96693700924E+03  0.96693700925E+03  0.50400001928E-02 0. -1.
        1   -1    0    0  501    0  0.00000000000E+00  0.00000000000E+00 -0.66130083363E+03  0.66130083365E+03  0.50400001928E-02 0.  1.
    10030    2    1    2    0    0  0.00000000000E+00  0.00000000000E+00  0.30563617561E+03  0.16282378429E+04  0.15992951576E+04 0.  0.
        3    1    3    3  502    0  0.29992213446E+03 -0.64351715685E+03  0.52740122816E+03  0.88443184223E+03  0.10100000352E+00 0. -1.
       -3    1    3    3    0  502 -0.29992213446E+03  0.64351715685E+03 -0.22176505255E+03  0.74380600067E+03  0.10100000352E+00 0.  1.
</event>
<event>
 5   0  0.1090674E-05  0.1599525E+04  0.7818609E-02  0.8820840E-01
       -1   -1    0    0    0  501  0.00000000000E+00  0.00000000000E+00  0.47565089929E+03  0.47565089932E+03  0.50400001928E-02 0. -1.
        1   -1    0    0  501    0  0.00000000000E+00  0.00000000000E+00 -0.13447252407E+04  0.13447252408E+04  0.50400001928E-02 0.  1.
    10030    2    1    2    0    0  0.00000000000E+00  0.00000000000E+00 -0.86907434145E+03  0.18203761401E+04  0.15995246420E+04 0.  0.
        4    1    3    3  502    0 -0.25231810188E+03 -0.25767215283E+03  0.37785803173E+03  0.52233865253E+03  0.12699999809E+01 0. -1.
       -4    1    3    3    0  502  0.25231810188E+03  0.25767215283E+03 -0.12469323732E+04  0.12980374875E+04  0.12699999809E+01 0.  1.
</event>
<event>
 5   0  0.2046108E-05  0.1600375E+04  0.7818609E-02  0.8820318E-01
        2   -1    0    0  501    0  0.00000000000E+00  0.00000000000E+00  0.16475034208E+04  0.16475034208E+04  0.25500000920E-02 0.  1.
       -2   -1    0    0    0  501  0.00000000000E+00  0.00000000000E+00 -0.38864857503E+03  0.38864857504E+03  0.25500000920E-02 0. -1.
    10030    2    1    2    0    0  0.00000000000E+00  0.00000000000E+00  0.12588548458E+04  0.20361519959E+04  0.16003747772E+04 0.  0.
        1    1    3    3  502    0  0.32900103838E+03  0.22435371548E+03  0.15124818063E+04  0.15640260507E+04  0.50400001928E-02 0.  1.
       -1    1    3    3    0  502 -0.32900103838E+03 -0.22435371548E+03 -0.25362696054E+03  0.47212594511E+03  0.50400001928E-02 0. -1.
</event>
<event>
 5   0  0.2125803E-05  0.1600452E+04  0.7818609E-02  0.8820270E-01
        2   -1    0    0  501    0  0.00000000000E+00  0.00000000000E+00  0.13066428441E+04  0.13066428441E+04  0.25500000920E-02 0.  1.
       -2   -1    0    0    0  501  0.00000000000E+00  0.00000000000E+00 -0.49008150690E+03  0.49008150691E+03  0.25500000920E-02 0. -1.
    10030    2    1    2    0    0  0.00000000000E+00  0.00000000000E+00  0.81656133721E+03  0.17967243510E+04  0.16004518037E+04 0.  0.
        3    1    3    3  502    0  0.62228484559E+03 -0.48858316609E+03  0.27351974428E+03  0.83711707661E+03  0.10100000352E+00 0.  1.
       -3    1    3    3    0  502 -0.62228484559E+03  0.48858316609E+03  0.54304159293E+03  0.95960727441E+03  0.10100000352E+00 0. -1.
</event>
<event>
 5   0  0.2046108E-05  0.1600051E+04  0.7818609E-02  0.8820517E-01
        2   -1    0    0  501    0  0.00000000000E+00  0.00000000000E+00  0.13161904940E+04  0.13161904940E+04  0.25500000920E-02 0. -1.
       -2   -1    0    0    0  501  0.00000000000E+00  0.00000000000E+00 -0.48628286939E+03  0.48628286939E+03  0.25500000920E-02 0.  1.
    10030    2    1    2    0    0  0.00000000000E+00  0.00000000000E+00  0.82990762462E+03  0.18024733634E+04  0.16000511118E+04 0.  0.
        1    1    3    3  502    0 -0.72031455409E+03 -0.33631713542E+03  0.31370183183E+03  0.85461752365E+03  0.50400001928E-02 0.  1.
       -1    1    3    3    0  502  0.72031455409E+03  0.33631713542E+03  0.51620579279E+03  0.94785583975E+03  0.50400001928E-02 0. -1.
</event>
<event>
 5   0  0.2125803E-05  0.1598296E+04  0.7818609E-02  0.8821595E-01
        2   -1    0    0  501    0  0.00000000000E+00  0.00000000000E+00  0.11767586835E+04  0.11767586835E+04  0.25500000920E-02 0. -1.
       -2   -1    0    0    0  501  0.00000000000E+00  0.00000000000E+00 -0.54270918900E+03  0.54270918901E+03  0.25500000920E-02 0.  1.
    10030    2    1    2    0    0  0.00000000000E+00  0.00000000000E+00  0.63404949453E+03  0.17194678725E+04  0.15982962814E+04 0.  0.
        3    1    3    3  502    0 -0.56509632883E+02 -0.78207648429E+03  0.48299579030E+03  0.92093534493E+03  0.10100000352E+00 0.  1.
       -3    1    3    3    0  502  0.56509632883E+02  0.78207648429E+03  0.15105370422E+03  0.79853252761E+03  0.10100000352E+00 0. -1.
</event>
<event>
 5   0  0.2147844E-05  0.1612502E+04  0.7818609E-02  0.8812904E-01
       -2   -1    0    0    0  501  0.00000000000E+00  0.00000000000E+00  0.17040196458E+04  0.17040196458E+04  0.25500000920E-02 0. -1.
        2   -1    0    0  501    0  0.00000000000E+00  0.00000000000E+00 -0.38147465725E+03  0.38147465726E+03  0.25500000920E-02 0.  1.
    10030    2    1    2    0    0  0.00000000000E+00  0.00000000000E+00  0.13225449886E+04  0.20854943031E+04  0.16125015477E+04 0.  0.
        2    1    3    3  502    0 -0.68893573040E+03 -0.23504069382E+03  0.11096002119E+04  0.13270603598E+04  0.25500000920E-02 0.  1.
       -2    1    3    3    0  502  0.68893573040E+03  0.23504069382E+03  0.21294477669E+03  0.75843394326E+03  0.25500000920E-02 0. -1.
</event>
<event>
 5   0  0.2046108E-05  0.1600444E+04  0.7818609E-02  0.8820275E-01
       -2   -1    0    0    0  501  0.00000000000E+00  0.00000000000E+00  0.62434577835E+03  0.62434577836E+03  0.25500000920E-02 0. -1.
        2   -1    0    0  501    0  0.00000000000E+00  0.00000000000E+00 -0.10256422678E+04  0.10256422678E+04  0.25500000920E-02 0.  1.
    10030    2    1    2    0    0  0.00000000000E+00  0.00000000000E+00 -0.40129648945E+03  0.16499880462E+04  0.16004442133E+04 0.  0.
        1    1    3    3  502    0  0.26691241190E+03 -0.70748232753E+03  0.69340178257E+02  0.75932966473E+03  0.50400001928E-02 0. -1.
       -1    1    3    3    0  502 -0.26691241190E+03  0.70748232753E+03 -0.47063666770E+03  0.89065838143E+03  0.50400001928E-02 0.  1.
</event>
<event>
 5   0  0.1057506E-05  0.1590568E+04  0.7818609E-02  0.8826364E-01
        1   -1    0    0  501    0  0.00000000000E+00  0.00000000000E+00  0.12401060082E+04  0.12401060082E+04  0.50400001928E-02 0. -1.
       -1   -1    0    0    0  501  0.00000000000E+00  0.00000000000E+00 -0.51001796291E+03  0.51001796294E+03  0.50400001928E-02 0.  1.
    10030    2    1    2    0    0  0.00000000000E+00  0.00000000000E+00  0.73008804531E+03  0.17501239712E+04  0.15905676221E+04 0.  0.
        5    1    3    3  502    0 -0.75040092737E+02 -0.12751929851E+03 -0.49472458481E+03  0.51639780385E+03  0.46999998093E+01 0.  1.
       -5    1    3    3    0  502  0.75040092737E+02  0.12751929851E+03  0.12248126301E+04  0.12337261673E+04  0.46999998093E+01 0. -1.
</event>
<event>
 5   0  0.1057506E-05  0.1598971E+04  0.7818609E-02  0.8821180E-01
       -1   -1    0    0    0  501  0.00000000000E+00  0.00000000000E+00  0.32021370368E+03  0.32021370372E+03  0.50400001928E-02 0. -1.
        1   -1    0    0  501    0  0.00000000000E+00  0.00000000000E+00 -0.19960957561E+04  0.19960957561E+04  0.50400001928E-02 0.  1.
    10030    2    1    2    0    0  0.00000000000E+00  0.00000000000E+00 -0.16758820524E+04  0.23163094598E+04  0.15989711880E+04 0.  0.
        5    1    3    3  502    0  0.39104043544E+03  0.36691285989E+03  0.21055003248E+02  0.53665917682E+03  0.46999998093E+01 0. -1.
       -5    1    3    3    0  502 -0.39104043544E+03 -0.36691285989E+03 -0.16969370556E+04  0.17796502830E+04  0.46999998093E+01 0.  1.
</event>
<event>
 5   0  0.2147844E-05  0.1599632E+04  0.7818609E-02  0.8820774E-01
        2   -1    0    0  501    0  0.00000000000E+00  0.00000000000E+00  0.13571459961E+04  0.13571459961E+04  0.25500000920E-02 0.  1.
       -2   -1    0    0    0  501  0.00000000000E+00  0.00000000000E+00 -0.47136104153E+03  0.47136104154E+03  0.25500000920E-02 0. -1.
    10030    2    1    2    0    0  0.00000000000E+00  0.00000000000E+00  0.88578495453E+03  0.18285070376E+04  0.15996321455E+04 0.  0.
        2    1    3    3  502    0  0.31750185174E+03  0.44293681538E+03  0.11120631897E+04  0.12384203592E+04  0.25500000920E-02 0.  1.
       -2    1    3    3    0  502 -0.31750185174E+03 -0.44293681538E+03 -0.22627823517E+03  0.59008667837E+03  0.25500000920E-02 0. -1.
</event>
<event>
 5   0  0.1081831E-05  0.1601877E+04  0.7818609E-02  0.8819396E-01
        1   -1    0    0  501    0  0.00000000000E+00  0.00000000000E+00  0.90478959733E+03  0.90478959735E+03  0.50400001928E-02 0.  1.
       -1   -1    0    0    0  501  0.00000000000E+00  0.00000000000E+00 -0.70900713661E+03  0.70900713663E+03  0.50400001928E-02 0. -1.
    10030    2    1    2    0    0  0.00000000000E+00  0.00000000000E+00  0.19578246072E+03  0.16137967340E+04  0.16018767514E+04 0.  0.
        3    1    3    3  502    0  0.38865256117E+03  0.96107736570E+01  0.80335846790E+03  0.89248418385E+03  0.10100000352E+00 0.  1.
       -3    1    3    3    0  502 -0.38865256117E+03 -0.96107736570E+01 -0.60757600718E+03  0.72131255013E+03  0.10100000352E+00 0. -1.
</event>
<event>
 5   0  0.1057506E-05  0.1600641E+04  0.7818609E-02  0.8820154E-01
        1   -1    0    0  501    0  0.00000000000E+00  0.00000000000E+00  0.12269165562E+04  0.12269165562E+04  0.50400001928E-02 0.  1.
       -1   -1    0    0    0  501  0.00000000000E+00  0.00000000000E+00 -0.52205107784E+03  0.52205107786E+03  0.50400001928E-02 0. -1.
    10030    2    1    2    0    0  0.00000000000E+00  0.00000000000E+00  0.70486547833E+03  0.17489676340E+04  0.16006412597E+04 0.  0.
        5    1    3    3  502    0  0.15521722586E+03  0.12399764619E+03  0.11995302187E+04  0.12158793686E+04  0.46999998093E+01 0.  1.
       -5    1    3    3    0  502 -0.15521722586E+03 -0.12399764619E+03 -0.49466474032E+03  0.53308826547E+03  0.46999998093E+01 0. -1.
</event>
<event>
 5   0  0.7597000E-06  0.1600395E+04  0.7818609E-02  0.8820305E-01
       -4   -1    0    0    0  501  0.00000000000E+00  0.00000000000E+00  0.71794458141E+03  0.71794570468E+03  0.12699999809E+01 0.  1.
        4   -1    0    0  501    0  0.00000000000E+00  0.00000000000E+00 -0.89187187171E+03  0.89187277593E+03  0.12699999809E+01 0. -1.
    10030    2    1    2    0    0  0.00000000000E+00  0.00000000000E+00 -0.17392729031E+03  0.16098184806E+04  0.16003952131E+04 0.  0.
        4    1    3    3  502    0  0.68794815016E+03 -0.34082690251E+03  0.13992814714E+03  0.78039549848E+03  0.12699999809E+01 0.  1.
       -4    1    3    3    0  502 -0.68794815016E+03  0.34082690251E+03 -0.31385543745E+03  0.82942298214E+03  0.12699999809E+01 0. -1.
</event>
<event>
 5   0  0.2125803E-05  0.1599629E+04  0.7818609E-02  0.8820776E-01
        2   -1    0    0  501    0  0.00000000000E+00  0.00000000000E+00  0.44079345756E+03  0.44079345757E+03  0.25500000920E-02 0. -1.
       -2   -1    0    0    0  501  0.00000000000E+00  0.00000000000E+00 -0.14512530361E+04  0.14512530361E+04  0.25500000920E-02 0.  1.
    10030    2    1    2    0    0  0.00000000000E+00  0.00000000000E+00 -0.10104595786E+04  0.18920464937E+04  0.15996285114E+04 0.  0.
        3    1    3    3  502    0 -0.63437057197E+03 -0.40294791078E+03 -0.82895905601E+03  0.11189129404E+04  0.10100000352E+00 0.  1.
       -3    1    3    3    0  502  0.63437057197E+03  0.40294791078E+03 -0.18150052255E+03  0.77313355332E+03  0.10100000352E+00 0. -1.
</event>
<event>
 5   0  0.1057506E-05  0.1600055E+04  0.7818609E-02  0.8820514E-01
       -1   -1    0    0    0  501  0.00000000000E+00  0.00000000000E+00  0.17256230474E+04  0.17256230474E+04  0.50400001928E-02 0.  1.
        1   -1    0    0  501    0  0.00000000000E+00  0.00000000000E+00 -0.37090623520E+03  0.37090623524E+03  0.50400001928E-02 0. -1.
    10030    2    1    2    0    0  0.00000000000E+00  0.00000000000E+00  0.13547168122E+04  0.20965292826E+04  0.16000554340E+04 0.  0.
        5    1    3    3  502    0  0.35296295111E+03  0.11138169673E+03 -0.25195964076E+03  0.44776609719E+03  0.46999998093E+01 0. -1.
       -5    1    3    3    0  502 -0.35296295111E+03 -0.11138169673E+03  0.16066764530E+04  0.16487631855E+04  0.46999998093E+01 0.  1.
</event>
<event>
 5   0  0.2147844E-05  0.1600904E+04  0.7818609E-02  0.8819993E-01
        2   -1    0    0  501    0  0.00000000000E+00  0.00000000000E+00  0.63974716589E+03  0.63974716589E+03  0.25500000920E-02 0. -1.
       -2   -1    0    0    0  501  0.00000000000E+00  0.00000000000E+00 -0.10015262773E+04  0.10015262773E+04  0.25500000920E-02 0.  1.
    10030    2    1    2    0    0  0.00000000000E+00  0.00000000000E+00 -0.36177911145E+03  0.16412734432E+04  0.16009042414E+04 0.  0.
        2    1    3    3  502    0 -0.12244833767E+03  0.47276139159E+03 -0.83109562380E+03  0.96395895384E+03  0.25500000920E-02 0.  1.
       -2    1    3    3    0  502  0.12244833767E+03 -0.47276139159E+03  0.46931651234E+03  0.67731448940E+03  0.25500000920E-02 0. -1.
</event>
<event>
 5   0  0.1060251E-05  0.1599214E+04  0.7818609E-02  0.8821031E-01
       -1   -1    0    0    0  501  0.00000000000E+00  0.00000000000E+00  0.74187150559E+03  0.74187150561E+03  0.50400001928E-02 0.  1.
        1   -1    0    0  501    0  0.00000000000E+00  0.00000000000E+00 -0.86183555336E+03  0.86183555338E+03  0.50400001928E-02 0. -1.
    10030    2    1    2    0    0  0.00000000000E+00  0.00000000000E+00 -0.11996404777E+03  0.16037070590E+04  0.15992138563E+04 0.  0.
        1    1    3    3  502    0 -0.89389456502E+02  0.48941473547E+03  0.56775916937E+03  0.75489584226E+03  0.50400001928E-02 0.  1.
       -1    1    3    3    0  502  0.89389456502E+02 -0.48941473547E+03 -0.68772321714E+03  0.84881121673E+03  0.50400001928E-02 0. -1.
</event>
<event>
 5   0  0.7597000E-06  0.1599706E+04  0.7818609E-02  0.8820729E-01
        3   -1    0    0  501    0  0.00000000000E+00  0.00000000000E+00  0.38269303421E+03  0.38269304753E+03  0.10100000352E+00 0.  1.
       -3   -1    0    0    0  501  0.00000000000E+00  0.00000000000E+00 -0.16717444889E+04  0.16717444920E+04  0.10100000352E+00 0. -1.
    10030    2    1    2    0    0  0.00000000000E+00  0.00000000000E+00 -0.12890514547E+04  0.20544375395E+04  0.15997062077E+04 0.  0.
        3    1    3    3  502    0 -0.59508163012E+03 -0.41436987704E+03 -0.10780282714E+04  0.12992188059E+04  0.10100000352E+00 0. -1.
       -3    1    3    3    0  502  0.59508163012E+03  0.41436987704E+03 -0.21102318334E+03  0.75521873362E+03  0.10100000352E+00 0.  1.
</event>
<event>
 5   0  0.2125803E-05  0.1600376E+04  0.7818609E-02  0.8820317E-01
        2   -1    0    0  501    0  0.00000000000E+00  0.00000000000E+00  0.20311094546E+04  0.20311094546E+04  0.25500000920E-02 0.  1.
       -2   -1    0    0    0  501  0.00000000000E+00  0.00000000000E+00 -0.31524694605E+03  0.31524694606E+03  0.25500000920E-02 0. -1.
    10030    2    1    2    0    0  0.00000000000E+00  0.00000000000E+00  0.17158625085E+04  0.23463564007E+04  0.16003762716E+04 0.  0.
        3    1    3    3  502    0 -0.30131818072E+03  0.37758152998E+03 -0.77339553045E+02  0.48922579090E+03  0.10100000352E+00 0. -1.
       -3    1    3    3    0  502  0.30131818072E+03 -0.37758152998E+03  0.17932020616E+04  0.18571306098E+04  0.10100000352E+00 0.  1.
</event>
<event>
 5   0  0.1126485E-05  0.1601535E+04  0.7818609E-02  0.8819605E-01
        1   -1    0    0  501    0  0.00000000000E+00  0.00000000000E+00  0.96368265210E+03  0.96368265212E+03  0.50400001928E-02 0.  1.
       -1   -1    0    0    0  501  0.00000000000E+00  0.00000000000E+00 -0.66539414550E+03  0.66539414552E+03  0.50400001928E-02 0. -1.
    10030    2    1    2    0    0  0.00000000000E+00  0.00000000000E+00  0.29828850660E+03  0.16290767976E+04  0.16015352570E+04 0.  0.
        2    1    3    3  502    0  0.49623420704E+03  0.55244136943E+03 -0.15565680916E+03  0.75872847392E+03  0.25500000920E-02 0. -1.
       -2    1    3    3    0  502 -0.49623420704E+03 -0.55244136943E+03  0.45394531576E+03  0.87034832372E+03  0.25500000920E-02 0.  1.
</event>
<event>
 5   0  0.1081831E-05  0.1606491E+04  0.7818609E-02  0.8816570E-01
        1   -1    0    0  501    0  0.00000000000E+00  0.00000000000E+00  0.14665820721E+04  0.14665820721E+04  0.50400001928E-02 0.  1.
       -1   -1    0    0    0  501  0.00000000000E+00  0.00000000000E+00 -0.43993688818E+03  0.43993688820E+03  0.50400001928E-02 0. -1.
    10030    2    1    2    0    0  0.00000000000E+00  0.00000000000E+00  0.10266451839E+04  0.19065189603E+04  0.16064912737E+04 0.  0.
        3    1    3    3  502    0  0.28196042038E+03 -0.70898187281E+03  0.21533822265E+03  0.79279728491E+03  0.10100000352E+00 0.  1.
       -3    1    3    3    0  502 -0.28196042038E+03  0.70898187281E+03  0.81130696127E+03  0.11137216754E+04  0.10100000352E+00 0. -1.
</event>
<event>
 5   0  0.1057506E-05  0.1599570E+04  0.7818609E-02  0.8820812E-01
        1   -1    0    0  501    0  0.00000000000E+00  0.00000000000E+00  0.17460614821E+04  0.17460614821E+04  0.50400001928E-02 0.  1.
       -1   -1    0    0    0  501  0.00000000000E+00  0.00000000000E+00 -0.36634243769E+03  0.36634243772E+03  0.50400001928E-02 0. -1.
    10030    2    1    2    0    0  0.00000000000E+00  0.00000000000E+00  0.13797190444E+04  0.21124039198E+04  0.15995704670E+04 0.  0.
        5    1    3    3  502    0 -0.16342326054E+03  0.86055996592E+02  0.17174933299E+04  0.17274021607E+04  0.46999998093E+01 0.  1.
       -5    1    3    3    0  502  0.16342326054E+03 -0.86055996592E+02 -0.33777428545E+03  0.38500175914E+03  0.46999998093E+01 0. -1.
</event>
<event>
 5   0  0.1126485E-05  0.1597449E+04  0.7818609E-02  0.8822117E-01
        1   -1    0    0  501    0  0.00000000000E+00  0.00000000000E+00  0.16350260692E+04  0.16350260692E+04  0.50400001928E-02 0. -1.
       -1   -1    0    0    0  501  0.00000000000E+00  0.00000000000E+00 -0.39018375185E+03  0.39018375188E+03  0.50400001928E-02 0.  1.
    10030    2    1    2    0    0  0.00000000000E+00  0.00000000000E+00  0.12448423173E+04  0.20252098211E+04  0.15974487235E+04 0.  0.
        2    1    3    3  502    0 -0.58384091750E+03  0.34147777231E+03  0.83827006214E+02  0.68154548851E+03  0.25500000920E-02 0.  1.
       -2    1    3    3    0  502  0.58384091750E+03 -0.34147777231E+03  0.11610153111E+04  0.13436643326E+04  0.25500000920E-02 0. -1.
</event>
<event>
 5   0  0.1990948E-05  0.1598535E+04  0.7818609E-02  0.8821448E-01
       -2   -1    0    0    0  501  0.00000000000E+00  0.00000000000E+00  0.42333299088E+03  0.42333299088E+03  0.25500000920E-02 0.  1.
        2   -1    0    0  501    0  0.00000000000E+00  0.00000000000E+00 -0.15090453780E+04  0.15090453780E+04  0.25500000920E-02 0. -1.
    10030    2    1    2    0    0  0.00000000000E+00  0.00000000000E+00 -0.10857123872E+04  0.19323783689E+04  0.15985351961E+04 0.  0.
        4    1    3    3  502    0  0.14035144309E+03  0.32249627039E+03  0.32475701537E+03  0.47871818842E+03  0.12699999809E+01 0.  1.
       -4    1    3    3    0  502 -0.14035144309E+03 -0.32249627039E+03 -0.14104694025E+04  0.14536601805E+04  0.12699999809E+01 0. -1.
</event>
<event>
 5   0  0.1090674E-05  0.1600884E+04  0.7818609E-02  0.8820005E-01
        1   -1    0    0  501    0  0.00000000000E+00  0.00000000000E+00  0.55096564656E+03  0.55096564658E+03  0.50400001928E-02 0.  1.
       -1   -1    0    0    0  501  0.00000000000E+00  0.00000000000E+00 -0.11628801734E+04  0.11628801734E+04  0.50400001928E-02 0. -1.
    10030    2    1    2    0    0  0.00000000000E+00  0.00000000000E+00 -0.61191452685E+03  0.17138458200E+04  0.16008835393E+04 0.  0.
        4    1    3    3  502    0  0.25708934944E+03 -0.69030405506E+03 -0.64125153246E+03  0.97663696572E+03  0.12699999809E+01 0.  1.
       -4    1    3    3    0  502 -0.25708934944E+03  0.69030405506E+03  0.29337005609E+02  0.73720885428E+03  0.12699999809E+01 0. -1.
</event>
<event>
 5   0  0.1057506E-05  0.1599791E+04  0.7818609E-02  0.8820677E-01
        1   -1    0    0  501    0  0.00000000000E+00  0.00000000000E+00  0.17935249439E+04  0.17935249439E+04  0.50400001928E-02 0.  1.
       -1   -1    0    0    0  501  0.00000000000E+00  0.00000000000E+00 -0.35674577483E+03  0.35674577487E+03  0.50400001928E-02 0. -1.
    10030    2    1    2    0    0  0.00000000000E+00  0.00000000000E+00  0.14367791690E+04  0.21502707187E+04  0.15997905436E+04 0.  0.
        5    1    3    3  502    0  0.99712439924E+02  0.29469850115E+02  0.17843844214E+04  0.17874173817E+04  0.46999998093E+01 0.  1.
       -5    1    3    3    0  502 -0.99712439924E+02 -0.29469850115E+02 -0.34760525241E+03  0.36285333710E+03  0.46999998093E+01 0. -1.
</event>
<event>
 5   0  0.7597000E-06  0.1599333E+04  0.7818609E-02  0.8820958E-01
        4   -1    0    0  501    0  0.00000000000E+00  0.00000000000E+00  0.10661991316E+04  0.10661998879E+04  0.12699999809E+01 0. -1.
       -4   -1    0    0    0  501  0.00000000000E+00  0.00000000000E+00 -0.59976097969E+03  0.59976232431E+03  0.12699999809E+01 0.  1.
    10030    2    1    2    0    0  0.00000000000E+00  0.00000000000E+00  0.46643815188E+03  0.16659622122E+04  0.15993328431E+04 0.  0.
        5    1    3    3  502    0 -0.32212570637E+03 -0.25359530071E+03 -0.48194663448E+03  0.63274812977E+03  0.46999998093E+01 0.  1.
       -5    1    3    3    0  502  0.32212570637E+03  0.25359530071E+03  0.94838478635E+03  0.10332140825E+04  0.46999998093E+01 0. -1.
</event>
<event>
 5   0  0.2046108E-05  0.1600024E+04  0.7818609E-02  0.8820533E-01
        2   -1    0    0  501    0  0.00000000000E+00  0.00000000000E+00  0.13811000299E+04  0.13811000299E+04  0.25500000920E-02 0. -1.
       -2   -1    0    0    0  501  0.00000000000E+00  0.00000000000E+00 -0.46341284417E+03  0.46341284418E+03  0.25500000920E-02 0.  1.
    10030    2    1    2    0    0  0.00000000000E+00  0.00000000000E+00  0.91768718569E+03  0.18445128740E+04  0.16000243660E+04 0.  0.
        1    1    3    3  502    0 -0.57915490586E+02  0.77283477202E+03  0.23004282456E+03  0.80842284112E+03  0.50400001928E-02 0.  1.
       -1    1    3    3    0  502  0.57915490586E+02 -0.77283477202E+03  0.68764436113E+03  0.10360900329E+04  0.50400001928E-02 0. -1.
</event>
<event>
 5   0  0.2125803E-05  0.1598845E+04  0.7818609E-02  0.8821258E-01
       -2   -1    0    0    0  501  0.00000000000E+00  0.00000000000E+00  0.39568146563E+03  0.39568146563E+03  0.25500000920E-02 0. -1.
        2   -1    0    0  501    0  0.00000000000E+00  0.00000000000E+00 -0.16151292561E+04  0.16151292561E+04  0.25500000920E-02 0.  1.
    10030    2    1    2    0    0  0.00000000000E+00  0.00000000000E+00 -0.12194477905E+04  0.20108107218E+04  0.15988454725E+04 0.  0.
        3    1    3    3  502    0 -0.14363791702E+03 -0.41493961215E+03  0.23043906605E+03  0.49589203089E+03  0.10100000352E+00 0. -1.
       -3    1    3    3    0  502  0.14363791702E+03  0.41493961215E+03 -0.14498868565E+04  0.15149186909E+04  0.10100000352E+00 0.  1.
</event>
<event>
 5   0  0.2125803E-05  0.1599515E+04  0.7818609E-02  0.8820846E-01
        2   -1    0    0  501    0  0.00000000000E+00  0.00000000000E+00  0.67500779029E+03  0.67500779029E+03  0.25500000920E-02 0. -1.
       -2   -1    0    0    0  501  0.00000000000E+00  0.00000000000E+00 -0.94756245018E+03  0.94756245018E+03  0.25500000920E-02 0.  1.
    10030    2    1    2    0    0  0.00000000000E+00  0.00000000000E+00 -0.27255465989E+03  0.16225702405E+04  0.15995149711E+04 0.  0.
        3    1    3    3  502    0  0.48266186705E+03 -0.50206099858E+03  0.26256191979E+03  0.74428925568E+03  0.10100000352E+00 0. -1.
       -3    1    3    3    0  502 -0.48266186705E+03  0.50206099858E+03 -0.53511657968E+03  0.87828098479E+03  0.10100000352E+00 0.  1.
</event>
<event>
 5   0  0.1090674E-05  0.1599547E+04  0.7818609E-02  0.8820826E-01
       -1   -1    0    0    0  501  0.00000000000E+00  0.00000000000E+00  0.66740356177E+03  0.66740356178E+03  0.50400001928E-02 0. -1.
        1   -1    0    0  501    0  0.00000000000E+00  0.00000000000E+00 -0.95839690210E+03  0.95839690211E+03  0.50400001928E-02 0.  1.
    10030    2    1    2    0    0  0.00000000000E+00  0.00000000000E+00 -0.29099334033E+03  0.16258004639E+04  0.15995468184E+04 0.  0.
        4    1    3    3  502    0  0.31414373895E+03  0.68867024400E+03  0.11697203242E+03  0.76592236093E+03  0.12699999809E+01 0. -1.
       -4    1    3    3    0  502 -0.31414373895E+03 -0.68867024400E+03 -0.40796537275E+03  0.85987810297E+03  0.12699999809E+01 0.  1.
</event>
<event>
 5   0  0.2046108E-05  0.1602711E+04  0.7818609E-02  0.8818884E-01
        2   -1    0    0  501    0  0.00000000000E+00  0.00000000000E+00  0.13625617548E+04  0.13625617548E+04  0.25500000920E-02 0. -1.
       -2   -1    0    0    0  501  0.00000000000E+00  0.00000000000E+00 -0.47129637655E+03  0.47129637656E+03  0.25500000920E-02 0.  1.
    10030    2    1    2    0    0  0.00000000000E+00  0.00000000000E+00  0.89126537826E+03  0.18338581314E+04  0.16027107261E+04 0.  0.
        1    1    3    3  502    0  0.29250107434E+01  0.46111256512E+02  0.13610363863E+04  0.13618204171E+04  0.50400001928E-02 0. -1.
       -1    1    3    3    0  502 -0.29250107434E+01 -0.46111256512E+02 -0.46977100803E+03  0.47203771425E+03  0.50400001928E-02 0.  1.
</event>
<event>
 5   0  0.1126485E-05  0.1600303E+04  0.7818609E-02  0.8820362E-01
       -1   -1    0    0    0  501  0.00000000000E+00  0.00000000000E+00  0.54992570873E+03  0.54992570875E+03  0.50400001928E-02 0. -1.
        1   -1    0    0  501    0  0.00000000000E+00  0.00000000000E+00 -0.11642339850E+04  0.11642339850E+04  0.50400001928E-02 0.  1.
    10030    2    1    2    0    0  0.00000000000E+00  0.00000000000E+00 -0.61430827630E+03  0.17141596938E+04  0.16003027206E+04 0.  0.
        2    1    3    3  502    0 -0.71400508771E+03  0.34840541114E+03 -0.40906861673E+03  0.89360322794E+03  0.25500000920E-02 0. -1.
       -2    1    3    3    0  502  0.71400508771E+03 -0.34840541114E+03 -0.20523965957E+03  0.82055646585E+03  0.25500000920E-02 0.  1.
</event>
<event>
 5   0  0.1060251E-05  0.1598297E+04  0.7818609E-02  0.8821595E-01
        1   -1    0    0  501    0  0.00000000000E+00  0.00000000000E+00  0.78068839038E+03  0.78068839039E+03  0.50400001928E-02 0.  1.
       -1   -1    0    0    0  501  0.00000000000E+00  0.00000000000E+00 -0.81804488567E+03  0.81804488569E+03  0.50400001928E-02 0. -1.
    10030    2    1    2    0    0  0.00000000000E+00  0.00000000000E+00 -0.37356495296E+02  0.15987332761E+04  0.15982967748E+04 0.  0.
        1    1    3    3  502    0  0.12176264984E+03  0.39125591437E+02  0.77038520459E+03  0.78092913781E+03  0.50400001928E-02 0.  1.
       -1    1    3    3    0  502 -0.12176264984E+03 -0.39125591437E+02 -0.80774169989E+03  0.81780413827E+03  0.50400001928E-02 0. -1.
</event>
<event>
 5   0  0.1057506E-05  0.1595866E+04  0.7818609E-02  0.8823091E-01
        1   -1    0    0  501    0  0.00000000000E+00  0.00000000000E+00  0.98809728035E+03  0.98809728036E+03  0.50400001928E-02 0. -1.
       -1   -1    0    0    0  501  0.00000000000E+00  0.00000000000E+00 -0.64436719329E+03  0.64436719331E+03  0.50400001928E-02 0.  1.
    10030    2    1    2    0    0  0.00000000000E+00  0.00000000000E+00  0.34373008706E+03  0.16324644737E+04  0.15958664998E+04 0.  0.
        5    1    3    3  502    0  0.68995988391E+03 -0.34626197249E+03  0.37831863315E+03  0.85970289821E+03  0.46999998093E+01 0. -1.
       -5    1    3    3    0  502 -0.68995988391E+03  0.34626197249E+03 -0.34588546091E+02  0.77276157547E+03  0.46999998093E+01 0.  1.
</event>
<event>
 5   0  0.2147844E-05  0.1599944E+04  0.7818609E-02  0.8820583E-01
       -2   -1    0    0    0  501  0.00000000000E+00  0.00000000000E+00  0.52184836598E+03  0.52184836599E+03  0.25500000920E-02 0.  1.
        2   -1    0    0  501    0  0.00000000000E+00  0.00000000000E+00 -0.12263233561E+04  0.12263233561E+04  0.25500000920E-02 0. -1.
    10030    2    1    2    0    0  0.00000000000E+00  0.00000000000E+00 -0.70447499016E+03  0.17481717221E+04  0.15999435485E+04 0.  0.
        2    1    3    3  502    0 -0.20458145676E+03 -0.51325311498E+03 -0.98434282158E+03  0.11288104903E+04  0.25500000920E-02 0. -1.
       -2    1    3    3    0  502  0.20458145676E+03  0.51325311498E+03  0.27986783142E+03  0.61936123189E+03  0.25500000920E-02 0.  1.
</event>
<event>
 5   0  0.2046108E-05  0.1600363E+04  0.7818609E-02  0.8820325E-01
        2   -1    0    0  501    0  0.00000000000E+00  0.00000000000E+00  0.13611018163E+04  0.13611018163E+04  0.25500000920E-02 0. -1.
       -2   -1    0    0    0  501  0.00000000000E+00  0.00000000000E+00 -0.47042066361E+03  0.47042066362E+03  0.25500000920E-02 0.  1.
    10030    2    1    2    0    0  0.00000000000E+00  0.00000000000E+00  0.89068115268E+03  0.18315224799E+04  0.16003629834E+04 0.  0.
        1    1    3    3  502    0 -0.17642974760E+03  0.32401931557E+03 -0.36727318234E+03  0.52058194666E+03  0.50400001928E-02 0.  1.
       -1    1    3    3    0  502  0.17642974760E+03 -0.32401931557E+03  0.12579543350E+04  0.13109405333E+04  0.50400001928E-02 0. -1.
</event>
<event>
 5   0  0.1994525E-05  0.1604065E+04  0.7818609E-02  0.8818055E-01
       -2   -1    0    0    0  501  0.00000000000E+00  0.00000000000E+00  0.30381861023E+03  0.30381861024E+03  0.25500000920E-02 0. -1.
        2   -1    0    0  501    0  0.00000000000E+00  0.00000000000E+00 -0.21172377109E+04  0.21172377109E+04  0.25500000920E-02 0.  1.
    10030    2    1    2    0    0  0.00000000000E+00  0.00000000000E+00 -0.18134191007E+04  0.24210563212E+04  0.16040651095E+04 0.  0.
        5    1    3    3  502    0 -0.21317649513E+03  0.68098664229E+03 -0.35410861240E+03  0.79661912130E+03  0.46999998093E+01 0.  1.
       -5    1    3    3    0  502  0.21317649513E+03 -0.68098664229E+03 -0.14593104883E+04  0.16244371999E+04  0.46999998093E+01 0. -1.
</event>
<event>
 5   0  0.7597000E-06  0.1600138E+04  0.7818609E-02  0.8820463E-01
       -3   -1    0    0    0  501  0.00000000000E+00  0.00000000000E+00  0.34329155509E+03  0.34329156995E+03  0.10100000352E+00 0.  1.
        3   -1    0    0  501    0  0.00000000000E+00  0.00000000000E+00 -0.18646266688E+04  0.18646266716E+04  0.10100000352E+00 0. -1.
    10030    2    1    2    0    0  0.00000000000E+00  0.00000000000E+00 -0.15213351137E+04  0.22079182415E+04  0.16001382543E+04 0.  0.
        1    1    3    3  502    0 -0.63020319731E+03  0.49094747295E+03 -0.70012593429E+03  0.10622437644E+04  0.50400001928E-02 0. -1.
       -1    1    3    3    0  502  0.63020319731E+03 -0.49094747295E+03 -0.82120917946E+03  0.11456744771E+04  0.50400001928E-02 0.  1.
</event>
<event>
 5   0  0.7597000E-06  0.1600564E+04  0.7818609E-02  0.8820202E-01
       -4   -1    0    0    0  501  0.00000000000E+00  0.00000000000E+00  0.74322206208E+03  0.74322314716E+03  0.12699999809E+01 0. -1.
        4   -1    0    0  501    0  0.00000000000E+00  0.00000000000E+00 -0.86172020983E+03  0.86172114569E+03  0.12699999809E+01 0.  1.
    10030    2    1    2    0    0  0.00000000000E+00  0.00000000000E+00 -0.11849814774E+03  0.16049442928E+04  0.16005637670E+04 0.  0.
        5    1    3    3  502    0 -0.16307412020E+03 -0.52997524351E+03  0.51935883629E+03  0.75975168196E+03  0.46999998093E+01 0. -1.
       -5    1    3    3    0  502  0.16307412020E+03  0.52997524351E+03 -0.63785698403E+03  0.84519261088E+03  0.46999998093E+01 0.  1.
</event>
<event>
 5   0  0.1990948E-05  0.1600438E+04  0.7818609E-02  0.8820279E-01
       -2   -1    0    0    0  501  0.00000000000E+00  0.00000000000E+00  0.91112147316E+03  0.91112147316E+03  0.25500000920E-02 0. -1.
        2   -1    0    0  501    0  0.00000000000E+00  0.00000000000E+00 -0.70281571972E+03  0.70281571973E+03  0.25500000920E-02 0.  1.
    10030    2    1    2    0    0  0.00000000000E+00  0.00000000000E+00  0.20830575343E+03  0.16139371929E+04  0.16004380574E+04 0.  0.
        4    1    3    3  502    0 -0.48105478743E+03 -0.24899497804E+03  0.69813430298E+03  0.88363189479E+03  0.12699999809E+01 0. -1.
       -4    1    3    3    0  502  0.48105478743E+03  0.24899497804E+03 -0.48982854954E+03  0.73030529810E+03  0.12699999809E+01 0.  1.
</event>
<event>
 5   0  0.2046108E-05  0.1599893E+04  0.7818609E-02  0.8820614E-01
        2   -1    0    0  501    0  0.00000000000E+00  0.00000000000E+00  0.21414830482E+04  0.21414830482E+04  0.25500000920E-02 0. -1.
       -2   -1    0    0    0  501  0.00000000000E+00  0.00000000000E+00 -0.29881828740E+03  0.29881828741E+03  0.25500000920E-02 0.  1.
    10030    2    1    2    0    0  0.00000000000E+00  0.00000000000E+00  0.18426647608E+04  0.24403013356E+04  0.15998928676E+04 0.  0.
        1    1    3    3  502    0  0.82554742783E+02 -0.57495881761E+03  0.82392993840E+02  0.58666986710E+03  0.50400001928E-02 0.  1.
       -1    1    3    3    0  502 -0.82554742783E+02  0.57495881761E+03  0.17602717670E+04  0.18536314685E+04  0.50400001928E-02 0. -1.
</event>
<event>
 5   0  0.1060251E-05  0.1599682E+04  0.7818609E-02  0.8820744E-01
       -1   -1    0    0    0  501  0.00000000000E+00  0.00000000000E+00  0.78806578834E+03  0.78806578836E+03  0.50400001928E-02 0. -1.
        1   -1    0    0  501    0  0.00000000000E+00  0.00000000000E+00 -0.81179173219E+03  0.81179173221E+03  0.50400001928E-02 0.  1.
    10030    2    1    2    0    0  0.00000000000E+00  0.00000000000E+00 -0.23725943847E+02  0.15998575206E+04  0.15996815826E+04 0.  0.
        1    1    3    3  502    0  0.48797309131E+03  0.44849528756E+03  0.43593567897E+03  0.79328789039E+03  0.50400001928E-02 0. -1.
       -1    1    3    3    0  502 -0.48797309131E+03 -0.44849528756E+03 -0.45966162282E+03  0.80656963018E+03  0.50400001928E-02 0.  1.
</event>
<event>
 5   0  0.1057506E-05  0.1600014E+04  0.7818609E-02  0.8820539E-01
        1   -1    0    0  501    0  0.00000000000E+00  0.00000000000E+00  0.83971931862E+03  0.83971931864E+03  0.50400001928E-02 0.  1.
       -1   -1    0    0    0  501  0.00000000000E+00  0.00000000000E+00 -0.76217304279E+03  0.76217304280E+03  0.50400001928E-02 0. -1.
    10030    2    1    2    0    0  0.00000000000E+00  0.00000000000E+00  0.77546275838E+02  0.16018923614E+04  0.16000142852E+04 0.  0.
        5    1    3    3  502    0  0.20854111956E+03 -0.60586734374E+03 -0.44077207275E+03  0.77773179624E+03  0.46999998093E+01 0. -1.
       -5    1    3    3    0  502 -0.20854111956E+03  0.60586734374E+03  0.51831834859E+03  0.82416056521E+03  0.46999998093E+01 0.  1.
</event>
<event>
 5   0  0.1994525E-05  0.1595066E+04  0.7818609E-02  0.8823585E-01
       -2   -1    0    0    0  501  0.00000000000E+00  0.00000000000E+00  0.50201523869E+03  0.50201523870E+03  0.25500000920E-02 0.  1.
        2   -1    0    0  501    0  0.00000000000E+00  0.00000000000E+00 -0.12670106686E+04  0.12670106686E+04  0.25500000920E-02 0. -1.
    10030    2    1    2    0    0  0.00000000000E+00  0.00000000000E+00 -0.76499542995E+03  0.17690259073E+04  0.15950657206E+04 0.  0.
        5    1    3    3  502    0  0.46180727709E+03  0.15028095836E+03  0.31909761630E+03  0.58111591472E+03  0.46999998093E+01 0.  1.
       -5    1    3    3    0  502 -0.46180727709E+03 -0.15028095836E+03 -0.10840930463E+04  0.11879099926E+04  0.46999998093E+01 0. -1.
</event>
<event>
 5   0  0.1994525E-05  0.1600004E+04  0.7818609E-02  0.8820546E-01
       -2   -1    0    0    0  501  0.00000000000E+00  0.00000000000E+00  0.69678958352E+03  0.69678958352E+03  0.25500000920E-02 0.  1.
        2   -1    0    0  501    0  0.00000000000E+00  0.00000000000E+00 -0.91850250702E+03  0.91850250702E+03  0.25500000920E-02 0. -1.
    10030    2    1    2    0    0  0.00000000000E+00  0.00000000000E+00 -0.22171292350E+03  0.16152920905E+04  0.16000037242E+04 0.  0.
        5    1    3    3  502    0  0.73420775036E+03 -0.13186335113E+03  0.18092407484E+03  0.76759662253E+03  0.46999998093E+01 0.  1.
       -5    1    3    3    0  502 -0.73420775036E+03  0.13186335113E+03 -0.40263699834E+03  0.84769546801E+03  0.46999998093E+01 0. -1.
</event>
<event>
 5   0  0.1994525E-05  0.1599246E+04  0.7818609E-02  0.8821012E-01
        2   -1    0    0  501    0  0.00000000000E+00  0.00000000000E+00  0.16231166761E+04  0.16231166761E+04  0.25500000920E-02 0.  1.
       -2   -1    0    0    0  501  0.00000000000E+00  0.00000000000E+00 -0.39393146901E+03  0.39393146902E+03  0.25500000920E-02 0. -1.
    10030    2    1    2    0    0  0.00000000000E+00  0.00000000000E+00  0.12291852071E+04  0.20170481451E+04  0.15992457430E+04 0.  0.
        5    1    3    3  502    0 -0.55481944759E+03  0.10422520750E+03 -0.99643548630E+02  0.57326995394E+03  0.46999998093E+01 0. -1.
       -5    1    3    3    0  502  0.55481944759E+03 -0.10422520750E+03  0.13288287557E+04  0.14437781912E+04  0.46999998093E+01 0.  1.
</event>
<event>
 5   0  0.1990948E-05  0.1599585E+04  0.7818609E-02  0.8820803E-01
        2   -1    0    0  501    0  0.00000000000E+00  0.00000000000E+00  0.50807604140E+03  0.50807604141E+03  0.25500000920E-02 0. -1.
       -2   -1    0    0    0  501  0.00000000000E+00  0.00000000000E+00 -0.12590006965E+04  0.12590006965E+04  0.25500000920E-02 0.  1.
    10030    2    1    2    0    0  0.00000000000E+00  0.00000000000E+00 -0.75092465513E+03  0.17670767379E+04  0.15995850587E+04 0.  0.
        4    1    3    3  502    0 -0.62636782387E+01  0.42397151853E+03 -0.11246112477E+04  0.12018914899E+04  0.12699999809E+01 0.  1.
       -4    1    3    3    0  502  0.62636782387E+01 -0.42397151853E+03  0.37368659259E+03  0.56518524801E+03  0.12699999809E+01 0. -1.
</event>
<event>
 5   0  0.1990948E-05  0.1602098E+04  0.7818609E-02  0.8819260E-01
        2   -1    0    0  501    0  0.00000000000E+00  0.00000000000E+00  0.14077585709E+04  0.14077585709E+04  0.25500000920E-02 0.  1.
       -2   -1    0    0    0  501  0.00000000000E+00  0.00000000000E+00 -0.45581649705E+03  0.45581649706E+03  0.25500000920E-02 0. -1.
    10030    2    1    2    0    0  0.00000000000E+00  0.00000000000E+00  0.95194207380E+03  0.18635750679E+04  0.16020981000E+04 0.  0.
        4    1    3    3  502    0  0.44918098424E+03  0.25677186691E+03 -0.23537922494E+03  0.56841915931E+03  0.12699999809E+01 0. -1.
       -4    1    3    3    0  502 -0.44918098424E+03 -0.25677186691E+03  0.11873212987E+04  0.12951559086E+04  0.12699999809E+01 0.  1.
</event>
<event>
 5   0  0.1057506E-05  0.1599380E+04  0.7818609E-02  0.8820929E-01
       -1   -1    0    0    0  501  0.00000000000E+00  0.00000000000E+00  0.30154353170E+03  0.30154353174E+03  0.50400001928E-02 0. -1.
        1   -1    0    0  501    0  0.00000000000E+00  0.00000000000E+00 -0.21207677500E+04  0.21207677500E+04  0.50400001928E-02 0.  1.
    10030    2    1    2    0    0  0.00000000000E+00  0.00000000000E+00 -0.18192242183E+04  0.24223112818E+04  0.15993796264E+04 0.  0.
        5    1    3    3  502    0  0.23899312072E+03 -0.30799289018E+03  0.14785690661E+03  0.41696652981E+03  0.46999998093E+01 0. -1.
       -5    1    3    3    0  502 -0.23899312072E+03  0.30799289018E+03 -0.19670811249E+04  0.20053447519E+04  0.46999998093E+01 0.  1.
</event>
<event>
 5   0  0.2125803E-05  0.1599287E+04  0.7818609E-02  0.8820986E-01
       -2   -1    0    0    0  501  0.00000000000E+00  0.00000000000E+00  0.36169794978E+03  0.36169794979E+03  0.25500000920E-02 0. -1.
        2   -1    0    0  501    0  0.00000000000E+00  0.00000000000E+00 -0.17678555508E+04  0.17678555508E+04  0.25500000920E-02 0.  1.
    10030    2    1    2    0    0  0.00000000000E+00  0.00000000000E+00 -0.14061576010E+04  0.21295535006E+04  0.15992870014E+04 0.  0.
        3    1    3    3  502    0 -0.33925266101E+03  0.21617559625E+03  0.21715205279E+03  0.45714251678E+03  0.10100000352E+00 0. -1.
       -3    1    3    3    0  502  0.33925266101E+03 -0.21617559625E+03 -0.16233096538E+04  0.16724109838E+04  0.10100000352E+00 0.  1.
</event>
<event>
 5   0  0.1990948E-05  0.1600531E+04  0.7818609E-02  0.8820222E-01
        2   -1    0    0  501    0  0.00000000000E+00  0.00000000000E+00  0.98169592219E+03  0.98169592220E+03  0.25500000920E-02 0.  1.
       -2   -1    0    0    0  501  0.00000000000E+00  0.00000000000E+00 -0.65236588552E+03  0.65236588553E+03  0.25500000920E-02 0. -1.
    10030    2    1    2    0    0  0.00000000000E+00  0.00000000000E+00  0.32933003667E+03  0.16340618077E+04  0.16005310739E+04 0.  0.
        4    1    3    3  502    0  0.75548488637E+03  0.13321806780E+03  0.39729564986E+03  0.86391545501E+03  0.12699999809E+01 0.  1.
       -4    1    3    3    0  502 -0.75548488637E+03 -0.13321806780E+03 -0.67965613189E+02  0.77014635271E+03  0.12699999809E+01 0. -1.
</event>
<event>
 5   0  0.1081831E-05  0.1599712E+04  0.7818609E-02  0.8820725E-01
       -1   -1    0    0    0  501  0.00000000000E+00  0.00000000000E+00  0.84688648538E+03  0.84688648539E+03  0.50400001928E-02 0.  1.
        1   -1    0    0  501    0  0.00000000000E+00  0.00000000000E+00 -0.75543725840E+03  0.75543725842E+03  0.50400001928E-02 0. -1.
    10030    2    1    2    0    0  0.00000000000E+00  0.00000000000E+00  0.91449226980E+02  0.16023237438E+04  0.15997119800E+04 0.  0.
        3    1    3    3  502    0  0.46535189460E+03  0.39138076256E+03  0.56622512385E+03  0.83086833385E+03  0.10100000352E+00 0.  1.
       -3    1    3    3    0  502 -0.46535189460E+03 -0.39138076256E+03 -0.47477589687E+03  0.77145540996E+03  0.10100000352E+00 0. -1.
</event>
<event>
 5   0  0.1994525E-05  0.1600081E+04  0.7818609E-02  0.8820498E-01
        2   -1    0    0  501    0  0.00000000000E+00  0.00000000000E+00  0.15620712553E+04  0.15620712553E+04  0.25500000920E-02 0. -1.
       -2   -1    0    0    0  501  0.00000000000E+00  0.00000000000E+00 -0.40975384525E+03  0.40975384526E+03  0.25500000920E-02 0.  1.
    10030    2    1    2    0    0  0.00000000000E+00  0.00000000000E+00  0.11523174100E+04  0.19718251006E+04  0.16000808772E+04 0.  0.
        5    1    3    3  502    0 -0.48964983130E+03 -0.49281212187E+02  0.13534610314E+04  0.14401612579E+04  0.46999998093E+01 0. -1.
       -5    1    3    3    0  502  0.48964983130E+03  0.49281212187E+02 -0.20114362138E+03  0.53166384265E+03  0.46999998093E+01 0.  1.
</event>
<event>
 5   0  0.2147844E-05  0.1600087E+04  0.7818609E-02  0.8820494E-01
        2   -1    0    0  501    0  0.00000000000E+00  0.00000000000E+00  0.23935169299E+04  0.23935169299E+04  0.25500000920E-02 0.  1.
       -2   -1    0    0    0  501  0.00000000000E+00  0.00000000000E+00 -0.26741808151E+03  0.26741808152E+03  0.25500000920E-02 0. -1.
    10030    2    1    2    0    0  0.00000000000E+00  0.00000000000E+00  0.21260988484E+04  0.26609350115E+04  0.16000871295E+04 0.  0.
        2    1    3    3  502    0  0.31346977185E+03 -0.11777778072E+03 -0.14526728712E+03  0.36501710673E+03  0.25500000920E-02 0. -1.
       -2    1    3    3    0  502 -0.31346977185E+03  0.11777778072E+03  0.22713661355E+04  0.22959179047E+04  0.25500000920E-02 0.  1.
</event>
<event>
 5   0  0.1060251E-05  0.1599226E+04  0.7818609E-02  0.8821023E-01
        1   -1    0    0  501    0  0.00000000000E+00  0.00000000000E+00  0.16637297982E+04  0.16637297982E+04  0.50400001928E-02 0. -1.
       -1   -1    0    0    0  501  0.00000000000E+00  0.00000000000E+00 -0.38430593839E+03  0.38430593842E+03  0.50400001928E-02 0.  1.
    10030    2    1    2    0    0  0.00000000000E+00  0.00000000000E+00  0.12794238598E+04  0.20480357366E+04  0.15992263646E+04 0.  0.
        1    1    3    3  502    0 -0.51002154999E+03 -0.61559659206E+03  0.66189683042E+03  0.10378769483E+04  0.50400001928E-02 0. -1.
       -1    1    3    3    0  502  0.51002154999E+03  0.61559659206E+03  0.61752702935E+03  0.10101587883E+04  0.50400001928E-02 0.  1.
</event>
<event>
 5   0  0.1994525E-05  0.1598875E+04  0.7818609E-02  0.8821239E-01
        2   -1    0    0  501    0  0.00000000000E+00  0.00000000000E+00  0.11870767675E+04  0.11870767675E+04  0.25500000920E-02 0.  1.
       -2   -1    0    0    0  501  0.00000000000E+00  0.00000000000E+00 -0.53838167852E+03  0.53838167852E+03  0.25500000920E-02 0. -1.
    10030    2    1    2    0    0  0.00000000000E+00  0.00000000000E+00  0.64869508899E+03  0.17254584460E+04  0.15988750828E+04 0.  0.
        5    1    3    3  502    0  0.27682610065E+01 -0.39724516192E+03 -0.42430959706E+03  0.58126767163E+03  0.46999998093E+01 0. -1.
       -5    1    3    3    0  502 -0.27682610065E+01  0.39724516192E+03  0.10730046860E+04  0.11441907744E+04  0.46999998093E+01 0.  1.
</event>
<event>
 5   0  0.7597000E-06  0.1600512E+04  0.7818609E-02  0.8820233E-01
        4   -1    0    0  501    0  0.00000000000E+00  0.00000000000E+00  0.67395409887E+03  0.67395529546E+03  0.12699999809E+01 0. -1.
       -4   -1    0    0    0  501  0.00000000000E+00  0.00000000000E+00 -0.95022509820E+03  0.95022594689E+03  0.12699999809E+01 0.  1.
    10030    2    1    2    0    0  0.00000000000E+00  0.00000000000E+00 -0.27627099933E+03  0.16241812424E+04  0.16005121190E+04 0.  0.
        2    1    3    3  502    0 -0.40467412229E+03 -0.27315835980E+03 -0.78157311026E+03  0.92153847530E+03  0.25500000920E-02 0.  1.
       -2    1    3    3    0  502  0.40467412229E+03  0.27315835980E+03  0.50530211093E+03  0.70264276705E+03  0.25500000920E-02 0. -1.
</event>
<event>
 5   0  0.2125803E-05  0.1600084E+04  0.7818609E-02  0.8820496E-01
       -2   -1    0    0    0  501  0.00000000000E+00  0.00000000000E+00  0.36825128191E+03  0.36825128192E+03  0.25500000920E-02 0.  1.
        2   -1    0    0  501    0  0.00000000000E+00  0.00000000000E+00 -0.17381269567E+04  0.17381269567E+04  0.25500000920E-02 0. -1.
    10030    2    1    2    0    0  0.00000000000E+00  0.00000000000E+00 -0.13698756748E+04  0.21063782386E+04  0.16000843477E+04 0.  0.
        3    1    3    3  502    0 -0.15946648801E+03  0.76428307317E+03 -0.45500047014E+03  0.90365016171E+03  0.10100000352E+00 0.  1.
       -3    1    3    3    0  502  0.15946648801E+03 -0.76428307317E+03 -0.91487520466E+03  0.12027280769E+04  0.10100000352E+00 0. -1.
</event>
<event>
 5   0  0.1126485E-05  0.1600107E+04  0.7818609E-02  0.8820482E-01
       -1   -1    0    0    0  501  0.00000000000E+00  0.00000000000E+00  0.44637439923E+03  0.44637439926E+03  0.50400001928E-02 0. -1.
        1   -1    0    0  501    0  0.00000000000E+00  0.00000000000E+00 -0.14339658887E+04  0.14339658888E+04  0.50400001928E-02 0.  1.
    10030    2    1    2    0    0  0.00000000000E+00  0.00000000000E+00 -0.98759148952E+03  0.18803402880E+04  0.16001070741E+04 0.  0.
        2    1    3    3  502    0 -0.62944962990E+03  0.48068777820E+03 -0.36075061328E+03  0.87029223924E+03  0.25500000920E-02 0. -1.
       -2    1    3    3    0  502  0.62944962990E+03 -0.48068777820E+03 -0.62684087624E+03  0.10100480488E+04  0.25500000920E-02 0.  1.
</event>
<event>
 5   0  0.1057506E-05  0.1599718E+04  0.7818609E-02  0.8820722E-01
       -1   -1    0    0    0  501  0.00000000000E+00  0.00000000000E+00  0.51753973989E+03  0.51753973991E+03  0.50400001928E-02 0. -1.
        1   -1    0    0  501    0  0.00000000000E+00  0.00000000000E+00 -0.12361835465E+04  0.12361835465E+04  0.50400001928E-02 0.  1.
    10030    2    1    2    0    0  0.00000000000E+00  0.00000000000E+00 -0.71864380661E+03  0.17537232864E+04  0.15997176140E+04 0.  0.
        5    1    3    3  502    0 -0.20232557920E+03 -0.27351349368E+02 -0.12071213491E+04  0.12242743882E+04  0.46999998093E+01 0.  1.
       -5    1    3    3    0  502  0.20232557920E+03  0.27351349368E+02  0.48847754246E+03  0.52944889819E+03  0.46999998093E+01 0. -1.
</event>
<event>
 5   0  0.2147844E-05  0.1601554E+04  0.7818609E-02  0.8819594E-01
       -2   -1    0    0    0  501  0.00000000000E+00  0.00000000000E+00  0.51195801588E+03  0.51195801589E+03  0.25500000920E-02 0.  1.
        2   -1    0    0  501    0  0.00000000000E+00  0.00000000000E+00 -0.12525326058E+04  0.12525326058E+04  0.25500000920E-02 0. -1.
    10030    2    1    2    0    0  0.00000000000E+00  0.00000000000E+00 -0.74057458992E+03  0.17644906217E+04  0.16015543796E+04 0.  0.
        2    1    3    3  502    0  0.69157540039E+03 -0.29380251496E+03 -0.67530644217E+03  0.10102649371E+04  0.25500000920E-02 0. -1.
       -2    1    3    3    0  502 -0.69157540039E+03  0.29380251496E+03 -0.65268147743E+02  0.75422568462E+03  0.25500000920E-02 0.  1.
</event>
<event>
 5   0  0.2046108E-05  0.1599948E+04  0.7818609E-02  0.8820580E-01
        2   -1    0    0  501    0  0.00000000000E+00  0.00000000000E+00  0.25028476191E+04  0.25028476191E+04  0.25500000920E-02 0. -1.
       -2   -1    0    0    0  501  0.00000000000E+00  0.00000000000E+00 -0.25569197235E+03  0.25569197236E+03  0.25500000920E-02 0.  1.
    10030    2    1    2    0    0  0.00000000000E+00  0.00000000000E+00  0.22471556468E+04  0.27585395915E+04  0.15999475544E+04 0.  0.
        1    1    3    3  502    0 -0.31421351843E+03 -0.51065328801E+02  0.23889398862E+04  0.24100563443E+04  0.50400001928E-02 0. -1.
       -1    1    3    3    0  502  0.31421351843E+03  0.51065328801E+02 -0.14178423942E+03  0.34848324715E+03  0.50400001928E-02 0.  1.
</event>
<event>
 5   0  0.1090674E-05  0.1599457E+04  0.7818609E-02  0.8820882E-01
        1   -1    0    0  501    0  0.00000000000E+00  0.00000000000E+00  0.11374796175E+04  0.11374796175E+04  0.50400001928E-02 0.  1.
       -1   -1    0    0    0  501  0.00000000000E+00  0.00000000000E+00 -0.56226532730E+03  0.56226532732E+03  0.50400001928E-02 0. -1.
    10030    2    1    2    0    0  0.00000000000E+00  0.00000000000E+00  0.57521429016E+03  0.16997449448E+04  0.15994565945E+04 0.  0.
        4    1    3    3  502    0  0.41324515591E+03 -0.14751564583E+03  0.99813363068E+03  0.10903232467E+04  0.12699999809E+01 0.  1.
       -4    1    3    3    0  502 -0.41324515591E+03  0.14751564583E+03 -0.42291934052E+03  0.60942169812E+03  0.12699999809E+01 0. -1.
</event>
<event>
 5   0  0.1081831E-05  0.1599679E+04  0.7818609E-02  0.8820745E-01
        1   -1    0    0  501    0  0.00000000000E+00  0.00000000000E+00  0.70108349029E+03  0.70108349030E+03  0.50400001928E-02 0. -1.
       -1   -1    0    0    0  501  0.00000000000E+00  0.00000000000E+00 -0.91250665003E+03  0.91250665004E+03  0.50400001928E-02 0.  1.
    10030    2    1    2    0    0  0.00000000000E+00  0.00000000000E+00 -0.21142315974E+03  0.16135901403E+04  0.15996791518E+04 0.  0.
        3    1    3    3  502    0  0.53972704760E+03  0.25992818910E+03 -0.64029709733E+03  0.87683996970E+03  0.10100000352E+00 0.  1.
       -3    1    3    3    0  502 -0.53972704760E+03 -0.25992818910E+03  0.42887393759E+03  0.73675017065E+03  0.10100000352E+00 0. -1.
</event>
<event>
 5   0  0.2147844E-05  0.1599924E+04  0.7818609E-02  0.8820595E-01
        2   -1    0    0  501    0  0.00000000000E+00  0.00000000000E+00  0.80772955912E+03  0.80772955913E+03  0.25500000920E-02 0. -1.
       -2   -1    0    0    0  501  0.00000000000E+00  0.00000000000E+00 -0.79226903513E+03  0.79226903514E+03  0.25500000920E-02 0.  1.
    10030    2    1    2    0    0  0.00000000000E+00  0.00000000000E+00  0.15460523992E+02  0.15999985943E+04  0.15999238963E+04 0.  0.
        2    1    3    3  502    0  0.64619421587E+03 -0.27461687273E+03  0.39109881812E+03  0.80370372461E+03  0.25500000920E-02 0. -1.
       -2    1    3    3    0  502 -0.64619421587E+03  0.27461687273E+03 -0.37563829413E+03  0.79629486965E+03  0.25500000920E-02 0.  1.
</event>
<event>
 5   0  0.1060251E-05  0.1599828E+04  0.7818609E-02  0.8820653E-01
       -1   -1    0    0    0  501  0.00000000000E+00  0.00000000000E+00  0.10921159086E+04  0.10921159086E+04  0.50400001928E-02 0. -1.
        1   -1    0    0  501    0  0.00000000000E+00  0.00000000000E+00 -0.58589263241E+03  0.58589263243E+03  0.50400001928E-02 0.  1.
    10030    2    1    2    0    0  0.00000000000E+00  0.00000000000E+00  0.50622327621E+03  0.16780085411E+04  0.15998283216E+04 0.  0.
        1    1    3    3  502    0 -0.53586476602E+03  0.51171951303E+03 -0.63039407241E+02  0.74362751050E+03  0.50400001928E-02 0.  1.
       -1    1    3    3    0  502  0.53586476602E+03 -0.51171951303E+03  0.56926268345E+03  0.93438103056E+03  0.50400001928E-02 0. -1.
</event>
<event>
 5   0  0.1060251E-05  0.1597821E+04  0.7818609E-02  0.8821888E-01
       -1   -1    0    0    0  501  0.00000000000E+00  0.00000000000E+00  0.65721970440E+03  0.65721970442E+03  0.50400001928E-02 0.  1.
        1   -1    0    0  501    0  0.00000000000E+00  0.00000000000E+00 -0.97114839973E+03  0.97114839975E+03  0.50400001928E-02 0. -1.
    10030    2    1    2    0    0  0.00000000000E+00  0.00000000000E+00 -0.31392869533E+03  0.16283681042E+04  0.15978208463E+04 0.  0.
        1    1    3    3  502    0  0.35947974121E+03 -0.62345108431E+03  0.19656964444E+03  0.74602718718E+03  0.50400001928E-02 0.  1.
       -1    1    3    3    0  502 -0.35947974121E+03  0.62345108431E+03 -0.51049833977E+03  0.88234091699E+03  0.50400001928E-02 0. -1.
</event>
<event>
 5   0  0.1126485E-05  0.1601009E+04  0.7818609E-02  0.8819928E-01
       -1   -1    0    0    0  501  0.00000000000E+00  0.00000000000E+00  0.84930177952E+03  0.84930177953E+03  0.50400001928E-02 0.  1.
        1   -1    0    0  501    0  0.00000000000E+00  0.00000000000E+00 -0.75451122085E+03  0.75451122087E+03  0.50400001928E-02 0. -1.
    10030    2    1    2    0    0  0.00000000000E+00  0.00000000000E+00  0.94790558666E+02  0.16038130004E+04  0.16010093348E+04 0.  0.
        2    1    3    3  502    0  0.99674702308E+02  0.57341615200E+03 -0.50317303521E+03  0.76936612417E+03  0.25500000920E-02 0. -1.
       -2    1    3    3    0  502 -0.99674702308E+02 -0.57341615200E+03  0.59796359387E+03  0.83444687623E+03  0.25500000920E-02 0.  1.
</event>
<event>
 5   0  0.1990948E-05  0.1600471E+04  0.7818609E-02  0.8820259E-01
       -2   -1    0    0    0  501  0.00000000000E+00  0.00000000000E+00  0.43483604583E+03  0.43483604584E+03  0.25500000920E-02 0.  1.
        2   -1    0    0  501    0  0.00000000000E+00  0.00000000000E+00 -0.14726862862E+04  0.14726862862E+04  0.25500000920E-02 0. -1.
    10030    2    1    2    0    0  0.00000000000E+00  0.00000000000E+00 -0.10378502404E+04  0.19075223320E+04  0.16004712824E+04 0.  0.
        4    1    3    3  502    0  0.40209154900E+03 -0.37200514117E+02 -0.13423496887E+04  0.14017723751E+04  0.12699999809E+01 0. -1.
       -4    1    3    3    0  502 -0.40209154900E+03  0.37200514117E+02  0.30449944830E+03  0.50574995694E+03  0.12699999809E+01 0.  1.
</event>
<event>
 5   0  0.7597000E-06  0.1600159E+04  0.7818609E-02  0.8820450E-01
       -4   -1    0    0    0  501  0.00000000000E+00  0.00000000000E+00  0.91663373427E+03  0.91663461407E+03  0.12699999809E+01 0.  1.
        4   -1    0    0  501    0  0.00000000000E+00  0.00000000000E+00 -0.69834393494E+03  0.69834508975E+03  0.12699999809E+01 0. -1.
    10030    2    1    2    0    0  0.00000000000E+00  0.00000000000E+00  0.21828979933E+03  0.16149797038E+04  0.16001590569E+04 0.  0.
        4    1    3    3  502    0 -0.36293745100E+03  0.48981253651E+03  0.63210013416E+03  0.87817544190E+03  0.12699999809E+01 0. -1.
       -4    1    3    3    0  502  0.36293745100E+03 -0.48981253651E+03 -0.41381033483E+03  0.73680426191E+03  0.12699999809E+01 0.  1.
</event>
<event>
 5   0  0.1990948E-05  0.1600064E+04  0.7818609E-02  0.8820509E-01
        2   -1    0    0  501    0  0.00000000000E+00  0.00000000000E+00  0.10526543421E+04  0.10526543422E+04  0.25500000920E-02 0. -1.
       -2   -1    0    0    0  501  0.00000000000E+00  0.00000000000E+00 -0.60803515172E+03  0.60803515172E+03  0.25500000920E-02 0.  1.
    10030    2    1    2    0    0  0.00000000000E+00  0.00000000000E+00  0.44461919043E+03  0.16606894939E+04  0.16000635520E+04 0.  0.
        4    1    3    3  502    0 -0.78695967240E+03 -0.55629316806E+02  0.36019308819E+03  0.86726052634E+03  0.12699999809E+01 0. -1.
       -4    1    3    3    0  502  0.78695967240E+03  0.55629316806E+02  0.84426102244E+02  0.79342896753E+03  0.12699999809E+01 0.  1.
</event>
<event>
 5   0  0.2046108E-05  0.1599541E+04  0.7818609E-02  0.8820830E-01
       -2   -1    0    0    0  501  0.00000000000E+00  0.00000000000E+00  0.27998504750E+03  0.27998504751E+03  0.25500000920E-02 0. -1.
        2   -1    0    0  501    0  0.00000000000E+00  0.00000000000E+00 -0.22845252989E+04  0.22845252989E+04  0.25500000920E-02 0.  1.
    10030    2    1    2    0    0  0.00000000000E+00  0.00000000000E+00 -0.20045402514E+04  0.25645103465E+04  0.15995410896E+04 0.  0.
        1    1    3    3  502    0  0.33738967793E+03  0.72116265144E+03 -0.88095414060E+03  0.11874289715E+04  0.50400001928E-02 0.  1.
       -1    1    3    3    0  502 -0.33738967793E+03 -0.72116265144E+03 -0.11235861108E+04  0.13770813749E+04  0.50400001928E-02 0. -1.
</event>
<event>
 5   0  0.1994525E-05  0.1600366E+04  0.7818609E-02  0.8820323E-01
        2   -1    0    0  501    0  0.00000000000E+00  0.00000000000E+00  0.20270591458E+04  0.20270591458E+04  0.25500000920E-02 0. -1.
       -2   -1    0    0    0  501  0.00000000000E+00  0.00000000000E+00 -0.31587282104E+03  0.31587282105E+03  0.25500000920E-02 0.  1.
    10030    2    1    2    0    0  0.00000000000E+00  0.00000000000E+00  0.17111863248E+04  0.23429319669E+04  0.16003660716E+04 0.  0.
        5    1    3    3  502    0 -0.16640713628E+03  0.53112547668E+03  0.13972583757E+02  0.55677906757E+03  0.46999998093E+01 0.  1.
       -5    1    3    3    0  502  0.16640713628E+03 -0.53112547668E+03  0.16972137410E+04  0.17861528993E+04  0.46999998093E+01 0. -1.
</event>
<event>
 5   0  0.2125803E-05  0.1600198E+04  0.7818609E-02  0.8820426E-01
       -2   -1    0    0    0  501  0.00000000000E+00  0.00000000000E+00  0.73267656386E+03  0.73267656386E+03  0.25500000920E-02 0.  1.
        2   -1    0    0  501    0  0.00000000000E+00  0.00000000000E+00 -0.87372613980E+03  0.87372613980E+03  0.25500000920E-02 0. -1.
    10030    2    1    2    0    0  0.00000000000E+00  0.00000000000E+00 -0.14104957594E+03  0.16064027037E+04  0.16001983200E+04 0.  0.
        3    1    3    3  502    0  0.34421117282E+03  0.66236020746E+02  0.65149268128E+03  0.73980488367E+03  0.10100000352E+00 0.  1.
       -3    1    3    3    0  502 -0.34421117282E+03 -0.66236020746E+02 -0.79254225722E+03  0.86659782000E+03  0.10100000352E+00 0. -1.
</event>
<event>
 5   0  0.1990948E-05  0.1599182E+04  0.7818609E-02  0.8821051E-01
        2   -1    0    0  501    0  0.00000000000E+00  0.00000000000E+00  0.15036737110E+04  0.15036737110E+04  0.25500000920E-02 0.  1.
       -2   -1    0    0    0  501  0.00000000000E+00  0.00000000000E+00 -0.42518922148E+03  0.42518922149E+03  0.25500000920E-02 0. -1.
    10030    2    1    2    0    0  0.00000000000E+00  0.00000000000E+00  0.10784844895E+04  0.19288629325E+04  0.15991821091E+04 0.  0.
        4    1    3    3  502    0  0.60033740756E+03 -0.43116032296E+03  0.17133500864E+03  0.75872361575E+03  0.12699999809E+01 0. -1.
       -4    1    3    3    0  502 -0.60033740756E+03  0.43116032296E+03  0.90714948087E+03  0.11701393167E+04  0.12699999809E+01 0.  1.
</event>
<event>
 5   0  0.1081831E-05  0.1599772E+04  0.7818609E-02  0.8820688E-01
       -1   -1    0    0    0  501  0.00000000000E+00  0.00000000000E+00  0.58539646218E+03  0.58539646220E+03  0.50400001928E-02 0. -1.
        1   -1    0    0  501    0  0.00000000000E+00  0.00000000000E+00 -0.10929649282E+04  0.10929649282E+04  0.50400001928E-02 0.  1.
    10030    2    1    2    0    0  0.00000000000E+00  0.00000000000E+00 -0.50756846600E+03  0.16783613904E+04  0.15997722366E+04 0.  0.
        3    1    3    3  502    0 -0.61685882572E+03 -0.31908562712E+03  0.16255769960E+03  0.71327096129E+03  0.10100000352E+00 0. -1.
       -3    1    3    3    0  502  0.61685882572E+03  0.31908562712E+03 -0.67012616561E+03  0.96509042910E+03  0.10100000352E+00 0.  1.
</event>
<event>
 5   0  0.1126485E-05  0.1600016E+04  0.7818609E-02  0.8820538E-01
       -1   -1    0    0    0  501  0.00000000000E+00  0.00000000000E+00  0.11780978578E+04  0.11780978578E+04  0.50400001928E-02 0.  1.
        1   -1    0    0  501    0  0.00000000000E+00  0.00000000000E+00 -0.54325937791E+03  0.54325937793E+03  0.50400001928E-02 0. -1.
    10030    2    1    2    0    0  0.00000000000E+00  0.00000000000E+00  0.63483847991E+03  0.17213572358E+04  0.16000158866E+04 0.  0.
        2    1    3    3  502    0  0.63686949762E+03 -0.46109628411E+03  0.15857310707E+03  0.80209598585E+03  0.25500000920E-02 0.  1.
       -2    1    3    3    0  502 -0.63686949762E+03  0.46109628411E+03  0.47626537284E+03  0.91926124991E+03  0.25500000920E-02 0. -1.
</event>
<event>
 5   0  0.1057506E-05  0.1600282E+04  0.7818609E-02  0.8820375E-01
       -1   -1    0    0    0  501  0.00000000000E+00  0.00000000000E+00  0.11739707355E+04  0.11739707355E+04  0.50400001928E-02 0. -1.
        1   -1    0    0  501    0  0.00000000000E+00  0.00000000000E+00 -0.54535073067E+03  0.54535073069E+03  0.50400001928E-02 0.  1.
    10030    2    1    2    0    0  0.00000000000E+00  0.00000000000E+00  0.62862000485E+03  0.17193214662E+04  0.16002822232E+04 0.  0.
        5    1    3    3  502    0 -0.71996102081E+03 -0.14947213271E+03 -0.24620883283E+02  0.73574048946E+03  0.46999998093E+01 0.  1.
       -5    1    3    3    0  502  0.71996102081E+03  0.14947213271E+03  0.65324088813E+03  0.98358097677E+03  0.46999998093E+01 0. -1.
</event>
<event>
 5   0  0.1990948E-05  0.1599394E+04  0.7818609E-02  0.8820920E-01
        2   -1    0    0  501    0  0.00000000000E+00  0.00000000000E+00  0.69005593746E+03  0.69005593747E+03  0.25500000920E-02 0.  1.
       -2   -1    0    0    0  501  0.00000000000E+00  0.00000000000E+00 -0.92675887569E+03  0.92675887569E+03  0.25500000920E-02 0. -1.
    10030    2    1    2    0    0  0.00000000000E+00  0.00000000000E+00 -0.23670293822E+03  0.16168148132E+04  0.15993942163E+04 0.  0.
        4    1    3    3  502    0 -0.26260379751E+03  0.65506405958E+03 -0.49853849494E+03  0.86406708099E+03  0.12699999809E+01 0.  1.
       -4    1    3    3    0  502  0.26260379751E+03 -0.65506405958E+03  0.26183555672E+03  0.75274773217E+03  0.12699999809E+01 0. -1.
</event>
<event>
 5   0  0.1060251E-05  0.1599800E+04  0.7818609E-02  0.8820671E-01
       -1   -1    0    0    0  501  0.00000000000E+00  0.00000000000E+00  0.11711896780E+04  0.11711896780E+04  0.50400001928E-02 0.  1.
        1   -1    0    0  501    0  0.00000000000E+00  0.00000000000E+00 -0.54631621462E+03  0.54631621464E+03  0.50400001928E-02 0. -1.
    10030    2    1    2    0    0  0.00000000000E+00  0.00000000000E+00  0.62487346341E+03  0.17175058927E+04  0.15997998769E+04 0.  0.
        1    1    3    3  502    0 -0.47053645885E+03 -0.39439673558E+03 -0.23801187221E+03  0.65848537985E+03  0.50400001928E-02 0. -1.
       -1    1    3    3    0  502  0.47053645885E+03  0.39439673558E+03  0.86288533562E+03  0.10590205128E+04  0.50400001928E-02 0.  1.
</event>
<event>
 5   0  0.1057506E-05  0.1599039E+04  0.7818609E-02  0.8821139E-01
        1   -1    0    0  501    0  0.00000000000E+00  0.00000000000E+00  0.12420949976E+04  0.12420949976E+04  0.50400001928E-02 0.  1.
       -1   -1    0    0    0  501  0.00000000000E+00  0.00000000000E+00 -0.51463948820E+03  0.51463948822E+03  0.50400001928E-02 0. -1.
    10030    2    1    2    0    0  0.00000000000E+00  0.00000000000E+00  0.72745550935E+03  0.17567344858E+04  0.15990386285E+04 0.  0.
        5    1    3    3  502    0 -0.33893712029E+03 -0.71800142920E+03  0.46681441750E+03  0.92105494637E+03  0.46999998093E+01 0. -1.
       -5    1    3    3    0  502  0.33893712029E+03  0.71800142920E+03  0.26064109186E+03  0.83567953942E+03  0.46999998093E+01 0.  1.
</event>
<event>
 5   0  0.1060251E-05  0.1600055E+04  0.7818609E-02  0.8820514E-01
        1   -1    0    0  501    0  0.00000000000E+00  0.00000000000E+00  0.44869952740E+03  0.44869952743E+03  0.50400001928E-02 0. -1.
       -1   -1    0    0    0  501  0.00000000000E+00  0.00000000000E+00 -0.14264428342E+04  0.14264428342E+04  0.50400001928E-02 0.  1.
    10030    2    1    2    0    0  0.00000000000E+00  0.00000000000E+00 -0.97774330679E+03  0.18751423616E+04  0.16000552810E+04 0.  0.
        1    1    3    3  502    0  0.42094003693E+03  0.42743802993E+03 -0.11091618439E+04  0.12610050675E+04  0.50400001928E-02 0.  1.
       -1    1    3    3    0  502 -0.42094003693E+03 -0.42743802993E+03  0.13141853716E+03  0.61413729414E+03  0.50400001928E-02 0. -1.
</event>
<event>
 5   0  0.1126485E-05  0.1598707E+04  0.7818609E-02  0.8821343E-01
        1   -1    0    0  501    0  0.00000000000E+00  0.00000000000E+00  0.81912308759E+03  0.81912308761E+03  0.50400001928E-02 0.  1.
       -1   -1    0    0    0  501  0.00000000000E+00  0.00000000000E+00 -0.78006086396E+03  0.78006086397E+03  0.50400001928E-02 0. -1.
    10030    2    1    2    0    0  0.00000000000E+00  0.00000000000E+00  0.39062223636E+02  0.15991839516E+04  0.15987068067E+04 0.  0.
        2    1    3    3  502    0 -0.29023120023E+02 -0.18248045017E+03 -0.75840557520E+03  0.78058982359E+03  0.25500000920E-02 0. -1.
       -2    1    3    3    0  502  0.29023120023E+02  0.18248045017E+03  0.79746779884E+03  0.81859412799E+03  0.25500000920E-02 0.  1.
</event>
<event>
 5   0  0.1994525E-05  0.1599720E+04  0.7818609E-02  0.8820720E-01
        2   -1    0    0  501    0  0.00000000000E+00  0.00000000000E+00  0.42747847929E+03  0.42747847930E+03  0.25500000920E-02 0.  1.
       -2   -1    0    0    0  501  0.00000000000E+00  0.00000000000E+00 -0.14966266585E+04  0.14966266585E+04  0.25500000920E-02 0. -1.
    10030    2    1    2    0    0  0.00000000000E+00  0.00000000000E+00 -0.10691481792E+04  0.19241051378E+04  0.15997195855E+04 0.  0.
        5    1    3    3  502    0 -0.34153376432E+03 -0.45853833049E+03  0.13817579431E+03  0.58823239696E+03  0.46999998093E+01 0.  1.
       -5    1    3    3    0  502  0.34153376432E+03  0.45853833049E+03 -0.12073239735E+04  0.13358727409E+04  0.46999998093E+01 0. -1.
</event>
<event>
 5   0  0.1990948E-05  0.1599701E+04  0.7818609E-02  0.8820731E-01
        2   -1    0    0  501    0  0.00000000000E+00  0.00000000000E+00  0.67454660805E+03  0.67454660806E+03  0.25500000920E-02 0.  1.
       -2   -1    0    0    0  501  0.00000000000E+00  0.00000000000E+00 -0.94843128766E+03  0.94843128767E+03  0.25500000920E-02 0. -1.
    10030    2    1    2    0    0  0.00000000000E+00  0.00000000000E+00 -0.27388467961E+03  0.16229778957E+04  0.15997013572E+04 0.  0.
        4    1    3    3  502    0  0.38783184019E+03 -0.62398065225E+03 -0.45776193719E+03  0.86562867020E+03  0.12699999809E+01 0. -1.
       -4    1    3    3    0  502 -0.38783184019E+03  0.62398065225E+03  0.18387725758E+03  0.75734922552E+03  0.12699999809E+01 0.  1.
</event>
<event>
 5   0  0.1081831E-05  0.1603232E+04  0.7818609E-02  0.8818565E-01
       -1   -1    0    0    0  501  0.00000000000E+00  0.00000000000E+00  0.34186587010E+03  0.34186587014E+03  0.50400001928E-02 0.  1.
        1   -1    0    0  501    0  0.00000000000E+00  0.00000000000E+00 -0.18796505208E+04  0.18796505208E+04  0.50400001928E-02 0. -1.
    10030    2    1    2    0    0  0.00000000000E+00  0.00000000000E+00 -0.15377846507E+04  0.22215163909E+04  0.16032321863E+04 0.  0.
        3    1    3    3  502    0  0.31950460739E+03  0.42353196066E+02 -0.17859162442E+04  0.18147655025E+04  0.10100000352E+00 0. -1.
       -3    1    3    3    0  502 -0.31950460739E+03 -0.42353196066E+02  0.24813159353E+03  0.40675088847E+03  0.10100000352E+00 0.  1.
</event>
<event>
 5   0  0.1126485E-05  0.1599022E+04  0.7818609E-02  0.8821149E-01
        1   -1    0    0  501    0  0.00000000000E+00  0.00000000000E+00  0.63004261426E+03  0.63004261428E+03  0.50400001928E-02 0. -1.
       -1   -1    0    0    0  501  0.00000000000E+00  0.00000000000E+00 -0.10145625619E+04  0.10145625620E+04  0.50400001928E-02 0.  1.
    10030    2    1    2    0    0  0.00000000000E+00  0.00000000000E+00 -0.38451994768E+03  0.16446051762E+04  0.15990217621E+04 0.  0.
        2    1    3    3  502    0  0.74278336360E+03 -0.10794408366E+03  0.90978618679E+02  0.75607946639E+03  0.25500000920E-02 0. -1.
       -2    1    3    3    0  502 -0.74278336360E+03  0.10794408366E+03 -0.47549856636E+03  0.88852570984E+03  0.25500000920E-02 0.  1.
</event>
<event>
 5   0  0.1990948E-05  0.1599761E+04  0.7818609E-02  0.8820695E-01
        2   -1    0    0  501    0  0.00000000000E+00  0.00000000000E+00  0.14359742258E+04  0.14359742258E+04  0.25500000920E-02 0. -1.
       -2   -1    0    0    0  501  0.00000000000E+00  0.00000000000E+00 -0.44555731830E+03  0.44555731830E+03  0.25500000920E-02 0.  1.
    10030    2    1    2    0    0  0.00000000000E+00  0.00000000000E+00  0.99041690746E+03  0.18815315441E+04  0.15997610136E+04 0.  0.
        4    1    3    3  502    0 -0.12055900807E+03 -0.53661114703E+03  0.11782989180E+04  0.13003368604E+04  0.12699999809E+01 0. -1.
       -4    1    3    3    0  502  0.12055900807E+03  0.53661114703E+03 -0.18788201050E+03  0.58119468366E+03  0.12699999809E+01 0.  1.
</event>
<event>
 5   0  0.1060251E-05  0.1598880E+04  0.7818609E-02  0.8821237E-01
        1   -1    0    0  501    0  0.00000000000E+00  0.00000000000E+00  0.18890354208E+04  0.18890354208E+04  0.50400001928E-02 0. -1.
       -1   -1    0    0    0  501  0.00000000000E+00  0.00000000000E+00 -0.33832294694E+03  0.33832294697E+03  0.50400001928E-02 0.  1.
    10030    2    1    2    0    0  0.00000000000E+00  0.00000000000E+00  0.15507124739E+04  0.22273583678E+04  0.15988796459E+04 0.  0.
        1    1    3    3  502    0  0.75666851682E+03 -0.33499492237E+02  0.41900526240E+03  0.86558354321E+03  0.50400001928E-02 0.  1.
       -1    1    3    3    0  502 -0.75666851682E+03  0.33499492237E+02  0.11317072115E+04  0.13617748246E+04  0.50400001928E-02 0. -1.
</event>
<event>
 5   0  0.2046108E-05  0.1600160E+04  0.7818609E-02  0.8820450E-01
       -2   -1    0    0    0  501  0.00000000000E+00  0.00000000000E+00  0.11139420401E+04  0.11139420401E+04  0.25500000920E-02 0.  1.
        2   -1    0    0  501    0  0.00000000000E+00  0.00000000000E+00 -0.57465099232E+03  0.57465099233E+03  0.25500000920E-02 0. -1.
    10030    2    1    2    0    0  0.00000000000E+00  0.00000000000E+00  0.53929104775E+03  0.16885930324E+04  0.16001598654E+04 0.  0.
        1    1    3    3  502    0 -0.53352459604E+03  0.56074383894E+03  0.48343962770E+03  0.91257658372E+03  0.50400001928E-02 0.  1.
       -1    1    3    3    0  502  0.53352459604E+03 -0.56074383894E+03  0.55851420050E+02  0.77601644869E+03  0.50400001928E-02 0. -1.
</event>
<event>
 5   0  0.1060251E-05  0.1599734E+04  0.7818609E-02  0.8820712E-01
        1   -1    0    0  501    0  0.00000000000E+00  0.00000000000E+00  0.84044916468E+03  0.84044916469E+03  0.50400001928E-02 0. -1.
       -1   -1    0    0    0  501  0.00000000000E+00  0.00000000000E+00 -0.76124396254E+03  0.76124396256E+03  0.50400001928E-02 0.  1.
    10030    2    1    2    0    0  0.00000000000E+00  0.00000000000E+00  0.79205202133E+02  0.16016931273E+04  0.15997335434E+04 0.  0.
        1    1    3    3  502    0 -0.51431708218E+02 -0.66116734358E+03 -0.40815810706E+03  0.77870438371E+03  0.50400001928E-02 0.  1.
       -1    1    3    3    0  502  0.51431708218E+02  0.66116734358E+03  0.48736330919E+03  0.82298874354E+03  0.50400001928E-02 0. -1.
</event>
<event>
 5   0  0.1060251E-05  0.1599400E+04  0.7818609E-02  0.8820917E-01
        1   -1    0    0  501    0  0.00000000000E+00  0.00000000000E+00  0.10218942209E+04  0.10218942209E+04  0.50400001928E-02 0. -1.
       -1   -1    0    0    0  501  0.00000000000E+00  0.00000000000E+00 -0.62581792427E+03  0.62581792429E+03  0.50400001928E-02 0.  1.
    10030    2    1    2    0    0  0.00000000000E+00  0.00000000000E+00  0.39607629666E+03  0.16477121452E+04  0.15993995376E+04 0.  0.
        1    1    3    3  502    0 -0.43445784514E+03 -0.59614611900E+02  0.88697782615E+03  0.98946307928E+03  0.50400001928E-02 0. -1.
       -1    1    3    3    0  502  0.43445784514E+03  0.59614611900E+02 -0.49090152949E+03  0.65824906595E+03  0.50400001928E-02 0.  1.
</event>
<event>
 5   0  0.1994525E-05  0.1598972E+04  0.7818609E-02  0.8821180E-01
       -2   -1    0    0    0  501  0.00000000000E+00  0.00000000000E+00  0.10717854883E+04  0.10717854883E+04  0.25500000920E-02 0.  1.
        2   -1    0    0  501    0  0.00000000000E+00  0.00000000000E+00 -0.59636732421E+03  0.59636732422E+03  0.25500000920E-02 0. -1.
    10030    2    1    2    0    0  0.00000000000E+00  0.00000000000E+00  0.47541816407E+03  0.16681528125E+04  0.15989719745E+04 0.  0.
        5    1    3    3  502    0 -0.56469603661E+03 -0.47023036266E+02 -0.35066229616E+03  0.66639246368E+03  0.46999998093E+01 0. -1.
       -5    1    3    3    0  502  0.56469603661E+03  0.47023036266E+02  0.82608046024E+03  0.10017603488E+04  0.46999998093E+01 0.  1.
</event>
<event>
 5   0  0.1057506E-05  0.1600846E+04  0.7818609E-02  0.8820028E-01
        1   -1    0    0  501    0  0.00000000000E+00  0.00000000000E+00  0.87060010160E+03  0.87060010161E+03  0.50400001928E-02 0.  1.
       -1   -1    0    0    0  501  0.00000000000E+00  0.00000000000E+00 -0.73590301531E+03  0.73590301533E+03  0.50400001928E-02 0. -1.
    10030    2    1    2    0    0  0.00000000000E+00  0.00000000000E+00  0.13469708629E+03  0.16065031169E+04  0.16008463261E+04 0.  0.
        5    1    3    3  502    0  0.12306040267E+03 -0.56938361942E+03  0.61820859980E+03  0.84943836247E+03  0.46999998093E+01 0.  1.
       -5    1    3    3    0  502 -0.12306040267E+03  0.56938361942E+03 -0.48351151351E+03  0.75706475447E+03  0.46999998093E+01 0. -1.
</event>
<event>
 5   0  0.2125803E-05  0.1599762E+04  0.7818609E-02  0.8820694E-01
        2   -1    0    0  501    0  0.00000000000E+00  0.00000000000E+00  0.47996181965E+03  0.47996181965E+03  0.25500000920E-02 0.  1.
       -2   -1    0    0    0  501  0.00000000000E+00  0.00000000000E+00 -0.13330431553E+04  0.13330431553E+04  0.25500000920E-02 0. -1.
    10030    2    1    2    0    0  0.00000000000E+00  0.00000000000E+00 -0.85308133568E+03  0.18130049750E+04  0.15997622555E+04 0.  0.
        3    1    3    3  502    0 -0.54890620948E+03  0.56198491537E+03 -0.25584974816E+03  0.82618652600E+03  0.10100000352E+00 0. -1.
       -3    1    3    3    0  502  0.54890620948E+03 -0.56198491537E+03 -0.59723158751E+03  0.98681844898E+03  0.10100000352E+00 0.  1.
</event>
<event>
 5   0  0.1990948E-05  0.1599914E+04  0.7818609E-02  0.8820601E-01
       -2   -1    0    0    0  501  0.00000000000E+00  0.00000000000E+00  0.34090350311E+03  0.34090350311E+03  0.25500000920E-02 0. -1.
        2   -1    0    0  501    0  0.00000000000E+00  0.00000000000E+00 -0.18771632661E+04  0.18771632661E+04  0.25500000920E-02 0.  1.
    10030    2    1    2    0    0  0.00000000000E+00  0.00000000000E+00 -0.15362597630E+04  0.22180667693E+04  0.15999144144E+04 0.  0.
        4    1    3    3  502    0 -0.73319195559E+03 -0.31013380808E+03 -0.87708534413E+03  0.11844972505E+04  0.12699999809E+01 0. -1.
       -4    1    3    3    0  502  0.73319195559E+03  0.31013380808E+03 -0.65917441890E+03  0.10335695188E+04  0.12699999809E+01 0.  1.
</event>
<event>
 5   0  0.2125803E-05  0.1602344E+04  0.7818609E-02  0.8819109E-01
        2   -1    0    0  501    0  0.00000000000E+00  0.00000000000E+00  0.13182051220E+04  0.13182051220E+04  0.25500000920E-02 0.  1.
       -2   -1    0    0    0  501  0.00000000000E+00  0.00000000000E+00 -0.48693211693E+03  0.48693211694E+03  0.25500000920E-02 0. -1.
    10030    2    1    2    0    0  0.00000000000E+00  0.00000000000E+00  0.83127300504E+03  0.18051372389E+04  0.16023437966E+04 0.  0.
        3    1    3    3  502    0 -0.59603781337E+03  0.52006802673E+03  0.27249426425E+03  0.83665103935E+03  0.10100000352E+00 0. -1.
       -3    1    3    3    0  502  0.59603781337E+03 -0.52006802673E+03  0.55877874079E+03  0.96848619957E+03  0.10100000352E+00 0.  1.
</event>
<event>
 5   0  0.2046108E-05  0.1599797E+04  0.7818609E-02  0.8820673E-01
        2   -1    0    0  501    0  0.00000000000E+00  0.00000000000E+00  0.85467783291E+03  0.85467783291E+03  0.25500000920E-02 0.  1.
       -2   -1    0    0    0  501  0.00000000000E+00  0.00000000000E+00 -0.74863023180E+03  0.74863023180E+03  0.25500000920E-02 0. -1.
    10030    2    1    2    0    0  0.00000000000E+00  0.00000000000E+00  0.10604760111E+03  0.16033080647E+04  0.15997970673E+04 0.  0.
        1    1    3    3  502    0  0.47530260461E+03  0.62290722382E+03 -0.10830055525E+03  0.79098355591E+03  0.50400001928E-02 0. -1.
       -1    1    3    3    0  502 -0.47530260461E+03 -0.62290722382E+03  0.21434815636E+03  0.81232450880E+03  0.50400001928E-02 0.  1.
</event>
<event>
 5   0  0.1126485E-05  0.1599693E+04  0.7818609E-02  0.8820737E-01
       -1   -1    0    0    0  501  0.00000000000E+00  0.00000000000E+00  0.29023695735E+03  0.29023695740E+03  0.50400001928E-02 0.  1.
        1   -1    0    0  501    0  0.00000000000E+00  0.00000000000E+00 -0.22042485192E+04  0.22042485192E+04  0.50400001928E-02 0. -1.
    10030    2    1    2    0    0  0.00000000000E+00  0.00000000000E+00 -0.19140115618E+04  0.24944854766E+04  0.15996929499E+04 0.  0.
        2    1    3    3  502    0  0.47972311046E+03  0.25569460029E+03 -0.42102336033E+02  0.54523994537E+03  0.25500000920E-02 0.  1.
       -2    1    3    3    0  502 -0.47972311046E+03 -0.25569460029E+03 -0.18719092258E+04  0.19492455312E+04  0.25500000920E-02 0. -1.
</event>
<event>
 5   0  0.1090674E-05  0.1600928E+04  0.7818609E-02  0.8819978E-01
        1   -1    0    0  501    0  0.00000000000E+00  0.00000000000E+00  0.90807698147E+03  0.90807698149E+03  0.50400001928E-02 0.  1.
       -1   -1    0    0    0  501  0.00000000000E+00  0.00000000000E+00 -0.70560359209E+03  0.70560359211E+03  0.50400001928E-02 0. -1.
    10030    2    1    2    0    0  0.00000000000E+00  0.00000000000E+00  0.20247338938E+03  0.16136805736E+04  0.16009277061E+04 0.  0.
        4    1    3    3  502    0 -0.18323045135E+03  0.35007809844E+03 -0.60045000220E+03  0.71879753154E+03  0.12699999809E+01 0. -1.
       -4    1    3    3    0  502  0.18323045135E+03 -0.35007809844E+03  0.80292339158E+03  0.89488304205E+03  0.12699999809E+01 0.  1.
</event>
<event>
 5   0  0.1994525E-05  0.1600189E+04  0.7818609E-02  0.8820432E-01
       -2   -1    0    0    0  501  0.00000000000E+00  0.00000000000E+00  0.70260943371E+03  0.70260943372E+03  0.25500000920E-02 0. -1.
        2   -1    0    0  501    0  0.00000000000E+00  0.00000000000E+00 -0.91110579039E+03  0.91110579040E+03  0.25500000920E-02 0.  1.
    10030    2    1    2    0    0  0.00000000000E+00  0.00000000000E+00 -0.20849635668E+03  0.16137152241E+04  0.16001893931E+04 0.  0.
        5    1    3    3  502    0  0.32022145916E+02  0.48451609374E+03 -0.74550684862E+03  0.88970996075E+03  0.46999998093E+01 0.  1.
       -5    1    3    3    0  502 -0.32022145916E+02 -0.48451609374E+03  0.53701049194E+03  0.72400526336E+03  0.46999998093E+01 0. -1.
</event>
<event>
 5   0  0.1060251E-05  0.1597780E+04  0.7818609E-02  0.8821913E-01
        1   -1    0    0  501    0  0.00000000000E+00  0.00000000000E+00  0.44055034611E+03  0.44055034614E+03  0.50400001928E-02 0. -1.
       -1   -1    0    0    0  501  0.00000000000E+00  0.00000000000E+00 -0.14487004289E+04  0.14487004289E+04  0.50400001928E-02 0.  1.
    10030    2    1    2    0    0  0.00000000000E+00  0.00000000000E+00 -0.10081500827E+04  0.18892507750E+04  0.15977803045E+04 0.  0.
        1    1    3    3  502    0  0.20665682270E+03 -0.62402347790E+03 -0.10408909491E+04  0.12310833892E+04  0.50400001928E-02 0.  1.
       -1    1    3    3    0  502 -0.20665682270E+03  0.62402347790E+03  0.32740866342E+02  0.65816738577E+03  0.50400001928E-02 0. -1.
</event>
<event>
 5   0  0.1090674E-05  0.1601131E+04  0.7818609E-02  0.8819854E-01
        1   -1    0    0  501    0  0.00000000000E+00  0.00000000000E+00  0.14179562018E+04  0.14179562018E+04  0.50400001928E-02 0.  1.
       -1   -1    0    0    0  501  0.00000000000E+00  0.00000000000E+00 -0.45199216765E+03  0.45199216768E+03  0.50400001928E-02 0. -1.
    10030    2    1    2    0    0  0.00000000000E+00  0.00000000000E+00  0.96596403410E+03  0.18699483694E+04  0.16011309719E+04 0.  0.
        4    1    3    3  502    0  0.24623956314E+03  0.10835896628E+03  0.13635819473E+04  0.13898679534E+04  0.12699999809E+01 0.  1.
       -4    1    3    3    0  502 -0.24623956314E+03 -0.10835896628E+03 -0.39761791321E+03  0.48008041601E+03  0.12699999809E+01 0. -1.
</event>
<event>
 5   0  0.1057506E-05  0.1599944E+04  0.7818609E-02  0.8820582E-01
       -1   -1    0    0    0  501  0.00000000000E+00  0.00000000000E+00  0.57849601380E+03  0.57849601382E+03  0.50400001928E-02 0. -1.
        1   -1    0    0  501    0  0.00000000000E+00  0.00000000000E+00 -0.11062397317E+04  0.11062397317E+04  0.50400001928E-02 0.  1.
    10030    2    1    2    0    0  0.00000000000E+00  0.00000000000E+00 -0.52774371793E+03  0.16847357456E+04  0.15999440930E+04 0.  0.
        5    1    3    3  502    0  0.15104243548E+03 -0.76917132025E+03 -0.43200494958E+03  0.89503558793E+03  0.46999998093E+01 0. -1.
       -5    1    3    3    0  502 -0.15104243548E+03  0.76917132025E+03 -0.95738768355E+02  0.78970015764E+03  0.46999998093E+01 0.  1.
</event>
<event>
 5   0  0.1990948E-05  0.1600454E+04  0.7818609E-02  0.8820269E-01
       -2   -1    0    0    0  501  0.00000000000E+00  0.00000000000E+00  0.34097561819E+03  0.34097561820E+03  0.25500000920E-02 0. -1.
        2   -1    0    0  501    0  0.00000000000E+00  0.00000000000E+00 -0.18780319587E+04  0.18780319587E+04  0.25500000920E-02 0.  1.
    10030    2    1    2    0    0  0.00000000000E+00  0.00000000000E+00 -0.15370563405E+04  0.22190075769E+04  0.16004538208E+04 0.  0.
        4    1    3    3  502    0 -0.58643294625E+02  0.60793413111E+03 -0.14854081182E+04  0.16060703080E+04  0.12699999809E+01 0.  1.
       -4    1    3    3    0  502  0.58643294625E+02 -0.60793413111E+03 -0.51648222279E+02  0.61293726885E+03  0.12699999809E+01 0. -1.
</event>
<event>
 5   0  0.1060251E-05  0.1600262E+04  0.7818609E-02  0.8820387E-01
        1   -1    0    0  501    0  0.00000000000E+00  0.00000000000E+00  0.10013215977E+04  0.10013215977E+04  0.50400001928E-02 0. -1.
       -1   -1    0    0    0  501  0.00000000000E+00  0.00000000000E+00 -0.63936475140E+03  0.63936475142E+03  0.50400001928E-02 0.  1.
    10030    2    1    2    0    0  0.00000000000E+00  0.00000000000E+00  0.36195684629E+03  0.16406863491E+04  0.16002621465E+04 0.  0.
        1    1    3    3  502    0 -0.37911506743E+03 -0.54384579106E+03 -0.27834909010E+03  0.71900952343E+03  0.50400001928E-02 0.  1.
       -1    1    3    3    0  502  0.37911506743E+03  0.54384579106E+03  0.64030593639E+03  0.92167682568E+03  0.50400001928E-02 0. -1.
</event>
<event>
 5   0  0.2147844E-05  0.1598098E+04  0.7818609E-02  0.8821717E-01
       -2   -1    0    0    0  501  0.00000000000E+00  0.00000000000E+00  0.75002931058E+03  0.75002931058E+03  0.25500000920E-02 0. -1.
        2   -1    0    0  501    0  0.00000000000E+00  0.00000000000E+00 -0.85127293902E+03  0.85127293903E+03  0.25500000920E-02 0.  1.
    10030    2    1    2    0    0  0.00000000000E+00  0.00000000000E+00 -0.10124362844E+03  0.16013022496E+04  0.15980984395E+04 0.  0.
        2    1    3    3  502    0  0.73742939223E+03 -0.13137402595E+03  0.22817763840E+03  0.78302380417E+03  0.25500000920E-02 0. -1.
       -2    1    3    3    0  502 -0.73742939223E+03  0.13137402595E+03 -0.32942126684E+03  0.81827844544E+03  0.25500000920E-02 0.  1.
</event>
<event>
 5   0  0.1994525E-05  0.1600358E+04  0.7818609E-02  0.8820328E-01
        2   -1    0    0  501    0  0.00000000000E+00  0.00000000000E+00  0.21878693862E+04  0.21878693862E+04  0.25500000920E-02 0. -1.
       -2   -1    0    0    0  501  0.00000000000E+00  0.00000000000E+00 -0.29265313108E+03  0.29265313109E+03  0.25500000920E-02 0.  1.
    10030    2    1    2    0    0  0.00000000000E+00  0.00000000000E+00  0.18952162551E+04  0.24805225172E+04  0.16003584927E+04 0.  0.
        5    1    3    3  502    0 -0.34906065155E+03  0.10533918192E+03  0.20516080687E+04  0.20837604083E+04  0.46999998093E+01 0. -1.
       -5    1    3    3    0  502  0.34906065155E+03 -0.10533918192E+03 -0.15639181363E+03  0.39676210892E+03  0.46999998093E+01 0.  1.
</event>
<event>
 5   0  0.1081831E-05  0.1599466E+04  0.7818609E-02  0.8820876E-01
       -1   -1    0    0    0  501  0.00000000000E+00  0.00000000000E+00  0.76196523303E+03  0.76196523304E+03  0.50400001928E-02 0. -1.
        1   -1    0    0  501    0  0.00000000000E+00  0.00000000000E+00 -0.83937256683E+03  0.83937256684E+03  0.50400001928E-02 0.  1.
    10030    2    1    2    0    0  0.00000000000E+00  0.00000000000E+00 -0.77407333799E+02  0.16013377999E+04  0.15994658027E+04 0.  0.
        3    1    3    3  502    0 -0.73157547318E+03 -0.29047211008E+03 -0.18027632371E+03  0.80751240411E+03  0.10100000352E+00 0.  1.
       -3    1    3    3    0  502  0.73157547318E+03  0.29047211008E+03  0.10286898991E+03  0.79382539578E+03  0.10100000352E+00 0. -1.
</event>
<event>
 5   0  0.1057506E-05  0.1600129E+04  0.7818609E-02  0.8820469E-01
       -1   -1    0    0    0  501  0.00000000000E+00  0.00000000000E+00  0.41242661997E+03  0.41242662001E+03  0.50400001928E-02 0. -1.
        1   -1    0    0  501    0  0.00000000000E+00  0.00000000000E+00 -0.15520421452E+04  0.15520421452E+04  0.50400001928E-02 0.  1.
    10030    2    1    2    0    0  0.00000000000E+00  0.00000000000E+00 -0.11396155252E+04  0.19644687652E+04  0.16001293648E+04 0.  0.
        5    1    3    3  502    0  0.35287471135E+03  0.97237306927E+02 -0.14432026967E+04  0.14889028744E+04  0.46999998093E+01 0.  1.
       -5    1    3    3    0  502 -0.35287471135E+03 -0.97237306927E+02  0.30358717148E+03  0.47556589076E+03  0.46999998093E+01 0. -1.
</event>
<event>
 5   0  0.2147844E-05  0.1600355E+04  0.7818609E-02  0.8820330E-01
       -2   -1    0    0    0  501  0.00000000000E+00  0.00000000000E+00  0.43952785701E+03  0.43952785702E+03  0.25500000920E-02 0. -1.
        2   -1    0    0  501    0  0.00000000000E+00  0.00000000000E+00 -0.14567539971E+04  0.14567539971E+04  0.25500000920E-02 0.  1.
    10030    2    1    2    0    0  0.00000000000E+00  0.00000000000E+00 -0.10172261400E+04  0.18962818541E+04  0.16003549138E+04 0.  0.
        2    1    3    3  502    0  0.51404334016E+03  0.41202618018E+03  0.29548724184E+02  0.65945375564E+03  0.25500000920E-02 0. -1.
       -2    1    3    3    0  502 -0.51404334016E+03 -0.41202618018E+03 -0.10467748642E+04  0.12368280984E+04  0.25500000920E-02 0.  1.
</event>
<event>
 5   0  0.1090674E-05  0.1600403E+04  0.7818609E-02  0.8820301E-01
        1   -1    0    0  501    0  0.00000000000E+00  0.00000000000E+00  0.15508799879E+04  0.15508799879E+04  0.50400001928E-02 0. -1.
       -1   -1    0    0    0  501  0.00000000000E+00  0.00000000000E+00 -0.41287669417E+03  0.41287669420E+03  0.50400001928E-02 0.  1.
    10030    2    1    2    0    0  0.00000000000E+00  0.00000000000E+00  0.11380032937E+04  0.19637566821E+04  0.16004027024E+04 0.  0.
        4    1    3    3  502    0 -0.15387405561E+03  0.77685693146E+03  0.42836416279E+03  0.90037846809E+03  0.12699999809E+01 0.  1.
       -4    1    3    3    0  502  0.15387405561E+03 -0.77685693146E+03  0.70963913092E+03  0.10633782140E+04  0.12699999809E+01 0. -1.
</event>
<event>
 5   0  0.2125803E-05  0.1600060E+04  0.7818609E-02  0.8820511E-01
       -2   -1    0    0    0  501  0.00000000000E+00  0.00000000000E+00  0.91439612526E+03  0.91439612526E+03  0.25500000920E-02 0.  1.
        2   -1    0    0  501    0  0.00000000000E+00  0.00000000000E+00 -0.69996754805E+03  0.69996754805E+03  0.25500000920E-02 0. -1.
    10030    2    1    2    0    0  0.00000000000E+00  0.00000000000E+00  0.21442857721E+03  0.16143636733E+04  0.16000595161E+04 0.  0.
        3    1    3    3  502    0 -0.37816990563E+03 -0.57100591844E+03  0.52441712458E+03  0.86259699001E+03  0.10100000352E+00 0.  1.
       -3    1    3    3    0  502  0.37816990563E+03  0.57100591844E+03 -0.30998854738E+03  0.75176668330E+03  0.10100000352E+00 0. -1.
</event>
<event>
 5   0  0.1994525E-05  0.1599841E+04  0.7818609E-02  0.8820646E-01
        2   -1    0    0  501    0  0.00000000000E+00  0.00000000000E+00  0.11989968130E+04  0.11989968130E+04  0.25500000920E-02 0. -1.
       -2   -1    0    0    0  501  0.00000000000E+00  0.00000000000E+00 -0.53367364682E+03  0.53367364683E+03  0.25500000920E-02 0.  1.
    10030    2    1    2    0    0  0.00000000000E+00  0.00000000000E+00  0.66532316621E+03  0.17326704599E+04  0.15998412443E+04 0.  0.
        5    1    3    3  502    0  0.45162094001E+03  0.54805086546E+03 -0.66047656768E+02  0.71323601111E+03  0.46999998093E+01 0.  1.
       -5    1    3    3    0  502 -0.45162094001E+03 -0.54805086546E+03  0.73137082298E+03  0.10194344487E+04  0.46999998093E+01 0. -1.
</event>
<event>
 5   0  0.2046108E-05  0.1593215E+04  0.7818609E-02  0.8824727E-01
       -2   -1    0    0    0  501  0.00000000000E+00  0.00000000000E+00  0.39466336876E+03  0.39466336876E+03  0.25500000920E-02 0.  1.
        2   -1    0    0  501    0  0.00000000000E+00  0.00000000000E+00 -0.16079109174E+04  0.16079109174E+04  0.25500000920E-02 0. -1.
    10030    2    1    2    0    0  0.00000000000E+00  0.00000000000E+00 -0.12132475486E+04  0.20025742861E+04  0.15932150380E+04 0.  0.
        1    1    3    3  502    0 -0.73210478263E+03  0.13868766866E+03 -0.96074137196E+03  0.12158271530E+04  0.50400001928E-02 0. -1.
       -1    1    3    3    0  502  0.73210478263E+03 -0.13868766866E+03 -0.25250617665E+03  0.78674713311E+03  0.50400001928E-02 0.  1.
</event>
<event>
 5   0  0.1090674E-05  0.1600186E+04  0.7818609E-02  0.8820434E-01
       -1   -1    0    0    0  501  0.00000000000E+00  0.00000000000E+00  0.62834340407E+03  0.62834340409E+03  0.50400001928E-02 0.  1.
        1   -1    0    0  501    0  0.00000000000E+00  0.00000000000E+00 -0.10187882859E+04  0.10187882859E+04  0.50400001928E-02 0. -1.
    10030    2    1    2    0    0  0.00000000000E+00  0.00000000000E+00 -0.39044488186E+03  0.16471316900E+04  0.16001861137E+04 0.  0.
        4    1    3    3  502    0 -0.49700265746E+03  0.60854921718E+03 -0.39783962076E+02  0.78671987886E+03  0.12699999809E+01 0.  1.
       -4    1    3    3    0  502  0.49700265746E+03 -0.60854921718E+03 -0.35066091978E+03  0.86041181118E+03  0.12699999809E+01 0. -1.
</event>
<event>
 5   0  0.2046108E-05  0.1598601E+04  0.7818609E-02  0.8821408E-01
       -2   -1    0    0    0  501  0.00000000000E+00  0.00000000000E+00  0.48925921121E+03  0.48925921122E+03  0.25500000920E-02 0. -1.
        2   -1    0    0  501    0  0.00000000000E+00  0.00000000000E+00 -0.13058139494E+04  0.13058139494E+04  0.25500000920E-02 0.  1.
    10030    2    1    2    0    0  0.00000000000E+00  0.00000000000E+00 -0.81655473819E+03  0.17950731606E+04  0.15986012672E+04 0.  0.
        1    1    3    3  502    0  0.27752296081E+03 -0.70100250872E+03 -0.11021501229E+03  0.76195200634E+03  0.50400001928E-02 0. -1.
       -1    1    3    3    0  502 -0.27752296081E+03  0.70100250872E+03 -0.70633972590E+03  0.10331211543E+04  0.50400001928E-02 0.  1.
</event>
<event>
 5   0  0.1060251E-05  0.1600202E+04  0.7818609E-02  0.8820424E-01
       -1   -1    0    0    0  501  0.00000000000E+00  0.00000000000E+00  0.67114088090E+03  0.67114088092E+03  0.50400001928E-02 0. -1.
        1   -1    0    0  501    0  0.00000000000E+00  0.00000000000E+00 -0.95384081493E+03  0.95384081495E+03  0.50400001928E-02 0.  1.
    10030    2    1    2    0    0  0.00000000000E+00  0.00000000000E+00 -0.28269993404E+03  0.16249816959E+04  0.16002019433E+04 0.  0.
        1    1    3    3  502    0 -0.49111468487E+03  0.56986193767E+03 -0.41801206737E+03  0.86062207164E+03  0.50400001928E-02 0.  1.
       -1    1    3    3    0  502  0.49111468487E+03 -0.56986193767E+03  0.13531213333E+03  0.76435962423E+03  0.50400001928E-02 0. -1.
</event>
<event>
 5   0  0.1990948E-05  0.1600346E+04  0.7818609E-02  0.8820335E-01
       -2   -1    0    0    0  501  0.00000000000E+00  0.00000000000E+00  0.90825240829E+03  0.90825240829E+03  0.25500000920E-02 0.  1.
        2   -1    0    0  501    0  0.00000000000E+00  0.00000000000E+00 -0.70495502322E+03  0.70495502322E+03  0.25500000920E-02 0. -1.
    10030    2    1    2    0    0  0.00000000000E+00  0.00000000000E+00  0.20329738507E+03  0.16132074315E+04  0.16003463345E+04 0.  0.
        4    1    3    3  502    0  0.72953677186E+03 -0.26055459859E+03 -0.10036866303E+03  0.78114536532E+03  0.12699999809E+01 0.  1.
       -4    1    3    3    0  502 -0.72953677186E+03  0.26055459859E+03  0.30366604809E+03  0.83206206620E+03  0.12699999809E+01 0. -1.
</event>
<event>
 5   0  0.1060251E-05  0.1601240E+04  0.7818609E-02  0.8819786E-01
       -1   -1    0    0    0  501  0.00000000000E+00  0.00000000000E+00  0.75334302163E+03  0.75334302164E+03  0.50400001928E-02 0. -1.
        1   -1    0    0  501    0  0.00000000000E+00  0.00000000000E+00 -0.85086438332E+03  0.85086438333E+03  0.50400001928E-02 0.  1.
    10030    2    1    2    0    0  0.00000000000E+00  0.00000000000E+00 -0.97521361693E+02  0.16042074050E+04  0.16012404511E+04 0.  0.
        1    1    3    3  502    0  0.14384659557E+03 -0.32643029781E+03  0.66932689738E+03  0.75845044529E+03  0.50400001928E-02 0. -1.
       -1    1    3    3    0  502 -0.14384659557E+03  0.32643029781E+03 -0.76684825907E+03  0.84575695968E+03  0.50400001928E-02 0.  1.
</event>
<event>
 5   0  0.1994525E-05  0.1599913E+04  0.7818609E-02  0.8820601E-01
       -2   -1    0    0    0  501  0.00000000000E+00  0.00000000000E+00  0.72847834130E+03  0.72847834130E+03  0.25500000920E-02 0. -1.
        2   -1    0    0  501    0  0.00000000000E+00  0.00000000000E+00 -0.87844841306E+03  0.87844841306E+03  0.25500000920E-02 0.  1.
    10030    2    1    2    0    0  0.00000000000E+00  0.00000000000E+00 -0.14997007176E+03  0.16069267544E+04  0.15999133012E+04 0.  0.
        5    1    3    3  502    0 -0.35784315693E+03  0.16506833151E+03  0.62420542245E+03  0.73820984716E+03  0.46999998093E+01 0. -1.
       -5    1    3    3    0  502  0.35784315693E+03 -0.16506833151E+03 -0.77417549421E+03  0.86871690721E+03  0.46999998093E+01 0.  1.
</event>
<event>
 5   0  0.1994525E-05  0.1601350E+04  0.7818609E-02  0.8819719E-01
       -2   -1    0    0    0  501  0.00000000000E+00  0.00000000000E+00  0.51685089798E+03  0.51685089799E+03  0.25500000920E-02 0. -1.
        2   -1    0    0  501    0  0.00000000000E+00  0.00000000000E+00 -0.12403592186E+04  0.12403592186E+04  0.25500000920E-02 0.  1.
    10030    2    1    2    0    0  0.00000000000E+00  0.00000000000E+00 -0.72350832064E+03  0.17572101166E+04  0.16013504001E+04 0.  0.
        5    1    3    3  502    0 -0.46188321513E+02 -0.19134666134E+03 -0.12133783739E+04  0.12292502081E+04  0.46999998093E+01 0.  1.
       -5    1    3    3    0  502  0.46188321513E+02  0.19134666134E+03  0.48987005330E+03  0.52795990848E+03  0.46999998093E+01 0. -1.
</event>
<event>
 5   0  0.2147844E-05  0.1601060E+04  0.7818609E-02  0.8819897E-01
        2   -1    0    0  501    0  0.00000000000E+00  0.00000000000E+00  0.12901804750E+04  0.12901804750E+04  0.25500000920E-02 0.  1.
       -2   -1    0    0    0  501  0.00000000000E+00  0.00000000000E+00 -0.49671193809E+03  0.49671193809E+03  0.25500000920E-02 0. -1.
    10030    2    1    2    0    0  0.00000000000E+00  0.00000000000E+00  0.79346853696E+03  0.17868924131E+04  0.16010597044E+04 0.  0.
        2    1    3    3  502    0  0.13179136856E+03 -0.39162601504E+03 -0.36849181489E+03  0.55364800924E+03  0.25500000920E-02 0. -1.
       -2    1    3    3    0  502 -0.13179136856E+03  0.39162601504E+03  0.11619603519E+04  0.12332444039E+04  0.25500000920E-02 0.  1.
</event>
<event>
 5   0  0.2147844E-05  0.1602064E+04  0.7818609E-02  0.8819281E-01
        2   -1    0    0  501    0  0.00000000000E+00  0.00000000000E+00  0.14187984994E+04  0.14187984994E+04  0.25500000920E-02 0. -1.
       -2   -1    0    0    0  501  0.00000000000E+00  0.00000000000E+00 -0.45225063539E+03  0.45225063539E+03  0.25500000920E-02 0.  1.
    10030    2    1    2    0    0  0.00000000000E+00  0.00000000000E+00  0.96654786401E+03  0.18710491348E+04  0.16020643219E+04 0.  0.
        2    1    3    3  502    0  0.66535296060E+03  0.11528036011E+03 -0.19965009588E+02  0.67556104477E+03  0.25500000920E-02 0. -1.
       -2    1    3    3    0  502 -0.66535296060E+03 -0.11528036011E+03  0.98651287360E+03  0.11954880900E+04  0.25500000920E-02 0.  1.
</event>
<event>
 5   0  0.2046108E-05  0.1612646E+04  0.7818609E-02  0.8812816E-01
        2   -1    0    0  501    0  0.00000000000E+00  0.00000000000E+00  0.89572482818E+03  0.89572482818E+03  0.25500000920E-02 0. -1.
       -2   -1    0    0    0  501  0.00000000000E+00  0.00000000000E+00 -0.72584457884E+03  0.72584457885E+03  0.25500000920E-02 0.  1.
    10030    2    1    2    0    0  0.00000000000E+00  0.00000000000E+00  0.16988024934E+03  0.16215694070E+04  0.16126462857E+04 0.  0.
        1    1    3    3  502    0 -0.80294172843E+03 -0.72754521693E+02  0.72691963744E+02  0.80950155114E+03  0.50400001928E-02 0.  1.
       -1    1    3    3    0  502  0.80294172843E+03  0.72754521693E+02  0.97188285591E+02  0.81206785589E+03  0.50400001928E-02 0. -1.
</event>
<event>
 5   0  0.1057506E-05  0.1600075E+04  0.7818609E-02  0.8820502E-01
        1   -1    0    0  501    0  0.00000000000E+00  0.00000000000E+00  0.18642602814E+04  0.18642602814E+04  0.50400001928E-02 0.  1.
       -1   -1    0    0    0  501  0.00000000000E+00  0.00000000000E+00 -0.34333195214E+03  0.34333195217E+03  0.50400001928E-02 0. -1.
    10030    2    1    2    0    0  0.00000000000E+00  0.00000000000E+00  0.15209283293E+04  0.22075922336E+04  0.16000751504E+04 0.  0.
        5    1    3    3  502    0  0.79321494165E+01 -0.53025719861E+03  0.15868943214E+04  0.16731680408E+04  0.46999998093E+01 0.  1.
       -5    1    3    3    0  502 -0.79321494165E+01  0.53025719861E+03 -0.65965992119E+02  0.53442419274E+03  0.46999998093E+01 0. -1.
</event>
<event>
 5   0  0.1081831E-05  0.1600109E+04  0.7818609E-02  0.8820481E-01
        1   -1    0    0  501    0  0.00000000000E+00  0.00000000000E+00  0.14288323985E+04  0.14288323986E+04  0.50400001928E-02 0.  1.
       -1   -1    0    0    0  501  0.00000000000E+00  0.00000000000E+00 -0.44797901550E+03  0.44797901553E+03  0.50400001928E-02 0. -1.
    10030    2    1    2    0    0  0.00000000000E+00  0.00000000000E+00  0.98085338304E+03  0.18768114141E+04  0.16001086604E+04 0.  0.
        3    1    3    3  502    0  0.42537237992E+03 -0.42128740766E+03 -0.13206767868E+03  0.61307962240E+03  0.10100000352E+00 0. -1.
       -3    1    3    3    0  502 -0.42537237992E+03  0.42128740766E+03  0.11129210617E+04  0.12637317917E+04  0.10100000352E+00 0.  1.
</event>
<event>
 5   0  0.7597000E-06  0.1599714E+04  0.7818609E-02  0.8820724E-01
        3   -1    0    0  501    0  0.00000000000E+00  0.00000000000E+00  0.11004000639E+04  0.11004000685E+04  0.10100000352E+00 0. -1.
       -3   -1    0    0    0  501  0.00000000000E+00  0.00000000000E+00 -0.58139895714E+03  0.58139896592E+03  0.10100000352E+00 0.  1.
    10030    2    1    2    0    0  0.00000000000E+00  0.00000000000E+00  0.51900110671E+03  0.16817990344E+04  0.15997143005E+04 0.  0.
        5    1    3    3  502    0 -0.53127596196E+03 -0.19815991817E+02 -0.36874315367E+03  0.64702428445E+03  0.46999998093E+01 0.  1.
       -5    1    3    3    0  502  0.53127596196E+03  0.19815991817E+02  0.88774426039E+03  0.10347747500E+04  0.46999998093E+01 0. -1.
</event>
<event>
 5   0  0.2125803E-05  0.1599954E+04  0.7818609E-02  0.8820576E-01
       -2   -1    0    0    0  501  0.00000000000E+00  0.00000000000E+00  0.51639645747E+03  0.51639645747E+03  0.25500000920E-02 0.  1.
        2   -1    0    0  501    0  0.00000000000E+00  0.00000000000E+00 -0.12392866719E+04  0.12392866719E+04  0.25500000920E-02 0. -1.
    10030    2    1    2    0    0  0.00000000000E+00  0.00000000000E+00 -0.72289021444E+03  0.17556831294E+04  0.15999540583E+04 0.  0.
        3    1    3    3  502    0  0.56868083999E+03 -0.48645114708E+03 -0.51206946943E+02  0.75010317816E+03  0.10100000352E+00 0.  1.
       -3    1    3    3    0  502 -0.56868083999E+03  0.48645114708E+03 -0.67168326750E+03  0.10055799512E+04  0.10100000352E+00 0. -1.
</event>
<event>
 5   0  0.1060251E-05  0.1599731E+04  0.7818609E-02  0.8820713E-01
       -1   -1    0    0    0  501  0.00000000000E+00  0.00000000000E+00  0.55321489103E+03  0.55321489106E+03  0.50400001928E-02 0.  1.
        1   -1    0    0  501    0  0.00000000000E+00  0.00000000000E+00 -0.11564857414E+04  0.11564857415E+04  0.50400001928E-02 0. -1.
    10030    2    1    2    0    0  0.00000000000E+00  0.00000000000E+00 -0.60327085041E+03  0.17097006325E+04  0.15997313943E+04 0.  0.
        1    1    3    3  502    0 -0.14007373777E+03  0.87559363985E+01  0.53995270829E+03  0.55789447537E+03  0.50400001928E-02 0.  1.
       -1    1    3    3    0  502  0.14007373777E+03 -0.87559363985E+01 -0.11432235587E+04  0.11518061571E+04  0.50400001928E-02 0. -1.
</event>
<event>
 5   0  0.2147844E-05  0.1600081E+04  0.7818609E-02  0.8820498E-01
        2   -1    0    0  501    0  0.00000000000E+00  0.00000000000E+00  0.99651651798E+03  0.99651651798E+03  0.25500000920E-02 0. -1.
       -2   -1    0    0    0  501  0.00000000000E+00  0.00000000000E+00 -0.64230192681E+03  0.64230192681E+03  0.25500000920E-02 0.  1.
    10030    2    1    2    0    0  0.00000000000E+00  0.00000000000E+00  0.35421459117E+03  0.16388184448E+04  0.16000805975E+04 0.  0.
        2    1    3    3  502    0 -0.68032946446E+03 -0.41735625149E+03  0.23348592414E+03  0.83159491199E+03  0.25500000920E-02 0. -1.
       -2    1    3    3    0  502  0.68032946446E+03  0.41735625149E+03  0.12072866703E+03  0.80722353281E+03  0.25500000920E-02 0.  1.
</event>
<event>
 5   0  0.1090674E-05  0.1599801E+04  0.7818609E-02  0.8820670E-01
        1   -1    0    0  501    0  0.00000000000E+00  0.00000000000E+00  0.16506073625E+04  0.16506073625E+04  0.50400001928E-02 0.  1.
       -1   -1    0    0    0  501  0.00000000000E+00  0.00000000000E+00 -0.38763947931E+03  0.38763947934E+03  0.50400001928E-02 0. -1.
    10030    2    1    2    0    0  0.00000000000E+00  0.00000000000E+00  0.12629678832E+04  0.20382468418E+04  0.15998007108E+04 0.  0.
        4    1    3    3  502    0 -0.13909876132E+03  0.41471038638E+03 -0.22176335788E+03  0.49042203230E+03  0.12699999809E+01 0. -1.
       -4    1    3    3    0  502  0.13909876132E+03 -0.41471038638E+03  0.14847312411E+04  0.15478248095E+04  0.12699999809E+01 0.  1.
</event>
<event>
 5   0  0.1060251E-05  0.1600845E+04  0.7818609E-02  0.8820029E-01
        1   -1    0    0  501    0  0.00000000000E+00  0.00000000000E+00  0.82143768176E+03  0.82143768177E+03  0.50400001928E-02 0.  1.
       -1   -1    0    0    0  501  0.00000000000E+00  0.00000000000E+00 -0.77994520418E+03  0.77994520420E+03  0.50400001928E-02 0. -1.
    10030    2    1    2    0    0  0.00000000000E+00  0.00000000000E+00  0.41492477573E+02  0.16013828860E+04  0.16008452523E+04 0.  0.
        1    1    3    3  502    0  0.28433497041E+03 -0.69194481810E+03  0.30552126929E+03  0.80807007908E+03  0.50400001928E-02 0.  1.
       -1    1    3    3    0  502 -0.28433497041E+03  0.69194481810E+03 -0.26402879172E+03  0.79331280689E+03  0.50400001928E-02 0. -1.
</event>
<event>
 5   0  0.1126485E-05  0.1600239E+04  0.7818609E-02  0.8820401E-01
       -1   -1    0    0    0  501  0.00000000000E+00  0.00000000000E+00  0.62300433900E+03  0.62300433903E+03  0.50400001928E-02 0. -1.
        1   -1    0    0  501    0  0.00000000000E+00  0.00000000000E+00 -0.10275872448E+04  0.10275872448E+04  0.50400001928E-02 0.  1.
    10030    2    1    2    0    0  0.00000000000E+00  0.00000000000E+00 -0.40458290582E+03  0.16505915839E+04  0.16002391225E+04 0.  0.
        2    1    3    3  502    0  0.17671398918E+03  0.27833970060E+03  0.54968196968E+03  0.64097666939E+03  0.25500000920E-02 0. -1.
       -2    1    3    3    0  502 -0.17671398918E+03 -0.27833970060E+03 -0.95426487551E+03  0.10096149145E+04  0.25500000920E-02 0.  1.
</event>
<event>
 5   0  0.1081831E-05  0.1599628E+04  0.7818609E-02  0.8820776E-01
       -1   -1    0    0    0  501  0.00000000000E+00  0.00000000000E+00  0.63817635042E+03  0.63817635044E+03  0.50400001928E-02 0. -1.
        1   -1    0    0  501    0  0.00000000000E+00  0.00000000000E+00 -0.10023914868E+04  0.10023914868E+04  0.50400001928E-02 0.  1.
    10030    2    1    2    0    0  0.00000000000E+00  0.00000000000E+00 -0.36421513634E+03  0.16405678372E+04  0.15996281327E+04 0.  0.
        3    1    3    3  502    0  0.70843529534E+02  0.45443715591E+03  0.48898677714E+03  0.67129726110E+03  0.10100000352E+00 0. -1.
       -3    1    3    3    0  502 -0.70843529534E+02 -0.45443715591E+03 -0.85320191347E+03  0.96927057611E+03  0.10100000352E+00 0.  1.
</event>
<event>
 5   0  0.1990948E-05  0.1596482E+04  0.7818609E-02  0.8822712E-01
       -2   -1    0    0    0  501  0.00000000000E+00  0.00000000000E+00  0.92528364716E+03  0.92528364716E+03  0.25500000920E-02 0.  1.
        2   -1    0    0  501    0  0.00000000000E+00  0.00000000000E+00 -0.68864173603E+03  0.68864173603E+03  0.25500000920E-02 0. -1.
    10030    2    1    2    0    0  0.00000000000E+00  0.00000000000E+00  0.23664191113E+03  0.16139253832E+04  0.15964823044E+04 0.  0.
        4    1    3    3  502    0  0.68750875538E+03 -0.33072037939E+03  0.35571225531E+03  0.84177020590E+03  0.12699999809E+01 0.  1.
       -4    1    3    3    0  502 -0.68750875538E+03  0.33072037939E+03 -0.11907034418E+03  0.77215517730E+03  0.12699999809E+01 0. -1.
</event>
<event>
 5   0  0.1990948E-05  0.1600710E+04  0.7818609E-02  0.8820112E-01
        2   -1    0    0  501    0  0.00000000000E+00  0.00000000000E+00  0.10596605335E+04  0.10596605335E+04  0.25500000920E-02 0. -1.
       -2   -1    0    0    0  501  0.00000000000E+00  0.00000000000E+00 -0.60450304505E+03  0.60450304506E+03  0.25500000920E-02 0.  1.
    10030    2    1    2    0    0  0.00000000000E+00  0.00000000000E+00  0.45515748847E+03  0.16641635786E+04  0.16007098666E+04 0.  0.
        4    1    3    3  502    0 -0.27604141163E+03 -0.65688340262E+03  0.60654426925E+03  0.93573085288E+03  0.12699999809E+01 0. -1.
       -4    1    3    3    0  502  0.27604141163E+03  0.65688340262E+03 -0.15138678079E+03  0.72843272570E+03  0.12699999809E+01 0.  1.
</event>
<event>
 5   0  0.1126485E-05  0.1599943E+04  0.7818609E-02  0.8820583E-01
        1   -1    0    0  501    0  0.00000000000E+00  0.00000000000E+00  0.10734465942E+04  0.10734465942E+04  0.50400001928E-02 0. -1.
       -1   -1    0    0    0  501  0.00000000000E+00  0.00000000000E+00 -0.59616771248E+03  0.59616771250E+03  0.50400001928E-02 0.  1.
    10030    2    1    2    0    0  0.00000000000E+00  0.00000000000E+00  0.47727888174E+03  0.16696143067E+04  0.15999427497E+04 0.  0.
        2    1    3    3  502    0  0.10380525726E+03  0.66746544867E+03  0.68586756483E+03  0.96265257133E+03  0.25500000920E-02 0. -1.
       -2    1    3    3    0  502 -0.10380525726E+03 -0.66746544867E+03 -0.20858868309E+03  0.70696173540E+03  0.25500000920E-02 0.  1.
</event>
<event>
 5   0  0.1990948E-05  0.1600709E+04  0.7818609E-02  0.8820112E-01
       -2   -1    0    0    0  501  0.00000000000E+00  0.00000000000E+00  0.10072959393E+04  0.10072959393E+04  0.25500000920E-02 0.  1.
        2   -1    0    0  501    0  0.00000000000E+00  0.00000000000E+00 -0.63592788685E+03  0.63592788685E+03  0.25500000920E-02 0. -1.
    10030    2    1    2    0    0  0.00000000000E+00  0.00000000000E+00  0.37136805249E+03  0.16432238262E+04  0.16007093154E+04 0.  0.
        4    1    3    3  502    0  0.25797245129E+03  0.69713698560E+03 -0.11887085567E+03  0.75278260842E+03  0.12699999809E+01 0.  1.
       -4    1    3    3    0  502 -0.25797245129E+03 -0.69713698560E+03  0.49023890816E+03  0.89044121776E+03  0.12699999809E+01 0. -1.
</event>
<event>
 5   0  0.2046108E-05  0.1599536E+04  0.7818609E-02  0.8820833E-01
        2   -1    0    0  501    0  0.00000000000E+00  0.00000000000E+00  0.10771782807E+04  0.10771782807E+04  0.25500000920E-02 0. -1.
       -2   -1    0    0    0  501  0.00000000000E+00  0.00000000000E+00 -0.59380056461E+03  0.59380056461E+03  0.25500000920E-02 0.  1.
    10030    2    1    2    0    0  0.00000000000E+00  0.00000000000E+00  0.48337771605E+03  0.16709788453E+04  0.15995362719E+04 0.  0.
        1    1    3    3  502    0  0.88822275283E+02 -0.68144964913E+03  0.66906526405E+03  0.95912009075E+03  0.50400001928E-02 0. -1.
       -1    1    3    3    0  502 -0.88822275283E+02  0.68144964913E+03 -0.18568754799E+03  0.71185875453E+03  0.50400001928E-02 0.  1.
</event>
<event>
 5   0  0.1990948E-05  0.1600080E+04  0.7818609E-02  0.8820499E-01
       -2   -1    0    0    0  501  0.00000000000E+00  0.00000000000E+00  0.15794947925E+04  0.15794947925E+04  0.25500000920E-02 0. -1.
        2   -1    0    0  501    0  0.00000000000E+00  0.00000000000E+00 -0.40523359307E+03  0.40523359308E+03  0.25500000920E-02 0.  1.
    10030    2    1    2    0    0  0.00000000000E+00  0.00000000000E+00  0.11742611995E+04  0.19847283856E+04  0.16000804355E+04 0.  0.
        4    1    3    3  502    0 -0.21511395738E+03 -0.62417777336E+03  0.26628320563E+02  0.66074396537E+03  0.12699999809E+01 0.  1.
       -4    1    3    3    0  502  0.21511395738E+03  0.62417777336E+03  0.11476328789E+04  0.13239844203E+04  0.12699999809E+01 0. -1.
</event>
<event>
 5   0  0.1057506E-05  0.1600032E+04  0.7818609E-02  0.8820528E-01
        1   -1    0    0  501    0  0.00000000000E+00  0.00000000000E+00  0.61872133120E+03  0.61872133122E+03  0.50400001928E-02 0.  1.
       -1   -1    0    0    0  501  0.00000000000E+00  0.00000000000E+00 -0.10344324453E+04  0.10344324453E+04  0.50400001928E-02 0. -1.
    10030    2    1    2    0    0  0.00000000000E+00  0.00000000000E+00 -0.41571111411E+03  0.16531537765E+04  0.16000317742E+04 0.  0.
        5    1    3    3  502    0  0.66572293846E+03 -0.21769932139E+03 -0.60724245580E+03  0.92700890796E+03  0.46999998093E+01 0. -1.
       -5    1    3    3    0  502 -0.66572293846E+03  0.21769932139E+03  0.19153134169E+03  0.72614486858E+03  0.46999998093E+01 0.  1.
</event>
<event>
 5   0  0.1994525E-05  0.1599359E+04  0.7818609E-02  0.8820942E-01
        2   -1    0    0  501    0  0.00000000000E+00  0.00000000000E+00  0.98514320019E+03  0.98514320019E+03  0.25500000920E-02 0. -1.
       -2   -1    0    0    0  501  0.00000000000E+00  0.00000000000E+00 -0.64913134226E+03  0.64913134226E+03  0.25500000920E-02 0.  1.
    10030    2    1    2    0    0  0.00000000000E+00  0.00000000000E+00  0.33601185793E+03  0.16342745425E+04  0.15993590314E+04 0.  0.
        5    1    3    3  502    0  0.17316352079E+03  0.27855994727E+03 -0.57721922770E+03  0.66391669356E+03  0.46999998093E+01 0. -1.
       -5    1    3    3    0  502 -0.17316352079E+03 -0.27855994727E+03  0.91323108563E+03  0.97035784890E+03  0.46999998093E+01 0.  1.
</event>
<event>
 5   0  0.1057506E-05  0.1599084E+04  0.7818609E-02  0.8821111E-01
       -1   -1    0    0    0  501  0.00000000000E+00  0.00000000000E+00  0.77852086880E+03  0.77852086882E+03  0.50400001928E-02 0. -1.
        1   -1    0    0  501    0  0.00000000000E+00  0.00000000000E+00 -0.82113022701E+03  0.82113022702E+03  0.50400001928E-02 0.  1.
    10030    2    1    2    0    0  0.00000000000E+00  0.00000000000E+00 -0.42609358208E+02  0.15996510958E+04  0.15990835097E+04 0.  0.
        5    1    3    3  502    0  0.64912848705E+03  0.39774101384E+03 -0.26568469900E+03  0.80633501479E+03  0.46999998093E+01 0.  1.
       -5    1    3    3    0  502 -0.64912848705E+03 -0.39774101384E+03  0.22307534079E+03  0.79331608105E+03  0.46999998093E+01 0. -1.
</event>
<event>
 5   0  0.1081831E-05  0.1599671E+04  0.7818609E-02  0.8820750E-01
        1   -1    0    0  501    0  0.00000000000E+00  0.00000000000E+00  0.10311197879E+04  0.10311197879E+04  0.50400001928E-02 0.  1.
       -1   -1    0    0    0  501  0.00000000000E+00  0.00000000000E+00 -0.62042925795E+03  0.62042925797E+03  0.50400001928E-02 0. -1.
    10030    2    1    2    0    0  0.00000000000E+00  0.00000000000E+00  0.41069052991E+03  0.16515490458E+04  0.15996710723E+04 0.  0.
        3    1    3    3  502    0 -0.49727983203E+03  0.47429016128E+03  0.62788370763E+03  0.93084711363E+03  0.10100000352E+00 0.  1.
       -3    1    3    3    0  502  0.49727983203E+03 -0.47429016128E+03 -0.21719317773E+03  0.72070193221E+03  0.10100000352E+00 0. -1.
</event>
<event>
 5   0  0.1994525E-05  0.1600564E+04  0.7818609E-02  0.8820202E-01
       -2   -1    0    0    0  501  0.00000000000E+00  0.00000000000E+00  0.68689139785E+03  0.68689139785E+03  0.25500000920E-02 0. -1.
        2   -1    0    0  501    0  0.00000000000E+00  0.00000000000E+00 -0.93239078439E+03  0.93239078439E+03  0.25500000920E-02 0.  1.
    10030    2    1    2    0    0  0.00000000000E+00  0.00000000000E+00 -0.24549938654E+03  0.16192821822E+04  0.16005639122E+04 0.  0.
        5    1    3    3  502    0  0.74432252971E+03 -0.29377710573E+03 -0.13326855345E+03  0.81123585561E+03  0.46999998093E+01 0. -1.
       -5    1    3    3    0  502 -0.74432252971E+03  0.29377710573E+03 -0.11223083309E+03  0.80804632663E+03  0.46999998093E+01 0.  1.
</event>
<event>
 5   0  0.1060251E-05  0.1593930E+04  0.7818609E-02  0.8824286E-01
       -1   -1    0    0    0  501  0.00000000000E+00  0.00000000000E+00  0.84339835413E+03  0.84339835414E+03  0.50400001928E-02 0.  1.
        1   -1    0    0  501    0  0.00000000000E+00  0.00000000000E+00 -0.75308831786E+03  0.75308831787E+03  0.50400001928E-02 0. -1.
    10030    2    1    2    0    0  0.00000000000E+00  0.00000000000E+00  0.90310036272E+02  0.15964866720E+04  0.15939302969E+04 0.  0.
        1    1    3    3  502    0  0.54163596153E+03  0.24950095639E+03  0.57471197060E+03  0.82819930647E+03  0.50400001928E-02 0.  1.
       -1    1    3    3    0  502 -0.54163596153E+03 -0.24950095639E+03 -0.48440193432E+03  0.76828736555E+03  0.50400001928E-02 0. -1.
</event>
<event>
 5   0  0.1090674E-05  0.1599047E+04  0.7818609E-02  0.8821134E-01
       -1   -1    0    0    0  501  0.00000000000E+00  0.00000000000E+00  0.96527285970E+03  0.96527285972E+03  0.50400001928E-02 0. -1.
        1   -1    0    0  501    0  0.00000000000E+00  0.00000000000E+00 -0.66223541431E+03  0.66223541433E+03  0.50400001928E-02 0.  1.
    10030    2    1    2    0    0  0.00000000000E+00  0.00000000000E+00  0.30303744540E+03  0.16275082740E+04  0.15990470565E+04 0.  0.
        4    1    3    3  502    0 -0.11336538693E+03 -0.70833220373E+03 -0.20782343201E+03  0.74684564241E+03  0.12699999809E+01 0.  1.
       -4    1    3    3    0  502  0.11336538693E+03  0.70833220373E+03  0.51086087741E+03  0.88066263163E+03  0.12699999809E+01 0. -1.
</event>
<event>
 5   0  0.1057506E-05  0.1601116E+04  0.7818609E-02  0.8819863E-01
        1   -1    0    0  501    0  0.00000000000E+00  0.00000000000E+00  0.20718744724E+04  0.20718744724E+04  0.50400001928E-02 0.  1.
       -1   -1    0    0    0  501  0.00000000000E+00  0.00000000000E+00 -0.30932989731E+03  0.30932989735E+03  0.50400001928E-02 0. -1.
    10030    2    1    2    0    0  0.00000000000E+00  0.00000000000E+00  0.17625445751E+04  0.23812043698E+04  0.16011155085E+04 0.  0.
        5    1    3    3  502    0 -0.77711085950E+03 -0.18601442677E+03  0.80890165421E+03  0.11370341381E+04  0.46999998093E+01 0.  1.
       -5    1    3    3    0  502  0.77711085950E+03  0.18601442677E+03  0.95364292088E+03  0.12441702317E+04  0.46999998093E+01 0. -1.
</event>
<event>
 5   0  0.1060251E-05  0.1598744E+04  0.7818609E-02  0.8821320E-01
        1   -1    0    0  501    0  0.00000000000E+00  0.00000000000E+00  0.15226377081E+04  0.15226377081E+04  0.50400001928E-02 0. -1.
       -1   -1    0    0    0  501  0.00000000000E+00  0.00000000000E+00 -0.41966336862E+03  0.41966336865E+03  0.50400001928E-02 0.  1.
    10030    2    1    2    0    0  0.00000000000E+00  0.00000000000E+00  0.11029743395E+04  0.19423010768E+04  0.15987435940E+04 0.  0.
        1    1    3    3  502    0 -0.50874625484E+03 -0.54127990217E+03  0.91021704750E+03  0.11748624421E+04  0.50400001928E-02 0. -1.
       -1    1    3    3    0  502  0.50874625484E+03  0.54127990217E+03  0.19275729200E+03  0.76743863465E+03  0.50400001928E-02 0.  1.
</event>
<event>
 5   0  0.1060251E-05  0.1600060E+04  0.7818609E-02  0.8820511E-01
       -1   -1    0    0    0  501  0.00000000000E+00  0.00000000000E+00  0.47365378955E+03  0.47365378958E+03  0.50400001928E-02 0. -1.
        1   -1    0    0  501    0  0.00000000000E+00  0.00000000000E+00 -0.13512993002E+04  0.13512993002E+04  0.50400001928E-02 0.  1.
    10030    2    1    2    0    0  0.00000000000E+00  0.00000000000E+00 -0.87764551061E+03  0.18249530897E+04  0.16000600418E+04 0.  0.
        1    1    3    3  502    0 -0.33368119481E+02 -0.86837644628E+02 -0.13451094232E+04  0.13483225016E+04  0.50400001928E-02 0.  1.
       -1    1    3    3    0  502  0.33368119481E+02  0.86837644628E+02  0.46746391261E+03  0.47663058813E+03  0.50400001928E-02 0. -1.
</event>
<event>
 5   0  0.1990948E-05  0.1599387E+04  0.7818609E-02  0.8820925E-01
        2   -1    0    0  501    0  0.00000000000E+00  0.00000000000E+00  0.16162893998E+04  0.16162893998E+04  0.25500000920E-02 0. -1.
       -2   -1    0    0    0  501  0.00000000000E+00  0.00000000000E+00 -0.39566538771E+03  0.39566538772E+03  0.25500000920E-02 0.  1.
    10030    2    1    2    0    0  0.00000000000E+00  0.00000000000E+00  0.12206240121E+04  0.20119547875E+04  0.15993870977E+04 0.  0.
        4    1    3    3  502    0  0.25978132323E+03 -0.42966045074E+03 -0.17267062373E+03  0.53095310153E+03  0.12699999809E+01 0.  1.
       -4    1    3    3    0  502 -0.25978132323E+03  0.42966045074E+03  0.13932946358E+04  0.14810016860E+04  0.12699999809E+01 0. -1.
</event>
<event>
 5   0  0.1090674E-05  0.1599753E+04  0.7818609E-02  0.8820700E-01
       -1   -1    0    0    0  501  0.00000000000E+00  0.00000000000E+00  0.67059083155E+03  0.67059083156E+03  0.50400001928E-02 0. -1.
        1   -1    0    0  501    0  0.00000000000E+00  0.00000000000E+00 -0.95408734451E+03  0.95408734453E+03  0.50400001928E-02 0.  1.
    10030    2    1    2    0    0  0.00000000000E+00  0.00000000000E+00 -0.28349651297E+03  0.16246781761E+04  0.15997527631E+04 0.  0.
        4    1    3    3  502    0  0.65610797875E+03  0.35226087993E+03 -0.43824776933E+03  0.86407645931E+03  0.12699999809E+01 0.  1.
       -4    1    3    3    0  502 -0.65610797875E+03 -0.35226087993E+03  0.15475125637E+03  0.76060171678E+03  0.12699999809E+01 0. -1.
</event>
<event>
 5   0  0.1060251E-05  0.1597676E+04  0.7818609E-02  0.8821977E-01
       -1   -1    0    0    0  501  0.00000000000E+00  0.00000000000E+00  0.64723699881E+03  0.64723699883E+03  0.50400001928E-02 0.  1.
        1   -1    0    0  501    0  0.00000000000E+00  0.00000000000E+00 -0.98594758832E+03  0.98594758834E+03  0.50400001928E-02 0. -1.
    10030    2    1    2    0    0  0.00000000000E+00  0.00000000000E+00 -0.33871058951E+03  0.16331845872E+04  0.15976755091E+04 0.  0.
        1    1    3    3  502    0  0.40975232918E+03 -0.43938276145E+03 -0.70754275548E+03  0.92820845352E+03  0.50400001928E-02 0. -1.
       -1    1    3    3    0  502 -0.40975232918E+03  0.43938276145E+03  0.36883216598E+03  0.70497613365E+03  0.50400001928E-02 0.  1.
</event>
<event>
 5   0  0.1081831E-05  0.1600403E+04  0.7818609E-02  0.8820300E-01
       -1   -1    0    0    0  501  0.00000000000E+00  0.00000000000E+00  0.38411714723E+03  0.38411714726E+03  0.50400001928E-02 0. -1.
        1   -1    0    0  501    0  0.00000000000E+00  0.00000000000E+00 -0.16669979062E+04  0.16669979062E+04  0.50400001928E-02 0.  1.
    10030    2    1    2    0    0  0.00000000000E+00  0.00000000000E+00 -0.12828807590E+04  0.20511150535E+04  0.16004030495E+04 0.  0.
        3    1    3    3  502    0  0.36390013212E+03 -0.62270635147E+03 -0.19722133871E+03  0.74771837811E+03  0.10100000352E+00 0. -1.
       -3    1    3    3    0  502 -0.36390013212E+03  0.62270635147E+03 -0.10856594203E+04  0.13033966754E+04  0.10100000352E+00 0.  1.
</event>
<event>
 5   0  0.1081831E-05  0.1600616E+04  0.7818609E-02  0.8820169E-01
       -1   -1    0    0    0  501  0.00000000000E+00  0.00000000000E+00  0.46476426315E+03  0.46476426317E+03  0.50400001928E-02 0.  1.
        1   -1    0    0  501    0  0.00000000000E+00  0.00000000000E+00 -0.13781034020E+04  0.13781034020E+04  0.50400001928E-02 0. -1.
    10030    2    1    2    0    0  0.00000000000E+00  0.00000000000E+00 -0.91333913881E+03  0.18428676651E+04  0.16006163965E+04 0.  0.
        3    1    3    3  502    0 -0.75227343569E+03 -0.14676872856E+03 -0.72182200938E+03  0.10528453852E+04  0.10100000352E+00 0. -1.
       -3    1    3    3    0  502  0.75227343569E+03  0.14676872856E+03 -0.19151712943E+03  0.79002227993E+03  0.10100000352E+00 0.  1.
</event>
<event>
 5   0  0.1990948E-05  0.1599757E+04  0.7818609E-02  0.8820697E-01
       -2   -1    0    0    0  501  0.00000000000E+00  0.00000000000E+00  0.27780491677E+03  0.27780491678E+03  0.25500000920E-02 0. -1.
        2   -1    0    0  501    0  0.00000000000E+00  0.00000000000E+00 -0.23030758331E+04  0.23030758331E+04  0.25500000920E-02 0.  1.
    10030    2    1    2    0    0  0.00000000000E+00  0.00000000000E+00 -0.20252709163E+04  0.25808807498E+04  0.15997572192E+04 0.  0.
        4    1    3    3  502    0  0.22313654360E+03  0.31028005524E+02  0.22556369102E+03  0.31879969546E+03  0.12699999809E+01 0. -1.
       -4    1    3    3    0  502 -0.22313654360E+03 -0.31028005524E+02 -0.22508346073E+04  0.22620810544E+04  0.12699999809E+01 0.  1.
</event>
<event>
 5   0  0.1126485E-05  0.1599414E+04  0.7818609E-02  0.8820908E-01
       -1   -1    0    0    0  501  0.00000000000E+00  0.00000000000E+00  0.39310301477E+03  0.39310301480E+03  0.50400001928E-02 0. -1.
        1   -1    0    0  501    0  0.00000000000E+00  0.00000000000E+00 -0.16268790281E+04  0.16268790281E+04  0.50400001928E-02 0.  1.
    10030    2    1    2    0    0  0.00000000000E+00  0.00000000000E+00 -0.12337760133E+04  0.20199820429E+04  0.15994137059E+04 0.  0.
        2    1    3    3  502    0 -0.10519900977E+03  0.13274467224E+03  0.37019010442E+03  0.40709789128E+03  0.25500000920E-02 0. -1.
       -2    1    3    3    0  502  0.10519900977E+03 -0.13274467224E+03 -0.16039661177E+04  0.16128841516E+04  0.25500000920E-02 0.  1.
</event>
<event>
 5   0  0.1090674E-05  0.1600115E+04  0.7818609E-02  0.8820477E-01
        1   -1    0    0  501    0  0.00000000000E+00  0.00000000000E+00  0.67170173280E+03  0.67170173282E+03  0.50400001928E-02 0.  1.
       -1   -1    0    0    0  501  0.00000000000E+00  0.00000000000E+00 -0.95294056049E+03  0.95294056051E+03  0.50400001928E-02 0. -1.
    10030    2    1    2    0    0  0.00000000000E+00  0.00000000000E+00 -0.28123882769E+03  0.16246422933E+04  0.16001147781E+04 0.  0.
        4    1    3    3  502    0  0.64810772830E+02 -0.67101847666E+03  0.29682579004E+03  0.73659581511E+03  0.12699999809E+01 0.  1.
       -4    1    3    3    0  502 -0.64810772830E+02  0.67101847666E+03 -0.57806461773E+03  0.88804647822E+03  0.12699999809E+01 0. -1.
</event>
<event>
 5   0  0.1990948E-05  0.1600627E+04  0.7818609E-02  0.8820163E-01
        2   -1    0    0  501    0  0.00000000000E+00  0.00000000000E+00  0.20781803275E+04  0.20781803275E+04  0.25500000920E-02 0. -1.
       -2   -1    0    0    0  501  0.00000000000E+00  0.00000000000E+00 -0.30820297574E+03  0.30820297575E+03  0.25500000920E-02 0.  1.
    10030    2    1    2    0    0  0.00000000000E+00  0.00000000000E+00  0.17699773518E+04  0.23863833033E+04  0.16006265787E+04 0.  0.
        4    1    3    3  502    0 -0.36279131249E+03 -0.76866852185E+02 -0.17237117438E+03  0.40894924385E+03  0.12699999809E+01 0.  1.
       -4    1    3    3    0  502  0.36279131249E+03  0.76866852185E+02  0.19423485261E+04  0.19774340594E+04  0.12699999809E+01 0. -1.
</event>
<event>
 5   0  0.1994525E-05  0.1603605E+04  0.7818609E-02  0.8818336E-01
       -2   -1    0    0    0  501  0.00000000000E+00  0.00000000000E+00  0.34234864118E+03  0.34234864119E+03  0.25500000920E-02 0.  1.
        2   -1    0    0  501    0  0.00000000000E+00  0.00000000000E+00 -0.18778734158E+04  0.18778734158E+04  0.25500000920E-02 0. -1.
    10030    2    1    2    0    0  0.00000000000E+00  0.00000000000E+00 -0.15355247746E+04  0.22202220570E+04  0.16036052035E+04 0.  0.
        5    1    3    3  502    0  0.54751326832E+03 -0.57501250447E+03 -0.61324631415E+03  0.10032463761E+04  0.46999998093E+01 0. -1.
       -5    1    3    3    0  502 -0.54751326832E+03  0.57501250447E+03 -0.92227846046E+03  0.12169756809E+04  0.46999998093E+01 0.  1.
</event>
<event>
 5   0  0.1090674E-05  0.1597068E+04  0.7818609E-02  0.8822351E-01
        1   -1    0    0  501    0  0.00000000000E+00  0.00000000000E+00  0.11554013405E+04  0.11554013405E+04  0.50400001928E-02 0.  1.
       -1   -1    0    0    0  501  0.00000000000E+00  0.00000000000E+00 -0.55189187333E+03  0.55189187336E+03  0.50400001928E-02 0. -1.
    10030    2    1    2    0    0  0.00000000000E+00  0.00000000000E+00  0.60350946720E+03  0.17072932139E+04  0.15970680766E+04 0.  0.
        4    1    3    3  502    0  0.34457803964E+03 -0.65088565191E+03 -0.28204377017E+02  0.73700967228E+03  0.12699999809E+01 0. -1.
       -4    1    3    3    0  502 -0.34457803964E+03  0.65088565191E+03  0.63171384422E+03  0.97028354162E+03  0.12699999809E+01 0.  1.
</event>
<event>
 5   0  0.1990948E-05  0.1600633E+04  0.7818609E-02  0.8820159E-01
       -2   -1    0    0    0  501  0.00000000000E+00  0.00000000000E+00  0.54186544446E+03  0.54186544447E+03  0.25500000920E-02 0.  1.
        2   -1    0    0  501    0  0.00000000000E+00  0.00000000000E+00 -0.11820392795E+04  0.11820392795E+04  0.25500000920E-02 0. -1.
    10030    2    1    2    0    0  0.00000000000E+00  0.00000000000E+00 -0.64017383500E+03  0.17239047239E+04  0.16006326743E+04 0.  0.
        4    1    3    3  502    0 -0.65972103149E+02 -0.76344983372E+03 -0.56872724944E+03  0.95428521112E+03  0.12699999809E+01 0. -1.
       -4    1    3    3    0  502  0.65972103149E+02  0.76344983372E+03 -0.71446585560E+02  0.76961951281E+03  0.12699999809E+01 0.  1.
</event>
<event>
 5   0  0.2125803E-05  0.1597185E+04  0.7818609E-02  0.8822279E-01
       -2   -1    0    0    0  501  0.00000000000E+00  0.00000000000E+00  0.30892916366E+03  0.30892916367E+03  0.25500000920E-02 0. -1.
        2   -1    0    0  501    0  0.00000000000E+00  0.00000000000E+00 -0.20643898628E+04  0.20643898628E+04  0.25500000920E-02 0.  1.
    10030    2    1    2    0    0  0.00000000000E+00  0.00000000000E+00 -0.17554606991E+04  0.23733190265E+04  0.15971853165E+04 0.  0.
        3    1    3    3  502    0 -0.91880709879E+02  0.79212063237E+03 -0.94169585681E+03  0.12339725516E+04  0.10100000352E+00 0.  1.
       -3    1    3    3    0  502  0.91880709879E+02 -0.79212063237E+03 -0.81376484234E+03  0.11393464749E+04  0.10100000352E+00 0. -1.
</event>
<event>
 5   0  0.1057506E-05  0.1600421E+04  0.7818609E-02  0.8820289E-01
       -1   -1    0    0    0  501  0.00000000000E+00  0.00000000000E+00  0.55404024362E+03  0.55404024364E+03  0.50400001928E-02 0.  1.
        1   -1    0    0  501    0  0.00000000000E+00  0.00000000000E+00 -0.11557587734E+04  0.11557587734E+04  0.50400001928E-02 0. -1.
    10030    2    1    2    0    0  0.00000000000E+00  0.00000000000E+00 -0.60171852980E+03  0.17097990171E+04  0.16004210351E+04 0.  0.
        5    1    3    3  502    0  0.55938365141E+02  0.78153603760E+03 -0.47440209427E+03  0.91597331610E+03  0.46999998093E+01 0. -1.
       -5    1    3    3    0  502 -0.55938365141E+02 -0.78153603760E+03 -0.12731643553E+03  0.79382570097E+03  0.46999998093E+01 0.  1.
</event>
<event>
 5   0  0.2147844E-05  0.1600561E+04  0.7818609E-02  0.8820203E-01
       -2   -1    0    0    0  501  0.00000000000E+00  0.00000000000E+00  0.78636177881E+03  0.78636177881E+03  0.25500000920E-02 0.  1.
        2   -1    0    0  501    0  0.00000000000E+00  0.00000000000E+00 -0.81444587226E+03  0.81444587226E+03  0.25500000920E-02 0. -1.
    10030    2    1    2    0    0  0.00000000000E+00  0.00000000000E+00 -0.28084093453E+02  0.16008076511E+04  0.16005612826E+04 0.  0.
        2    1    3    3  502    0 -0.16970235521E+03  0.97949137463E+02  0.76200018200E+03  0.78678917142E+03  0.25500000920E-02 0.  1.
       -2    1    3    3    0  502  0.16970235521E+03 -0.97949137463E+02 -0.79008427545E+03  0.81401847965E+03  0.25500000920E-02 0. -1.
</event>
<event>
 5   0  0.1057506E-05  0.1599766E+04  0.7818609E-02  0.8820692E-01
       -1   -1    0    0    0  501  0.00000000000E+00  0.00000000000E+00  0.47882140898E+03  0.47882140900E+03  0.50400001928E-02 0.  1.
        1   -1    0    0  501    0  0.00000000000E+00  0.00000000000E+00 -0.13362248479E+04  0.13362248479E+04  0.50400001928E-02 0. -1.
    10030    2    1    2    0    0  0.00000000000E+00  0.00000000000E+00 -0.85740343891E+03  0.18150462569E+04  0.15997663134E+04 0.  0.
        5    1    3    3  502    0  0.10406978999E+03  0.17468342087E+02 -0.13282768578E+04  0.13324703243E+04  0.46999998093E+01 0. -1.
       -5    1    3    3    0  502 -0.10406978999E+03 -0.17468342087E+02  0.47087341886E+03  0.48257593263E+03  0.46999998093E+01 0.  1.
</event>
<event>
 5   0  0.2147844E-05  0.1600071E+04  0.7818609E-02  0.8820504E-01
       -2   -1    0    0    0  501  0.00000000000E+00  0.00000000000E+00  0.10284742705E+04  0.10284742705E+04  0.25500000920E-02 0. -1.
        2   -1    0    0  501    0  0.00000000000E+00  0.00000000000E+00 -0.62233641298E+03  0.62233641299E+03  0.25500000920E-02 0.  1.
    10030    2    1    2    0    0  0.00000000000E+00  0.00000000000E+00  0.40613785755E+03  0.16508106835E+04  0.16000712339E+04 0.  0.
        2    1    3    3  502    0  0.31755685513E+03  0.10670462238E+02 -0.55444902553E+03  0.63903829066E+03  0.25500000920E-02 0.  1.
       -2    1    3    3    0  502 -0.31755685513E+03 -0.10670462238E+02  0.96058688308E+03  0.10117723929E+04  0.25500000920E-02 0. -1.
</event>
<event>
 5   0  0.1081831E-05  0.1599127E+04  0.7818609E-02  0.8821085E-01
       -1   -1    0    0    0  501  0.00000000000E+00  0.00000000000E+00  0.25915834392E+03  0.25915834397E+03  0.50400001928E-02 0. -1.
        1   -1    0    0  501    0  0.00000000000E+00  0.00000000000E+00 -0.24668371204E+04  0.24668371204E+04  0.50400001928E-02 0.  1.
    10030    2    1    2    0    0  0.00000000000E+00  0.00000000000E+00 -0.22076787765E+04  0.27259954644E+04  0.15991265402E+04 0.  0.
        3    1    3    3  502    0  0.51736814738E+03 -0.56123661752E+03 -0.15095565363E+04  0.16915724304E+04  0.10100000352E+00 0.  1.
       -3    1    3    3    0  502 -0.51736814738E+03  0.56123661752E+03 -0.69812224014E+03  0.10344230339E+04  0.10100000352E+00 0. -1.
</event>
<event>
 5   0  0.2125803E-05  0.1601526E+04  0.7818609E-02  0.8819611E-01
       -2   -1    0    0    0  501  0.00000000000E+00  0.00000000000E+00  0.48174286295E+03  0.48174286296E+03  0.25500000920E-02 0.  1.
        2   -1    0    0  501    0  0.00000000000E+00  0.00000000000E+00 -0.13310444868E+04  0.13310444868E+04  0.25500000920E-02 0. -1.
    10030    2    1    2    0    0  0.00000000000E+00  0.00000000000E+00 -0.84930162384E+03  0.18127873498E+04  0.16015257498E+04 0.  0.
        3    1    3    3  502    0 -0.19271008612E+03  0.51042001607E+03 -0.10881055908E+04  0.12172261733E+04  0.10100000352E+00 0. -1.
       -3    1    3    3    0  502  0.19271008612E+03 -0.51042001607E+03  0.23880396692E+03  0.59556117647E+03  0.10100000352E+00 0.  1.
</event>
<event>
 5   0  0.1090674E-05  0.1601776E+04  0.7818609E-02  0.8819458E-01
        1   -1    0    0  501    0  0.00000000000E+00  0.00000000000E+00  0.71990823453E+03  0.71990823455E+03  0.50400001928E-02 0.  1.
       -1   -1    0    0    0  501  0.00000000000E+00  0.00000000000E+00 -0.89097698732E+03  0.89097698733E+03  0.50400001928E-02 0. -1.
    10030    2    1    2    0    0  0.00000000000E+00  0.00000000000E+00 -0.17106875279E+03  0.16108852219E+04  0.16017761017E+04 0.  0.
        4    1    3    3  502    0  0.37819933227E+03 -0.38980469400E+03 -0.67747113835E+03  0.86830362811E+03  0.12699999809E+01 0. -1.
       -4    1    3    3    0  502 -0.37819933227E+03  0.38980469400E+03  0.50640238557E+03  0.74258159377E+03  0.12699999809E+01 0.  1.
</event>
<event>
 5   0  0.1060251E-05  0.1600087E+04  0.7818609E-02  0.8820494E-01
        1   -1    0    0  501    0  0.00000000000E+00  0.00000000000E+00  0.10264862914E+04  0.10264862914E+04  0.50400001928E-02 0.  1.
       -1   -1    0    0    0  501  0.00000000000E+00  0.00000000000E+00 -0.62355414002E+03  0.62355414004E+03  0.50400001928E-02 0. -1.
    10030    2    1    2    0    0  0.00000000000E+00  0.00000000000E+00  0.40293215138E+03  0.16500404315E+04  0.16000872185E+04 0.  0.
        1    1    3    3  502    0 -0.41101289954E+03 -0.63074992584E+03 -0.77711995601E+02  0.75684623724E+03  0.50400001928E-02 0. -1.
       -1    1    3    3    0  502  0.41101289954E+03  0.63074992584E+03  0.48064414698E+03  0.89319419422E+03  0.50400001928E-02 0.  1.
</event>
<event>
 5   0  0.2147844E-05  0.1596119E+04  0.7818609E-02  0.8822936E-01
        2   -1    0    0  501    0  0.00000000000E+00  0.00000000000E+00  0.10668669541E+04  0.10668669541E+04  0.25500000920E-02 0.  1.
       -2   -1    0    0    0  501  0.00000000000E+00  0.00000000000E+00 -0.59698071064E+03  0.59698071065E+03  0.25500000920E-02 0. -1.
    10030    2    1    2    0    0  0.00000000000E+00  0.00000000000E+00  0.46988624348E+03  0.16638476648E+04  0.15961190337E+04 0.  0.
        2    1    3    3  502    0  0.68346699959E+03  0.35254570001E+03  0.45726113945E+03  0.89470853342E+03  0.25500000920E-02 0. -1.
       -2    1    3    3    0  502 -0.68346699959E+03 -0.35254570001E+03  0.12625104036E+02  0.76913913135E+03  0.25500000920E-02 0.  1.
</event>
<event>
 5   0  0.1081831E-05  0.1599633E+04  0.7818609E-02  0.8820774E-01
        1   -1    0    0  501    0  0.00000000000E+00  0.00000000000E+00  0.14896935867E+04  0.14896935867E+04  0.50400001928E-02 0. -1.
       -1   -1    0    0    0  501  0.00000000000E+00  0.00000000000E+00 -0.42942140105E+03  0.42942140108E+03  0.50400001928E-02 0.  1.
    10030    2    1    2    0    0  0.00000000000E+00  0.00000000000E+00  0.10602721856E+04  0.19191149878E+04  0.15996328418E+04 0.  0.
        3    1    3    3  502    0  0.78571736036E+03 -0.12866729570E+03  0.62149833212E+03  0.10100332818E+04  0.10100000352E+00 0. -1.
       -3    1    3    3    0  502 -0.78571736036E+03  0.12866729570E+03  0.43877385350E+03  0.90908170593E+03  0.10100000352E+00 0.  1.
</event>
<event>
 5   0  0.1990948E-05  0.1598702E+04  0.7818609E-02  0.8821346E-01
       -2   -1    0    0    0  501  0.00000000000E+00  0.00000000000E+00  0.34201237353E+03  0.34201237354E+03  0.25500000920E-02 0. -1.
        2   -1    0    0  501    0  0.00000000000E+00  0.00000000000E+00 -0.18682424291E+04  0.18682424291E+04  0.25500000920E-02 0.  1.
    10030    2    1    2    0    0  0.00000000000E+00  0.00000000000E+00 -0.15262300555E+04  0.22102548026E+04  0.15987020079E+04 0.  0.
        4    1    3    3  502    0 -0.44785842518E+03 -0.42182343082E+03 -0.57552455259E+02  0.61792076660E+03  0.12699999809E+01 0. -1.
       -4    1    3    3    0  502  0.44785842518E+03  0.42182343082E+03 -0.14686776003E+04  0.15923340360E+04  0.12699999809E+01 0.  1.
</event>
<event>
 5   0  0.2125803E-05  0.1599873E+04  0.7818609E-02  0.8820626E-01
       -2   -1    0    0    0  501  0.00000000000E+00  0.00000000000E+00  0.45739428834E+03  0.45739428835E+03  0.25500000920E-02 0.  1.
        2   -1    0    0  501    0  0.00000000000E+00  0.00000000000E+00 -0.13990079148E+04  0.13990079148E+04  0.25500000920E-02 0. -1.
    10030    2    1    2    0    0  0.00000000000E+00  0.00000000000E+00 -0.94161362645E+03  0.18564022031E+04  0.15998727819E+04 0.  0.
        3    1    3    3  502    0 -0.58300448130E+03  0.50516001585E+03 -0.71645282888E+03  0.10527989044E+04  0.10100000352E+00 0.  1.
       -3    1    3    3    0  502  0.58300448130E+03 -0.50516001585E+03 -0.22516079757E+03  0.80360329877E+03  0.10100000352E+00 0. -1.
</event>
<event>
 5   0  0.1994525E-05  0.1599978E+04  0.7818609E-02  0.8820562E-01
       -2   -1    0    0    0  501  0.00000000000E+00  0.00000000000E+00  0.13976930636E+04  0.13976930636E+04  0.25500000920E-02 0. -1.
        2   -1    0    0  501    0  0.00000000000E+00  0.00000000000E+00 -0.45788459318E+03  0.45788459318E+03  0.25500000920E-02 0.  1.
    10030    2    1    2    0    0  0.00000000000E+00  0.00000000000E+00  0.93980847037E+03  0.18555776567E+04  0.15999776496E+04 0.  0.
        5    1    3    3  502    0 -0.31285466510E+02  0.60133377582E+03  0.10807083585E+04  0.12371474191E+04  0.46999998093E+01 0. -1.
       -5    1    3    3    0  502  0.31285466510E+02 -0.60133377582E+03 -0.14089988817E+03  0.61843023765E+03  0.46999998093E+01 0.  1.
</event>
<event>
 5   0  0.1090674E-05  0.1600944E+04  0.7818609E-02  0.8819969E-01
        1   -1    0    0  501    0  0.00000000000E+00  0.00000000000E+00  0.83272615769E+03  0.83272615770E+03  0.50400001928E-02 0.  1.
       -1   -1    0    0    0  501  0.00000000000E+00  0.00000000000E+00 -0.76946675069E+03  0.76946675071E+03  0.50400001928E-02 0. -1.
    10030    2    1    2    0    0  0.00000000000E+00  0.00000000000E+00  0.63259406999E+02  0.16021929084E+04  0.16009435853E+04 0.  0.
        4    1    3    3  502    0  0.16723240731E+03 -0.44351474524E+01 -0.75177559943E+03  0.77016525070E+03  0.12699999809E+01 0. -1.
       -4    1    3    3    0  502 -0.16723240731E+03  0.44351474524E+01  0.81503500643E+03  0.83202765771E+03  0.12699999809E+01 0.  1.
</event>
<event>
 5   0  0.1081831E-05  0.1599684E+04  0.7818609E-02  0.8820742E-01
        1   -1    0    0  501    0  0.00000000000E+00  0.00000000000E+00  0.12152310792E+04  0.12152310792E+04  0.50400001928E-02 0.  1.
       -1   -1    0    0    0  501  0.00000000000E+00  0.00000000000E+00 -0.52644075057E+03  0.52644075060E+03  0.50400001928E-02 0. -1.
    10030    2    1    2    0    0  0.00000000000E+00  0.00000000000E+00  0.68879032864E+03  0.17416718298E+04  0.15996839206E+04 0.  0.
        3    1    3    3  502    0 -0.76760630226E+03  0.18856530201E+02  0.58826803603E+03  0.96728191155E+03  0.10100000352E+00 0. -1.
       -3    1    3    3    0  502  0.76760630226E+03 -0.18856530201E+02  0.10052229261E+03  0.77438991827E+03  0.10100000352E+00 0.  1.
</event>
<event>
 5   0  0.1057506E-05  0.1600609E+04  0.7818609E-02  0.8820174E-01
        1   -1    0    0  501    0  0.00000000000E+00  0.00000000000E+00  0.90004329418E+03  0.90004329419E+03  0.50400001928E-02 0. -1.
       -1   -1    0    0    0  501  0.00000000000E+00  0.00000000000E+00 -0.71161838656E+03  0.71161838658E+03  0.50400001928E-02 0.  1.
    10030    2    1    2    0    0  0.00000000000E+00  0.00000000000E+00  0.18842490762E+03  0.16116616808E+04  0.16006090801E+04 0.  0.
        5    1    3    3  502    0 -0.56017234977E+03 -0.23427971327E+03  0.61914260991E+03  0.86720222952E+03  0.46999998093E+01 0. -1.
       -5    1    3    3    0  502  0.56017234977E+03  0.23427971327E+03 -0.43071770229E+03  0.74445945125E+03  0.46999998093E+01 0.  1.
</event>
<event>
 5   0  0.1990948E-05  0.1600610E+04  0.7818609E-02  0.8820173E-01
       -2   -1    0    0    0  501  0.00000000000E+00  0.00000000000E+00  0.74453295853E+03  0.74453295853E+03  0.25500000920E-02 0. -1.
        2   -1    0    0  501    0  0.00000000000E+00  0.00000000000E+00 -0.86025460251E+03  0.86025460252E+03  0.25500000920E-02 0.  1.
    10030    2    1    2    0    0  0.00000000000E+00  0.00000000000E+00 -0.11572164398E+03  0.16047875611E+04  0.16006097642E+04 0.  0.
        4    1    3    3  502    0  0.27707588846E+03 -0.51161507688E+03 -0.60880877770E+03  0.84212277939E+03  0.12699999809E+01 0.  1.
       -4    1    3    3    0  502 -0.27707588846E+03  0.51161507688E+03  0.49308713371E+03  0.76266478167E+03  0.12699999809E+01 0. -1.
</event>
<event>
 5   0  0.2046108E-05  0.1599497E+04  0.7818609E-02  0.8820857E-01
       -2   -1    0    0    0  501  0.00000000000E+00  0.00000000000E+00  0.11177449837E+04  0.11177449837E+04  0.25500000920E-02 0. -1.
        2   -1    0    0  501    0  0.00000000000E+00  0.00000000000E+00 -0.57222140413E+03  0.57222140414E+03  0.25500000920E-02 0.  1.
    10030    2    1    2    0    0  0.00000000000E+00  0.00000000000E+00  0.54552357955E+03  0.16899663878E+04  0.15994969260E+04 0.  0.
        1    1    3    3  502    0 -0.32950447442E+03  0.54309611108E+03  0.78611466043E+03  0.10106942386E+04  0.50400001928E-02 0.  1.
       -1    1    3    3    0  502  0.32950447442E+03 -0.54309611108E+03 -0.24059108088E+03  0.67927214925E+03  0.50400001928E-02 0. -1.
</event>
<event>
 5   0  0.1994525E-05  0.1598894E+04  0.7818609E-02  0.8821228E-01
        2   -1    0    0  501    0  0.00000000000E+00  0.00000000000E+00  0.10687856474E+04  0.10687856475E+04  0.25500000920E-02 0. -1.
       -2   -1    0    0    0  501  0.00000000000E+00  0.00000000000E+00 -0.59798283161E+03  0.59798283162E+03  0.25500000920E-02 0.  1.
    10030    2    1    2    0    0  0.00000000000E+00  0.00000000000E+00  0.47080281584E+03  0.16667684791E+04  0.15988939525E+04 0.  0.
        5    1    3    3  502    0 -0.50827731848E+02  0.49993224366E+02  0.10654506881E+04  0.10678436400E+04  0.46999998093E+01 0. -1.
       -5    1    3    3    0  502  0.50827731848E+02 -0.49993224366E+02 -0.59464787227E+03  0.59892483902E+03  0.46999998093E+01 0.  1.
</event>
<event>
 5   0  0.1990948E-05  0.1600673E+04  0.7818609E-02  0.8820135E-01
       -2   -1    0    0    0  501  0.00000000000E+00  0.00000000000E+00  0.44305982370E+03  0.44305982371E+03  0.25500000920E-02 0. -1.
        2   -1    0    0  501    0  0.00000000000E+00  0.00000000000E+00 -0.14457154957E+04  0.14457154957E+04  0.25500000920E-02 0.  1.
    10030    2    1    2    0    0  0.00000000000E+00  0.00000000000E+00 -0.10026556720E+04  0.18887753194E+04  0.16006729243E+04 0.  0.
        4    1    3    3  502    0  0.69069675717E+03  0.39623135340E+03 -0.40637327524E+03  0.89398106664E+03  0.12699999809E+01 0. -1.
       -4    1    3    3    0  502 -0.69069675717E+03 -0.39623135340E+03 -0.59628239677E+03  0.99479425278E+03  0.12699999809E+01 0.  1.
</event>
<event>
 5   0  0.2147844E-05  0.1599955E+04  0.7818609E-02  0.8820576E-01
       -2   -1    0    0    0  501  0.00000000000E+00  0.00000000000E+00  0.19009790288E+04  0.19009790288E+04  0.25500000920E-02 0. -1.
        2   -1    0    0  501    0  0.00000000000E+00  0.00000000000E+00 -0.33664961344E+03  0.33664961345E+03  0.25500000920E-02 0.  1.
    10030    2    1    2    0    0  0.00000000000E+00  0.00000000000E+00  0.15643294154E+04  0.22376286423E+04  0.15999548184E+04 0.  0.
        2    1    3    3  502    0  0.47963386734E+03  0.39424828029E+03  0.76643439710E+02  0.62558338379E+03  0.25500000920E-02 0.  1.
       -2    1    3    3    0  502 -0.47963386734E+03 -0.39424828029E+03  0.14876859757E+04  0.16120452585E+04  0.25500000920E-02 0. -1.
</event>
<event>
 5   0  0.1994525E-05  0.1599783E+04  0.7818609E-02  0.8820681E-01
        2   -1    0    0  501    0  0.00000000000E+00  0.00000000000E+00  0.17304952143E+04  0.17304952143E+04  0.25500000920E-02 0. -1.
       -2   -1    0    0    0  501  0.00000000000E+00  0.00000000000E+00 -0.36973600239E+03  0.36973600240E+03  0.25500000920E-02 0.  1.
    10030    2    1    2    0    0  0.00000000000E+00  0.00000000000E+00  0.13607592119E+04  0.21002312167E+04  0.15997829637E+04 0.  0.
        5    1    3    3  502    0 -0.17258194409E+03 -0.33208293243E+03  0.16084446141E+04  0.16514175027E+04  0.46999998093E+01 0. -1.
       -5    1    3    3    0  502  0.17258194409E+03  0.33208293243E+03 -0.24768540221E+03  0.44881371403E+03  0.46999998093E+01 0.  1.
</event>
<event>
 5   0  0.1994525E-05  0.1599097E+04  0.7818609E-02  0.8821103E-01
        2   -1    0    0  501    0  0.00000000000E+00  0.00000000000E+00  0.64749486618E+03  0.64749486619E+03  0.25500000920E-02 0. -1.
       -2   -1    0    0    0  501  0.00000000000E+00  0.00000000000E+00 -0.98730987029E+03  0.98730987029E+03  0.25500000920E-02 0.  1.
    10030    2    1    2    0    0  0.00000000000E+00  0.00000000000E+00 -0.33981500411E+03  0.16348047365E+04  0.15990973358E+04 0.  0.
        5    1    3    3  502    0  0.53793628445E+03  0.28174303091E+03 -0.70161862660E+03  0.92792530345E+03  0.46999998093E+01 0.  1.
       -5    1    3    3    0  502 -0.53793628445E+03 -0.28174303091E+03  0.36180362249E+03  0.70687943303E+03  0.46999998093E+01 0. -1.
</event>
<event>
 5   0  0.1126485E-05  0.1599762E+04  0.7818609E-02  0.8820694E-01
       -1   -1    0    0    0  501  0.00000000000E+00  0.00000000000E+00  0.32853753011E+03  0.32853753015E+03  0.50400001928E-02 0.  1.
        1   -1    0    0  501    0  0.00000000000E+00  0.00000000000E+00 -0.19474476781E+04  0.19474476781E+04  0.50400001928E-02 0. -1.
    10030    2    1    2    0    0  0.00000000000E+00  0.00000000000E+00 -0.16189101480E+04  0.22759852082E+04  0.15997620451E+04 0.  0.
        2    1    3    3  502    0 -0.70753808181E+03  0.14091185990E+03 -0.31796678030E+03  0.78839657715E+03  0.25500000920E-02 0.  1.
       -2    1    3    3    0  502  0.70753808181E+03 -0.14091185990E+03 -0.13009433676E+04  0.14875886311E+04  0.25500000920E-02 0. -1.
</event>
<event>
 5   0  0.1126485E-05  0.1601046E+04  0.7818609E-02  0.8819906E-01
        1   -1    0    0  501    0  0.00000000000E+00  0.00000000000E+00  0.59020254552E+03  0.59020254555E+03  0.50400001928E-02 0.  1.
       -1   -1    0    0    0  501  0.00000000000E+00  0.00000000000E+00 -0.10857921318E+04  0.10857921318E+04  0.50400001928E-02 0. -1.
    10030    2    1    2    0    0  0.00000000000E+00  0.00000000000E+00 -0.49558958630E+03  0.16759946774E+04  0.16010462581E+04 0.  0.
        2    1    3    3  502    0  0.14449629623E+03 -0.78737224562E+03 -0.24962217340E+03  0.83853769281E+03  0.25500000920E-02 0. -1.
       -2    1    3    3    0  502 -0.14449629623E+03  0.78737224562E+03 -0.24596741290E+03  0.83745698458E+03  0.25500000920E-02 0.  1.
</event>
<event>
 5   0  0.7597000E-06  0.1599613E+04  0.7818609E-02  0.8820786E-01
       -4   -1    0    0    0  501  0.00000000000E+00  0.00000000000E+00  0.58592411958E+03  0.58592549595E+03  0.12699999809E+01 0. -1.
        4   -1    0    0  501    0  0.00000000000E+00  0.00000000000E+00 -0.10917604490E+04  0.10917611877E+04  0.12699999809E+01 0.  1.
    10030    2    1    2    0    0  0.00000000000E+00  0.00000000000E+00 -0.50583632941E+03  0.16776866836E+04  0.15996131458E+04 0.  0.
        5    1    3    3  502    0  0.16029979587E+03  0.10060646613E+02 -0.10746583588E+04  0.10866047669E+04  0.46999998093E+01 0.  1.
       -5    1    3    3    0  502 -0.16029979587E+03 -0.10060646613E+02  0.56882202942E+03  0.59108191676E+03  0.46999998093E+01 0. -1.
</event>
<event>
 5   0  0.1057506E-05  0.1600159E+04  0.7818609E-02  0.8820450E-01
       -1   -1    0    0    0  501  0.00000000000E+00  0.00000000000E+00  0.10892685823E+04  0.10892685823E+04  0.50400001928E-02 0.  1.
        1   -1    0    0  501    0  0.00000000000E+00  0.00000000000E+00 -0.58766695004E+03  0.58766695006E+03  0.50400001928E-02 0. -1.
    10030    2    1    2    0    0  0.00000000000E+00  0.00000000000E+00  0.50160163224E+03  0.16769355324E+04  0.16001589241E+04 0.  0.
        5    1    3    3  502    0 -0.51036768037E+02 -0.74704559473E+03  0.54614396020E+03  0.92681022198E+03  0.46999998093E+01 0. -1.
       -5    1    3    3    0  502  0.51036768037E+02  0.74704559473E+03 -0.44542327963E+02  0.75012531038E+03  0.46999998093E+01 0.  1.
</event>
<event>
 5   0  0.2125803E-05  0.1600013E+04  0.7818609E-02  0.8820540E-01
       -2   -1    0    0    0  501  0.00000000000E+00  0.00000000000E+00  0.19757699770E+03  0.19757699771E+03  0.25500000920E-02 0.  1.
        2   -1    0    0  501    0  0.00000000000E+00  0.00000000000E+00 -0.32392956969E+04  0.32392956969E+04  0.25500000920E-02 0. -1.
    10030    2    1    2    0    0  0.00000000000E+00  0.00000000000E+00 -0.30417186992E+04  0.34368726947E+04  0.16000128980E+04 0.  0.
        3    1    3    3  502    0  0.16810083409E+02  0.26925387013E+03 -0.31386398253E+04  0.31502127212E+04  0.10100000352E+00 0. -1.
       -3    1    3    3    0  502 -0.16810083409E+02 -0.26925387013E+03  0.96921126097E+02  0.28665997344E+03  0.10100000352E+00 0.  1.
</event>
<event>
 5   0  0.1060251E-05  0.1599685E+04  0.7818609E-02  0.8820741E-01
       -1   -1    0    0    0  501  0.00000000000E+00  0.00000000000E+00  0.26659278556E+03  0.26659278561E+03  0.50400001928E-02 0. -1.
        1   -1    0    0  501    0  0.00000000000E+00  0.00000000000E+00 -0.23997211244E+04  0.23997211244E+04  0.50400001928E-02 0.  1.
    10030    2    1    2    0    0  0.00000000000E+00  0.00000000000E+00 -0.21331283389E+04  0.26663139100E+04  0.15996853931E+04 0.  0.
        1    1    3    3  502    0 -0.25610251051E+03 -0.72975941058E+03 -0.14065658122E+04  0.16051681150E+04  0.50400001928E-02 0.  1.
       -1    1    3    3    0  502  0.25610251051E+03  0.72975941058E+03 -0.72656252664E+03  0.10611457951E+04  0.50400001928E-02 0. -1.
</event>
<event>
 5   0  0.1126485E-05  0.1599665E+04  0.7818609E-02  0.8820754E-01
       -1   -1    0    0    0  501  0.00000000000E+00  0.00000000000E+00  0.61576263046E+03  0.61576263048E+03  0.50400001928E-02 0. -1.
        1   -1    0    0  501    0  0.00000000000E+00  0.00000000000E+00 -0.10389268125E+04  0.10389268125E+04  0.50400001928E-02 0.  1.
    10030    2    1    2    0    0  0.00000000000E+00  0.00000000000E+00 -0.42316418205E+03  0.16546894430E+04  0.15996653487E+04 0.  0.
        2    1    3    3  502    0 -0.48108990717E+03 -0.36193934079E+03  0.33310907163E+03  0.68804741028E+03  0.25500000920E-02 0. -1.
       -2    1    3    3    0  502  0.48108990717E+03  0.36193934079E+03 -0.75627325368E+03  0.96664203272E+03  0.25500000920E-02 0.  1.
</event>
<event>
 5   0  0.1057506E-05  0.1597522E+04  0.7818609E-02  0.8822072E-01
        1   -1    0    0  501    0  0.00000000000E+00  0.00000000000E+00  0.15013831603E+04  0.15013831603E+04  0.50400001928E-02 0.  1.
       -1   -1    0    0    0  501  0.00000000000E+00  0.00000000000E+00 -0.42495408315E+03  0.42495408318E+03  0.50400001928E-02 0. -1.
    10030    2    1    2    0    0  0.00000000000E+00  0.00000000000E+00  0.10764290771E+04  0.19263372435E+04  0.15975217111E+04 0.  0.
        5    1    3    3  502    0  0.15365336996E+03 -0.55612774519E+03  0.12042745140E+04  0.13353601096E+04  0.46999998093E+01 0.  1.
       -5    1    3    3    0  502 -0.15365336996E+03  0.55612774519E+03 -0.12784543689E+03  0.59097713391E+03  0.46999998093E+01 0. -1.
</event>
<event>
 5   0  0.2147844E-05  0.1600245E+04  0.7818609E-02  0.8820398E-01
        2   -1    0    0  501    0  0.00000000000E+00  0.00000000000E+00  0.74019514289E+03  0.74019514290E+03  0.25500000920E-02 0. -1.
       -2   -1    0    0    0  501  0.00000000000E+00  0.00000000000E+00 -0.86490121190E+03  0.86490121190E+03  0.25500000920E-02 0.  1.
    10030    2    1    2    0    0  0.00000000000E+00  0.00000000000E+00 -0.12470606901E+03  0.16050963548E+04  0.16002445765E+04 0.  0.
        2    1    3    3  502    0 -0.74597285272E+03  0.39141839330E+02  0.22520082637E+03  0.78020701918E+03  0.25500000920E-02 0.  1.
       -2    1    3    3    0  502  0.74597285272E+03 -0.39141839330E+02 -0.34990689538E+03  0.82488933562E+03  0.25500000920E-02 0. -1.
</event>
<event>
 5   0  0.1990948E-05  0.1599962E+04  0.7818609E-02  0.8820572E-01
        2   -1    0    0  501    0  0.00000000000E+00  0.00000000000E+00  0.10276513056E+04  0.10276513056E+04  0.25500000920E-02 0. -1.
       -2   -1    0    0    0  501  0.00000000000E+00  0.00000000000E+00 -0.62274937013E+03  0.62274937014E+03  0.25500000920E-02 0.  1.
    10030    2    1    2    0    0  0.00000000000E+00  0.00000000000E+00  0.40490193544E+03  0.16504006757E+04  0.15999615036E+04 0.  0.
        4    1    3    3  502    0 -0.13796283203E+01 -0.31908743275E+03 -0.55426184374E+03  0.63955179418E+03  0.12699999809E+01 0.  1.
       -4    1    3    3    0  502  0.13796283203E+01  0.31908743275E+03  0.95916377918E+03  0.10108488815E+04  0.12699999809E+01 0. -1.
</event>
<event>
 5   0  0.1081831E-05  0.1600875E+04  0.7818609E-02  0.8820010E-01
       -1   -1    0    0    0  501  0.00000000000E+00  0.00000000000E+00  0.38355194185E+03  0.38355194189E+03  0.50400001928E-02 0. -1.
        1   -1    0    0  501    0  0.00000000000E+00  0.00000000000E+00 -0.16704397180E+04  0.16704397180E+04  0.50400001928E-02 0.  1.
    10030    2    1    2    0    0  0.00000000000E+00  0.00000000000E+00 -0.12868877761E+04  0.20539916599E+04  0.16008752576E+04 0.  0.
        3    1    3    3  502    0 -0.22550551824E+03  0.44858174034E+03  0.15639941754E+03  0.52586985513E+03  0.10100000352E+00 0. -1.
       -3    1    3    3    0  502  0.22550551824E+03 -0.44858174034E+03 -0.14432871937E+04  0.15281218047E+04  0.10100000352E+00 0.  1.
</event>
<event>
 5   0  0.2147844E-05  0.1600508E+04  0.7818609E-02  0.8820236E-01
       -2   -1    0    0    0  501  0.00000000000E+00  0.00000000000E+00  0.36337765927E+03  0.36337765928E+03  0.25500000920E-02 0.  1.
        2   -1    0    0  501    0  0.00000000000E+00  0.00000000000E+00 -0.17623709520E+04  0.17623709520E+04  0.25500000920E-02 0. -1.
    10030    2    1    2    0    0  0.00000000000E+00  0.00000000000E+00 -0.13989932928E+04  0.21257486113E+04  0.16005077086E+04 0.  0.
        2    1    3    3  502    0 -0.31225025290E+03  0.38322759722E+02  0.27780414483E+03  0.41969512416E+03  0.25500000920E-02 0.  1.
       -2    1    3    3    0  502  0.31225025290E+03 -0.38322759722E+02 -0.16767974376E+04  0.17060534872E+04  0.25500000920E-02 0. -1.
</event>
<event>
 5   0  0.1057506E-05  0.1600111E+04  0.7818609E-02  0.8820480E-01
       -1   -1    0    0    0  501  0.00000000000E+00  0.00000000000E+00  0.55214436057E+03  0.55214436059E+03  0.50400001928E-02 0. -1.
        1   -1    0    0  501    0  0.00000000000E+00  0.00000000000E+00 -0.11592781140E+04  0.11592781140E+04  0.50400001928E-02 0.  1.
    10030    2    1    2    0    0  0.00000000000E+00  0.00000000000E+00 -0.60713375342E+03  0.17114224746E+04  0.16001110874E+04 0.  0.
        5    1    3    3  502    0 -0.88166050107E+02 -0.39000849875E+03  0.43759359834E+03  0.59278168730E+03  0.46999998093E+01 0. -1.
       -5    1    3    3    0  502  0.88166050107E+02  0.39000849875E+03 -0.10447273518E+04  0.11186407873E+04  0.46999998093E+01 0.  1.
</event>
<event>
 5   0  0.7597000E-06  0.1602662E+04  0.7818609E-02  0.8818914E-01
        3   -1    0    0  501    0  0.00000000000E+00  0.00000000000E+00  0.59281862816E+03  0.59281863677E+03  0.10100000352E+00 0. -1.
       -3   -1    0    0    0  501  0.00000000000E+00  0.00000000000E+00 -0.10831839187E+04  0.10831839234E+04  0.10100000352E+00 0.  1.
    10030    2    1    2    0    0  0.00000000000E+00  0.00000000000E+00 -0.49036529058E+03  0.16760025602E+04  0.16026623049E+04 0.  0.
        5    1    3    3  502    0  0.62792713045E+02  0.11514595962E+03 -0.10718688697E+04  0.10798733633E+04  0.46999998093E+01 0.  1.
       -5    1    3    3    0  502 -0.62792713045E+02 -0.11514595962E+03  0.58150357917E+03  0.59612919692E+03  0.46999998093E+01 0. -1.
</event>
<event>
 5   0  0.1090674E-05  0.1600039E+04  0.7818609E-02  0.8820524E-01
        1   -1    0    0  501    0  0.00000000000E+00  0.00000000000E+00  0.10740693978E+04  0.10740693979E+04  0.50400001928E-02 0.  1.
       -1   -1    0    0    0  501  0.00000000000E+00  0.00000000000E+00 -0.59589363844E+03  0.59589363846E+03  0.50400001928E-02 0. -1.
    10030    2    1    2    0    0  0.00000000000E+00  0.00000000000E+00  0.47817575941E+03  0.16699630363E+04  0.16000389013E+04 0.  0.
        4    1    3    3  502    0 -0.38196658532E+03 -0.27174125255E+03 -0.43753966165E+03  0.64123657807E+03  0.12699999809E+01 0. -1.
       -4    1    3    3    0  502  0.38196658532E+03  0.27174125255E+03  0.91571542106E+03  0.10287264582E+04  0.12699999809E+01 0.  1.
</event>
<event>
 5   0  0.1126485E-05  0.1597948E+04  0.7818609E-02  0.8821809E-01
       -1   -1    0    0    0  501  0.00000000000E+00  0.00000000000E+00  0.70630319590E+03  0.70630319592E+03  0.50400001928E-02 0.  1.
        1   -1    0    0  501    0  0.00000000000E+00  0.00000000000E+00 -0.90380415052E+03  0.90380415053E+03  0.50400001928E-02 0. -1.
    10030    2    1    2    0    0  0.00000000000E+00  0.00000000000E+00 -0.19750095461E+03  0.16101073465E+04  0.15979483847E+04 0.  0.
        2    1    3    3  502    0 -0.12258212664E+03 -0.55850246090E+03 -0.66103643082E+03  0.87402547988E+03  0.25500000920E-02 0. -1.
       -2    1    3    3    0  502  0.12258212664E+03  0.55850246090E+03  0.46353547620E+03  0.73608186658E+03  0.25500000920E-02 0.  1.
</event>
<event>
 5   0  0.1057506E-05  0.1599756E+04  0.7818609E-02  0.8820698E-01
        1   -1    0    0  501    0  0.00000000000E+00  0.00000000000E+00  0.10412743834E+04  0.10412743834E+04  0.50400001928E-02 0.  1.
       -1   -1    0    0    0  501  0.00000000000E+00  0.00000000000E+00 -0.61444393008E+03  0.61444393010E+03  0.50400001928E-02 0. -1.
    10030    2    1    2    0    0  0.00000000000E+00  0.00000000000E+00  0.42683045333E+03  0.16557183135E+04  0.15997558870E+04 0.  0.
        5    1    3    3  502    0 -0.49632957227E+03 -0.59580648566E+03  0.41637256043E+03  0.88017987465E+03  0.46999998093E+01 0.  1.
       -5    1    3    3    0  502  0.49632957227E+03  0.59580648566E+03  0.10457892898E+02  0.77553843888E+03  0.46999998093E+01 0. -1.
</event>
<event>
 5   0  0.1060251E-05  0.1601533E+04  0.7818609E-02  0.8819607E-01
        1   -1    0    0  501    0  0.00000000000E+00  0.00000000000E+00  0.57096194432E+03  0.57096194434E+03  0.50400001928E-02 0. -1.
       -1   -1    0    0    0  501  0.00000000000E+00  0.00000000000E+00 -0.11230647260E+04  0.11230647260E+04  0.50400001928E-02 0.  1.
    10030    2    1    2    0    0  0.00000000000E+00  0.00000000000E+00 -0.55210278167E+03  0.16940266703E+04  0.16015332898E+04 0.  0.
        1    1    3    3  502    0 -0.36862838846E+03  0.15652993245E+03 -0.10095241436E+04  0.10860605439E+04  0.50400001928E-02 0.  1.
       -1    1    3    3    0  502  0.36862838846E+03 -0.15652993245E+03  0.45742136191E+03  0.60796612644E+03  0.50400001928E-02 0. -1.
</event>
<event>
 5   0  0.2125803E-05  0.1598471E+04  0.7818609E-02  0.8821488E-01
       -2   -1    0    0    0  501  0.00000000000E+00  0.00000000000E+00  0.32740221541E+03  0.32740221542E+03  0.25500000920E-02 0.  1.
        2   -1    0    0  501    0  0.00000000000E+00  0.00000000000E+00 -0.19510488922E+04  0.19510488922E+04  0.25500000920E-02 0. -1.
    10030    2    1    2    0    0  0.00000000000E+00  0.00000000000E+00 -0.16236466768E+04  0.22784511076E+04  0.15984714320E+04 0.  0.
        3    1    3    3  502    0  0.20962715575E+03 -0.33971287882E+03  0.17513117326E+03  0.43591205823E+03  0.10100000352E+00 0.  1.
       -3    1    3    3    0  502 -0.20962715575E+03  0.33971287882E+03 -0.17987778501E+04  0.18425390494E+04  0.10100000352E+00 0. -1.
</event>
<event>
 5   0  0.2125803E-05  0.1599930E+04  0.7818609E-02  0.8820591E-01
       -2   -1    0    0    0  501  0.00000000000E+00  0.00000000000E+00  0.89730107177E+03  0.89730107177E+03  0.25500000920E-02 0.  1.
        2   -1    0    0  501    0  0.00000000000E+00  0.00000000000E+00 -0.71318759426E+03  0.71318759426E+03  0.25500000920E-02 0. -1.
    10030    2    1    2    0    0  0.00000000000E+00  0.00000000000E+00  0.18411347751E+03  0.16104886660E+04  0.15999299894E+04 0.  0.
        3    1    3    3  502    0  0.27945197292E+03 -0.73002209751E+03 -0.79119382768E+02  0.78567522231E+03  0.10100000352E+00 0.  1.
       -3    1    3    3    0  502 -0.27945197292E+03  0.73002209751E+03  0.26323286028E+03  0.82481344373E+03  0.10100000352E+00 0. -1.
</event>
<event>
 5   0  0.1057506E-05  0.1600941E+04  0.7818609E-02  0.8819970E-01
        1   -1    0    0  501    0  0.00000000000E+00  0.00000000000E+00  0.72418686477E+03  0.72418686478E+03  0.50400001928E-02 0.  1.
       -1   -1    0    0    0  501  0.00000000000E+00  0.00000000000E+00 -0.88479010224E+03  0.88479010225E+03  0.50400001928E-02 0. -1.
    10030    2    1    2    0    0  0.00000000000E+00  0.00000000000E+00 -0.16060323747E+03  0.16089769670E+04  0.16009414357E+04 0.  0.
        5    1    3    3  502    0 -0.40284131617E+02  0.54928347384E+03  0.50347195712E+03  0.74621796246E+03  0.46999998093E+01 0.  1.
       -5    1    3    3    0  502  0.40284131617E+02 -0.54928347384E+03 -0.66407519460E+03  0.86275900457E+03  0.46999998093E+01 0. -1.
</event>
<event>
 5   0  0.1081831E-05  0.1598280E+04  0.7818609E-02  0.8821605E-01
        1   -1    0    0  501    0  0.00000000000E+00  0.00000000000E+00  0.48884844208E+03  0.48884844211E+03  0.50400001928E-02 0.  1.
       -1   -1    0    0    0  501  0.00000000000E+00  0.00000000000E+00 -0.13063862226E+04  0.13063862226E+04  0.50400001928E-02 0. -1.
    10030    2    1    2    0    0  0.00000000000E+00  0.00000000000E+00 -0.81753778055E+03  0.17952346647E+04  0.15982801628E+04 0.  0.
        3    1    3    3  502    0  0.11530297066E+03  0.36784507001E+02  0.47849458083E+03  0.49356352082E+03  0.10100000352E+00 0.  1.
       -3    1    3    3    0  502 -0.11530297066E+03 -0.36784507001E+02 -0.12960323614E+04  0.13016711439E+04  0.10100000352E+00 0. -1.
</event>
<event>
 5   0  0.1081831E-05  0.1601219E+04  0.7818609E-02  0.8819799E-01
        1   -1    0    0  501    0  0.00000000000E+00  0.00000000000E+00  0.60498856606E+03  0.60498856608E+03  0.50400001928E-02 0. -1.
       -1   -1    0    0    0  501  0.00000000000E+00  0.00000000000E+00 -0.10594837683E+04  0.10594837684E+04  0.50400001928E-02 0.  1.
    10030    2    1    2    0    0  0.00000000000E+00  0.00000000000E+00 -0.45449520228E+03  0.16644723344E+04  0.16012189929E+04 0.  0.
        3    1    3    3  502    0  0.26749577479E+03 -0.28219894982E+03  0.50024524958E+03  0.63358942284E+03  0.10100000352E+00 0. -1.
       -3    1    3    3    0  502 -0.26749577479E+03  0.28219894982E+03 -0.95474045186E+03  0.10308829116E+04  0.10100000352E+00 0.  1.
</event>
<event>
 5   0  0.2147844E-05  0.1600196E+04  0.7818609E-02  0.8820428E-01
        2   -1    0    0  501    0  0.00000000000E+00  0.00000000000E+00  0.11984345720E+04  0.11984345720E+04  0.25500000920E-02 0.  1.
       -2   -1    0    0    0  501  0.00000000000E+00  0.00000000000E+00 -0.53416078685E+03  0.53416078686E+03  0.25500000920E-02 0. -1.
    10030    2    1    2    0    0  0.00000000000E+00  0.00000000000E+00  0.66427378514E+03  0.17325953589E+04  0.16001959305E+04 0.  0.
        2    1    3    3  502    0 -0.60056985590E+03 -0.31764782453E+03  0.78967916829E+03  0.10417185230E+04  0.25500000920E-02 0.  1.
       -2    1    3    3    0  502  0.60056985590E+03  0.31764782453E+03 -0.12540538315E+03  0.69087683589E+03  0.25500000920E-02 0. -1.
</event>
<event>
 5   0  0.2147844E-05  0.1600234E+04  0.7818609E-02  0.8820405E-01
       -2   -1    0    0    0  501  0.00000000000E+00  0.00000000000E+00  0.35446549105E+03  0.35446549106E+03  0.25500000920E-02 0.  1.
        2   -1    0    0  501    0  0.00000000000E+00  0.00000000000E+00 -0.18060625880E+04  0.18060625880E+04  0.25500000920E-02 0. -1.
    10030    2    1    2    0    0  0.00000000000E+00  0.00000000000E+00 -0.14515970969E+04  0.21605280791E+04  0.16002335606E+04 0.  0.
        2    1    3    3  502    0  0.75036471860E+03 -0.24349539931E+03 -0.90617975694E+03  0.12014570206E+04  0.25500000920E-02 0. -1.
       -2    1    3    3    0  502 -0.75036471860E+03  0.24349539931E+03 -0.54541734001E+03  0.95907105847E+03  0.25500000920E-02 0.  1.
</event>
<event>
 5   0  0.1090674E-05  0.1599881E+04  0.7818609E-02  0.8820621E-01
       -1   -1    0    0    0  501  0.00000000000E+00  0.00000000000E+00  0.32876905975E+03  0.32876905979E+03  0.50400001928E-02 0. -1.
        1   -1    0    0  501    0  0.00000000000E+00  0.00000000000E+00 -0.19463655833E+04  0.19463655833E+04  0.50400001928E-02 0.  1.
    10030    2    1    2    0    0  0.00000000000E+00  0.00000000000E+00 -0.16175965235E+04  0.22751346430E+04  0.15998809741E+04 0.  0.
        4    1    3    3  502    0  0.55069697474E+03  0.50912641679E+03 -0.12044961138E+04  0.14189042841E+04  0.12699999809E+01 0.  1.
       -4    1    3    3    0  502 -0.55069697474E+03 -0.50912641679E+03 -0.41310040969E+03  0.85623035898E+03  0.12699999809E+01 0. -1.
</event>
<event>
 5   0  0.2046108E-05  0.1607043E+04  0.7818609E-02  0.8816233E-01
        2   -1    0    0  501    0  0.00000000000E+00  0.00000000000E+00  0.87255616166E+03  0.87255616166E+03  0.25500000920E-02 0. -1.
       -2   -1    0    0    0  501  0.00000000000E+00  0.00000000000E+00 -0.73994837830E+03  0.73994837830E+03  0.25500000920E-02 0.  1.
    10030    2    1    2    0    0  0.00000000000E+00  0.00000000000E+00  0.13260778336E+03  0.16125045400E+04  0.16070426464E+04 0.  0.
        1    1    3    3  502    0 -0.11360988517E+03 -0.55784561607E+03 -0.50267501507E+03  0.75946106430E+03  0.50400001928E-02 0.  1.
       -1    1    3    3    0  502  0.11360988517E+03  0.55784561607E+03  0.63528279843E+03  0.85304347567E+03  0.50400001928E-02 0. -1.
</event>
<event>
 5   0  0.7597000E-06  0.1601351E+04  0.7818609E-02  0.8819719E-01
       -3   -1    0    0    0  501  0.00000000000E+00  0.00000000000E+00  0.86461461101E+03  0.86461461691E+03  0.10100000352E+00 0.  1.
        3   -1    0    0  501    0  0.00000000000E+00  0.00000000000E+00 -0.74146445455E+03  0.74146446143E+03  0.10100000352E+00 0. -1.
    10030    2    1    2    0    0  0.00000000000E+00  0.00000000000E+00  0.12315015645E+03  0.16060790783E+04  0.16013506939E+04 0.  0.
        3    1    3    3  502    0  0.77311810500E+03  0.19838060915E+03  0.12512248911E+03  0.80791219687E+03  0.10100000352E+00 0. -1.
       -3    1    3    3    0  502 -0.77311810500E+03 -0.19838060915E+03 -0.19723326585E+01  0.79816688147E+03  0.10100000352E+00 0.  1.
</event>
<event>
 5   0  0.1994525E-05  0.1601239E+04  0.7818609E-02  0.8819787E-01
        2   -1    0    0  501    0  0.00000000000E+00  0.00000000000E+00  0.12853194031E+04  0.12853194031E+04  0.25500000920E-02 0.  1.
       -2   -1    0    0    0  501  0.00000000000E+00  0.00000000000E+00 -0.49870240630E+03  0.49870240631E+03  0.25500000920E-02 0. -1.
    10030    2    1    2    0    0  0.00000000000E+00  0.00000000000E+00  0.78661699682E+03  0.17840218094E+04  0.16012393690E+04 0.  0.
        5    1    3    3  502    0 -0.44194635963E+03 -0.48652868180E+03  0.90258995208E+03  0.11165650248E+04  0.46999998093E+01 0.  1.
       -5    1    3    3    0  502  0.44194635963E+03  0.48652868180E+03 -0.11597295526E+03  0.66745678463E+03  0.46999998093E+01 0. -1.
</event>
<event>
 5   0  0.1994525E-05  0.1599490E+04  0.7818609E-02  0.8820862E-01
        2   -1    0    0  501    0  0.00000000000E+00  0.00000000000E+00  0.75381808189E+03  0.75381808189E+03  0.25500000920E-02 0.  1.
       -2   -1    0    0    0  501  0.00000000000E+00  0.00000000000E+00 -0.84846955615E+03  0.84846955615E+03  0.25500000920E-02 0. -1.
    10030    2    1    2    0    0  0.00000000000E+00  0.00000000000E+00 -0.94651474259E+02  0.16022876380E+04  0.15994895353E+04 0.  0.
        5    1    3    3  502    0  0.27381909629E+03  0.13694045697E+03 -0.78742805601E+03  0.84486366927E+03  0.46999998093E+01 0. -1.
       -5    1    3    3    0  502 -0.27381909629E+03 -0.13694045697E+03  0.69277658176E+03  0.75742396877E+03  0.46999998093E+01 0.  1.
</event>
<event>
 5   0  0.2147844E-05  0.1599414E+04  0.7818609E-02  0.8820908E-01
       -2   -1    0    0    0  501  0.00000000000E+00  0.00000000000E+00  0.31292228631E+03  0.31292228632E+03  0.25500000920E-02 0.  1.
        2   -1    0    0  501    0  0.00000000000E+00  0.00000000000E+00 -0.20437372126E+04  0.20437372126E+04  0.25500000920E-02 0. -1.
    10030    2    1    2    0    0  0.00000000000E+00  0.00000000000E+00 -0.17308149263E+04  0.23566594989E+04  0.15994135440E+04 0.  0.
        2    1    3    3  502    0 -0.29572335690E+03  0.70604628977E+03 -0.12064639346E+04  0.14288138061E+04  0.25500000920E-02 0. -1.
       -2    1    3    3    0  502  0.29572335690E+03 -0.70604628977E+03 -0.52435099168E+03  0.92784569278E+03  0.25500000920E-02 0.  1.
</event>
<event>
 5   0  0.1057506E-05  0.1599824E+04  0.7818609E-02  0.8820656E-01
        1   -1    0    0  501    0  0.00000000000E+00  0.00000000000E+00  0.57214303443E+03  0.57214303446E+03  0.50400001928E-02 0. -1.
       -1   -1    0    0    0  501  0.00000000000E+00  0.00000000000E+00 -0.11183560078E+04  0.11183560078E+04  0.50400001928E-02 0.  1.
    10030    2    1    2    0    0  0.00000000000E+00  0.00000000000E+00 -0.54621297336E+03  0.16904990423E+04  0.15998244903E+04 0.  0.
        5    1    3    3  502    0  0.18755294564E+03  0.44976864677E+03  0.39717180034E+03  0.62867755807E+03  0.46999998093E+01 0. -1.
       -5    1    3    3    0  502 -0.18755294564E+03 -0.44976864677E+03 -0.94338477370E+03  0.10618214842E+04  0.46999998093E+01 0.  1.
</event>
<event>
 5   0  0.2125803E-05  0.1600533E+04  0.7818609E-02  0.8820220E-01
       -2   -1    0    0    0  501  0.00000000000E+00  0.00000000000E+00  0.29417978167E+03  0.29417978169E+03  0.25500000920E-02 0.  1.
        2   -1    0    0  501    0  0.00000000000E+00  0.00000000000E+00 -0.21769910036E+04  0.21769910036E+04  0.25500000920E-02 0. -1.
    10030    2    1    2    0    0  0.00000000000E+00  0.00000000000E+00 -0.18828112219E+04  0.24711707852E+04  0.16005333338E+04 0.  0.
        3    1    3    3  502    0 -0.61002761723E+03  0.84071912015E+02 -0.17305298127E+04  0.18368274886E+04  0.10100000352E+00 0. -1.
       -3    1    3    3    0  502  0.61002761723E+03 -0.84071912015E+02 -0.15228140919E+03  0.63434329661E+03  0.10100000352E+00 0.  1.
</event>
<event>
 5   0  0.1081831E-05  0.1599754E+04  0.7818609E-02  0.8820699E-01
        1   -1    0    0  501    0  0.00000000000E+00  0.00000000000E+00  0.45265719967E+03  0.45265719970E+03  0.50400001928E-02 0. -1.
       -1   -1    0    0    0  501  0.00000000000E+00  0.00000000000E+00 -0.14134394513E+04  0.14134394513E+04  0.50400001928E-02 0.  1.
    10030    2    1    2    0    0  0.00000000000E+00  0.00000000000E+00 -0.96078225165E+03  0.18660966510E+04  0.15997544111E+04 0.  0.
        3    1    3    3  502    0 -0.18466494374E+03 -0.16263285628E+03  0.40740846980E+03  0.47595405120E+03  0.10100000352E+00 0. -1.
       -3    1    3    3    0  502  0.18466494374E+03  0.16263285628E+03 -0.13681907215E+04  0.13901425998E+04  0.10100000352E+00 0.  1.
</event>
<event>
 5   0  0.1990948E-05  0.1598692E+04  0.7818609E-02  0.8821352E-01
        2   -1    0    0  501    0  0.00000000000E+00  0.00000000000E+00  0.78459457189E+03  0.78459457189E+03  0.25500000920E-02 0.  1.
       -2   -1    0    0    0  501  0.00000000000E+00  0.00000000000E+00 -0.81437507248E+03  0.81437507248E+03  0.25500000920E-02 0. -1.
    10030    2    1    2    0    0  0.00000000000E+00  0.00000000000E+00 -0.29780500591E+02  0.15989696444E+04  0.15986922923E+04 0.  0.
        4    1    3    3  502    0  0.14782550515E+02  0.14248255904E+03  0.77165119398E+03  0.78483563980E+03  0.12699999809E+01 0.  1.
       -4    1    3    3    0  502 -0.14782550515E+02 -0.14248255904E+03 -0.80143169457E+03  0.81413400457E+03  0.12699999809E+01 0. -1.
</event>
<event>
 5   0  0.1126485E-05  0.1600680E+04  0.7818609E-02  0.8820130E-01
       -1   -1    0    0    0  501  0.00000000000E+00  0.00000000000E+00  0.13000688874E+04  0.13000688874E+04  0.50400001928E-02 0.  1.
        1   -1    0    0  501    0  0.00000000000E+00  0.00000000000E+00 -0.49270030511E+03  0.49270030514E+03  0.50400001928E-02 0. -1.
    10030    2    1    2    0    0  0.00000000000E+00  0.00000000000E+00  0.80736858225E+03  0.17927691925E+04  0.16006802773E+04 0.  0.
        2    1    3    3  502    0  0.58155540797E+03 -0.23341426727E+03 -0.15391087620E+03  0.64527317511E+03  0.25500000920E-02 0. -1.
       -2    1    3    3    0  502 -0.58155540797E+03  0.23341426727E+03  0.96127945845E+03  0.11474960174E+04  0.25500000920E-02 0.  1.
</event>
<event>
 5   0  0.1060251E-05  0.1599919E+04  0.7818609E-02  0.8820598E-01
        1   -1    0    0  501    0  0.00000000000E+00  0.00000000000E+00  0.69285536467E+03  0.69285536469E+03  0.50400001928E-02 0. -1.
       -1   -1    0    0    0  501  0.00000000000E+00  0.00000000000E+00 -0.92362041208E+03  0.92362041210E+03  0.50400001928E-02 0.  1.
    10030    2    1    2    0    0  0.00000000000E+00  0.00000000000E+00 -0.23076504741E+03  0.16164757768E+04  0.15999191948E+04 0.  0.
        1    1    3    3  502    0 -0.17509961044E+03  0.13949528940E+03 -0.89132518272E+03  0.91901000578E+03  0.50400001928E-02 0.  1.
       -1    1    3    3    0  502  0.17509961044E+03 -0.13949528940E+03  0.66056013531E+03  0.69746577101E+03  0.50400001928E-02 0. -1.
</event>
<event>
 5   0  0.1994525E-05  0.1599944E+04  0.7818609E-02  0.8820582E-01
       -2   -1    0    0    0  501  0.00000000000E+00  0.00000000000E+00  0.39286290398E+03  0.39286290398E+03  0.25500000920E-02 0. -1.
        2   -1    0    0  501    0  0.00000000000E+00  0.00000000000E+00 -0.16289529469E+04  0.16289529469E+04  0.25500000920E-02 0.  1.
    10030    2    1    2    0    0  0.00000000000E+00  0.00000000000E+00 -0.12360900429E+04  0.20218158509E+04  0.15999439805E+04 0.  0.
        5    1    3    3  502    0 -0.60409574035E+03 -0.51698398571E+03 -0.72914096398E+03  0.10788293379E+04  0.46999998093E+01 0. -1.
       -5    1    3    3    0  502  0.60409574035E+03  0.51698398571E+03 -0.50694907893E+03  0.94298651296E+03  0.46999998093E+01 0.  1.
</event>
<event>
 5   0  0.1057506E-05  0.1603667E+04  0.7818609E-02  0.8818298E-01
        1   -1    0    0  501    0  0.00000000000E+00  0.00000000000E+00  0.89142292569E+03  0.89142292570E+03  0.50400001928E-02 0. -1.
       -1   -1    0    0    0  501  0.00000000000E+00  0.00000000000E+00 -0.72124798540E+03  0.72124798542E+03  0.50400001928E-02 0.  1.
    10030    2    1    2    0    0  0.00000000000E+00  0.00000000000E+00  0.17017494029E+03  0.16126709111E+04  0.16036670344E+04 0.  0.
        5    1    3    3  502    0 -0.69183831852E+03 -0.33019439893E+03  0.32145245817E+03  0.83127755468E+03  0.46999998093E+01 0.  1.
       -5    1    3    3    0  502  0.69183831852E+03  0.33019439893E+03 -0.15127751788E+03  0.78139335643E+03  0.46999998093E+01 0. -1.
</event>
<event>
 5   0  0.2125803E-05  0.1600019E+04  0.7818609E-02  0.8820537E-01
       -2   -1    0    0    0  501  0.00000000000E+00  0.00000000000E+00  0.92497890674E+03  0.92497890674E+03  0.25500000920E-02 0. -1.
        2   -1    0    0  501    0  0.00000000000E+00  0.00000000000E+00 -0.69192379474E+03  0.69192379475E+03  0.25500000920E-02 0.  1.
    10030    2    1    2    0    0  0.00000000000E+00  0.00000000000E+00  0.23305511199E+03  0.16169027015E+04  0.16000186439E+04 0.  0.
        3    1    3    3  502    0  0.55773416658E+03  0.20597179521E+03  0.65745458439E+03  0.88641881846E+03  0.10100000352E+00 0. -1.
       -3    1    3    3    0  502 -0.55773416658E+03 -0.20597179521E+03 -0.42439947240E+03  0.73048388303E+03  0.10100000352E+00 0.  1.
</event>
<event>
 5   0  0.2046108E-05  0.1598638E+04  0.7818609E-02  0.8821385E-01
       -2   -1    0    0    0  501  0.00000000000E+00  0.00000000000E+00  0.55590896563E+03  0.55590896564E+03  0.25500000920E-02 0. -1.
        2   -1    0    0  501    0  0.00000000000E+00  0.00000000000E+00 -0.11493085590E+04  0.11493085590E+04  0.25500000920E-02 0.  1.
    10030    2    1    2    0    0  0.00000000000E+00  0.00000000000E+00 -0.59339959340E+03  0.17052175247E+04  0.15986380857E+04 0.  0.
        1    1    3    3  502    0  0.58415576517E+03 -0.49830426085E+03 -0.53369681833E+03  0.93508148751E+03  0.50400001928E-02 0.  1.
       -1    1    3    3    0  502 -0.58415576517E+03  0.49830426085E+03 -0.59702775064E+02  0.77013603716E+03  0.50400001928E-02 0. -1.
</event>
<event>
 5   0  0.1126485E-05  0.1599902E+04  0.7818609E-02  0.8820608E-01
       -1   -1    0    0    0  501  0.00000000000E+00  0.00000000000E+00  0.92635463692E+03  0.92635463693E+03  0.50400001928E-02 0.  1.
        1   -1    0    0  501    0  0.00000000000E+00  0.00000000000E+00 -0.69079559961E+03  0.69079559963E+03  0.50400001928E-02 0. -1.
    10030    2    1    2    0    0  0.00000000000E+00  0.00000000000E+00  0.23555903731E+03  0.16171502366E+04  0.15999021306E+04 0.  0.
        2    1    3    3  502    0 -0.47443727931E+03  0.23211092964E+02 -0.53281491130E+03  0.71380754868E+03  0.25500000920E-02 0. -1.
       -2    1    3    3    0  502  0.47443727931E+03 -0.23211092964E+02  0.76837394861E+03  0.90334268788E+03  0.25500000920E-02 0.  1.
</event>
<event>
 5   0  0.1126485E-05  0.1599376E+04  0.7818609E-02  0.8820931E-01
        1   -1    0    0  501    0  0.00000000000E+00  0.00000000000E+00  0.61672523153E+03  0.61672523155E+03  0.50400001928E-02 0.  1.
       -1   -1    0    0    0  501  0.00000000000E+00  0.00000000000E+00 -0.10369303407E+04  0.10369303407E+04  0.50400001928E-02 0. -1.
    10030    2    1    2    0    0  0.00000000000E+00  0.00000000000E+00 -0.42020510917E+03  0.16536555723E+04  0.15993762590E+04 0.  0.
        2    1    3    3  502    0 -0.62001169270E+01  0.13445637793E+03 -0.10251342489E+04  0.10339328737E+04  0.25500000920E-02 0. -1.
       -2    1    3    3    0  502  0.62001169270E+01 -0.13445637793E+03  0.60492913974E+03  0.61972269857E+03  0.25500000920E-02 0.  1.
</event>
<event>
 5   0  0.2125803E-05  0.1599567E+04  0.7818609E-02  0.8820814E-01
        2   -1    0    0  501    0  0.00000000000E+00  0.00000000000E+00  0.86178468650E+03  0.86178468650E+03  0.25500000920E-02 0. -1.
       -2   -1    0    0    0  501  0.00000000000E+00  0.00000000000E+00 -0.74224272678E+03  0.74224272679E+03  0.25500000920E-02 0.  1.
    10030    2    1    2    0    0  0.00000000000E+00  0.00000000000E+00  0.11954195972E+03  0.16040274133E+04  0.15995667108E+04 0.  0.
        3    1    3    3  502    0 -0.65529620667E+03 -0.88650885846E+02  0.51089362441E+03  0.83563413268E+03  0.10100000352E+00 0. -1.
       -3    1    3    3    0  502  0.65529620667E+03  0.88650885846E+02 -0.39135166469E+03  0.76839328061E+03  0.10100000352E+00 0.  1.
</event>
<event>
 5   0  0.1994525E-05  0.1600446E+04  0.7818609E-02  0.8820274E-01
        2   -1    0    0  501    0  0.00000000000E+00  0.00000000000E+00  0.15741885986E+04  0.15741885986E+04  0.25500000920E-02 0. -1.
       -2   -1    0    0    0  501  0.00000000000E+00  0.00000000000E+00 -0.40678527136E+03  0.40678527136E+03  0.25500000920E-02 0.  1.
    10030    2    1    2    0    0  0.00000000000E+00  0.00000000000E+00  0.11674033272E+04  0.19809738699E+04  0.16004458582E+04 0.  0.
        5    1    3    3  502    0  0.34694512880E+03 -0.17588223870E+03  0.14492775299E+04  0.15005775331E+04  0.46999998093E+01 0. -1.
       -5    1    3    3    0  502 -0.34694512880E+03  0.17588223870E+03 -0.28187420268E+03  0.48039633681E+03  0.46999998093E+01 0.  1.
</event>
<event>
 5   0  0.1090674E-05  0.1600012E+04  0.7818609E-02  0.8820540E-01
        1   -1    0    0  501    0  0.00000000000E+00  0.00000000000E+00  0.10683929015E+04  0.10683929015E+04  0.50400001928E-02 0. -1.
       -1   -1    0    0    0  501  0.00000000000E+00  0.00000000000E+00 -0.59903977943E+03  0.59903977945E+03  0.50400001928E-02 0.  1.
    10030    2    1    2    0    0  0.00000000000E+00  0.00000000000E+00  0.46935312205E+03  0.16674326809E+04  0.16000123100E+04 0.  0.
        4    1    3    3  502    0  0.12294185555E+02 -0.45318682633E+03  0.92160148552E+03  0.10270736865E+04  0.12699999809E+01 0. -1.
       -4    1    3    3    0  502 -0.12294185555E+02  0.45318682633E+03 -0.45224836347E+03  0.64035899441E+03  0.12699999809E+01 0.  1.
</event>
<event>
 5   0  0.1090674E-05  0.1600700E+04  0.7818609E-02  0.8820118E-01
       -1   -1    0    0    0  501  0.00000000000E+00  0.00000000000E+00  0.47664552664E+03  0.47664552667E+03  0.50400001928E-02 0. -1.
        1   -1    0    0  501    0  0.00000000000E+00  0.00000000000E+00 -0.13438924272E+04  0.13438924273E+04  0.50400001928E-02 0.  1.
    10030    2    1    2    0    0  0.00000000000E+00  0.00000000000E+00 -0.86724690060E+03  0.18205379539E+04  0.16007002390E+04 0.  0.
        4    1    3    3  502    0  0.58957635085E+03  0.11131627300E+03  0.16880865784E+03  0.62328930841E+03  0.12699999809E+01 0. -1.
       -4    1    3    3    0  502 -0.58957635085E+03 -0.11131627300E+03 -0.10360555584E+04  0.11972486455E+04  0.12699999809E+01 0.  1.
</event>
<event>
 5   0  0.1060251E-05  0.1600312E+04  0.7818609E-02  0.8820356E-01
        1   -1    0    0  501    0  0.00000000000E+00  0.00000000000E+00  0.16624030432E+04  0.16624030432E+04  0.50400001928E-02 0.  1.
       -1   -1    0    0    0  501  0.00000000000E+00  0.00000000000E+00 -0.38513504515E+03  0.38513504518E+03  0.50400001928E-02 0. -1.
    10030    2    1    2    0    0  0.00000000000E+00  0.00000000000E+00  0.12772679980E+04  0.20475380884E+04  0.16003120585E+04 0.  0.
        1    1    3    3  502    0 -0.25711722605E+03 -0.54435443609E+03  0.13130191679E+04  0.14444550375E+04  0.50400001928E-02 0.  1.
       -1    1    3    3    0  502  0.25711722605E+03  0.54435443609E+03 -0.35751169930E+02  0.60308305083E+03  0.50400001928E-02 0. -1.
</event>
<event>
 5   0  0.1060251E-05  0.1601624E+04  0.7818609E-02  0.8819551E-01
       -1   -1    0    0    0  501  0.00000000000E+00  0.00000000000E+00  0.33826222743E+03  0.33826222747E+03  0.50400001928E-02 0. -1.
        1   -1    0    0  501    0  0.00000000000E+00  0.00000000000E+00 -0.18958666950E+04  0.18958666950E+04  0.50400001928E-02 0.  1.
    10030    2    1    2    0    0  0.00000000000E+00  0.00000000000E+00 -0.15576044676E+04  0.22341289225E+04  0.16016242895E+04 0.  0.
        1    1    3    3  502    0  0.45593066594E+03 -0.23224022474E+03 -0.16381100869E+04  0.17161622740E+04  0.50400001928E-02 0.  1.
       -1    1    3    3    0  502 -0.45593066594E+03  0.23224022474E+03  0.80505619287E+02  0.51796664844E+03  0.50400001928E-02 0. -1.
</event>
<event>
 5   0  0.1126485E-05  0.1601032E+04  0.7818609E-02  0.8819914E-01
       -1   -1    0    0    0  501  0.00000000000E+00  0.00000000000E+00  0.35697509024E+03  0.35697509028E+03  0.50400001928E-02 0. -1.
        1   -1    0    0  501    0  0.00000000000E+00  0.00000000000E+00 -0.17951566385E+04  0.17951566385E+04  0.50400001928E-02 0.  1.
    10030    2    1    2    0    0  0.00000000000E+00  0.00000000000E+00 -0.14381815482E+04  0.21521317288E+04  0.16010324208E+04 0.  0.
        2    1    3    3  502    0 -0.61927797921E+03  0.45846325707E+03 -0.42726164645E+03  0.88104840284E+03  0.25500000920E-02 0. -1.
       -2    1    3    3    0  502  0.61927797921E+03 -0.45846325707E+03 -0.10109199018E+04  0.12710833259E+04  0.25500000920E-02 0.  1.
</event>
<event>
 5   0  0.1057506E-05  0.1599632E+04  0.7818609E-02  0.8820774E-01
       -1   -1    0    0    0  501  0.00000000000E+00  0.00000000000E+00  0.77290619290E+03  0.77290619292E+03  0.50400001928E-02 0. -1.
        1   -1    0    0  501    0  0.00000000000E+00  0.00000000000E+00 -0.82766276042E+03  0.82766276044E+03  0.50400001928E-02 0.  1.
    10030    2    1    2    0    0  0.00000000000E+00  0.00000000000E+00 -0.54756567520E+02  0.16005689534E+04  0.15996320492E+04 0.  0.
        5    1    3    3  502    0 -0.56581604502E+03 -0.24834792432E+03  0.48071741528E+03  0.78290217247E+03  0.46999998093E+01 0. -1.
       -5    1    3    3    0  502  0.56581604502E+03  0.24834792432E+03 -0.53547398280E+03  0.81766678089E+03  0.46999998093E+01 0.  1.
</event>
<event>
 5   0  0.1126485E-05  0.1600025E+04  0.7818609E-02  0.8820532E-01
        1   -1    0    0  501    0  0.00000000000E+00  0.00000000000E+00  0.60897181121E+03  0.60897181124E+03  0.50400001928E-02 0. -1.
       -1   -1    0    0    0  501  0.00000000000E+00  0.00000000000E+00 -0.10509849879E+04  0.10509849879E+04  0.50400001928E-02 0.  1.
    10030    2    1    2    0    0  0.00000000000E+00  0.00000000000E+00 -0.44201317672E+03  0.16599567992E+04  0.16000252894E+04 0.  0.
        2    1    3    3  502    0  0.40642857805E+03 -0.12175227883E+03 -0.92465339290E+03  0.10173454199E+04  0.25500000920E-02 0.  1.
       -2    1    3    3    0  502 -0.40642857805E+03  0.12175227883E+03  0.48264021618E+03  0.64261137925E+03  0.25500000920E-02 0. -1.
</event>
<event>
 5   0  0.2046108E-05  0.1595064E+04  0.7818609E-02  0.8823586E-01
       -2   -1    0    0    0  501  0.00000000000E+00  0.00000000000E+00  0.71276892333E+03  0.71276892333E+03  0.25500000920E-02 0. -1.
        2   -1    0    0  501    0  0.00000000000E+00  0.00000000000E+00 -0.89237518963E+03  0.89237518963E+03  0.25500000920E-02 0.  1.
    10030    2    1    2    0    0  0.00000000000E+00  0.00000000000E+00 -0.17960626630E+03  0.16051441130E+04  0.15950640152E+04 0.  0.
        1    1    3    3  502    0  0.47738589736E+03 -0.85315623013E+01  0.55305095532E+03  0.73064043260E+03  0.50400001928E-02 0. -1.
       -1    1    3    3    0  502 -0.47738589736E+03  0.85315623013E+01 -0.73265722162E+03  0.87450368036E+03  0.50400001928E-02 0.  1.
</event>
<event>
 5   0  0.2046108E-05  0.1599317E+04  0.7818609E-02  0.8820968E-01
        2   -1    0    0  501    0  0.00000000000E+00  0.00000000000E+00  0.57842680994E+03  0.57842680995E+03  0.25500000920E-02 0. -1.
       -2   -1    0    0    0  501  0.00000000000E+00  0.00000000000E+00 -0.11055048923E+04  0.11055048923E+04  0.25500000920E-02 0.  1.
    10030    2    1    2    0    0  0.00000000000E+00  0.00000000000E+00 -0.52707808233E+03  0.16839317022E+04  0.15993169395E+04 0.  0.
        1    1    3    3  502    0  0.39545247446E+02  0.76816740716E+03 -0.49375917132E+03  0.91402577169E+03  0.50400001928E-02 0.  1.
       -1    1    3    3    0  502 -0.39545247446E+02 -0.76816740716E+03 -0.33318911006E+02  0.76990593053E+03  0.50400001928E-02 0. -1.
</event>
<event>
 5   0  0.2147844E-05  0.1601293E+04  0.7818609E-02  0.8819754E-01
       -2   -1    0    0    0  501  0.00000000000E+00  0.00000000000E+00  0.22163736900E+03  0.22163736902E+03  0.25500000920E-02 0.  1.
        2   -1    0    0  501    0  0.00000000000E+00  0.00000000000E+00 -0.28922674029E+04  0.28922674029E+04  0.25500000920E-02 0. -1.
    10030    2    1    2    0    0  0.00000000000E+00  0.00000000000E+00 -0.26706300339E+04  0.31139047719E+04  0.16012926499E+04 0.  0.
        2    1    3    3  502    0  0.22625748153E+03  0.21059242786E+03 -0.27715621526E+04  0.27887449478E+04  0.25500000920E-02 0. -1.
       -2    1    3    3    0  502 -0.22625748153E+03 -0.21059242786E+03  0.10093211865E+03  0.32515982409E+03  0.25500000920E-02 0.  1.
</event>
<event>
 5   0  0.1090674E-05  0.1599929E+04  0.7818609E-02  0.8820592E-01
       -1   -1    0    0    0  501  0.00000000000E+00  0.00000000000E+00  0.17487924728E+04  0.17487924728E+04  0.50400001928E-02 0. -1.
        1   -1    0    0  501    0  0.00000000000E+00  0.00000000000E+00 -0.36593415228E+03  0.36593415231E+03  0.50400001928E-02 0.  1.
    10030    2    1    2    0    0  0.00000000000E+00  0.00000000000E+00  0.13828583205E+04  0.21147266251E+04  0.15999286123E+04 0.  0.
        4    1    3    3  502    0  0.49614003337E+03  0.48504809975E+03  0.16518367738E+03  0.71324179066E+03  0.12699999809E+01 0.  1.
       -4    1    3    3    0  502 -0.49614003337E+03 -0.48504809975E+03  0.12176746432E+04  0.14014848345E+04  0.12699999809E+01 0. -1.
</event>
<event>
 5   0  0.1090674E-05  0.1599759E+04  0.7818609E-02  0.8820696E-01
       -1   -1    0    0    0  501  0.00000000000E+00  0.00000000000E+00  0.37132817216E+03  0.37132817220E+03  0.50400001928E-02 0.  1.
        1   -1    0    0  501    0  0.00000000000E+00  0.00000000000E+00 -0.17230235708E+04  0.17230235708E+04  0.50400001928E-02 0. -1.
    10030    2    1    2    0    0  0.00000000000E+00  0.00000000000E+00 -0.13516953987E+04  0.20943517430E+04  0.15997589733E+04 0.  0.
        4    1    3    3  502    0  0.10965120551E+03  0.79224565629E+03 -0.66097764134E+03  0.10375787305E+04  0.12699999809E+01 0. -1.
       -4    1    3    3    0  502 -0.10965120551E+03 -0.79224565629E+03 -0.69071775731E+03  0.10567730125E+04  0.12699999809E+01 0.  1.
</event>
<event>
 5   0  0.1060251E-05  0.1598567E+04  0.7818609E-02  0.8821429E-01
       -1   -1    0    0    0  501  0.00000000000E+00  0.00000000000E+00  0.59693592054E+03  0.59693592056E+03  0.50400001928E-02 0.  1.
        1   -1    0    0  501    0  0.00000000000E+00  0.00000000000E+00 -0.10702217310E+04  0.10702217310E+04  0.50400001928E-02 0. -1.
    10030    2    1    2    0    0  0.00000000000E+00  0.00000000000E+00 -0.47328581048E+03  0.16671576516E+04  0.15985666007E+04 0.  0.
        1    1    3    3  502    0 -0.18167645766E+03 -0.76556086573E+03 -0.38325965073E+03  0.87520153925E+03  0.50400001928E-02 0. -1.
       -1    1    3    3    0  502  0.18167645766E+03  0.76556086573E+03 -0.90026159750E+02  0.79195611234E+03  0.50400001928E-02 0.  1.
</event>
<event>
 5   0  0.1126485E-05  0.1601774E+04  0.7818609E-02  0.8819459E-01
       -1   -1    0    0    0  501  0.00000000000E+00  0.00000000000E+00  0.39178904463E+03  0.39178904466E+03  0.50400001928E-02 0.  1.
        1   -1    0    0  501    0  0.00000000000E+00  0.00000000000E+00 -0.16371559082E+04  0.16371559082E+04  0.50400001928E-02 0. -1.
    10030    2    1    2    0    0  0.00000000000E+00  0.00000000000E+00 -0.12453668635E+04  0.20289449528E+04  0.16017737034E+04 0.  0.
        2    1    3    3  502    0  0.46795142154E+03  0.52095194495E+03 -0.11149834850E+04  0.13166463587E+04  0.25500000920E-02 0. -1.
       -2    1    3    3    0  502 -0.46795142154E+03 -0.52095194495E+03 -0.13038337850E+03  0.71229859417E+03  0.25500000920E-02 0.  1.
</event>
<event>
 5   0  0.1126485E-05  0.1599721E+04  0.7818609E-02  0.8820719E-01
        1   -1    0    0  501    0  0.00000000000E+00  0.00000000000E+00  0.73091472253E+03  0.73091472255E+03  0.50400001928E-02 0.  1.
       -1   -1    0    0    0  501  0.00000000000E+00  0.00000000000E+00 -0.87531032779E+03  0.87531032780E+03  0.50400001928E-02 0. -1.
    10030    2    1    2    0    0  0.00000000000E+00  0.00000000000E+00 -0.14439560525E+03  0.16062250504E+04  0.15997214825E+04 0.  0.
        2    1    3    3  502    0 -0.43307889603E+03 -0.66385082643E+03  0.35578954898E+02  0.79342366487E+03  0.25500000920E-02 0.  1.
       -2    1    3    3    0  502  0.43307889603E+03  0.66385082643E+03 -0.17997456015E+03  0.81280138548E+03  0.25500000920E-02 0. -1.
</event>
<event>
 5   0  0.2125803E-05  0.1600106E+04  0.7818609E-02  0.8820483E-01
        2   -1    0    0  501    0  0.00000000000E+00  0.00000000000E+00  0.21805088567E+04  0.21805088567E+04  0.25500000920E-02 0.  1.
       -2   -1    0    0    0  501  0.00000000000E+00  0.00000000000E+00 -0.29354819888E+03  0.29354819889E+03  0.25500000920E-02 0. -1.
    10030    2    1    2    0    0  0.00000000000E+00  0.00000000000E+00  0.18869606579E+04  0.24740570556E+04  0.16001055560E+04 0.  0.
        3    1    3    3  502    0 -0.58694195220E+01 -0.91904768462E+02  0.21722863819E+04  0.21742375840E+04  0.10100000352E+00 0.  1.
       -3    1    3    3    0  502  0.58694195220E+01  0.91904768462E+02 -0.28532572405E+03  0.29981947161E+03  0.10100000352E+00 0. -1.
</event>
<event>
 5   0  0.2046108E-05  0.1600059E+04  0.7818609E-02  0.8820512E-01
        2   -1    0    0  501    0  0.00000000000E+00  0.00000000000E+00  0.13594404660E+04  0.13594404661E+04  0.25500000920E-02 0. -1.
       -2   -1    0    0    0  501  0.00000000000E+00  0.00000000000E+00 -0.47081645199E+03  0.47081645199E+03  0.25500000920E-02 0.  1.
    10030    2    1    2    0    0  0.00000000000E+00  0.00000000000E+00  0.88862401406E+03  0.18302569180E+04  0.16000586701E+04 0.  0.
        1    1    3    3  502    0 -0.41388256976E+03 -0.34100940339E+03  0.11234085589E+04  0.12448425543E+04  0.50400001928E-02 0. -1.
       -1    1    3    3    0  502  0.41388256976E+03  0.34100940339E+03 -0.23478454484E+03  0.58541436374E+03  0.50400001928E-02 0.  1.
</event>
<event>
 5   0  0.2125803E-05  0.1600186E+04  0.7818609E-02  0.8820434E-01
        2   -1    0    0  501    0  0.00000000000E+00  0.00000000000E+00  0.12501992978E+04  0.12501992978E+04  0.25500000920E-02 0. -1.
       -2   -1    0    0    0  501  0.00000000000E+00  0.00000000000E+00 -0.51203753557E+03  0.51203753558E+03  0.25500000920E-02 0.  1.
    10030    2    1    2    0    0  0.00000000000E+00  0.00000000000E+00  0.73816176225E+03  0.17622368334E+04  0.16001861985E+04 0.  0.
        3    1    3    3  502    0  0.44977381472E+03 -0.56508602059E+03  0.74822853816E+03  0.10399349261E+04  0.10100000352E+00 0. -1.
       -3    1    3    3    0  502 -0.44977381472E+03  0.56508602059E+03 -0.10066775912E+02  0.72230190727E+03  0.10100000352E+00 0.  1.
</event>
<event>
 5   0  0.1060251E-05  0.1588261E+04  0.7818609E-02  0.8827792E-01
        1   -1    0    0  501    0  0.00000000000E+00  0.00000000000E+00  0.94242985228E+03  0.94242985229E+03  0.50400001928E-02 0.  1.
       -1   -1    0    0    0  501  0.00000000000E+00  0.00000000000E+00 -0.66916754587E+03  0.66916754588E+03  0.50400001928E-02 0. -1.
    10030    2    1    2    0    0  0.00000000000E+00  0.00000000000E+00  0.27326230641E+03  0.16115973982E+04  0.15882612775E+04 0.  0.
        1    1    3    3  502    0 -0.12142605542E+03  0.11300794554E+03  0.92465524519E+03  0.93941599155E+03  0.50400001928E-02 0.  1.
       -1    1    3    3    0  502  0.12142605542E+03 -0.11300794554E+03 -0.65139293878E+03  0.67218140662E+03  0.50400001928E-02 0. -1.
</event>
<event>
 5   0  0.2147844E-05  0.1599937E+04  0.7818609E-02  0.8820587E-01
       -2   -1    0    0    0  501  0.00000000000E+00  0.00000000000E+00  0.44737021193E+03  0.44737021194E+03  0.25500000920E-02 0.  1.
        2   -1    0    0  501    0  0.00000000000E+00  0.00000000000E+00 -0.14304699154E+04  0.14304699154E+04  0.25500000920E-02 0. -1.
    10030    2    1    2    0    0  0.00000000000E+00  0.00000000000E+00 -0.98309970346E+03  0.18778401273E+04  0.15999370353E+04 0.  0.
        2    1    3    3  502    0 -0.50245944485E+03 -0.59165276865E+03 -0.26447333045E+03  0.82003941057E+03  0.25500000920E-02 0. -1.
       -2    1    3    3    0  502  0.50245944485E+03  0.59165276865E+03 -0.71862637301E+03  0.10578007168E+04  0.25500000920E-02 0.  1.
</event>
<event>
 5   0  0.2147844E-05  0.1602616E+04  0.7818609E-02  0.8818943E-01
        2   -1    0    0  501    0  0.00000000000E+00  0.00000000000E+00  0.15129813204E+04  0.15129813204E+04  0.25500000920E-02 0.  1.
       -2   -1    0    0    0  501  0.00000000000E+00  0.00000000000E+00 -0.42438998304E+03  0.42438998305E+03  0.25500000920E-02 0. -1.
    10030    2    1    2    0    0  0.00000000000E+00  0.00000000000E+00  0.10885913374E+04  0.19373713035E+04  0.16026155084E+04 0.  0.
        2    1    3    3  502    0  0.18679542493E+03  0.36136760335E+03  0.13788745553E+04  0.14376279472E+04  0.25500000920E-02 0.  1.
       -2    1    3    3    0  502 -0.18679542493E+03 -0.36136760335E+03 -0.29028321787E+03  0.49974335625E+03  0.25500000920E-02 0. -1.
</event>
<event>
 5   0  0.1060251E-05  0.1600184E+04  0.7818609E-02  0.8820435E-01
       -1   -1    0    0    0  501  0.00000000000E+00  0.00000000000E+00  0.10648223026E+04  0.10648223026E+04  0.50400001928E-02 0. -1.
        1   -1    0    0  501    0  0.00000000000E+00  0.00000000000E+00 -0.60117725518E+03  0.60117725521E+03  0.50400001928E-02 0.  1.
    10030    2    1    2    0    0  0.00000000000E+00  0.00000000000E+00  0.46364504742E+03  0.16659995578E+04  0.16001836759E+04 0.  0.
        1    1    3    3  502    0 -0.15995962878E+03  0.16069861777E+03  0.10306725914E+04  0.10553184919E+04  0.50400001928E-02 0. -1.
       -1    1    3    3    0  502  0.15995962878E+03 -0.16069861777E+03 -0.56702754401E+03  0.61068106593E+03  0.50400001928E-02 0.  1.
</event>
<event>
 5   0  0.1090674E-05  0.1600181E+04  0.7818609E-02  0.8820437E-01
        1   -1    0    0  501    0  0.00000000000E+00  0.00000000000E+00  0.10258703944E+04  0.10258703945E+04  0.50400001928E-02 0.  1.
       -1   -1    0    0    0  501  0.00000000000E+00  0.00000000000E+00 -0.62400194060E+03  0.62400194062E+03  0.50400001928E-02 0. -1.
    10030    2    1    2    0    0  0.00000000000E+00  0.00000000000E+00  0.40186845385E+03  0.16498723351E+04  0.16001813859E+04 0.  0.
        4    1    3    3  502    0 -0.43157139897E+03 -0.22465043902E+03 -0.45394439591E+03  0.66542378950E+03  0.12699999809E+01 0. -1.
       -4    1    3    3    0  502  0.43157139897E+03  0.22465043902E+03  0.85581284976E+03  0.98444854557E+03  0.12699999809E+01 0.  1.
</event>
<event>
 5   0  0.1057506E-05  0.1604865E+04  0.7818609E-02  0.8817565E-01
       -1   -1    0    0    0  501  0.00000000000E+00  0.00000000000E+00  0.87829300089E+03  0.87829300091E+03  0.50400001928E-02 0. -1.
        1   -1    0    0  501    0  0.00000000000E+00  0.00000000000E+00 -0.73312414075E+03  0.73312414077E+03  0.50400001928E-02 0.  1.
    10030    2    1    2    0    0  0.00000000000E+00  0.00000000000E+00  0.14516886014E+03  0.16114171417E+04  0.16048648562E+04 0.  0.
        5    1    3    3  502    0  0.57730773656E+03 -0.37468814172E+03  0.48682216118E+03  0.84302629429E+03  0.46999998093E+01 0. -1.
       -5    1    3    3    0  502 -0.57730773656E+03  0.37468814172E+03 -0.34165330104E+03  0.76839084739E+03  0.46999998093E+01 0.  1.
</event>
<event>
 5   0  0.1990948E-05  0.1602621E+04  0.7818609E-02  0.8818940E-01
       -2   -1    0    0    0  501  0.00000000000E+00  0.00000000000E+00  0.33555662060E+03  0.33555662061E+03  0.25500000920E-02 0.  1.
        2   -1    0    0  501    0  0.00000000000E+00  0.00000000000E+00 -0.19135319953E+04  0.19135319953E+04  0.25500000920E-02 0. -1.
    10030    2    1    2    0    0  0.00000000000E+00  0.00000000000E+00 -0.15779753747E+04  0.22490886159E+04  0.16026207658E+04 0.  0.
        4    1    3    3  502    0  0.43649418644E+03 -0.64670397780E+03 -0.10452480525E+04  0.13043382667E+04  0.12699999809E+01 0.  1.
       -4    1    3    3    0  502 -0.43649418644E+03  0.64670397780E+03 -0.53272732222E+03  0.94475034927E+03  0.12699999809E+01 0. -1.
</event>
<event>
 5   0  0.1057506E-05  0.1598717E+04  0.7818609E-02  0.8821336E-01
       -1   -1    0    0    0  501  0.00000000000E+00  0.00000000000E+00  0.79679007300E+03  0.79679007302E+03  0.50400001928E-02 0. -1.
        1   -1    0    0  501    0  0.00000000000E+00  0.00000000000E+00 -0.80193551506E+03  0.80193551508E+03  0.50400001928E-02 0.  1.
    10030    2    1    2    0    0  0.00000000000E+00  0.00000000000E+00 -0.51454420629E+01  0.15987255881E+04  0.15987173079E+04 0.  0.
        5    1    3    3  502    0 -0.46844243478E+03  0.53314655671E+03  0.36521798463E+03  0.79817907260E+03  0.46999998093E+01 0. -1.
       -5    1    3    3    0  502  0.46844243478E+03 -0.53314655671E+03 -0.37036342670E+03  0.80054651549E+03  0.46999998093E+01 0.  1.
</event>
<event>
 5   0  0.2046108E-05  0.1596652E+04  0.7818609E-02  0.8822607E-01
        2   -1    0    0  501    0  0.00000000000E+00  0.00000000000E+00  0.12777008865E+04  0.12777008865E+04  0.25500000920E-02 0.  1.
       -2   -1    0    0    0  501  0.00000000000E+00  0.00000000000E+00 -0.49880586209E+03  0.49880586209E+03  0.25500000920E-02 0. -1.
    10030    2    1    2    0    0  0.00000000000E+00  0.00000000000E+00  0.77889502439E+03  0.17765067486E+04  0.15966523631E+04 0.  0.
        1    1    3    3  502    0 -0.29887900539E+03  0.38159373812E+03  0.10952381636E+04  0.11977015805E+04  0.50400001928E-02 0.  1.
       -1    1    3    3    0  502  0.29887900539E+03 -0.38159373812E+03 -0.31634313923E+03  0.57880516808E+03  0.50400001928E-02 0. -1.
</event>
<event>
 5   0  0.1057506E-05  0.1599973E+04  0.7818609E-02  0.8820565E-01
       -1   -1    0    0    0  501  0.00000000000E+00  0.00000000000E+00  0.10406321198E+04  0.10406321198E+04  0.50400001928E-02 0. -1.
        1   -1    0    0  501    0  0.00000000000E+00  0.00000000000E+00 -0.61499015444E+03  0.61499015446E+03  0.50400001928E-02 0.  1.
    10030    2    1    2    0    0  0.00000000000E+00  0.00000000000E+00  0.42564196540E+03  0.16556222743E+04  0.15999731349E+04 0.  0.
        5    1    3    3  502    0 -0.69556599171E+03  0.37129315108E+03  0.72892817243E+02  0.79183717118E+03  0.46999998093E+01 0.  1.
       -5    1    3    3    0  502  0.69556599171E+03 -0.37129315108E+03  0.35274914816E+03  0.86378510313E+03  0.46999998093E+01 0. -1.
</event>
<event>
 5   0  0.1081831E-05  0.1607717E+04  0.7818609E-02  0.8815821E-01
       -1   -1    0    0    0  501  0.00000000000E+00  0.00000000000E+00  0.38503246975E+03  0.38503246978E+03  0.50400001928E-02 0. -1.
        1   -1    0    0  501    0  0.00000000000E+00  0.00000000000E+00 -0.16782695157E+04  0.16782695157E+04  0.50400001928E-02 0.  1.
    10030    2    1    2    0    0  0.00000000000E+00  0.00000000000E+00 -0.12932370460E+04  0.20633019855E+04  0.16077167121E+04 0.  0.
        3    1    3    3  502    0  0.65296682418E+02  0.18283315260E+03 -0.16477298099E+04  0.16591278296E+04  0.10100000352E+00 0.  1.
       -3    1    3    3    0  502 -0.65296682418E+02 -0.18283315260E+03  0.35449276391E+03  0.40417415589E+03  0.10100000352E+00 0. -1.
</event>
<event>
 5   0  0.1081831E-05  0.1599436E+04  0.7818609E-02  0.8820894E-01
       -1   -1    0    0    0  501  0.00000000000E+00  0.00000000000E+00  0.50389285220E+03  0.50389285223E+03  0.50400001928E-02 0. -1.
        1   -1    0    0  501    0  0.00000000000E+00  0.00000000000E+00 -0.12692165705E+04  0.12692165706E+04  0.50400001928E-02 0.  1.
    10030    2    1    2    0    0  0.00000000000E+00  0.00000000000E+00 -0.76532371834E+03  0.17731094228E+04  0.15994363480E+04 0.  0.
        3    1    3    3  502    0 -0.34572829921E+03 -0.52957772737E+02  0.41460697819E+03  0.54243113769E+03  0.10100000352E+00 0. -1.
       -3    1    3    3    0  502  0.34572829921E+03  0.52957772737E+02 -0.11799306965E+04  0.12306782851E+04  0.10100000352E+00 0.  1.
</event>
<event>
 5   0  0.1057506E-05  0.1599834E+04  0.7818609E-02  0.8820650E-01
       -1   -1    0    0    0  501  0.00000000000E+00  0.00000000000E+00  0.11126679428E+04  0.11126679428E+04  0.50400001928E-02 0.  1.
        1   -1    0    0  501    0  0.00000000000E+00  0.00000000000E+00 -0.57507447134E+03  0.57507447137E+03  0.50400001928E-02 0. -1.
    10030    2    1    2    0    0  0.00000000000E+00  0.00000000000E+00  0.53759347144E+03  0.16877424142E+04  0.15998336526E+04 0.  0.
        5    1    3    3  502    0 -0.48529248733E+02  0.79454549285E+03  0.18581571098E+03  0.81743941466E+03  0.46999998093E+01 0.  1.
       -5    1    3    3    0  502  0.48529248733E+02 -0.79454549285E+03  0.35177776045E+03  0.87030299950E+03  0.46999998093E+01 0. -1.
</event>
<event>
 5   0  0.1990948E-05  0.1601572E+04  0.7818609E-02  0.8819583E-01
        2   -1    0    0  501    0  0.00000000000E+00  0.00000000000E+00  0.61822135855E+03  0.61822135855E+03  0.25500000920E-02 0. -1.
       -2   -1    0    0    0  501  0.00000000000E+00  0.00000000000E+00 -0.10372632747E+04  0.10372632747E+04  0.25500000920E-02 0.  1.
    10030    2    1    2    0    0  0.00000000000E+00  0.00000000000E+00 -0.41904191613E+03  0.16554846332E+04  0.16015721162E+04 0.  0.
        4    1    3    3  502    0 -0.52975786387E+03  0.57866939628E+03 -0.43634966231E+02  0.78575268864E+03  0.12699999809E+01 0. -1.
       -4    1    3    3    0  502  0.52975786387E+03 -0.57866939628E+03 -0.37540694990E+03  0.86973194460E+03  0.12699999809E+01 0.  1.
</event>
<event>
 5   0  0.2125803E-05  0.1600852E+04  0.7818609E-02  0.8820025E-01
        2   -1    0    0  501    0  0.00000000000E+00  0.00000000000E+00  0.44251391364E+03  0.44251391365E+03  0.25500000920E-02 0.  1.
       -2   -1    0    0    0  501  0.00000000000E+00  0.00000000000E+00 -0.14478234422E+04  0.14478234422E+04  0.25500000920E-02 0. -1.
    10030    2    1    2    0    0  0.00000000000E+00  0.00000000000E+00 -0.10053095286E+04  0.18903373559E+04  0.16008522951E+04 0.  0.
        3    1    3    3  502    0 -0.76652596998E+02  0.57624072798E+03  0.14707429147E+03  0.59963310001E+03  0.10100000352E+00 0.  1.
       -3    1    3    3    0  502  0.76652596998E+02 -0.57624072798E+03 -0.11523838200E+04  0.12907042559E+04  0.10100000352E+00 0. -1.
</event>
<event>
 5   0  0.2147844E-05  0.1600564E+04  0.7818609E-02  0.8820201E-01
        2   -1    0    0  501    0  0.00000000000E+00  0.00000000000E+00  0.53981699217E+03  0.53981699218E+03  0.25500000920E-02 0. -1.
       -2   -1    0    0    0  501  0.00000000000E+00  0.00000000000E+00 -0.11864235107E+04  0.11864235107E+04  0.25500000920E-02 0.  1.
    10030    2    1    2    0    0  0.00000000000E+00  0.00000000000E+00 -0.64660651852E+03  0.17262405029E+04  0.16005643642E+04 0.  0.
        2    1    3    3  502    0  0.13700657156E+03 -0.67982844558E+03  0.10744907198E+03  0.70177120142E+03  0.25500000920E-02 0. -1.
       -2    1    3    3    0  502 -0.13700657156E+03  0.67982844558E+03 -0.75405559050E+03  0.10244693015E+04  0.25500000920E-02 0.  1.
</event>
<event>
 5   0  0.2046108E-05  0.1599944E+04  0.7818609E-02  0.8820582E-01
        2   -1    0    0  501    0  0.00000000000E+00  0.00000000000E+00  0.23729847402E+04  0.23729847402E+04  0.25500000920E-02 0.  1.
       -2   -1    0    0    0  501  0.00000000000E+00  0.00000000000E+00 -0.26968377039E+03  0.26968377040E+03  0.25500000920E-02 0. -1.
    10030    2    1    2    0    0  0.00000000000E+00  0.00000000000E+00  0.21033009698E+04  0.26426685106E+04  0.15999443388E+04 0.  0.
        1    1    3    3  502    0  0.45517020980E+03  0.57953335312E+03  0.15658563199E+04  0.17305908938E+04  0.50400001928E-02 0.  1.
       -1    1    3    3    0  502 -0.45517020980E+03 -0.57953335312E+03  0.53744464992E+03  0.91207761677E+03  0.50400001928E-02 0. -1.
</event>
<event>
 5   0  0.1994525E-05  0.1599562E+04  0.7818609E-02  0.8820817E-01
        2   -1    0    0  501    0  0.00000000000E+00  0.00000000000E+00  0.10959050146E+04  0.10959050146E+04  0.25500000920E-02 0.  1.
       -2   -1    0    0    0  501  0.00000000000E+00  0.00000000000E+00 -0.58367262040E+03  0.58367262040E+03  0.25500000920E-02 0. -1.
    10030    2    1    2    0    0  0.00000000000E+00  0.00000000000E+00  0.51223239420E+03  0.16795776350E+04  0.15995621296E+04 0.  0.
        5    1    3    3  502    0 -0.72434953745E+03 -0.30621405514E+03  0.40892386556E+03  0.88639162778E+03  0.46999998093E+01 0.  1.
       -5    1    3    3    0  502  0.72434953745E+03  0.30621405514E+03  0.10330852863E+03  0.79318600722E+03  0.46999998093E+01 0. -1.
</event>
<event>
 5   0  0.2125803E-05  0.1600303E+04  0.7818609E-02  0.8820362E-01
       -2   -1    0    0    0  501  0.00000000000E+00  0.00000000000E+00  0.49493543390E+03  0.49493543391E+03  0.25500000920E-02 0.  1.
        2   -1    0    0  501    0  0.00000000000E+00  0.00000000000E+00 -0.12935881071E+04  0.12935881071E+04  0.25500000920E-02 0. -1.
    10030    2    1    2    0    0  0.00000000000E+00  0.00000000000E+00 -0.79865267319E+03  0.17885235410E+04  0.16003032101E+04 0.  0.
        3    1    3    3  502    0 -0.69837758280E+02  0.46751535309E+03 -0.11208547849E+04  0.12164552506E+04  0.10100000352E+00 0. -1.
       -3    1    3    3    0  502  0.69837758280E+02 -0.46751535309E+03  0.32220211168E+03  0.57206829035E+03  0.10100000352E+00 0.  1.
</event>
<event>
 5   0  0.1060251E-05  0.1599992E+04  0.7818609E-02  0.8820553E-01
        1   -1    0    0  501    0  0.00000000000E+00  0.00000000000E+00  0.66871661036E+03  0.66871661038E+03  0.50400001928E-02 0.  1.
       -1   -1    0    0    0  501  0.00000000000E+00  0.00000000000E+00 -0.95704809166E+03  0.95704809168E+03  0.50400001928E-02 0. -1.
    10030    2    1    2    0    0  0.00000000000E+00  0.00000000000E+00 -0.28833148130E+03  0.16257647021E+04  0.15999924448E+04 0.  0.
        1    1    3    3  502    0 -0.10418260188E+03  0.60178053735E+03 -0.66920948867E+03  0.90599954162E+03  0.50400001928E-02 0. -1.
       -1    1    3    3    0  502  0.10418260188E+03 -0.60178053735E+03  0.38087800737E+03  0.71976516044E+03  0.50400001928E-02 0.  1.
</event>
<event>
 5   0  0.1081831E-05  0.1601041E+04  0.7818609E-02  0.8819908E-01
        1   -1    0    0  501    0  0.00000000000E+00  0.00000000000E+00  0.51305946191E+03  0.51305946194E+03  0.50400001928E-02 0.  1.
       -1   -1    0    0    0  501  0.00000000000E+00  0.00000000000E+00 -0.12490432068E+04  0.12490432068E+04  0.50400001928E-02 0. -1.
    10030    2    1    2    0    0  0.00000000000E+00  0.00000000000E+00 -0.73598374489E+03  0.17621026688E+04  0.16010414556E+04 0.  0.
        3    1    3    3  502    0 -0.43155592762E+03  0.63315454873E+03 -0.62305579144E+03  0.98758479671E+03  0.10100000352E+00 0.  1.
       -3    1    3    3    0  502  0.43155592762E+03 -0.63315454873E+03 -0.11292795344E+03  0.77451787204E+03  0.10100000352E+00 0. -1.
</event>
<event>
 5   0  0.1057506E-05  0.1599581E+04  0.7818609E-02  0.8820805E-01
        1   -1    0    0  501    0  0.00000000000E+00  0.00000000000E+00  0.28833123247E+03  0.28833123252E+03  0.50400001928E-02 0. -1.
       -1   -1    0    0    0  501  0.00000000000E+00  0.00000000000E+00 -0.22185078849E+04  0.22185078849E+04  0.50400001928E-02 0.  1.
    10030    2    1    2    0    0  0.00000000000E+00  0.00000000000E+00 -0.19301766524E+04  0.25068391174E+04  0.15995813362E+04 0.  0.
        5    1    3    3  502    0  0.40131231297E+03  0.56689357447E+03 -0.15864984831E+04  0.17318832016E+04  0.46999998093E+01 0.  1.
       -5    1    3    3    0  502 -0.40131231297E+03 -0.56689357447E+03 -0.34367816934E+03  0.77495591577E+03  0.46999998093E+01 0. -1.
</event>
<event>
 5   0  0.1081831E-05  0.1600192E+04  0.7818609E-02  0.8820430E-01
        1   -1    0    0  501    0  0.00000000000E+00  0.00000000000E+00  0.13856944804E+04  0.13856944804E+04  0.50400001928E-02 0.  1.
       -1   -1    0    0    0  501  0.00000000000E+00  0.00000000000E+00 -0.46197322481E+03  0.46197322484E+03  0.50400001928E-02 0. -1.
    10030    2    1    2    0    0  0.00000000000E+00  0.00000000000E+00  0.92372125560E+03  0.18476677053E+04  0.16001921731E+04 0.  0.
        3    1    3    3  502    0 -0.40539310295E+03  0.72056566848E+02 -0.33025029616E+03  0.52782666195E+03  0.10100000352E+00 0. -1.
       -3    1    3    3    0  502  0.40539310295E+03 -0.72056566848E+02  0.12539715518E+04  0.13198410433E+04  0.10100000352E+00 0.  1.
</event>
<event>
 5   0  0.2147844E-05  0.1599013E+04  0.7818609E-02  0.8821155E-01
        2   -1    0    0  501    0  0.00000000000E+00  0.00000000000E+00  0.88184034483E+03  0.88184034483E+03  0.25500000920E-02 0.  1.
       -2   -1    0    0    0  501  0.00000000000E+00  0.00000000000E+00 -0.72485986778E+03  0.72485986778E+03  0.25500000920E-02 0. -1.
    10030    2    1    2    0    0  0.00000000000E+00  0.00000000000E+00  0.15698047705E+03  0.16067002126E+04  0.15990130403E+04 0.  0.
        2    1    3    3  502    0  0.50798225070E+03  0.12603741849E+03  0.68577916683E+03  0.86268445190E+03  0.25500000920E-02 0.  1.
       -2    1    3    3    0  502 -0.50798225070E+03 -0.12603741849E+03 -0.52879868978E+03  0.74401576072E+03  0.25500000920E-02 0. -1.
</event>
<event>
 5   0  0.2125803E-05  0.1600019E+04  0.7818609E-02  0.8820536E-01
       -2   -1    0    0    0  501  0.00000000000E+00  0.00000000000E+00  0.80377665443E+03  0.80377665443E+03  0.25500000920E-02 0.  1.
        2   -1    0    0  501    0  0.00000000000E+00  0.00000000000E+00 -0.79625977091E+03  0.79625977091E+03  0.25500000920E-02 0. -1.
    10030    2    1    2    0    0  0.00000000000E+00  0.00000000000E+00  0.75168835204E+01  0.16000364253E+04  0.16000187683E+04 0.  0.
        3    1    3    3  502    0  0.76250133499E+03 -0.22685703161E+03 -0.80756429756E+02  0.79962116643E+03  0.10100000352E+00 0.  1.
       -3    1    3    3    0  502 -0.76250133499E+03  0.22685703161E+03  0.88273313276E+02  0.80041525891E+03  0.10100000352E+00 0. -1.
</event>
<event>
 5   0  0.1081831E-05  0.1600118E+04  0.7818609E-02  0.8820476E-01
       -1   -1    0    0    0  501  0.00000000000E+00  0.00000000000E+00  0.88724392893E+03  0.88724392894E+03  0.50400001928E-02 0.  1.
        1   -1    0    0  501    0  0.00000000000E+00  0.00000000000E+00 -0.72144113222E+03  0.72144113224E+03  0.50400001928E-02 0. -1.
    10030    2    1    2    0    0  0.00000000000E+00  0.00000000000E+00  0.16580279671E+03  0.16086850612E+04  0.16001178265E+04 0.  0.
        3    1    3    3  502    0 -0.54498023247E+03  0.50910473582E+03  0.37411271404E+03  0.83435688936E+03  0.10100000352E+00 0.  1.
       -3    1    3    3    0  502  0.54498023247E+03 -0.50910473582E+03 -0.20830991733E+03  0.77432817182E+03  0.10100000352E+00 0. -1.
</event>
<event>
 5   0  0.1126485E-05  0.1602655E+04  0.7818609E-02  0.8818919E-01
       -1   -1    0    0    0  501  0.00000000000E+00  0.00000000000E+00  0.58288839115E+03  0.58288839117E+03  0.50400001928E-02 0.  1.
        1   -1    0    0  501    0  0.00000000000E+00  0.00000000000E+00 -0.11016270635E+04  0.11016270635E+04  0.50400001928E-02 0. -1.
    10030    2    1    2    0    0  0.00000000000E+00  0.00000000000E+00 -0.51873867236E+03  0.16845154547E+04  0.16026548309E+04 0.  0.
        2    1    3    3  502    0 -0.35367465358E+03  0.26698459924E+03 -0.96112367561E+03  0.10583597010E+04  0.25500000920E-02 0. -1.
       -2    1    3    3    0  502  0.35367465358E+03 -0.26698459924E+03  0.44238500324E+03  0.62615575372E+03  0.25500000920E-02 0.  1.
</event>
<event>
 5   0  0.2147844E-05  0.1599388E+04  0.7818609E-02  0.8820924E-01
        2   -1    0    0  501    0  0.00000000000E+00  0.00000000000E+00  0.11781813557E+04  0.11781813557E+04  0.25500000920E-02 0.  1.
       -2   -1    0    0    0  501  0.00000000000E+00  0.00000000000E+00 -0.54279466091E+03  0.54279466091E+03  0.25500000920E-02 0. -1.
    10030    2    1    2    0    0  0.00000000000E+00  0.00000000000E+00  0.63538669475E+03  0.17209760166E+04  0.15993880698E+04 0.  0.
        2    1    3    3  502    0  0.21772037775E+03 -0.75941649690E+03  0.18418439122E+03  0.81119631941E+03  0.25500000920E-02 0. -1.
       -2    1    3    3    0  502 -0.21772037775E+03  0.75941649690E+03  0.45120230353E+03  0.90977969717E+03  0.25500000920E-02 0.  1.
</event>
<event>
 5   0  0.1090674E-05  0.1600354E+04  0.7818609E-02  0.8820331E-01
        1   -1    0    0  501    0  0.00000000000E+00  0.00000000000E+00  0.76884163474E+03  0.76884163475E+03  0.50400001928E-02 0.  1.
       -1   -1    0    0    0  501  0.00000000000E+00  0.00000000000E+00 -0.83278921767E+03  0.83278921769E+03  0.50400001928E-02 0. -1.
    10030    2    1    2    0    0  0.00000000000E+00  0.00000000000E+00 -0.63947582937E+02  0.16016308524E+04  0.16003537403E+04 0.  0.
        4    1    3    3  502    0  0.26140179803E+03 -0.15966911054E+03 -0.77179052443E+03  0.83035375075E+03  0.12699999809E+01 0. -1.
       -4    1    3    3    0  502 -0.26140179803E+03  0.15966911054E+03  0.70784294150E+03  0.77127710170E+03  0.12699999809E+01 0.  1.
</event>
<event>
 5   0  0.7597000E-06  0.1599392E+04  0.7818609E-02  0.8820922E-01
        3   -1    0    0  501    0  0.00000000000E+00  0.00000000000E+00  0.13935993528E+04  0.13935993564E+04  0.10100000352E+00 0. -1.
       -3   -1    0    0    0  501  0.00000000000E+00  0.00000000000E+00 -0.45889348467E+03  0.45889349578E+03  0.10100000352E+00 0.  1.
    10030    2    1    2    0    0  0.00000000000E+00  0.00000000000E+00  0.93470586810E+03  0.18524928522E+04  0.15993919806E+04 0.  0.
        5    1    3    3  502    0 -0.55428825056E+02 -0.16176613176E+02  0.13911657216E+04  0.13923714276E+04  0.46999998093E+01 0. -1.
       -5    1    3    3    0  502  0.55428825056E+02  0.16176613176E+02 -0.45645985353E+03  0.46012142457E+03  0.46999998093E+01 0.  1.
</event>
<event>
 5   0  0.2046108E-05  0.1600567E+04  0.7818609E-02  0.8820199E-01
        2   -1    0    0  501    0  0.00000000000E+00  0.00000000000E+00  0.94111813683E+03  0.94111813683E+03  0.25500000920E-02 0.  1.
       -2   -1    0    0    0  501  0.00000000000E+00  0.00000000000E+00 -0.68052460681E+03  0.68052460681E+03  0.25500000920E-02 0. -1.
    10030    2    1    2    0    0  0.00000000000E+00  0.00000000000E+00  0.26059353002E+03  0.16216427436E+04  0.16005674619E+04 0.  0.
        1    1    3    3  502    0  0.15731695161E+03  0.40399941730E+03 -0.55123427909E+03  0.70130120698E+03  0.50400001928E-02 0. -1.
       -1    1    3    3    0  502 -0.15731695161E+03 -0.40399941730E+03  0.81182780911E+03  0.92034153667E+03  0.50400001928E-02 0.  1.
</event>
<event>
 5   0  0.1090674E-05  0.1600123E+04  0.7818609E-02  0.8820472E-01
        1   -1    0    0  501    0  0.00000000000E+00  0.00000000000E+00  0.16820238291E+04  0.16820238291E+04  0.50400001928E-02 0. -1.
       -1   -1    0    0    0  501  0.00000000000E+00  0.00000000000E+00 -0.38055264313E+03  0.38055264317E+03  0.50400001928E-02 0.  1.
    10030    2    1    2    0    0  0.00000000000E+00  0.00000000000E+00  0.13014711860E+04  0.20625764723E+04  0.16001232628E+04 0.  0.
        4    1    3    3  502    0  0.30448642716E+03 -0.55036803424E+03  0.13385097708E+02  0.62912457525E+03  0.12699999809E+01 0.  1.
       -4    1    3    3    0  502 -0.30448642716E+03  0.55036803424E+03  0.12880860883E+04  0.14334518970E+04  0.12699999809E+01 0. -1.
</event>
<event>
 5   0  0.1081831E-05  0.1600075E+04  0.7818609E-02  0.8820502E-01
       -1   -1    0    0    0  501  0.00000000000E+00  0.00000000000E+00  0.73019608112E+03  0.73019608113E+03  0.50400001928E-02 0.  1.
        1   -1    0    0  501    0  0.00000000000E+00  0.00000000000E+00 -0.87655930336E+03  0.87655930337E+03  0.50400001928E-02 0. -1.
    10030    2    1    2    0    0  0.00000000000E+00  0.00000000000E+00 -0.14636322224E+03  0.16067553845E+04  0.16000752085E+04 0.  0.
        3    1    3    3  502    0  0.69260338806E+03  0.39869580610E+03 -0.35577183854E+02  0.79995221430E+03  0.10100000352E+00 0. -1.
       -3    1    3    3    0  502 -0.69260338806E+03 -0.39869580610E+03 -0.11078603839E+03  0.80680317020E+03  0.10100000352E+00 0.  1.
</event>
<event>
 5   0  0.1126485E-05  0.1600552E+04  0.7818609E-02  0.8820209E-01
        1   -1    0    0  501    0  0.00000000000E+00  0.00000000000E+00  0.20339535702E+04  0.20339535702E+04  0.50400001928E-02 0.  1.
       -1   -1    0    0    0  501  0.00000000000E+00  0.00000000000E+00 -0.31487527965E+03  0.31487527969E+03  0.50400001928E-02 0. -1.
    10030    2    1    2    0    0  0.00000000000E+00  0.00000000000E+00  0.17190782905E+04  0.23488288499E+04  0.16005520288E+04 0.  0.
        2    1    3    3  502    0 -0.66300612082E+03 -0.43695883184E+03  0.10057872886E+04  0.12814516015E+04  0.25500000920E-02 0.  1.
       -2    1    3    3    0  502  0.66300612082E+03  0.43695883184E+03  0.71329100193E+03  0.10673772484E+04  0.25500000920E-02 0. -1.
</event>
<event>
 5   0  0.2046108E-05  0.1599976E+04  0.7818609E-02  0.8820562E-01
        2   -1    0    0  501    0  0.00000000000E+00  0.00000000000E+00  0.72403039458E+03  0.72403039459E+03  0.25500000920E-02 0. -1.
       -2   -1    0    0    0  501  0.00000000000E+00  0.00000000000E+00 -0.88391479599E+03  0.88391479599E+03  0.25500000920E-02 0.  1.
    10030    2    1    2    0    0  0.00000000000E+00  0.00000000000E+00 -0.15988440141E+03  0.16079451906E+04  0.15999764730E+04 0.  0.
        1    1    3    3  502    0  0.67343830315E+02  0.58176399983E+03  0.46774603096E+03  0.74951377070E+03  0.50400001928E-02 0. -1.
       -1    1    3    3    0  502 -0.67343830315E+02 -0.58176399983E+03 -0.62763043236E+03  0.85843141987E+03  0.50400001928E-02 0.  1.
</event>
<event>
 5   0  0.1994525E-05  0.1607909E+04  0.7818609E-02  0.8815704E-01
       -2   -1    0    0    0  501  0.00000000000E+00  0.00000000000E+00  0.46174003930E+03  0.46174003930E+03  0.25500000920E-02 0. -1.
        2   -1    0    0  501    0  0.00000000000E+00  0.00000000000E+00 -0.13997985102E+04  0.13997985102E+04  0.25500000920E-02 0.  1.
    10030    2    1    2    0    0  0.00000000000E+00  0.00000000000E+00 -0.93805847091E+03  0.18615385495E+04  0.16079092252E+04 0.  0.
        5    1    3    3  502    0 -0.32810681473E+03  0.54893789581E+03 -0.10330440581E+04  0.12149851897E+04  0.46999998093E+01 0.  1.
       -5    1    3    3    0  502  0.32810681473E+03 -0.54893789581E+03  0.94985587140E+02  0.64655335981E+03  0.46999998093E+01 0. -1.
</event>
<event>
 5   0  0.1057506E-05  0.1600580E+04  0.7818609E-02  0.8820192E-01
       -1   -1    0    0    0  501  0.00000000000E+00  0.00000000000E+00  0.56898473236E+03  0.56898473238E+03  0.50400001928E-02 0. -1.
        1   -1    0    0  501    0  0.00000000000E+00  0.00000000000E+00 -0.11256261660E+04  0.11256261660E+04  0.50400001928E-02 0.  1.
    10030    2    1    2    0    0  0.00000000000E+00  0.00000000000E+00 -0.55664143365E+03  0.16946108984E+04  0.16005800234E+04 0.  0.
        5    1    3    3  502    0 -0.50054330838E+03 -0.57347975936E+03 -0.16787726216E+02  0.76139776445E+03  0.46999998093E+01 0. -1.
       -5    1    3    3    0  502  0.50054330838E+03  0.57347975936E+03 -0.53985370744E+03  0.93321313396E+03  0.46999998093E+01 0.  1.
</event>
<event>
 5   0  0.1990948E-05  0.1599983E+04  0.7818609E-02  0.8820558E-01
       -2   -1    0    0    0  501  0.00000000000E+00  0.00000000000E+00  0.43744783429E+03  0.43744783430E+03  0.25500000920E-02 0.  1.
        2   -1    0    0  501    0  0.00000000000E+00  0.00000000000E+00 -0.14630010866E+04  0.14630010866E+04  0.25500000920E-02 0. -1.
    10030    2    1    2    0    0  0.00000000000E+00  0.00000000000E+00 -0.10255532523E+04  0.19004489209E+04  0.15999833211E+04 0.  0.
        4    1    3    3  502    0 -0.74574229501E+03  0.11236669545E+02 -0.85647229375E+03  0.11356954857E+04  0.12699999809E+01 0. -1.
       -4    1    3    3    0  502  0.74574229501E+03 -0.11236669545E+02 -0.16908095859E+03  0.76475343527E+03  0.12699999809E+01 0.  1.
</event>
<event>
 5   0  0.1060251E-05  0.1599467E+04  0.7818609E-02  0.8820876E-01
       -1   -1    0    0    0  501  0.00000000000E+00  0.00000000000E+00  0.18523727882E+04  0.18523727882E+04  0.50400001928E-02 0. -1.
        1   -1    0    0  501    0  0.00000000000E+00  0.00000000000E+00 -0.34527259262E+03  0.34527259266E+03  0.50400001928E-02 0.  1.
    10030    2    1    2    0    0  0.00000000000E+00  0.00000000000E+00  0.15071001956E+04  0.21976453809E+04  0.15994668551E+04 0.  0.
        1    1    3    3  502    0 -0.75187158130E+03  0.12919228258E+03  0.42387347090E+03  0.87273721131E+03  0.50400001928E-02 0.  1.
       -1    1    3    3    0  502  0.75187158130E+03 -0.12919228258E+03  0.10832267247E+04  0.13249081696E+04  0.50400001928E-02 0. -1.
</event>
<event>
 5   0  0.1057506E-05  0.1597878E+04  0.7818609E-02  0.8821853E-01
        1   -1    0    0  501    0  0.00000000000E+00  0.00000000000E+00  0.13615918081E+04  0.13615918081E+04  0.50400001928E-02 0.  1.
       -1   -1    0    0    0  501  0.00000000000E+00  0.00000000000E+00 -0.46879183940E+03  0.46879183943E+03  0.50400001928E-02 0. -1.
    10030    2    1    2    0    0  0.00000000000E+00  0.00000000000E+00  0.89279996873E+03  0.18303836476E+04  0.15978775025E+04 0.  0.
        5    1    3    3  502    0 -0.58613514031E+03 -0.24344718581E+03 -0.10944963192E+03  0.64406695841E+03  0.46999998093E+01 0. -1.
       -5    1    3    3    0  502  0.58613514031E+03  0.24344718581E+03  0.10022496007E+04  0.11863166892E+04  0.46999998093E+01 0.  1.
</event>
<event>
 5   0  0.1126485E-05  0.1600642E+04  0.7818609E-02  0.8820154E-01
       -1   -1    0    0    0  501  0.00000000000E+00  0.00000000000E+00  0.54507732100E+03  0.54507732102E+03  0.50400001928E-02 0. -1.
        1   -1    0    0  501    0  0.00000000000E+00  0.00000000000E+00 -0.11750877890E+04  0.11750877890E+04  0.50400001928E-02 0.  1.
    10030    2    1    2    0    0  0.00000000000E+00  0.00000000000E+00 -0.63001046801E+03  0.17201651100E+04  0.16006420012E+04 0.  0.
        2    1    3    3  502    0  0.69240526532E+03 -0.34945609101E+03 -0.10285863448E+03  0.78238386338E+03  0.25500000920E-02 0. -1.
       -2    1    3    3    0  502 -0.69240526532E+03  0.34945609101E+03 -0.52715183354E+03  0.93778124667E+03  0.25500000920E-02 0.  1.
</event>
<event>
 5   0  0.1126485E-05  0.1600668E+04  0.7818609E-02  0.8820137E-01
        1   -1    0    0  501    0  0.00000000000E+00  0.00000000000E+00  0.13594169906E+04  0.13594169906E+04  0.50400001928E-02 0.  1.
       -1   -1    0    0    0  501  0.00000000000E+00  0.00000000000E+00 -0.47118347466E+03  0.47118347469E+03  0.50400001928E-02 0. -1.
    10030    2    1    2    0    0  0.00000000000E+00  0.00000000000E+00  0.88823351591E+03  0.18306004653E+04  0.16006683869E+04 0.  0.
        2    1    3    3  502    0 -0.11853820037E+03  0.47531616447E+03  0.11679273567E+04  0.12665034827E+04  0.25500000920E-02 0.  1.
       -2    1    3    3    0  502  0.11853820037E+03 -0.47531616447E+03 -0.27969384080E+03  0.56409698257E+03  0.25500000920E-02 0. -1.
</event>
<event>
 5   0  0.1057506E-05  0.1600102E+04  0.7818609E-02  0.8820486E-01
        1   -1    0    0  501    0  0.00000000000E+00  0.00000000000E+00  0.23926615327E+04  0.23926615327E+04  0.50400001928E-02 0.  1.
       -1   -1    0    0    0  501  0.00000000000E+00  0.00000000000E+00 -0.26751849390E+03  0.26751849395E+03  0.50400001928E-02 0. -1.
    10030    2    1    2    0    0  0.00000000000E+00  0.00000000000E+00  0.21251430388E+04  0.26601800267E+04  0.16001015089E+04 0.  0.
        5    1    3    3  502    0 -0.62502262026E+03  0.21723477614E+03  0.18101728500E+04  0.19273276994E+04  0.46999998093E+01 0.  1.
       -5    1    3    3    0  502  0.62502262026E+03 -0.21723477614E+03  0.31497018878E+03  0.73285232729E+03  0.46999998093E+01 0. -1.
</event>
<event>
 5   0  0.1057506E-05  0.1600165E+04  0.7818609E-02  0.8820447E-01
        1   -1    0    0  501    0  0.00000000000E+00  0.00000000000E+00  0.15054462190E+04  0.15054462190E+04  0.50400001928E-02 0. -1.
       -1   -1    0    0    0  501  0.00000000000E+00  0.00000000000E+00 -0.42521075547E+03  0.42521075550E+03  0.50400001928E-02 0.  1.
    10030    2    1    2    0    0  0.00000000000E+00  0.00000000000E+00  0.10802354635E+04  0.19306569745E+04  0.16001648967E+04 0.  0.
        5    1    3    3  502    0  0.78038237919E+03  0.72398363927E+02  0.73418507954E+03  0.10739124740E+04  0.46999998093E+01 0. -1.
       -5    1    3    3    0  502 -0.78038237919E+03 -0.72398363927E+02  0.34605038399E+03  0.85674450048E+03  0.46999998093E+01 0.  1.
</event>
<event>
 5   0  0.1126485E-05  0.1600153E+04  0.7818609E-02  0.8820454E-01
       -1   -1    0    0    0  501  0.00000000000E+00  0.00000000000E+00  0.79436496712E+03  0.79436496713E+03  0.50400001928E-02 0. -1.
        1   -1    0    0  501    0  0.00000000000E+00  0.00000000000E+00 -0.80582898262E+03  0.80582898263E+03  0.50400001928E-02 0.  1.
    10030    2    1    2    0    0  0.00000000000E+00  0.00000000000E+00 -0.11464015502E+02  0.16001939498E+04  0.16001528843E+04 0.  0.
        2    1    3    3  502    0  0.71416599350E+03  0.19369047707E+03 -0.30999833464E+03  0.80227678183E+03  0.25500000920E-02 0.  1.
       -2    1    3    3    0  502 -0.71416599350E+03 -0.19369047707E+03  0.29853431914E+03  0.79791716794E+03  0.25500000920E-02 0. -1.
</event>
<event>
 5   0  0.1126485E-05  0.1599153E+04  0.7818609E-02  0.8821069E-01
       -1   -1    0    0    0  501  0.00000000000E+00  0.00000000000E+00  0.50159914783E+03  0.50159914786E+03  0.50400001928E-02 0. -1.
        1   -1    0    0  501    0  0.00000000000E+00  0.00000000000E+00 -0.12745684061E+04  0.12745684062E+04  0.50400001928E-02 0.  1.
    10030    2    1    2    0    0  0.00000000000E+00  0.00000000000E+00 -0.77296925832E+03  0.17761675540E+04  0.15991528087E+04 0.  0.
        2    1    3    3  502    0 -0.74565942623E+03  0.12419361710E+03 -0.97084896804E+02  0.76214008663E+03  0.25500000920E-02 0. -1.
       -2    1    3    3    0  502  0.74565942623E+03 -0.12419361710E+03 -0.67588436152E+03  0.10140274674E+04  0.25500000920E-02 0.  1.
</event>
<event>
 5   0  0.7597000E-06  0.1598816E+04  0.7818609E-02  0.8821276E-01
        4   -1    0    0  501    0  0.00000000000E+00  0.00000000000E+00  0.43581591205E+03  0.43581776249E+03  0.12699999809E+01 0.  1.
       -4   -1    0    0    0  501  0.00000000000E+00  0.00000000000E+00 -0.14663317712E+04  0.14663323212E+04  0.12699999809E+01 0. -1.
    10030    2    1    2    0    0  0.00000000000E+00  0.00000000000E+00 -0.10305158591E+04  0.19021500836E+04  0.15988158133E+04 0.  0.
        5    1    3    3  502    0 -0.60323586293E+03 -0.50677673858E+03 -0.35425019125E+03  0.86384689447E+03  0.46999998093E+01 0.  1.
       -5    1    3    3    0  502  0.60323586293E+03  0.50677673858E+03 -0.67626566788E+03  0.10383031892E+04  0.46999998093E+01 0. -1.
</event>
<event>
 5   0  0.2046108E-05  0.1599645E+04  0.7818609E-02  0.8820766E-01
        2   -1    0    0  501    0  0.00000000000E+00  0.00000000000E+00  0.52765931723E+03  0.52765931724E+03  0.25500000920E-02 0.  1.
       -2   -1    0    0    0  501  0.00000000000E+00  0.00000000000E+00 -0.12123662825E+04  0.12123662825E+04  0.25500000920E-02 0. -1.
    10030    2    1    2    0    0  0.00000000000E+00  0.00000000000E+00 -0.68470696529E+03  0.17400255998E+04  0.15996454168E+04 0.  0.
        1    1    3    3  502    0  0.58325868190E+03  0.26940540621E+03  0.17584192830E+03  0.66610085324E+03  0.50400001928E-02 0.  1.
       -1    1    3    3    0  502 -0.58325868190E+03 -0.26940540621E+03 -0.86054889360E+03  0.10739247465E+04  0.50400001928E-02 0. -1.
</event>
<event>
 5   0  0.1057506E-05  0.1599942E+04  0.7818609E-02  0.8820584E-01
        1   -1    0    0  501    0  0.00000000000E+00  0.00000000000E+00  0.68926449643E+03  0.68926449645E+03  0.50400001928E-02 0. -1.
       -1   -1    0    0    0  501  0.00000000000E+00  0.00000000000E+00 -0.92845842101E+03  0.92845842102E+03  0.50400001928E-02 0.  1.
    10030    2    1    2    0    0  0.00000000000E+00  0.00000000000E+00 -0.23919392457E+03  0.16177229175E+04  0.15999417815E+04 0.  0.
        5    1    3    3  502    0 -0.58554130191E+03 -0.51456935777E+03  0.62097357311E+02  0.78199642709E+03  0.46999998093E+01 0. -1.
       -5    1    3    3    0  502  0.58554130191E+03  0.51456935777E+03 -0.30129128189E+03  0.83572649039E+03  0.46999998093E+01 0.  1.
</event>
<event>
 5   0  0.1126485E-05  0.1599583E+04  0.7818609E-02  0.8820804E-01
       -1   -1    0    0    0  501  0.00000000000E+00  0.00000000000E+00  0.33910102772E+03  0.33910102776E+03  0.50400001928E-02 0.  1.
        1   -1    0    0  501    0  0.00000000000E+00  0.00000000000E+00 -0.18863594174E+04  0.18863594174E+04  0.50400001928E-02 0. -1.
    10030    2    1    2    0    0  0.00000000000E+00  0.00000000000E+00 -0.15472583896E+04  0.22254604451E+04  0.15995829671E+04 0.  0.
        2    1    3    3  502    0 -0.67951772858E+03 -0.19278290250E+03 -0.12956019576E+04  0.14756334312E+04  0.25500000920E-02 0. -1.
       -2    1    3    3    0  502  0.67951772858E+03  0.19278290250E+03 -0.25165643207E+03  0.74982701389E+03  0.25500000920E-02 0.  1.
</event>
<event>
 5   0  0.1060251E-05  0.1599715E+04  0.7818609E-02  0.8820723E-01
        1   -1    0    0  501    0  0.00000000000E+00  0.00000000000E+00  0.86843454646E+03  0.86843454647E+03  0.50400001928E-02 0.  1.
       -1   -1    0    0    0  501  0.00000000000E+00  0.00000000000E+00 -0.73669534627E+03  0.73669534628E+03  0.50400001928E-02 0. -1.
    10030    2    1    2    0    0  0.00000000000E+00  0.00000000000E+00  0.13173920019E+03  0.16051298928E+04  0.15997145857E+04 0.  0.
        1    1    3    3  502    0  0.22831469803E+03  0.40725321388E+03 -0.58578168376E+03  0.74908141254E+03  0.50400001928E-02 0. -1.
       -1    1    3    3    0  502 -0.22831469803E+03 -0.40725321388E+03  0.71752088396E+03  0.85604848022E+03  0.50400001928E-02 0.  1.
</event>
<event>
 5   0  0.1994525E-05  0.1600366E+04  0.7818609E-02  0.8820323E-01
       -2   -1    0    0    0  501  0.00000000000E+00  0.00000000000E+00  0.37745640026E+03  0.37745640026E+03  0.25500000920E-02 0.  1.
        2   -1    0    0  501    0  0.00000000000E+00  0.00000000000E+00 -0.16963355053E+04  0.16963355053E+04  0.25500000920E-02 0. -1.
    10030    2    1    2    0    0  0.00000000000E+00  0.00000000000E+00 -0.13188791050E+04  0.20737919056E+04  0.16003658250E+04 0.  0.
        5    1    3    3  502    0 -0.35654826579E+03  0.57005289904E+03 -0.97309470261E+02  0.67939546403E+03  0.46999998093E+01 0.  1.
       -5    1    3    3    0  502  0.35654826579E+03 -0.57005289904E+03 -0.12215696348E+04  0.13943964415E+04  0.46999998093E+01 0. -1.
</event>
<event>
 5   0  0.1994525E-05  0.1600053E+04  0.7818609E-02  0.8820515E-01
        2   -1    0    0  501    0  0.00000000000E+00  0.00000000000E+00  0.52223278990E+03  0.52223278991E+03  0.25500000920E-02 0.  1.
       -2   -1    0    0    0  501  0.00000000000E+00  0.00000000000E+00 -0.12255883493E+04  0.12255883493E+04  0.25500000920E-02 0. -1.
    10030    2    1    2    0    0  0.00000000000E+00  0.00000000000E+00 -0.70335555936E+03  0.17478211392E+04  0.16000530278E+04 0.  0.
        5    1    3    3  502    0  0.73218229122E+03 -0.30179093579E+03 -0.47551242504E+03  0.92374392170E+03  0.46999998093E+01 0.  1.
       -5    1    3    3    0  502 -0.73218229122E+03  0.30179093579E+03 -0.22784313432E+03  0.82407721748E+03  0.46999998093E+01 0. -1.
</event>
<event>
 5   0  0.1990948E-05  0.1600166E+04  0.7818609E-02  0.8820446E-01
       -2   -1    0    0    0  501  0.00000000000E+00  0.00000000000E+00  0.36074475844E+03  0.36074475845E+03  0.25500000920E-02 0. -1.
        2   -1    0    0  501    0  0.00000000000E+00  0.00000000000E+00 -0.17744759539E+04  0.17744759539E+04  0.25500000920E-02 0.  1.
    10030    2    1    2    0    0  0.00000000000E+00  0.00000000000E+00 -0.14137311955E+04  0.21352207124E+04  0.16001661156E+04 0.  0.
        4    1    3    3  502    0  0.75500204245E+03  0.26395927785E+03 -0.67923721527E+03  0.10493175839E+04  0.12699999809E+01 0.  1.
       -4    1    3    3    0  502 -0.75500204245E+03 -0.26395927785E+03 -0.73449398021E+03  0.10859031284E+04  0.12699999809E+01 0. -1.
</event>
<event>
 5   0  0.1057506E-05  0.1600214E+04  0.7818609E-02  0.8820416E-01
       -1   -1    0    0    0  501  0.00000000000E+00  0.00000000000E+00  0.81338566063E+03  0.81338566064E+03  0.50400001928E-02 0.  1.
        1   -1    0    0  501    0  0.00000000000E+00  0.00000000000E+00 -0.78704541794E+03  0.78704541796E+03  0.50400001928E-02 0. -1.
    10030    2    1    2    0    0  0.00000000000E+00  0.00000000000E+00  0.26340242683E+02  0.16004310786E+04  0.16002143072E+04 0.  0.
        5    1    3    3  502    0 -0.38942439691E+03  0.41592410222E+03  0.57494466018E+03  0.80946134681E+03  0.46999998093E+01 0.  1.
       -5    1    3    3    0  502  0.38942439691E+03 -0.41592410222E+03 -0.54860441750E+03  0.79096973179E+03  0.46999998093E+01 0. -1.
</event>
<event>
 5   0  0.2147844E-05  0.1600174E+04  0.7818609E-02  0.8820441E-01
       -2   -1    0    0    0  501  0.00000000000E+00  0.00000000000E+00  0.51065263896E+03  0.51065263897E+03  0.25500000920E-02 0. -1.
        2   -1    0    0  501    0  0.00000000000E+00  0.00000000000E+00 -0.12535706393E+04  0.12535706393E+04  0.25500000920E-02 0.  1.
    10030    2    1    2    0    0  0.00000000000E+00  0.00000000000E+00 -0.74291800037E+03  0.17642232783E+04  0.16001739344E+04 0.  0.
        2    1    3    3  502    0 -0.45878730675E+03 -0.33359716773E+03  0.25062623810E+03  0.62015028371E+03  0.25500000920E-02 0. -1.
       -2    1    3    3    0  502  0.45878730675E+03  0.33359716773E+03 -0.99354423847E+03  0.11440729946E+04  0.25500000920E-02 0.  1.
</event>
<event>
 5   0  0.1126485E-05  0.1599898E+04  0.7818609E-02  0.8820610E-01
        1   -1    0    0  501    0  0.00000000000E+00  0.00000000000E+00  0.20103582462E+04  0.20103582462E+04  0.50400001928E-02 0. -1.
       -1   -1    0    0    0  501  0.00000000000E+00  0.00000000000E+00 -0.31831075663E+03  0.31831075667E+03  0.50400001928E-02 0.  1.
    10030    2    1    2    0    0  0.00000000000E+00  0.00000000000E+00  0.16920474896E+04  0.23286690029E+04  0.15998983149E+04 0.  0.
        2    1    3    3  502    0  0.41908247732E+03 -0.12168072341E+03  0.18218481928E+04  0.18733838792E+04  0.25500000920E-02 0. -1.
       -2    1    3    3    0  502 -0.41908247732E+03  0.12168072341E+03 -0.12980070326E+03  0.45528512365E+03  0.25500000920E-02 0.  1.
</event>
<event>
 5   0  0.2147844E-05  0.1599396E+04  0.7818609E-02  0.8820919E-01
       -2   -1    0    0    0  501  0.00000000000E+00  0.00000000000E+00  0.73799383503E+03  0.73799383504E+03  0.25500000920E-02 0.  1.
        2   -1    0    0  501    0  0.00000000000E+00  0.00000000000E+00 -0.86656181222E+03  0.86656181222E+03  0.25500000920E-02 0. -1.
    10030    2    1    2    0    0  0.00000000000E+00  0.00000000000E+00 -0.12856797718E+03  0.16045556473E+04  0.15993964800E+04 0.  0.
        2    1    3    3  502    0 -0.53353208231E+03  0.31626710062E+03 -0.57072511191E+03  0.84285735161E+03  0.25500000920E-02 0. -1.
       -2    1    3    3    0  502  0.53353208231E+03 -0.31626710062E+03  0.44215713473E+03  0.76169829565E+03  0.25500000920E-02 0.  1.
</event>
<event>
 5   0  0.1057506E-05  0.1600268E+04  0.7818609E-02  0.8820383E-01
       -1   -1    0    0    0  501  0.00000000000E+00  0.00000000000E+00  0.35270056208E+03  0.35270056211E+03  0.50400001928E-02 0.  1.
        1   -1    0    0  501    0  0.00000000000E+00  0.00000000000E+00 -0.18151786267E+04  0.18151786267E+04  0.50400001928E-02 0. -1.
    10030    2    1    2    0    0  0.00000000000E+00  0.00000000000E+00 -0.14624780646E+04  0.21678791888E+04  0.16002681300E+04 0.  0.
        5    1    3    3  502    0  0.11608069934E+03 -0.18939541136E+03  0.31007055601E+03  0.38145929050E+03  0.46999998093E+01 0.  1.
       -5    1    3    3    0  502 -0.11608069934E+03  0.18939541136E+03 -0.17725486206E+04  0.17864198983E+04  0.46999998093E+01 0. -1.
</event>
<event>
 5   0  0.1990948E-05  0.1604938E+04  0.7818609E-02  0.8817520E-01
       -2   -1    0    0    0  501  0.00000000000E+00  0.00000000000E+00  0.63759677610E+03  0.63759677610E+03  0.25500000920E-02 0. -1.
        2   -1    0    0  501    0  0.00000000000E+00  0.00000000000E+00 -0.10099747012E+04  0.10099747012E+04  0.25500000920E-02 0.  1.
    10030    2    1    2    0    0  0.00000000000E+00  0.00000000000E+00 -0.37237792513E+03  0.16475714773E+04  0.16049381464E+04 0.  0.
        4    1    3    3  502    0 -0.44037165782E+03  0.62889835844E+03 -0.42587493202E+03  0.87795866240E+03  0.12699999809E+01 0. -1.
       -4    1    3    3    0  502  0.44037165782E+03 -0.62889835844E+03  0.53497006898E+02  0.76961281493E+03  0.12699999809E+01 0.  1.
</event>
<event>
 5   0  0.1060251E-05  0.1598528E+04  0.7818609E-02  0.8821453E-01
       -1   -1    0    0    0  501  0.00000000000E+00  0.00000000000E+00  0.67013975585E+03  0.67013975587E+03  0.50400001928E-02 0.  1.
        1   -1    0    0  501    0  0.00000000000E+00  0.00000000000E+00 -0.95326856869E+03  0.95326856870E+03  0.50400001928E-02 0. -1.
    10030    2    1    2    0    0  0.00000000000E+00  0.00000000000E+00 -0.28312881284E+03  0.16234083246E+04  0.15985282805E+04 0.  0.
        1    1    3    3  502    0  0.40334323945E+03  0.20082522124E+03 -0.81199582704E+03  0.92863004553E+03  0.50400001928E-02 0. -1.
       -1    1    3    3    0  502 -0.40334323945E+03 -0.20082522124E+03  0.52886701421E+03  0.69477827905E+03  0.50400001928E-02 0.  1.
</event>
<event>
 5   0  0.1057506E-05  0.1591338E+04  0.7818609E-02  0.8825887E-01
       -1   -1    0    0    0  501  0.00000000000E+00  0.00000000000E+00  0.43063821841E+03  0.43063821844E+03  0.50400001928E-02 0. -1.
        1   -1    0    0  501    0  0.00000000000E+00  0.00000000000E+00 -0.14701177050E+04  0.14701177050E+04  0.50400001928E-02 0.  1.
    10030    2    1    2    0    0  0.00000000000E+00  0.00000000000E+00 -0.10394794866E+04  0.19007559235E+04  0.15913376378E+04 0.  0.
        5    1    3    3  502    0  0.60090196723E+03  0.42622748029E+03 -0.87869550775E+03  0.11466825736E+04  0.46999998093E+01 0.  1.
       -5    1    3    3    0  502 -0.60090196723E+03 -0.42622748029E+03 -0.16078397886E+03  0.75407334991E+03  0.46999998093E+01 0. -1.
</event>
<event>
 5   0  0.1060251E-05  0.1604850E+04  0.7818609E-02  0.8817574E-01
        1   -1    0    0  501    0  0.00000000000E+00  0.00000000000E+00  0.13464730571E+04  0.13464730572E+04  0.50400001928E-02 0. -1.
       -1   -1    0    0    0  501  0.00000000000E+00  0.00000000000E+00 -0.47820188317E+03  0.47820188320E+03  0.50400001928E-02 0.  1.
    10030    2    1    2    0    0  0.00000000000E+00  0.00000000000E+00  0.86827117397E+03  0.18246749404E+04  0.16048500885E+04 0.  0.
        1    1    3    3  502    0  0.70026441241E+03  0.17915105621E+03  0.37951315196E+02  0.72381327051E+03  0.50400001928E-02 0.  1.
       -1    1    3    3    0  502 -0.70026441241E+03 -0.17915105621E+03  0.83031985878E+03  0.11008616698E+04  0.50400001928E-02 0. -1.
</event>
<event>
 5   0  0.2147844E-05  0.1600095E+04  0.7818609E-02  0.8820490E-01
        2   -1    0    0  501    0  0.00000000000E+00  0.00000000000E+00  0.18318519663E+04  0.18318519663E+04  0.25500000920E-02 0. -1.
       -2   -1    0    0    0  501  0.00000000000E+00  0.00000000000E+00 -0.34941451400E+03  0.34941451400E+03  0.25500000920E-02 0.  1.
    10030    2    1    2    0    0  0.00000000000E+00  0.00000000000E+00  0.14824374523E+04  0.21812664803E+04  0.16000945779E+04 0.  0.
        2    1    3    3  502    0 -0.51804257646E+03  0.34574487289E+03  0.56664130578E+02  0.62539463690E+03  0.25500000920E-02 0.  1.
       -2    1    3    3    0  502  0.51804257646E+03 -0.34574487289E+03  0.14257733217E+04  0.15558718434E+04  0.25500000920E-02 0. -1.
</event>
<event>
 5   0  0.2125803E-05  0.1600323E+04  0.7818609E-02  0.8820350E-01
       -2   -1    0    0    0  501  0.00000000000E+00  0.00000000000E+00  0.29311053670E+03  0.29311053671E+03  0.25500000920E-02 0.  1.
        2   -1    0    0  501    0  0.00000000000E+00  0.00000000000E+00 -0.21843584596E+04  0.21843584596E+04  0.25500000920E-02 0. -1.
    10030    2    1    2    0    0  0.00000000000E+00  0.00000000000E+00 -0.18912479229E+04  0.24774689963E+04  0.16003230679E+04 0.  0.
        3    1    3    3  502    0  0.51358044147E+03 -0.61139999009E+03 -0.10258219917E+04  0.12999559941E+04  0.10100000352E+00 0.  1.
       -3    1    3    3    0  502 -0.51358044147E+03  0.61139999009E+03 -0.86542593121E+03  0.11775130022E+04  0.10100000352E+00 0. -1.
</event>
<event>
 5   0  0.1057506E-05  0.1599845E+04  0.7818609E-02  0.8820643E-01
       -1   -1    0    0    0  501  0.00000000000E+00  0.00000000000E+00  0.60350474420E+03  0.60350474423E+03  0.50400001928E-02 0. -1.
        1   -1    0    0  501    0  0.00000000000E+00  0.00000000000E+00 -0.10602673485E+04  0.10602673485E+04  0.50400001928E-02 0.  1.
    10030    2    1    2    0    0  0.00000000000E+00  0.00000000000E+00 -0.45676260431E+03  0.16637720928E+04  0.15998454613E+04 0.  0.
        5    1    3    3  502    0  0.12351722338E+03 -0.18986770756E+03  0.56944207693E+03  0.61285611674E+03  0.46999998093E+01 0. -1.
       -5    1    3    3    0  502 -0.12351722338E+03  0.18986770756E+03 -0.10262046812E+04  0.10509159760E+04  0.46999998093E+01 0.  1.
</event>
<event>
 5   0  0.1994525E-05  0.1600507E+04  0.7818609E-02  0.8820237E-01
        2   -1    0    0  501    0  0.00000000000E+00  0.00000000000E+00  0.93725435348E+03  0.93725435348E+03  0.25500000920E-02 0.  1.
       -2   -1    0    0    0  501  0.00000000000E+00  0.00000000000E+00 -0.68327828480E+03  0.68327828480E+03  0.25500000920E-02 0. -1.
    10030    2    1    2    0    0  0.00000000000E+00  0.00000000000E+00  0.25397606868E+03  0.16205326383E+04  0.16005068536E+04 0.  0.
        5    1    3    3  502    0 -0.51336992582E+03  0.21980921588E+03  0.70732506329E+03  0.90121895634E+03  0.46999998093E+01 0.  1.
       -5    1    3    3    0  502  0.51336992582E+03 -0.21980921588E+03 -0.45334899460E+03  0.71931368194E+03  0.46999998093E+01 0. -1.
</event>
<event>
 5   0  0.1994525E-05  0.1603684E+04  0.7818609E-02  0.8818288E-01
       -2   -1    0    0    0  501  0.00000000000E+00  0.00000000000E+00  0.37075243019E+03  0.37075243020E+03  0.25500000920E-02 0. -1.
        2   -1    0    0  501    0  0.00000000000E+00  0.00000000000E+00 -0.17341783056E+04  0.17341783056E+04  0.25500000920E-02 0.  1.
    10030    2    1    2    0    0  0.00000000000E+00  0.00000000000E+00 -0.13634258754E+04  0.21049307358E+04  0.16036842846E+04 0.  0.
        5    1    3    3  502    0 -0.63195824571E+03 -0.19910450901E+03 -0.12744245257E+04  0.14363821885E+04  0.46999998093E+01 0.  1.
       -5    1    3    3    0  502  0.63195824571E+03  0.19910450901E+03 -0.89001349742E+02  0.66854854729E+03  0.46999998093E+01 0. -1.
</event>
<event>
 5   0  0.1994525E-05  0.1600110E+04  0.7818609E-02  0.8820480E-01
        2   -1    0    0  501    0  0.00000000000E+00  0.00000000000E+00  0.18287634545E+04  0.18287634545E+04  0.25500000920E-02 0.  1.
       -2   -1    0    0    0  501  0.00000000000E+00  0.00000000000E+00 -0.35001155480E+03  0.35001155481E+03  0.25500000920E-02 0. -1.
    10030    2    1    2    0    0  0.00000000000E+00  0.00000000000E+00  0.14787518997E+04  0.21787750093E+04  0.16001104213E+04 0.  0.
        5    1    3    3  502    0 -0.10213142788E+02  0.23141115601E+03 -0.30333376180E+03  0.38169214356E+03  0.46999998093E+01 0. -1.
       -5    1    3    3    0  502  0.10213142788E+02 -0.23141115601E+03  0.17820856615E+04  0.17970828658E+04  0.46999998093E+01 0.  1.
</event>
<event>
 5   0  0.1060251E-05  0.1599452E+04  0.7818609E-02  0.8820885E-01
        1   -1    0    0  501    0  0.00000000000E+00  0.00000000000E+00  0.97318934018E+03  0.97318934020E+03  0.50400001928E-02 0.  1.
       -1   -1    0    0    0  501  0.00000000000E+00  0.00000000000E+00 -0.65718131984E+03  0.65718131986E+03  0.50400001928E-02 0. -1.
    10030    2    1    2    0    0  0.00000000000E+00  0.00000000000E+00  0.31600802035E+03  0.16303706601E+04  0.15994522251E+04 0.  0.
        1    1    3    3  502    0 -0.28782133582E+03 -0.26885643139E+03  0.86747347878E+03  0.95269887082E+03  0.50400001928E-02 0.  1.
       -1    1    3    3    0  502  0.28782133582E+03  0.26885643139E+03 -0.55146545844E+03  0.67767178923E+03  0.50400001928E-02 0. -1.
</event>
<event>
 5   0  0.1990948E-05  0.1599684E+04  0.7818609E-02  0.8820742E-01
        2   -1    0    0  501    0  0.00000000000E+00  0.00000000000E+00  0.10762877498E+04  0.10762877498E+04  0.25500000920E-02 0. -1.
       -2   -1    0    0    0  501  0.00000000000E+00  0.00000000000E+00 -0.59440155539E+03  0.59440155540E+03  0.25500000920E-02 0.  1.
    10030    2    1    2    0    0  0.00000000000E+00  0.00000000000E+00  0.48188619443E+03  0.16706893052E+04  0.15996838595E+04 0.  0.
        4    1    3    3  502    0 -0.65352975711E+03  0.39177239017E+03  0.49496491881E+03  0.90861357732E+03  0.12699999809E+01 0. -1.
       -4    1    3    3    0  502  0.65352975711E+03 -0.39177239017E+03 -0.13078724388E+02  0.76207572790E+03  0.12699999809E+01 0.  1.
</event>
<event>
 5   0  0.1060251E-05  0.1600152E+04  0.7818609E-02  0.8820455E-01
       -1   -1    0    0    0  501  0.00000000000E+00  0.00000000000E+00  0.90239955722E+03  0.90239955724E+03  0.50400001928E-02 0. -1.
        1   -1    0    0  501    0  0.00000000000E+00  0.00000000000E+00 -0.70935474279E+03  0.70935474281E+03  0.50400001928E-02 0.  1.
    10030    2    1    2    0    0  0.00000000000E+00  0.00000000000E+00  0.19304481443E+03  0.16117543000E+04  0.16001517501E+04 0.  0.
        1    1    3    3  502    0 -0.57898050601E+03 -0.53044643296E+03 -0.57983319496E+02  0.78737151964E+03  0.50400001928E-02 0.  1.
       -1    1    3    3    0  502  0.57898050601E+03  0.53044643296E+03  0.25102813392E+03  0.82438278040E+03  0.50400001928E-02 0. -1.
</event>
<event>
 5   0  0.1081831E-05  0.1599596E+04  0.7818609E-02  0.8820796E-01
       -1   -1    0    0    0  501  0.00000000000E+00  0.00000000000E+00  0.33695039490E+03  0.33695039493E+03  0.50400001928E-02 0. -1.
        1   -1    0    0  501    0  0.00000000000E+00  0.00000000000E+00 -0.18984314113E+04  0.18984314113E+04  0.50400001928E-02 0.  1.
    10030    2    1    2    0    0  0.00000000000E+00  0.00000000000E+00 -0.15614810164E+04  0.22353818062E+04  0.15995964663E+04 0.  0.
        3    1    3    3  502    0  0.31433147674E+03 -0.25996055529E+03 -0.17421458182E+04  0.17892612525E+04  0.10100000352E+00 0.  1.
       -3    1    3    3    0  502 -0.31433147674E+03  0.25996055529E+03  0.18066480188E+03  0.44612055367E+03  0.10100000352E+00 0. -1.
</event>
<event>
 5   0  0.1126485E-05  0.1600235E+04  0.7818609E-02  0.8820403E-01
       -1   -1    0    0    0  501  0.00000000000E+00  0.00000000000E+00  0.89098127124E+03  0.89098127125E+03  0.50400001928E-02 0.  1.
        1   -1    0    0  501    0  0.00000000000E+00  0.00000000000E+00 -0.71852054459E+03  0.71852054460E+03  0.50400001928E-02 0. -1.
    10030    2    1    2    0    0  0.00000000000E+00  0.00000000000E+00  0.17246072665E+03  0.16095018159E+04  0.16002354180E+04 0.  0.
        2    1    3    3  502    0 -0.14848897878E+01 -0.28994657201E+02  0.89045131473E+03  0.89092448555E+03  0.25500000920E-02 0.  1.
       -2    1    3    3    0  502  0.14848897878E+01  0.28994657201E+02 -0.71799058808E+03  0.71857733030E+03  0.25500000920E-02 0. -1.
</event>
<event>
 5   0  0.1990948E-05  0.1598597E+04  0.7818609E-02  0.8821411E-01
       -2   -1    0    0    0  501  0.00000000000E+00  0.00000000000E+00  0.29390745727E+03  0.29390745728E+03  0.25500000920E-02 0.  1.
        2   -1    0    0  501    0  0.00000000000E+00  0.00000000000E+00 -0.21737377706E+04  0.21737377706E+04  0.25500000920E-02 0. -1.
    10030    2    1    2    0    0  0.00000000000E+00  0.00000000000E+00 -0.18798303133E+04  0.24676452279E+04  0.15985965607E+04 0.  0.
        4    1    3    3  502    0 -0.12723008721E+03 -0.71340156418E+03 -0.14605263720E+04  0.16304196340E+04  0.12699999809E+01 0. -1.
       -4    1    3    3    0  502  0.12723008721E+03  0.71340156418E+03 -0.41930394134E+03  0.83722559385E+03  0.12699999809E+01 0.  1.
</event>
<event>
 5   0  0.1090674E-05  0.1600246E+04  0.7818609E-02  0.8820397E-01
       -1   -1    0    0    0  501  0.00000000000E+00  0.00000000000E+00  0.90111190575E+03  0.90111190576E+03  0.50400001928E-02 0. -1.
        1   -1    0    0  501    0  0.00000000000E+00  0.00000000000E+00 -0.71045213466E+03  0.71045213467E+03  0.50400001928E-02 0.  1.
    10030    2    1    2    0    0  0.00000000000E+00  0.00000000000E+00  0.19065977109E+03  0.16115640404E+04  0.16002460774E+04 0.  0.
        4    1    3    3  502    0 -0.10307182232E+03 -0.15566789238E+03  0.87886797618E+03  0.89848028678E+03  0.12699999809E+01 0. -1.
       -4    1    3    3    0  502  0.10307182232E+03  0.15566789238E+03 -0.68820820509E+03  0.71308375366E+03  0.12699999809E+01 0.  1.
</event>
<event>
 5   0  0.1081831E-05  0.1599888E+04  0.7818609E-02  0.8820617E-01
       -1   -1    0    0    0  501  0.00000000000E+00  0.00000000000E+00  0.33420965309E+03  0.33420965313E+03  0.50400001928E-02 0.  1.
        1   -1    0    0  501    0  0.00000000000E+00  0.00000000000E+00 -0.19146967682E+04  0.19146967682E+04  0.50400001928E-02 0. -1.
    10030    2    1    2    0    0  0.00000000000E+00  0.00000000000E+00 -0.15804871151E+04  0.22489064213E+04  0.15998876745E+04 0.  0.
        3    1    3    3  502    0  0.46707682799E+03 -0.35636908588E+03 -0.15533921821E+04  0.16607790251E+04  0.10100000352E+00 0. -1.
       -3    1    3    3    0  502 -0.46707682799E+03  0.35636908588E+03 -0.27094933027E+02  0.58812739625E+03  0.10100000352E+00 0.  1.
</event>
<event>
 5   0  0.2046108E-05  0.1600279E+04  0.7818609E-02  0.8820377E-01
        2   -1    0    0  501    0  0.00000000000E+00  0.00000000000E+00  0.16912129671E+04  0.16912129671E+04  0.25500000920E-02 0.  1.
       -2   -1    0    0    0  501  0.00000000000E+00  0.00000000000E+00 -0.37855841145E+03  0.37855841146E+03  0.25500000920E-02 0. -1.
    10030    2    1    2    0    0  0.00000000000E+00  0.00000000000E+00  0.13126545556E+04  0.20697713785E+04  0.16002785936E+04 0.  0.
        1    1    3    3  502    0 -0.62004465884E+03 -0.18608031289E+03  0.48105401264E+02  0.64914974502E+03  0.50400001928E-02 0. -1.
       -1    1    3    3    0  502  0.62004465884E+03  0.18608031289E+03  0.12645491543E+04  0.14206216335E+04  0.50400001928E-02 0.  1.
</event>
<event>
 5   0  0.1994525E-05  0.1597466E+04  0.7818609E-02  0.8822106E-01
       -2   -1    0    0    0  501  0.00000000000E+00  0.00000000000E+00  0.56310870553E+03  0.56310870554E+03  0.25500000920E-02 0.  1.
        2   -1    0    0  501    0  0.00000000000E+00  0.00000000000E+00 -0.11329506909E+04  0.11329506909E+04  0.25500000920E-02 0. -1.
    10030    2    1    2    0    0  0.00000000000E+00  0.00000000000E+00 -0.56984198533E+03  0.16960593964E+04  0.15974659896E+04 0.  0.
        5    1    3    3  502    0 -0.32841579639E+03 -0.87355938393E+02 -0.10523491889E+04  0.11058702006E+04  0.46999998093E+01 0. -1.
       -5    1    3    3    0  502  0.32841579639E+03  0.87355938393E+02  0.48250720357E+03  0.59018919576E+03  0.46999998093E+01 0.  1.
</event>
<event>
 5   0  0.1090674E-05  0.1599829E+04  0.7818609E-02  0.8820653E-01
       -1   -1    0    0    0  501  0.00000000000E+00  0.00000000000E+00  0.11362745238E+04  0.11362745238E+04  0.50400001928E-02 0.  1.
        1   -1    0    0  501    0  0.00000000000E+00  0.00000000000E+00 -0.56312407600E+03  0.56312407602E+03  0.50400001928E-02 0. -1.
    10030    2    1    2    0    0  0.00000000000E+00  0.00000000000E+00  0.57315044782E+03  0.16993985998E+04  0.15998294176E+04 0.  0.
        4    1    3    3  502    0  0.72880789196E+03 -0.26785665174E+03  0.82377392823E+02  0.78083018449E+03  0.12699999809E+01 0. -1.
       -4    1    3    3    0  502 -0.72880789196E+03  0.26785665174E+03  0.49077305499E+03  0.91856841535E+03  0.12699999809E+01 0.  1.
</event>
<event>
 5   0  0.1990948E-05  0.1599683E+04  0.7818609E-02  0.8820743E-01
        2   -1    0    0  501    0  0.00000000000E+00  0.00000000000E+00  0.14949807400E+04  0.14949807400E+04  0.25500000920E-02 0. -1.
       -2   -1    0    0    0  501  0.00000000000E+00  0.00000000000E+00 -0.42792956712E+03  0.42792956713E+03  0.25500000920E-02 0.  1.
    10030    2    1    2    0    0  0.00000000000E+00  0.00000000000E+00  0.10670511728E+04  0.19229103071E+04  0.15996830448E+04 0.  0.
        4    1    3    3  502    0  0.63092520535E+03 -0.36741211296E+03  0.14089876229E+03  0.74358076199E+03  0.12699999809E+01 0.  1.
       -4    1    3    3    0  502 -0.63092520535E+03  0.36741211296E+03  0.92615241056E+03  0.11793295451E+04  0.12699999809E+01 0. -1.
</event>
<event>
 5   0  0.2147844E-05  0.1600111E+04  0.7818609E-02  0.8820480E-01
       -2   -1    0    0    0  501  0.00000000000E+00  0.00000000000E+00  0.61116683646E+03  0.61116683646E+03  0.25500000920E-02 0. -1.
        2   -1    0    0  501    0  0.00000000000E+00  0.00000000000E+00 -0.10473231447E+04  0.10473231447E+04  0.25500000920E-02 0.  1.
    10030    2    1    2    0    0  0.00000000000E+00  0.00000000000E+00 -0.43615630824E+03  0.16584899812E+04  0.16001114625E+04 0.  0.
        2    1    3    3  502    0 -0.63549178952E+02 -0.66597870125E+02 -0.10418159071E+04  0.10458748294E+04  0.25500000920E-02 0.  1.
       -2    1    3    3    0  502  0.63549178952E+02  0.66597870125E+02  0.60565959887E+03  0.61261515176E+03  0.25500000920E-02 0. -1.
</event>
<event>
 5   0  0.1060251E-05  0.1600359E+04  0.7818609E-02  0.8820328E-01
       -1   -1    0    0    0  501  0.00000000000E+00  0.00000000000E+00  0.35696917340E+03  0.35696917343E+03  0.50400001928E-02 0. -1.
        1   -1    0    0  501    0  0.00000000000E+00  0.00000000000E+00 -0.17936755182E+04  0.17936755182E+04  0.50400001928E-02 0.  1.
    10030    2    1    2    0    0  0.00000000000E+00  0.00000000000E+00 -0.14367063448E+04  0.21506446916E+04  0.16003585437E+04 0.  0.
        1    1    3    3  502    0  0.45216828228E+03  0.55680167999E+03 -0.11949994256E+04  0.13937388182E+04  0.50400001928E-02 0.  1.
       -1    1    3    3    0  502 -0.45216828228E+03 -0.55680167999E+03 -0.24170691921E+03  0.75690587338E+03  0.50400001928E-02 0. -1.
</event>
<event>
 5   0  0.2147844E-05  0.1600004E+04  0.7818609E-02  0.8820546E-01
        2   -1    0    0  501    0  0.00000000000E+00  0.00000000000E+00  0.12203502455E+04  0.12203502455E+04  0.25500000920E-02 0. -1.
       -2   -1    0    0    0  501  0.00000000000E+00  0.00000000000E+00 -0.52444218632E+03  0.52444218632E+03  0.25500000920E-02 0.  1.
    10030    2    1    2    0    0  0.00000000000E+00  0.00000000000E+00  0.69590805914E+03  0.17447924318E+04  0.16000039385E+04 0.  0.
        2    1    3    3  502    0  0.13726248210E+03 -0.49873670302E+03  0.10134439274E+04  0.11378259454E+04  0.25500000920E-02 0. -1.
       -2    1    3    3    0  502 -0.13726248210E+03  0.49873670302E+03 -0.31753586831E+03  0.60696648639E+03  0.25500000920E-02 0.  1.
</event>
<event>
 5   0  0.1126485E-05  0.1600166E+04  0.7818609E-02  0.8820446E-01
       -1   -1    0    0    0  501  0.00000000000E+00  0.00000000000E+00  0.56511249287E+03  0.56511249290E+03  0.50400001928E-02 0.  1.
        1   -1    0    0  501    0  0.00000000000E+00  0.00000000000E+00 -0.11327534238E+04  0.11327534239E+04  0.50400001928E-02 0. -1.
    10030    2    1    2    0    0  0.00000000000E+00  0.00000000000E+00 -0.56764093098E+03  0.16978659168E+04  0.16001663803E+04 0.  0.
        2    1    3    3  502    0 -0.10456250631E+03  0.28367517515E+03  0.50216928738E+03  0.58615605082E+03  0.25500000920E-02 0.  1.
       -2    1    3    3    0  502  0.10456250631E+03 -0.28367517515E+03 -0.10698102184E+04  0.11117098659E+04  0.25500000920E-02 0. -1.
</event>
<event>
 5   0  0.1090674E-05  0.1600343E+04  0.7818609E-02  0.8820337E-01
        1   -1    0    0  501    0  0.00000000000E+00  0.00000000000E+00  0.18678594307E+04  0.18678594307E+04  0.50400001928E-02 0. -1.
       -1   -1    0    0    0  501  0.00000000000E+00  0.00000000000E+00 -0.34278511424E+03  0.34278511428E+03  0.50400001928E-02 0.  1.
    10030    2    1    2    0    0  0.00000000000E+00  0.00000000000E+00  0.15250743164E+04  0.22106445450E+04  0.16003429737E+04 0.  0.
        4    1    3    3  502    0 -0.95490885751E+02  0.38966917819E+03  0.17188832759E+04  0.17650841076E+04  0.12699999809E+01 0. -1.
       -4    1    3    3    0  502  0.95490885751E+02 -0.38966917819E+03 -0.19380895948E+03  0.44556043739E+03  0.12699999809E+01 0.  1.
</event>
<event>
 5   0  0.2046108E-05  0.1599895E+04  0.7818609E-02  0.8820612E-01
        2   -1    0    0  501    0  0.00000000000E+00  0.00000000000E+00  0.16819719702E+04  0.16819719702E+04  0.25500000920E-02 0. -1.
       -2   -1    0    0    0  501  0.00000000000E+00  0.00000000000E+00 -0.38045587166E+03  0.38045587167E+03  0.25500000920E-02 0.  1.
    10030    2    1    2    0    0  0.00000000000E+00  0.00000000000E+00  0.13015160985E+04  0.20624278419E+04  0.15998951366E+04 0.  0.
        1    1    3    3  502    0 -0.36505231674E+03 -0.55674583451E+03  0.79049000776E+02  0.67043110217E+03  0.50400001928E-02 0.  1.
       -1    1    3    3    0  502  0.36505231674E+03  0.55674583451E+03  0.12224670978E+04  0.13919967397E+04  0.50400001928E-02 0. -1.
</event>
<event>
 5   0  0.2147844E-05  0.1599707E+04  0.7818609E-02  0.8820728E-01
        2   -1    0    0  501    0  0.00000000000E+00  0.00000000000E+00  0.77379384797E+03  0.77379384797E+03  0.25500000920E-02 0.  1.
       -2   -1    0    0    0  501  0.00000000000E+00  0.00000000000E+00 -0.82679068562E+03  0.82679068563E+03  0.25500000920E-02 0. -1.
    10030    2    1    2    0    0  0.00000000000E+00  0.00000000000E+00 -0.52996837656E+02  0.16005845336E+04  0.15997069058E+04 0.  0.
        2    1    3    3  502    0 -0.60190964040E+03  0.18340865259E+03 -0.52056239362E+03  0.81665118301E+03  0.25500000920E-02 0. -1.
       -2    1    3    3    0  502  0.60190964040E+03 -0.18340865259E+03  0.46756555596E+03  0.78393335060E+03  0.25500000920E-02 0.  1.
</event>
<event>
 5   0  0.1060251E-05  0.1599465E+04  0.7818609E-02  0.8820877E-01
       -1   -1    0    0    0  501  0.00000000000E+00  0.00000000000E+00  0.53636494134E+03  0.53636494136E+03  0.50400001928E-02 0.  1.
        1   -1    0    0  501    0  0.00000000000E+00  0.00000000000E+00 -0.11924192347E+04  0.11924192347E+04  0.50400001928E-02 0. -1.
    10030    2    1    2    0    0  0.00000000000E+00  0.00000000000E+00 -0.65605429340E+03  0.17287841761E+04  0.15994647516E+04 0.  0.
        1    1    3    3  502    0 -0.27155439083E+03  0.39184628273E+03  0.36598281206E+03  0.60102305715E+03  0.50400001928E-02 0.  1.
       -1    1    3    3    0  502  0.27155439083E+03 -0.39184628273E+03 -0.10220371055E+04  0.11277611190E+04  0.50400001928E-02 0. -1.
</event>
<event>
 5   0  0.1126485E-05  0.1599890E+04  0.7818609E-02  0.8820615E-01
       -1   -1    0    0    0  501  0.00000000000E+00  0.00000000000E+00  0.38519872541E+03  0.38519872544E+03  0.50400001928E-02 0.  1.
        1   -1    0    0  501    0  0.00000000000E+00  0.00000000000E+00 -0.16612519902E+04  0.16612519903E+04  0.50400001928E-02 0. -1.
    10030    2    1    2    0    0  0.00000000000E+00  0.00000000000E+00 -0.12760532648E+04  0.20464507157E+04  0.15998901828E+04 0.  0.
        2    1    3    3  502    0  0.39670011025E+03 -0.65096935444E+03 -0.32790920608E+03  0.82985331555E+03  0.25500000920E-02 0.  1.
       -2    1    3    3    0  502 -0.39670011025E+03  0.65096935444E+03 -0.94814405875E+03  0.12165974001E+04  0.25500000920E-02 0. -1.
</event>
<event>
 5   0  0.2046108E-05  0.1600099E+04  0.7818609E-02  0.8820487E-01
        2   -1    0    0  501    0  0.00000000000E+00  0.00000000000E+00  0.18416327382E+04  0.18416327382E+04  0.25500000920E-02 0. -1.
       -2   -1    0    0    0  501  0.00000000000E+00  0.00000000000E+00 -0.34756085401E+03  0.34756085402E+03  0.25500000920E-02 0.  1.
    10030    2    1    2    0    0  0.00000000000E+00  0.00000000000E+00  0.14940718842E+04  0.21891935922E+04  0.16000993060E+04 0.  0.
        1    1    3    3  502    0 -0.72856040805E+03 -0.29060845081E+03  0.53146520985E+03  0.94747496493E+03  0.50400001928E-02 0.  1.
       -1    1    3    3    0  502  0.72856040805E+03  0.29060845081E+03  0.96260667432E+03  0.12417186273E+04  0.50400001928E-02 0. -1.
</event>
<event>
 5   0  0.1126485E-05  0.1599503E+04  0.7818609E-02  0.8820853E-01
       -1   -1    0    0    0  501  0.00000000000E+00  0.00000000000E+00  0.50106799742E+03  0.50106799744E+03  0.50400001928E-02 0.  1.
        1   -1    0    0  501    0  0.00000000000E+00  0.00000000000E+00 -0.12764789251E+04  0.12764789251E+04  0.50400001928E-02 0. -1.
    10030    2    1    2    0    0  0.00000000000E+00  0.00000000000E+00 -0.77541092769E+03  0.17775469226E+04  0.15995033464E+04 0.  0.
        2    1    3    3  502    0 -0.75275800152E+03  0.26370640275E+03 -0.45266791711E+03  0.91711172651E+03  0.25500000920E-02 0. -1.
       -2    1    3    3    0  502  0.75275800152E+03 -0.26370640275E+03 -0.32274301058E+03  0.86043519605E+03  0.25500000920E-02 0.  1.
</event>
<event>
 5   0  0.1081831E-05  0.1601631E+04  0.7818609E-02  0.8819546E-01
        1   -1    0    0  501    0  0.00000000000E+00  0.00000000000E+00  0.87205151828E+03  0.87205151829E+03  0.50400001928E-02 0.  1.
       -1   -1    0    0    0  501  0.00000000000E+00  0.00000000000E+00 -0.73539902553E+03  0.73539902554E+03  0.50400001928E-02 0. -1.
    10030    2    1    2    0    0  0.00000000000E+00  0.00000000000E+00  0.13665249275E+03  0.16074505438E+04  0.16016314642E+04 0.  0.
        3    1    3    3  502    0 -0.30167680880E+03 -0.73450231594E+03  0.17264269505E+03  0.81259341582E+03  0.10100000352E+00 0. -1.
       -3    1    3    3    0  502  0.30167680880E+03  0.73450231594E+03 -0.35990202297E+02  0.79485712801E+03  0.10100000352E+00 0.  1.
</event>
<event>
 5   0  0.1990948E-05  0.1599639E+04  0.7818609E-02  0.8820770E-01
        2   -1    0    0  501    0  0.00000000000E+00  0.00000000000E+00  0.11630246835E+04  0.11630246835E+04  0.25500000920E-02 0. -1.
       -2   -1    0    0    0  501  0.00000000000E+00  0.00000000000E+00 -0.55004118362E+03  0.55004118363E+03  0.25500000920E-02 0.  1.
    10030    2    1    2    0    0  0.00000000000E+00  0.00000000000E+00  0.61298349989E+03  0.17130658672E+04  0.15996393012E+04 0.  0.
        4    1    3    3  502    0 -0.45373573454E+02 -0.24899143024E+03  0.11190095763E+04  0.11472748312E+04  0.12699999809E+01 0. -1.
       -4    1    3    3    0  502  0.45373573454E+02  0.24899143024E+03 -0.50602607640E+03  0.56579103598E+03  0.12699999809E+01 0.  1.
</event>
<event>
 5   0  0.1990948E-05  0.1600187E+04  0.7818609E-02  0.8820433E-01
        2   -1    0    0  501    0  0.00000000000E+00  0.00000000000E+00  0.25324900070E+04  0.25324900070E+04  0.25500000920E-02 0. -1.
       -2   -1    0    0    0  501  0.00000000000E+00  0.00000000000E+00 -0.25277478304E+03  0.25277478305E+03  0.25500000920E-02 0.  1.
    10030    2    1    2    0    0  0.00000000000E+00  0.00000000000E+00  0.22797152239E+04  0.27852647900E+04  0.16001870042E+04 0.  0.
        4    1    3    3  502    0  0.26177094139E+03 -0.20108625369E+03  0.24084438540E+04  0.24309593000E+04  0.12699999809E+01 0. -1.
       -4    1    3    3    0  502 -0.26177094139E+03  0.20108625369E+03 -0.12872863010E+03  0.35430549006E+03  0.12699999809E+01 0.  1.
</event>
<event>
 5   0  0.1990948E-05  0.1598616E+04  0.7818609E-02  0.8821399E-01
       -2   -1    0    0    0  501  0.00000000000E+00  0.00000000000E+00  0.41359008775E+03  0.41359008776E+03  0.25500000920E-02 0. -1.
        2   -1    0    0  501    0  0.00000000000E+00  0.00000000000E+00 -0.15447504600E+04  0.15447504600E+04  0.25500000920E-02 0.  1.
    10030    2    1    2    0    0  0.00000000000E+00  0.00000000000E+00 -0.11311603722E+04  0.19583405477E+04  0.15986162495E+04 0.  0.
        4    1    3    3  502    0 -0.71210350367E+02 -0.72443324650E+03 -0.97005543267E+03  0.12127999002E+04  0.12699999809E+01 0.  1.
       -4    1    3    3    0  502  0.71210350367E+02  0.72443324650E+03 -0.16110493956E+03  0.74554064751E+03  0.12699999809E+01 0. -1.
</event>
<event>
 5   0  0.2125803E-05  0.1600254E+04  0.7818609E-02  0.8820392E-01
       -2   -1    0    0    0  501  0.00000000000E+00  0.00000000000E+00  0.61560780343E+03  0.61560780344E+03  0.25500000920E-02 0.  1.
        2   -1    0    0  501    0  0.00000000000E+00  0.00000000000E+00 -0.10399528356E+04  0.10399528356E+04  0.25500000920E-02 0. -1.
    10030    2    1    2    0    0  0.00000000000E+00  0.00000000000E+00 -0.42434503214E+03  0.16555606390E+04  0.16002538308E+04 0.  0.
        3    1    3    3  502    0  0.54061124691E+03 -0.51985957752E+02  0.39570597609E+03  0.67197194123E+03  0.10100000352E+00 0.  1.
       -3    1    3    3    0  502 -0.54061124691E+03  0.51985957752E+02 -0.82005100823E+03  0.98358869778E+03  0.10100000352E+00 0. -1.
</event>
<event>
 5   0  0.1060251E-05  0.1599168E+04  0.7818609E-02  0.8821059E-01
        1   -1    0    0  501    0  0.00000000000E+00  0.00000000000E+00  0.63013691643E+03  0.63013691645E+03  0.50400001928E-02 0.  1.
       -1   -1    0    0    0  501  0.00000000000E+00  0.00000000000E+00 -0.10145959983E+04  0.10145959983E+04  0.50400001928E-02 0. -1.
    10030    2    1    2    0    0  0.00000000000E+00  0.00000000000E+00 -0.38445908186E+03  0.16447329147E+04  0.15991677758E+04 0.  0.
        1    1    3    3  502    0  0.44185701501E+02  0.71256369707E+03 -0.56253701845E+03  0.90892645233E+03  0.50400001928E-02 0. -1.
       -1    1    3    3    0  502 -0.44185701501E+02 -0.71256369707E+03  0.17807793659E+03  0.73580646241E+03  0.50400001928E-02 0.  1.
</event>
<event>
 5   0  0.2147844E-05  0.1599490E+04  0.7818609E-02  0.8820862E-01
        2   -1    0    0  501    0  0.00000000000E+00  0.00000000000E+00  0.18670596167E+04  0.18670596167E+04  0.25500000920E-02 0. -1.
       -2   -1    0    0    0  501  0.00000000000E+00  0.00000000000E+00 -0.34256635754E+03  0.34256635755E+03  0.25500000920E-02 0.  1.
    10030    2    1    2    0    0  0.00000000000E+00  0.00000000000E+00  0.15244932592E+04  0.22096259743E+04  0.15994896839E+04 0.  0.
        2    1    3    3  502    0  0.55898840683E+03  0.21488926608E+03  0.30014062801E+02  0.59962178047E+03  0.25500000920E-02 0.  1.
       -2    1    3    3    0  502 -0.55898840683E+03 -0.21488926608E+03  0.14944791964E+04  0.16100041938E+04  0.25500000920E-02 0. -1.
</event>
<event>
 5   0  0.2046108E-05  0.1600170E+04  0.7818609E-02  0.8820444E-01
       -2   -1    0    0    0  501  0.00000000000E+00  0.00000000000E+00  0.40859185288E+03  0.40859185289E+03  0.25500000920E-02 0. -1.
        2   -1    0    0  501    0  0.00000000000E+00  0.00000000000E+00 -0.15666874223E+04  0.15666874223E+04  0.25500000920E-02 0.  1.
    10030    2    1    2    0    0  0.00000000000E+00  0.00000000000E+00 -0.11580955694E+04  0.19752792752E+04  0.16001696370E+04 0.  0.
        1    1    3    3  502    0 -0.80260325481E+02 -0.60546741794E+03 -0.12170203885E+04  0.13616795291E+04  0.50400001928E-02 0.  1.
       -1    1    3    3    0  502  0.80260325481E+02  0.60546741794E+03  0.58924819061E+02  0.61359974606E+03  0.50400001928E-02 0. -1.
</event>
<event>
 5   0  0.1126485E-05  0.1599831E+04  0.7818609E-02  0.8820652E-01
       -1   -1    0    0    0  501  0.00000000000E+00  0.00000000000E+00  0.57655999081E+03  0.57655999083E+03  0.50400001928E-02 0. -1.
        1   -1    0    0  501    0  0.00000000000E+00  0.00000000000E+00 -0.11097976348E+04  0.11097976348E+04  0.50400001928E-02 0.  1.
    10030    2    1    2    0    0  0.00000000000E+00  0.00000000000E+00 -0.53323764398E+03  0.16863576256E+04  0.15998311338E+04 0.  0.
        2    1    3    3  502    0 -0.23948088754E+03  0.34277484514E+02 -0.10703118830E+04  0.10973119740E+04  0.25500000920E-02 0.  1.
       -2    1    3    3    0  502  0.23948088754E+03 -0.34277484514E+02  0.53707423903E+03  0.58904565160E+03  0.25500000920E-02 0. -1.
</event>
<event>
 5   0  0.1126485E-05  0.1602080E+04  0.7818609E-02  0.8819271E-01
        1   -1    0    0  501    0  0.00000000000E+00  0.00000000000E+00  0.60619349195E+03  0.60619349197E+03  0.50400001928E-02 0. -1.
       -1   -1    0    0    0  501  0.00000000000E+00  0.00000000000E+00 -0.10585155411E+04  0.10585155411E+04  0.50400001928E-02 0.  1.
    10030    2    1    2    0    0  0.00000000000E+00  0.00000000000E+00 -0.45232204918E+03  0.16647090331E+04  0.16020801880E+04 0.  0.
        2    1    3    3  502    0 -0.11689048469E+03 -0.48195869567E+03  0.42749129071E+03  0.65474909193E+03  0.25500000920E-02 0. -1.
       -2    1    3    3    0  502  0.11689048469E+03  0.48195869567E+03 -0.87981333989E+03  0.10099599412E+04  0.25500000920E-02 0.  1.
</event>
<event>
 5   0  0.2046108E-05  0.1600679E+04  0.7818609E-02  0.8820131E-01
        2   -1    0    0  501    0  0.00000000000E+00  0.00000000000E+00  0.15770085543E+04  0.15770085543E+04  0.25500000920E-02 0. -1.
       -2   -1    0    0    0  501  0.00000000000E+00  0.00000000000E+00 -0.40617625554E+03  0.40617625555E+03  0.25500000920E-02 0.  1.
    10030    2    1    2    0    0  0.00000000000E+00  0.00000000000E+00  0.11708322988E+04  0.19831848098E+04  0.16006791428E+04 0.  0.
        1    1    3    3  502    0  0.33580843048E+03 -0.47499905005E+03 -0.95622343768E+02  0.58952101929E+03  0.50400001928E-02 0.  1.
       -1    1    3    3    0  502 -0.33580843048E+03  0.47499905005E+03  0.12664546425E+04  0.13936637906E+04  0.50400001928E-02 0. -1.
</event>
<event>
 5   0  0.1990948E-05  0.1600219E+04  0.7818609E-02  0.8820414E-01
        2   -1    0    0  501    0  0.00000000000E+00  0.00000000000E+00  0.72088469927E+03  0.72088469928E+03  0.25500000920E-02 0.  1.
       -2   -1    0    0    0  501  0.00000000000E+00  0.00000000000E+00 -0.88804094123E+03  0.88804094123E+03  0.25500000920E-02 0. -1.
    10030    2    1    2    0    0  0.00000000000E+00  0.00000000000E+00 -0.16715624196E+03  0.16089256405E+04  0.16002188936E+04 0.  0.
        4    1    3    3  502    0 -0.55980104186E+03  0.11705678867E+03  0.47901441047E+03  0.74601334879E+03  0.12699999809E+01 0.  1.
       -4    1    3    3    0  502  0.55980104186E+03 -0.11705678867E+03 -0.64617065242E+03  0.86291229171E+03  0.12699999809E+01 0. -1.
</event>
<event>
 5   0  0.1990948E-05  0.1599747E+04  0.7818609E-02  0.8820703E-01
        2   -1    0    0  501    0  0.00000000000E+00  0.00000000000E+00  0.20281037184E+04  0.20281037184E+04  0.25500000920E-02 0.  1.
       -2   -1    0    0    0  501  0.00000000000E+00  0.00000000000E+00 -0.31546589538E+03  0.31546589539E+03  0.25500000920E-02 0. -1.
    10030    2    1    2    0    0  0.00000000000E+00  0.00000000000E+00  0.17126378230E+04  0.23435696138E+04  0.15997469243E+04 0.  0.
        4    1    3    3  502    0 -0.35459177437E+03 -0.24539466440E+03 -0.13059427672E+03  0.45056669404E+03  0.12699999809E+01 0. -1.
       -4    1    3    3    0  502  0.35459177437E+03  0.24539466440E+03  0.18432320997E+04  0.18930029197E+04  0.12699999809E+01 0.  1.
</event>
<event>
 5   0  0.1081831E-05  0.1599369E+04  0.7818609E-02  0.8820936E-01
        1   -1    0    0  501    0  0.00000000000E+00  0.00000000000E+00  0.68075725693E+03  0.68075725695E+03  0.50400001928E-02 0.  1.
       -1   -1    0    0    0  501  0.00000000000E+00  0.00000000000E+00 -0.93938810501E+03  0.93938810502E+03  0.50400001928E-02 0. -1.
    10030    2    1    2    0    0  0.00000000000E+00  0.00000000000E+00 -0.25863084807E+03  0.16201453620E+04  0.15993689625E+04 0.  0.
        3    1    3    3  502    0  0.15395920878E+03  0.47813673224E+03 -0.75963405165E+03  0.91069318396E+03  0.10100000352E+00 0. -1.
       -3    1    3    3    0  502 -0.15395920878E+03 -0.47813673224E+03  0.50100320357E+03  0.70945217801E+03  0.10100000352E+00 0.  1.
</event>
<event>
 5   0  0.1057506E-05  0.1600053E+04  0.7818609E-02  0.8820516E-01
        1   -1    0    0  501    0  0.00000000000E+00  0.00000000000E+00  0.13365517073E+04  0.13365517073E+04  0.50400001928E-02 0. -1.
       -1   -1    0    0    0  501  0.00000000000E+00  0.00000000000E+00 -0.47887582331E+03  0.47887582334E+03  0.50400001928E-02 0.  1.
    10030    2    1    2    0    0  0.00000000000E+00  0.00000000000E+00  0.85767588394E+03  0.18154275306E+04  0.16000528732E+04 0.  0.
        5    1    3    3  502    0 -0.47193068388E+03  0.56811392634E+03  0.79961834181E+02  0.74289163988E+03  0.46999998093E+01 0.  1.
       -5    1    3    3    0  502  0.47193068388E+03 -0.56811392634E+03  0.77771404976E+03  0.10725358907E+04  0.46999998093E+01 0. -1.
</event>
<event>
 5   0  0.2147844E-05  0.1597436E+04  0.7818609E-02  0.8822125E-01
       -2   -1    0    0    0  501  0.00000000000E+00  0.00000000000E+00  0.10885659423E+04  0.10885659423E+04  0.25500000920E-02 0.  1.
        2   -1    0    0  501    0  0.00000000000E+00  0.00000000000E+00 -0.58604676565E+03  0.58604676565E+03  0.25500000920E-02 0. -1.
    10030    2    1    2    0    0  0.00000000000E+00  0.00000000000E+00  0.50251917666E+03  0.16746127080E+04  0.15974361329E+04 0.  0.
        2    1    3    3  502    0 -0.42884232090E+03  0.66181077711E+03  0.11844490111E+03  0.79745121199E+03  0.25500000920E-02 0. -1.
       -2    1    3    3    0  502  0.42884232090E+03 -0.66181077711E+03  0.38407427555E+03  0.87716149598E+03  0.25500000920E-02 0.  1.
</event>
<event>
 5   0  0.1126485E-05  0.1600289E+04  0.7818609E-02  0.8820371E-01
       -1   -1    0    0    0  501  0.00000000000E+00  0.00000000000E+00  0.60305347024E+03  0.60305347026E+03  0.50400001928E-02 0.  1.
        1   -1    0    0  501    0  0.00000000000E+00  0.00000000000E+00 -0.10616488235E+04  0.10616488236E+04  0.50400001928E-02 0. -1.
    10030    2    1    2    0    0  0.00000000000E+00  0.00000000000E+00 -0.45859535331E+03  0.16647022938E+04  0.16002887330E+04 0.  0.
        2    1    3    3  502    0  0.36221649900E+03 -0.28019167194E+03  0.45325524453E+03  0.64432017032E+03  0.25500000920E-02 0.  1.
       -2    1    3    3    0  502 -0.36221649900E+03  0.28019167194E+03 -0.91185059784E+03  0.10203821235E+04  0.25500000920E-02 0. -1.
</event>
<event>
 5   0  0.1126485E-05  0.1597883E+04  0.7818609E-02  0.8821850E-01
       -1   -1    0    0    0  501  0.00000000000E+00  0.00000000000E+00  0.49965982896E+03  0.49965982898E+03  0.50400001928E-02 0. -1.
        1   -1    0    0  501    0  0.00000000000E+00  0.00000000000E+00 -0.12774836868E+04  0.12774836868E+04  0.50400001928E-02 0.  1.
    10030    2    1    2    0    0  0.00000000000E+00  0.00000000000E+00 -0.77782385782E+03  0.17771435158E+04  0.15978826996E+04 0.  0.
        2    1    3    3  502    0  0.51030287165E+03 -0.35725982588E+03  0.16747448511E+03  0.64505139886E+03  0.25500000920E-02 0. -1.
       -2    1    3    3    0  502 -0.51030287165E+03  0.35725982588E+03 -0.94529834293E+03  0.11320921169E+04  0.25500000920E-02 0.  1.
</event>
<event>
 5   0  0.1060251E-05  0.1599047E+04  0.7818609E-02  0.8821134E-01
        1   -1    0    0  501    0  0.00000000000E+00  0.00000000000E+00  0.18970471664E+04  0.18970471664E+04  0.50400001928E-02 0. -1.
       -1   -1    0    0    0  501  0.00000000000E+00  0.00000000000E+00 -0.33696454974E+03  0.33696454978E+03  0.50400001928E-02 0.  1.
    10030    2    1    2    0    0  0.00000000000E+00  0.00000000000E+00  0.15600826167E+04  0.22340117162E+04  0.15990467714E+04 0.  0.
        1    1    3    3  502    0  0.29228646244E+03 -0.34070698239E+03 -0.14428425755E+03  0.47151942800E+03  0.50400001928E-02 0.  1.
       -1    1    3    3    0  502 -0.29228646244E+03  0.34070698239E+03  0.17043668742E+04  0.17624922882E+04  0.50400001928E-02 0. -1.
</event>
<event>
 5   0  0.2147844E-05  0.1601315E+04  0.7818609E-02  0.8819741E-01
        2   -1    0    0  501    0  0.00000000000E+00  0.00000000000E+00  0.11196594827E+04  0.11196594827E+04  0.25500000920E-02 0.  1.
       -2   -1    0    0    0  501  0.00000000000E+00  0.00000000000E+00 -0.57254237099E+03  0.57254237100E+03  0.25500000920E-02 0. -1.
    10030    2    1    2    0    0  0.00000000000E+00  0.00000000000E+00  0.54711711170E+03  0.16922018537E+04  0.16013150782E+04 0.  0.
        2    1    3    3  502    0  0.77155508027E+03 -0.44251439593E+02  0.52402992937E+02  0.77459764102E+03  0.25500000920E-02 0.  1.
       -2    1    3    3    0  502 -0.77155508027E+03  0.44251439593E+02  0.49471411876E+03  0.91760421267E+03  0.25500000920E-02 0. -1.
</event>
<event>
 5   0  0.1990948E-05  0.1600000E+04  0.7818609E-02  0.8820548E-01
        2   -1    0    0  501    0  0.00000000000E+00  0.00000000000E+00  0.75616803782E+03  0.75616803782E+03  0.25500000920E-02 0. -1.
       -2   -1    0    0    0  501  0.00000000000E+00  0.00000000000E+00 -0.84637276441E+03  0.84637276442E+03  0.25500000920E-02 0.  1.
    10030    2    1    2    0    0  0.00000000000E+00  0.00000000000E+00 -0.90204726592E+02  0.16025408022E+04  0.16000000407E+04 0.  0.
        4    1    3    3  502    0  0.19052824858E+03 -0.63142584204E+03 -0.49858929303E+03  0.82679653091E+03  0.12699999809E+01 0.  1.
       -4    1    3    3    0  502 -0.19052824858E+03  0.63142584204E+03  0.40838456644E+03  0.77574427133E+03  0.12699999809E+01 0. -1.
</event>
<event>
 5   0  0.1060251E-05  0.1599992E+04  0.7818609E-02  0.8820553E-01
       -1   -1    0    0    0  501  0.00000000000E+00  0.00000000000E+00  0.18787495793E+04  0.18787495793E+04  0.50400001928E-02 0.  1.
        1   -1    0    0  501    0  0.00000000000E+00  0.00000000000E+00 -0.34064872478E+03  0.34064872482E+03  0.50400001928E-02 0. -1.
    10030    2    1    2    0    0  0.00000000000E+00  0.00000000000E+00  0.15381008545E+04  0.22193983041E+04  0.15999920605E+04 0.  0.
        1    1    3    3  502    0  0.69719723078E+03 -0.34397561826E+03  0.50736223674E+03  0.92834241736E+03  0.50400001928E-02 0.  1.
       -1    1    3    3    0  502 -0.69719723078E+03  0.34397561826E+03  0.10307386178E+04  0.12910558868E+04  0.50400001928E-02 0. -1.
</event>
<event>
 5   0  0.2046108E-05  0.1599677E+04  0.7818609E-02  0.8820746E-01
        2   -1    0    0  501    0  0.00000000000E+00  0.00000000000E+00  0.13868911230E+04  0.13868911230E+04  0.25500000920E-02 0. -1.
       -2   -1    0    0    0  501  0.00000000000E+00  0.00000000000E+00 -0.46127753564E+03  0.46127753565E+03  0.25500000920E-02 0.  1.
    10030    2    1    2    0    0  0.00000000000E+00  0.00000000000E+00  0.92561358732E+03  0.18481686586E+04  0.15996771167E+04 0.  0.
        1    1    3    3  502    0 -0.92516803171E+02 -0.77979029386E+03  0.28717459022E+03  0.83612290159E+03  0.50400001928E-02 0.  1.
       -1    1    3    3    0  502  0.92516803171E+02  0.77979029386E+03  0.63843899710E+03  0.10120457570E+04  0.50400001928E-02 0. -1.
</event>
<event>
 5   0  0.1126485E-05  0.1604803E+04  0.7818609E-02  0.8817603E-01
       -1   -1    0    0    0  501  0.00000000000E+00  0.00000000000E+00  0.89456600842E+03  0.89456600843E+03  0.50400001928E-02 0.  1.
        1   -1    0    0  501    0  0.00000000000E+00  0.00000000000E+00 -0.71973220328E+03  0.71973220330E+03  0.50400001928E-02 0. -1.
    10030    2    1    2    0    0  0.00000000000E+00  0.00000000000E+00  0.17483380513E+03  0.16142982117E+04  0.16048027471E+04 0.  0.
        2    1    3    3  502    0  0.57974798477E+03  0.15899080262E+03  0.62203326532E+03  0.86504981610E+03  0.25500000920E-02 0.  1.
       -2    1    3    3    0  502 -0.57974798477E+03 -0.15899080262E+03 -0.44719946018E+03  0.74924839563E+03  0.25500000920E-02 0. -1.
</event>
<event>
 5   0  0.1060251E-05  0.1600160E+04  0.7818609E-02  0.8820450E-01
        1   -1    0    0  501    0  0.00000000000E+00  0.00000000000E+00  0.87445423228E+03  0.87445423229E+03  0.50400001928E-02 0. -1.
       -1   -1    0    0    0  501  0.00000000000E+00  0.00000000000E+00 -0.73203154924E+03  0.73203154925E+03  0.50400001928E-02 0.  1.
    10030    2    1    2    0    0  0.00000000000E+00  0.00000000000E+00  0.14242268304E+03  0.16064857815E+04  0.16001601000E+04 0.  0.
        1    1    3    3  502    0 -0.79083875762E+03  0.10129461628E+03  0.43029548076E+01  0.79731114082E+03  0.50400001928E-02 0.  1.
       -1    1    3    3    0  502  0.79083875762E+03 -0.10129461628E+03  0.13811972824E+03  0.80917464072E+03  0.50400001928E-02 0. -1.
</event>
<event>
 5   0  0.1081831E-05  0.1600353E+04  0.7818609E-02  0.8820331E-01
       -1   -1    0    0    0  501  0.00000000000E+00  0.00000000000E+00  0.23583038171E+03  0.23583038176E+03  0.50400001928E-02 0. -1.
        1   -1    0    0  501    0  0.00000000000E+00  0.00000000000E+00 -0.27150112586E+04  0.27150112586E+04  0.50400001928E-02 0.  1.
    10030    2    1    2    0    0  0.00000000000E+00  0.00000000000E+00 -0.24791808769E+04  0.29508416404E+04  0.16003526381E+04 0.  0.
        3    1    3    3  502    0  0.35934009014E+03  0.41460231295E+03 -0.16560680252E+03  0.57310208648E+03  0.10100000352E+00 0. -1.
       -3    1    3    3    0  502 -0.35934009014E+03 -0.41460231295E+03 -0.23135740744E+04  0.23777395539E+04  0.10100000352E+00 0.  1.
</event>
<event>
 5   0  0.1060251E-05  0.1600719E+04  0.7818609E-02  0.8820106E-01
        1   -1    0    0  501    0  0.00000000000E+00  0.00000000000E+00  0.53333721440E+03  0.53333721442E+03  0.50400001928E-02 0. -1.
       -1   -1    0    0    0  501  0.00000000000E+00  0.00000000000E+00 -0.12010698205E+04  0.12010698205E+04  0.50400001928E-02 0.  1.
    10030    2    1    2    0    0  0.00000000000E+00  0.00000000000E+00 -0.66773260606E+03  0.17344070349E+04  0.16007188790E+04 0.  0.
        1    1    3    3  502    0  0.48601909823E+03 -0.53430270385E+03  0.39721520188E+02  0.72337524313E+03  0.50400001928E-02 0. -1.
       -1    1    3    3    0  502 -0.48601909823E+03  0.53430270385E+03 -0.70745412625E+03  0.10110317918E+04  0.50400001928E-02 0.  1.
</event>
<event>
 5   0  0.1060251E-05  0.1595804E+04  0.7818609E-02  0.8823130E-01
        1   -1    0    0  501    0  0.00000000000E+00  0.00000000000E+00  0.20584722154E+04  0.20584722154E+04  0.50400001928E-02 0. -1.
       -1   -1    0    0    0  501  0.00000000000E+00  0.00000000000E+00 -0.30928170744E+03  0.30928170748E+03  0.50400001928E-02 0.  1.
    10030    2    1    2    0    0  0.00000000000E+00  0.00000000000E+00  0.17491905079E+04  0.23677539229E+04  0.15958042506E+04 0.  0.
        1    1    3    3  502    0  0.12669197937E+03 -0.17816848107E+03  0.20131669143E+04  0.20250026889E+04  0.50400001928E-02 0. -1.
       -1    1    3    3    0  502 -0.12669197937E+03  0.17816848107E+03 -0.26397640632E+03  0.34275123399E+03  0.50400001928E-02 0.  1.
</event>
<event>
 5   0  0.1126485E-05  0.1599120E+04  0.7818609E-02  0.8821089E-01
       -1   -1    0    0    0  501  0.00000000000E+00  0.00000000000E+00  0.56497985617E+03  0.56497985619E+03  0.50400001928E-02 0.  1.
        1   -1    0    0  501    0  0.00000000000E+00  0.00000000000E+00 -0.11315380601E+04  0.11315380601E+04  0.50400001928E-02 0. -1.
    10030    2    1    2    0    0  0.00000000000E+00  0.00000000000E+00 -0.56655820392E+03  0.16965179163E+04  0.15991200211E+04 0.  0.
        2    1    3    3  502    0  0.18598744956E+03 -0.60987143837E+03  0.22855964219E+03  0.67732858553E+03  0.25500000920E-02 0.  1.
       -2    1    3    3    0  502 -0.18598744956E+03  0.60987143837E+03 -0.79511784611E+03  0.10191893308E+04  0.25500000920E-02 0. -1.
</event>
<event>
 5   0  0.1060251E-05  0.1599918E+04  0.7818609E-02  0.8820598E-01
       -1   -1    0    0    0  501  0.00000000000E+00  0.00000000000E+00  0.73763801078E+03  0.73763801080E+03  0.50400001928E-02 0.  1.
        1   -1    0    0  501    0  0.00000000000E+00  0.00000000000E+00 -0.86754533638E+03  0.86754533639E+03  0.50400001928E-02 0. -1.
    10030    2    1    2    0    0  0.00000000000E+00  0.00000000000E+00 -0.12990732560E+03  0.16051833472E+04  0.15999180182E+04 0.  0.
        1    1    3    3  502    0 -0.54173864720E+03 -0.29310676837E+03  0.44715939705E+03  0.76114641557E+03  0.50400001928E-02 0.  1.
       -1    1    3    3    0  502  0.54173864720E+03  0.29310676837E+03 -0.57706672265E+03  0.84403693163E+03  0.50400001928E-02 0. -1.
</event>
<event>
 5   0  0.2147844E-05  0.1599430E+04  0.7818609E-02  0.8820898E-01
        2   -1    0    0  501    0  0.00000000000E+00  0.00000000000E+00  0.63460524077E+03  0.63460524077E+03  0.25500000920E-02 0. -1.
       -2   -1    0    0    0  501  0.00000000000E+00  0.00000000000E+00 -0.10077828326E+04  0.10077828326E+04  0.25500000920E-02 0.  1.
    10030    2    1    2    0    0  0.00000000000E+00  0.00000000000E+00 -0.37317759187E+03  0.16423880734E+04  0.15994302325E+04 0.  0.
        2    1    3    3  502    0 -0.42336097341E+03  0.65223452528E+02 -0.88004558489E+03  0.97875882834E+03  0.25500000920E-02 0.  1.
       -2    1    3    3    0  502  0.42336097341E+03 -0.65223452528E+02  0.50686799302E+03  0.66362924507E+03  0.25500000920E-02 0. -1.
</event>
<event>
 5   0  0.1126485E-05  0.1599943E+04  0.7818609E-02  0.8820583E-01
       -1   -1    0    0    0  501  0.00000000000E+00  0.00000000000E+00  0.10884083630E+04  0.10884083630E+04  0.50400001928E-02 0.  1.
        1   -1    0    0  501    0  0.00000000000E+00  0.00000000000E+00 -0.58797261400E+03  0.58797261403E+03  0.50400001928E-02 0. -1.
    10030    2    1    2    0    0  0.00000000000E+00  0.00000000000E+00  0.50043574897E+03  0.16763809770E+04  0.15999428869E+04 0.  0.
        2    1    3    3  502    0 -0.47694525920E+03 -0.22441421502E+03  0.88072786932E+03  0.10264112723E+04  0.25500000920E-02 0.  1.
       -2    1    3    3    0  502  0.47694525920E+03  0.22441421502E+03 -0.38029212035E+03  0.64996970467E+03  0.25500000920E-02 0. -1.
</event>
<event>
 5   0  0.1057506E-05  0.1600581E+04  0.7818609E-02  0.8820191E-01
        1   -1    0    0  501    0  0.00000000000E+00  0.00000000000E+00  0.68104182865E+03  0.68104182867E+03  0.50400001928E-02 0.  1.
       -1   -1    0    0    0  501  0.00000000000E+00  0.00000000000E+00 -0.94041919476E+03  0.94041919477E+03  0.50400001928E-02 0. -1.
    10030    2    1    2    0    0  0.00000000000E+00  0.00000000000E+00 -0.25937736610E+03  0.16214610234E+04  0.16005809047E+04 0.  0.
        5    1    3    3  502    0  0.47100767782E+03  0.54122715516E+03 -0.48880954330E+03  0.86817735842E+03  0.46999998093E+01 0. -1.
       -5    1    3    3    0  502 -0.47100767782E+03 -0.54122715516E+03  0.22943217720E+03  0.75328366502E+03  0.46999998093E+01 0.  1.
</event>
<event>
 5   0  0.2046108E-05  0.1598878E+04  0.7818609E-02  0.8821238E-01
       -2   -1    0    0    0  501  0.00000000000E+00  0.00000000000E+00  0.24846530157E+03  0.24846530159E+03  0.25500000920E-02 0.  1.
        2   -1    0    0  501    0  0.00000000000E+00  0.00000000000E+00 -0.25722013929E+04  0.25722013929E+04  0.25500000920E-02 0. -1.
    10030    2    1    2    0    0  0.00000000000E+00  0.00000000000E+00 -0.23237360913E+04  0.28206666945E+04  0.15988781002E+04 0.  0.
        1    1    3    3  502    0 -0.37144266894E+03  0.63475937527E+03 -0.60899884700E+03  0.95486581071E+03  0.50400001928E-02 0.  1.
       -1    1    3    3    0  502  0.37144266894E+03 -0.63475937527E+03 -0.17147372443E+04  0.18658008838E+04  0.50400001928E-02 0. -1.
</event>
<event>
 5   0  0.2046108E-05  0.1600151E+04  0.7818609E-02  0.8820455E-01
        2   -1    0    0  501    0  0.00000000000E+00  0.00000000000E+00  0.10867863578E+04  0.10867863578E+04  0.25500000920E-02 0. -1.
       -2   -1    0    0    0  501  0.00000000000E+00  0.00000000000E+00 -0.58900362766E+03  0.58900362767E+03  0.25500000920E-02 0.  1.
    10030    2    1    2    0    0  0.00000000000E+00  0.00000000000E+00  0.49778273014E+03  0.16757899855E+04  0.16001513769E+04 0.  0.
        1    1    3    3  502    0 -0.65229033481E+03 -0.51251232440E+02 -0.23332114577E+03  0.69465684104E+03  0.50400001928E-02 0.  1.
       -1    1    3    3    0  502  0.65229033481E+03  0.51251232440E+02  0.73110387591E+03  0.98113314444E+03  0.50400001928E-02 0. -1.
</event>
<event>
 5   0  0.2147844E-05  0.1600300E+04  0.7818609E-02  0.8820364E-01
        2   -1    0    0  501    0  0.00000000000E+00  0.00000000000E+00  0.13555088256E+04  0.13555088256E+04  0.25500000920E-02 0.  1.
       -2   -1    0    0    0  501  0.00000000000E+00  0.00000000000E+00 -0.47232462005E+03  0.47232462005E+03  0.25500000920E-02 0. -1.
    10030    2    1    2    0    0  0.00000000000E+00  0.00000000000E+00  0.88318420552E+03  0.18278334456E+04  0.16003002106E+04 0.  0.
        2    1    3    3  502    0  0.43391116313E+03  0.60071522202E+03  0.78633898072E+03  0.10804937150E+04  0.25500000920E-02 0.  1.
       -2    1    3    3    0  502 -0.43391116313E+03 -0.60071522202E+03  0.96845224798E+02  0.74733973066E+03  0.25500000920E-02 0. -1.
</event>
<event>
 5   0  0.1994525E-05  0.1597661E+04  0.7818609E-02  0.8821986E-01
        2   -1    0    0  501    0  0.00000000000E+00  0.00000000000E+00  0.16105577524E+04  0.16105577524E+04  0.25500000920E-02 0. -1.
       -2   -1    0    0    0  501  0.00000000000E+00  0.00000000000E+00 -0.39621695063E+03  0.39621695064E+03  0.25500000920E-02 0.  1.
    10030    2    1    2    0    0  0.00000000000E+00  0.00000000000E+00  0.12143408018E+04  0.20067747030E+04  0.15976611424E+04 0.  0.
        5    1    3    3  502    0  0.30902906863E+03 -0.38600889941E+03 -0.18086367315E+03  0.52653166471E+03  0.46999998093E+01 0.  1.
       -5    1    3    3    0  502 -0.30902906863E+03  0.38600889941E+03  0.13952044749E+04  0.14802430383E+04  0.46999998093E+01 0. -1.
</event>
<event>
 5   0  0.1090674E-05  0.1599986E+04  0.7818609E-02  0.8820557E-01
        1   -1    0    0  501    0  0.00000000000E+00  0.00000000000E+00  0.14669522057E+04  0.14669522057E+04  0.50400001928E-02 0. -1.
       -1   -1    0    0    0  501  0.00000000000E+00  0.00000000000E+00 -0.43627105586E+03  0.43627105589E+03  0.50400001928E-02 0.  1.
    10030    2    1    2    0    0  0.00000000000E+00  0.00000000000E+00  0.10306811498E+04  0.19032232616E+04  0.15999859846E+04 0.  0.
        4    1    3    3  502    0  0.40358815676E+03 -0.66693627771E+03  0.72912364713E+03  0.10673847968E+04  0.12699999809E+01 0. -1.
       -4    1    3    3    0  502 -0.40358815676E+03  0.66693627771E+03  0.30155750267E+03  0.83583846473E+03  0.12699999809E+01 0.  1.
</event>
<event>
 5   0  0.2046108E-05  0.1597252E+04  0.7818609E-02  0.8822238E-01
        2   -1    0    0  501    0  0.00000000000E+00  0.00000000000E+00  0.46739936276E+03  0.46739936277E+03  0.25500000920E-02 0.  1.
       -2   -1    0    0    0  501  0.00000000000E+00  0.00000000000E+00 -0.13645791970E+04  0.13645791970E+04  0.25500000920E-02 0. -1.
    10030    2    1    2    0    0  0.00000000000E+00  0.00000000000E+00 -0.89717983420E+03  0.18319785597E+04  0.15972519489E+04 0.  0.
        1    1    3    3  502    0 -0.24813218512E+03  0.29954231908E+03  0.35141392216E+03  0.52420122751E+03  0.50400001928E-02 0.  1.
       -1    1    3    3    0  502  0.24813218512E+03 -0.29954231908E+03 -0.12485937564E+04  0.13077773322E+04  0.50400001928E-02 0. -1.
</event>
<event>
 5   0  0.1060251E-05  0.1600161E+04  0.7818609E-02  0.8820449E-01
        1   -1    0    0  501    0  0.00000000000E+00  0.00000000000E+00  0.73424323605E+03  0.73424323607E+03  0.50400001928E-02 0.  1.
       -1   -1    0    0    0  501  0.00000000000E+00  0.00000000000E+00 -0.87182068956E+03  0.87182068958E+03  0.50400001928E-02 0. -1.
    10030    2    1    2    0    0  0.00000000000E+00  0.00000000000E+00 -0.13757745351E+03  0.16060639256E+04  0.16001605474E+04 0.  0.
        1    1    3    3  502    0  0.32571198553E+03 -0.59254332477E+02 -0.79985014080E+03  0.86565560195E+03  0.50400001928E-02 0. -1.
       -1    1    3    3    0  502 -0.32571198553E+03  0.59254332477E+02  0.66227268729E+03  0.74040832369E+03  0.50400001928E-02 0.  1.
</event>
<event>
 5   0  0.1126485E-05  0.1599340E+04  0.7818609E-02  0.8820954E-01
       -1   -1    0    0    0  501  0.00000000000E+00  0.00000000000E+00  0.58009505286E+03  0.58009505289E+03  0.50400001928E-02 0.  1.
        1   -1    0    0  501    0  0.00000000000E+00  0.00000000000E+00 -0.11023571374E+04  0.11023571374E+04  0.50400001928E-02 0. -1.
    10030    2    1    2    0    0  0.00000000000E+00  0.00000000000E+00 -0.52226208455E+03  0.16824521903E+04  0.15993397662E+04 0.  0.
        2    1    3    3  502    0 -0.35882308855E-01  0.79180542913E+03 -0.37882013480E+03  0.87775881278E+03  0.25500000920E-02 0. -1.
       -2    1    3    3    0  502  0.35882308855E-01 -0.79180542913E+03 -0.14344194975E+03  0.80469337753E+03  0.25500000920E-02 0.  1.
</event>
<event>
 5   0  0.1060251E-05  0.1601346E+04  0.7818609E-02  0.8819721E-01
        1   -1    0    0  501    0  0.00000000000E+00  0.00000000000E+00  0.20771258967E+04  0.20771258967E+04  0.50400001928E-02 0. -1.
       -1   -1    0    0    0  501  0.00000000000E+00  0.00000000000E+00 -0.30863686509E+03  0.30863686513E+03  0.50400001928E-02 0.  1.
    10030    2    1    2    0    0  0.00000000000E+00  0.00000000000E+00  0.17684890316E+04  0.23857627618E+04  0.16013464650E+04 0.  0.
        1    1    3    3  502    0 -0.41221557784E+03 -0.48410244533E+03  0.15925203766E+03  0.65546782660E+03  0.50400001928E-02 0.  1.
       -1    1    3    3    0  502  0.41221557784E+03  0.48410244533E+03  0.16092369939E+04  0.17302949352E+04  0.50400001928E-02 0. -1.
</event>
<event>
 5   0  0.1057506E-05  0.1599789E+04  0.7818609E-02  0.8820677E-01
       -1   -1    0    0    0  501  0.00000000000E+00  0.00000000000E+00  0.98465813160E+03  0.98465813161E+03  0.50400001928E-02 0.  1.
        1   -1    0    0  501    0  0.00000000000E+00  0.00000000000E+00 -0.64980073183E+03  0.64980073185E+03  0.50400001928E-02 0. -1.
    10030    2    1    2    0    0  0.00000000000E+00  0.00000000000E+00  0.33485739977E+03  0.16344588635E+04  0.15997894543E+04 0.  0.
        5    1    3    3  502    0 -0.27029399429E+03 -0.49554594839E+03  0.74644220534E+03  0.93585398767E+03  0.46999998093E+01 0.  1.
       -5    1    3    3    0  502  0.27029399429E+03  0.49554594839E+03 -0.41158480557E+03  0.69860487580E+03  0.46999998093E+01 0. -1.
</event>
<event>
 5   0  0.1126485E-05  0.1604859E+04  0.7818609E-02  0.8817568E-01
       -1   -1    0    0    0  501  0.00000000000E+00  0.00000000000E+00  0.10560679396E+04  0.10560679396E+04  0.50400001928E-02 0.  1.
        1   -1    0    0  501    0  0.00000000000E+00  0.00000000000E+00 -0.60970807743E+03  0.60970807745E+03  0.50400001928E-02 0. -1.
    10030    2    1    2    0    0  0.00000000000E+00  0.00000000000E+00  0.44635986214E+03  0.16657760170E+04  0.16048590631E+04 0.  0.
        2    1    3    3  502    0 -0.72473295288E+03  0.30539663743E+03  0.57795124567E+02  0.78857164264E+03  0.25500000920E-02 0. -1.
       -2    1    3    3    0  502  0.72473295288E+03 -0.30539663743E+03  0.38856473757E+03  0.87720437438E+03  0.25500000920E-02 0.  1.
</event>
<event>
 5   0  0.2046108E-05  0.1593297E+04  0.7818609E-02  0.8824677E-01
       -2   -1    0    0    0  501  0.00000000000E+00  0.00000000000E+00  0.45200932248E+03  0.45200932249E+03  0.25500000920E-02 0. -1.
        2   -1    0    0  501    0  0.00000000000E+00  0.00000000000E+00 -0.14040611157E+04  0.14040611157E+04  0.25500000920E-02 0.  1.
    10030    2    1    2    0    0  0.00000000000E+00  0.00000000000E+00 -0.95205179325E+03  0.18560704382E+04  0.15932968507E+04 0.  0.
        1    1    3    3  502    0  0.38775160865E+03  0.64872107885E+03 -0.18257043498E+03  0.77751032914E+03  0.50400001928E-02 0.  1.
       -1    1    3    3    0  502 -0.38775160865E+03 -0.64872107885E+03 -0.76948135827E+03  0.10785601091E+04  0.50400001928E-02 0. -1.
</event>
<event>
 5   0  0.2125803E-05  0.1600419E+04  0.7818609E-02  0.8820290E-01
       -2   -1    0    0    0  501  0.00000000000E+00  0.00000000000E+00  0.27998024859E+03  0.27998024861E+03  0.25500000920E-02 0.  1.
        2   -1    0    0  501    0  0.00000000000E+00  0.00000000000E+00 -0.22870741832E+04  0.22870741832E+04  0.25500000920E-02 0. -1.
    10030    2    1    2    0    0  0.00000000000E+00  0.00000000000E+00 -0.20070939346E+04  0.25670544318E+04  0.16004194430E+04 0.  0.
        3    1    3    3  502    0  0.59550030901E+02 -0.77510098766E+03 -0.69917840043E+03  0.10455516214E+04  0.10100000352E+00 0. -1.
       -3    1    3    3    0  502 -0.59550030901E+02  0.77510098766E+03 -0.13079155342E+04  0.15215028104E+04  0.10100000352E+00 0.  1.
</event>
<event>
 5   0  0.1060251E-05  0.1599754E+04  0.7818609E-02  0.8820699E-01
       -1   -1    0    0    0  501  0.00000000000E+00  0.00000000000E+00  0.94367857835E+03  0.94367857837E+03  0.50400001928E-02 0. -1.
        1   -1    0    0  501    0  0.00000000000E+00  0.00000000000E+00 -0.67798880024E+03  0.67798880025E+03  0.50400001928E-02 0.  1.
    10030    2    1    2    0    0  0.00000000000E+00  0.00000000000E+00  0.26568977812E+03  0.16216673786E+04  0.15997543651E+04 0.  0.
        1    1    3    3  502    0  0.64199946382E+03 -0.20414241238E+03 -0.30429992897E+03  0.73921301590E+03  0.50400001928E-02 0.  1.
       -1    1    3    3    0  502 -0.64199946382E+03  0.20414241238E+03  0.56998970708E+03  0.88245436272E+03  0.50400001928E-02 0. -1.
</event>
<event>
 5   0  0.1126485E-05  0.1599416E+04  0.7818609E-02  0.8820907E-01
        1   -1    0    0  501    0  0.00000000000E+00  0.00000000000E+00  0.54532717443E+03  0.54532717445E+03  0.50400001928E-02 0.  1.
       -1   -1    0    0    0  501  0.00000000000E+00  0.00000000000E+00 -0.11727511371E+04  0.11727511371E+04  0.50400001928E-02 0. -1.
    10030    2    1    2    0    0  0.00000000000E+00  0.00000000000E+00 -0.62742396263E+03  0.17180783115E+04  0.15994162234E+04 0.  0.
        2    1    3    3  502    0  0.67725324367E+03 -0.25750009414E+03  0.49858087203E+02  0.72626722590E+03  0.25500000920E-02 0. -1.
       -2    1    3    3    0  502 -0.67725324367E+03  0.25750009414E+03 -0.67728204983E+03  0.99181108563E+03  0.25500000920E-02 0.  1.
</event>
<event>
 5   0  0.1060251E-05  0.1601063E+04  0.7818609E-02  0.8819895E-01
        1   -1    0    0  501    0  0.00000000000E+00  0.00000000000E+00  0.51146931182E+03  0.51146931185E+03  0.50400001928E-02 0. -1.
       -1   -1    0    0    0  501  0.00000000000E+00  0.00000000000E+00 -0.12529604595E+04  0.12529604595E+04  0.50400001928E-02 0.  1.
    10030    2    1    2    0    0  0.00000000000E+00  0.00000000000E+00 -0.74149114768E+03  0.17644297714E+04  0.16010631768E+04 0.  0.
        1    1    3    3  502    0 -0.39965441255E+03 -0.23497461166E+03 -0.10899575656E+04  0.11844594600E+04  0.50400001928E-02 0.  1.
       -1    1    3    3    0  502  0.39965441255E+03  0.23497461166E+03  0.34846641792E+03  0.57997031134E+03  0.50400001928E-02 0. -1.
</event>
<event>
 5   0  0.1126485E-05  0.1600486E+04  0.7818609E-02  0.8820249E-01
       -1   -1    0    0    0  501  0.00000000000E+00  0.00000000000E+00  0.41771802553E+03  0.41771802556E+03  0.50400001928E-02 0. -1.
        1   -1    0    0  501    0  0.00000000000E+00  0.00000000000E+00 -0.15330653546E+04  0.15330653546E+04  0.50400001928E-02 0.  1.
    10030    2    1    2    0    0  0.00000000000E+00  0.00000000000E+00 -0.11153473290E+04  0.19507833801E+04  0.16004862173E+04 0.  0.
        2    1    3    3  502    0  0.56711767026E+03  0.14540591553E+03  0.10727920523E+03  0.59520934139E+03  0.25500000920E-02 0. -1.
       -2    1    3    3    0  502 -0.56711767026E+03 -0.14540591553E+03 -0.12226265343E+04  0.13555740387E+04  0.25500000920E-02 0.  1.
</event>
<event>
 5   0  0.1081831E-05  0.1600047E+04  0.7818609E-02  0.8820519E-01
       -1   -1    0    0    0  501  0.00000000000E+00  0.00000000000E+00  0.45024962242E+03  0.45024962245E+03  0.50400001928E-02 0.  1.
        1   -1    0    0  501    0  0.00000000000E+00  0.00000000000E+00 -0.14215171825E+04  0.14215171825E+04  0.50400001928E-02 0. -1.
    10030    2    1    2    0    0  0.00000000000E+00  0.00000000000E+00 -0.97126756004E+03  0.18717668049E+04  0.16000469677E+04 0.  0.
        3    1    3    3  502    0  0.49076116488E+03  0.48883198268E+03 -0.17363276081E+02  0.69289589536E+03  0.10100000352E+00 0.  1.
       -3    1    3    3    0  502 -0.49076116488E+03 -0.48883198268E+03 -0.95390428396E+03  0.11788709096E+04  0.10100000352E+00 0. -1.
</event>
<event>
 5   0  0.2046108E-05  0.1599679E+04  0.7818609E-02  0.8820745E-01
       -2   -1    0    0    0  501  0.00000000000E+00  0.00000000000E+00  0.96988567029E+03  0.96988567029E+03  0.25500000920E-02 0. -1.
        2   -1    0    0  501    0  0.00000000000E+00  0.00000000000E+00 -0.65960669480E+03  0.65960669481E+03  0.25500000920E-02 0.  1.
    10030    2    1    2    0    0  0.00000000000E+00  0.00000000000E+00  0.31027897548E+03  0.16294923651E+04  0.15996788194E+04 0.  0.
        1    1    3    3  502    0  0.44945018752E+03 -0.47771731076E+03 -0.31112914153E+03  0.72596187420E+03  0.50400001928E-02 0. -1.
       -1    1    3    3    0  502 -0.44945018752E+03  0.47771731076E+03  0.62140811701E+03  0.90353049090E+03  0.50400001928E-02 0.  1.
</event>
<event>
 5   0  0.1057506E-05  0.1605321E+04  0.7818609E-02  0.8817286E-01
       -1   -1    0    0    0  501  0.00000000000E+00  0.00000000000E+00  0.37804890665E+03  0.37804890669E+03  0.50400001928E-02 0. -1.
        1   -1    0    0  501    0  0.00000000000E+00  0.00000000000E+00 -0.17041818457E+04  0.17041818457E+04  0.50400001928E-02 0.  1.
    10030    2    1    2    0    0  0.00000000000E+00  0.00000000000E+00 -0.13261329391E+04  0.20822307524E+04  0.16053212558E+04 0.  0.
        5    1    3    3  502    0  0.37081324049E+03  0.69614396258E+03 -0.47014077867E+03  0.91824469382E+03  0.46999998093E+01 0. -1.
       -5    1    3    3    0  502 -0.37081324049E+03 -0.69614396258E+03 -0.85599216041E+03  0.11639860586E+04  0.46999998093E+01 0.  1.
</event>
<event>
 5   0  0.2147844E-05  0.1599873E+04  0.7818609E-02  0.8820626E-01
        2   -1    0    0  501    0  0.00000000000E+00  0.00000000000E+00  0.18677985188E+04  0.18677985188E+04  0.25500000920E-02 0. -1.
       -2   -1    0    0    0  501  0.00000000000E+00  0.00000000000E+00 -0.34259485848E+03  0.34259485849E+03  0.25500000920E-02 0.  1.
    10030    2    1    2    0    0  0.00000000000E+00  0.00000000000E+00  0.15252036603E+04  0.22103933772E+04  0.15998727065E+04 0.  0.
        2    1    3    3  502    0  0.10945246751E+03  0.72813912066E+03  0.11945204964E+04  0.14032268662E+04  0.25500000920E-02 0. -1.
       -2    1    3    3    0  502 -0.10945246751E+03 -0.72813912066E+03  0.33068316383E+03  0.80716651103E+03  0.25500000920E-02 0.  1.
</event>
<event>
 5   0  0.1090674E-05  0.1601064E+04  0.7818609E-02  0.8819895E-01
       -1   -1    0    0    0  501  0.00000000000E+00  0.00000000000E+00  0.30949196194E+03  0.30949196198E+03  0.50400001928E-02 0. -1.
        1   -1    0    0  501    0  0.00000000000E+00  0.00000000000E+00 -0.20706557605E+04  0.20706557605E+04  0.50400001928E-02 0.  1.
    10030    2    1    2    0    0  0.00000000000E+00  0.00000000000E+00 -0.17611637986E+04  0.23801477225E+04  0.16010637887E+04 0.  0.
        4    1    3    3  502    0 -0.87725959012E+02  0.77447487998E+03 -0.11520347895E+04  0.13909324041E+04  0.12699999809E+01 0.  1.
       -4    1    3    3    0  502  0.87725959012E+02 -0.77447487998E+03 -0.60912900910E+03  0.98921531844E+03  0.12699999809E+01 0. -1.
</event>
<event>
 5   0  0.2125803E-05  0.1599994E+04  0.7818609E-02  0.8820551E-01
        2   -1    0    0  501    0  0.00000000000E+00  0.00000000000E+00  0.47508805328E+03  0.47508805329E+03  0.25500000920E-02 0.  1.
       -2   -1    0    0    0  501  0.00000000000E+00  0.00000000000E+00 -0.13471093848E+04  0.13471093848E+04  0.25500000920E-02 0. -1.
    10030    2    1    2    0    0  0.00000000000E+00  0.00000000000E+00 -0.87202133155E+03  0.18221974381E+04  0.15999944690E+04 0.  0.
        3    1    3    3  502    0 -0.35119986441E+03 -0.65015177035E+03 -0.78510377812E+03  0.10781589038E+04  0.10100000352E+00 0. -1.
       -3    1    3    3    0  502  0.35119986441E+03  0.65015177035E+03 -0.86917553426E+02  0.74403853431E+03  0.10100000352E+00 0.  1.
</event>
<event>
 5   0  0.1060251E-05  0.1599650E+04  0.7818609E-02  0.8820763E-01
        1   -1    0    0  501    0  0.00000000000E+00  0.00000000000E+00  0.13586691720E+04  0.13586691721E+04  0.50400001928E-02 0.  1.
       -1   -1    0    0    0  501  0.00000000000E+00  0.00000000000E+00 -0.47084335209E+03  0.47084335212E+03  0.50400001928E-02 0. -1.
    10030    2    1    2    0    0  0.00000000000E+00  0.00000000000E+00  0.88782581996E+03  0.18295125242E+04  0.15996503960E+04 0.  0.
        1    1    3    3  502    0  0.22394283777E+03 -0.38167517090E+03 -0.31807828778E+03  0.54497718104E+03  0.50400001928E-02 0. -1.
       -1    1    3    3    0  502 -0.22394283777E+03  0.38167517090E+03  0.12059041077E+04  0.12845353431E+04  0.50400001928E-02 0.  1.
</event>
<event>
 5   0  0.2125803E-05  0.1600589E+04  0.7818609E-02  0.8820186E-01
        2   -1    0    0  501    0  0.00000000000E+00  0.00000000000E+00  0.93504922143E+03  0.93504922144E+03  0.25500000920E-02 0.  1.
       -2   -1    0    0    0  501  0.00000000000E+00  0.00000000000E+00 -0.68495966309E+03  0.68495966310E+03  0.25500000920E-02 0. -1.
    10030    2    1    2    0    0  0.00000000000E+00  0.00000000000E+00  0.25008955834E+03  0.16200088845E+04  0.16005886413E+04 0.  0.
        3    1    3    3  502    0 -0.19236123851E+03  0.61249744254E+03  0.60866551475E+03  0.88466359835E+03  0.10100000352E+00 0.  1.
       -3    1    3    3    0  502  0.19236123851E+03 -0.61249744254E+03 -0.35857595641E+03  0.73534528618E+03  0.10100000352E+00 0. -1.
</event>
<event>
 5   0  0.1081831E-05  0.1599576E+04  0.7818609E-02  0.8820809E-01
        1   -1    0    0  501    0  0.00000000000E+00  0.00000000000E+00  0.14020308612E+04  0.14020308612E+04  0.50400001928E-02 0. -1.
       -1   -1    0    0    0  501  0.00000000000E+00  0.00000000000E+00 -0.45623868119E+03  0.45623868122E+03  0.50400001928E-02 0.  1.
    10030    2    1    2    0    0  0.00000000000E+00  0.00000000000E+00  0.94579217997E+03  0.18582695424E+04  0.15995758327E+04 0.  0.
        3    1    3    3  502    0  0.68331882900E+03 -0.55532615442E+02 -0.56057722031E+01  0.68559458015E+03  0.10100000352E+00 0.  1.
       -3    1    3    3    0  502 -0.68331882900E+03  0.55532615442E+02  0.95139795217E+03  0.11726749622E+04  0.10100000352E+00 0. -1.
</event>
<event>
 5   0  0.1057506E-05  0.1601049E+04  0.7818609E-02  0.8819904E-01
        1   -1    0    0  501    0  0.00000000000E+00  0.00000000000E+00  0.13492035335E+04  0.13492035335E+04  0.50400001928E-02 0.  1.
       -1   -1    0    0    0  501  0.00000000000E+00  0.00000000000E+00 -0.47497612133E+03  0.47497612135E+03  0.50400001928E-02 0. -1.
    10030    2    1    2    0    0  0.00000000000E+00  0.00000000000E+00  0.87422741219E+03  0.18241796549E+04  0.16010489827E+04 0.  0.
        5    1    3    3  502    0 -0.78197171819E+03 -0.16200199720E+03  0.37374864346E+03  0.88172249241E+03  0.46999998093E+01 0. -1.
       -5    1    3    3    0  502  0.78197171819E+03  0.16200199720E+03  0.50047876873E+03  0.94245716247E+03  0.46999998093E+01 0.  1.
</event>
<event>
 5   0  0.1081831E-05  0.1599744E+04  0.7818609E-02  0.8820705E-01
        1   -1    0    0  501    0  0.00000000000E+00  0.00000000000E+00  0.10801255226E+04  0.10801255226E+04  0.50400001928E-02 0. -1.
       -1   -1    0    0    0  501  0.00000000000E+00  0.00000000000E+00 -0.59233440410E+03  0.59233440412E+03  0.50400001928E-02 0.  1.
    10030    2    1    2    0    0  0.00000000000E+00  0.00000000000E+00  0.48779111854E+03  0.16724599268E+04  0.15997443644E+04 0.  0.
        3    1    3    3  502    0  0.41009623827E+02 -0.43284261538E+03  0.94580048195E+03  0.10409481643E+04  0.10100000352E+00 0. -1.
       -3    1    3    3    0  502 -0.41009623827E+02  0.43284261538E+03 -0.45800936342E+03  0.63151176245E+03  0.10100000352E+00 0.  1.
</event>
<event>
 5   0  0.1994525E-05  0.1599598E+04  0.7818609E-02  0.8820795E-01
       -2   -1    0    0    0  501  0.00000000000E+00  0.00000000000E+00  0.60381573020E+03  0.60381573021E+03  0.25500000920E-02 0. -1.
        2   -1    0    0  501    0  0.00000000000E+00  0.00000000000E+00 -0.10593929226E+04  0.10593929226E+04  0.25500000920E-02 0.  1.
    10030    2    1    2    0    0  0.00000000000E+00  0.00000000000E+00 -0.45557719237E+03  0.16632086528E+04  0.15995975883E+04 0.  0.
        5    1    3    3  502    0  0.17982950169E+03 -0.65746496451E+03 -0.66282537429E+03  0.95076726702E+03  0.46999998093E+01 0.  1.
       -5    1    3    3    0  502 -0.17982950169E+03  0.65746496451E+03  0.20724818192E+03  0.71244138576E+03  0.46999998093E+01 0. -1.
</event>
<event>
 5   0  0.2046108E-05  0.1600533E+04  0.7818609E-02  0.8820220E-01
        2   -1    0    0  501    0  0.00000000000E+00  0.00000000000E+00  0.14524355807E+04  0.14524355807E+04  0.25500000920E-02 0.  1.
       -2   -1    0    0    0  501  0.00000000000E+00  0.00000000000E+00 -0.44093291201E+03  0.44093291202E+03  0.25500000920E-02 0. -1.
    10030    2    1    2    0    0  0.00000000000E+00  0.00000000000E+00  0.10115026687E+04  0.18933684927E+04  0.16005332238E+04 0.  0.
        1    1    3    3  502    0  0.41129166792E+03  0.46564873721E+03 -0.90954992867E+02  0.62790317193E+03  0.50400001928E-02 0. -1.
       -1    1    3    3    0  502 -0.41129166792E+03 -0.46564873721E+03  0.11024576615E+04  0.12654653208E+04  0.50400001928E-02 0.  1.
</event>
<event>
 5   0  0.2046108E-05  0.1598366E+04  0.7818609E-02  0.8821553E-01
        2   -1    0    0  501    0  0.00000000000E+00  0.00000000000E+00  0.21705708712E+04  0.21705708712E+04  0.25500000920E-02 0. -1.
       -2   -1    0    0    0  501  0.00000000000E+00  0.00000000000E+00 -0.29425126437E+03  0.29425126438E+03  0.25500000920E-02 0.  1.
    10030    2    1    2    0    0  0.00000000000E+00  0.00000000000E+00  0.18763196069E+04  0.24648221356E+04  0.15983656944E+04 0.  0.
        1    1    3    3  502    0 -0.18709318107E+03 -0.77549091861E+03  0.10121672233E+04  0.12887484282E+04  0.50400001928E-02 0. -1.
       -1    1    3    3    0  502  0.18709318107E+03  0.77549091861E+03  0.86415238362E+03  0.11760737075E+04  0.50400001928E-02 0.  1.
</event>
<event>
 5   0  0.1126485E-05  0.1599793E+04  0.7818609E-02  0.8820675E-01
        1   -1    0    0  501    0  0.00000000000E+00  0.00000000000E+00  0.13615970519E+04  0.13615970519E+04  0.50400001928E-02 0. -1.
       -1   -1    0    0    0  501  0.00000000000E+00  0.00000000000E+00 -0.46991492036E+03  0.46991492038E+03  0.50400001928E-02 0.  1.
    10030    2    1    2    0    0  0.00000000000E+00  0.00000000000E+00  0.89168213153E+03  0.18315119723E+04  0.15997934495E+04 0.  0.
        2    1    3    3  502    0  0.69976614610E+03 -0.19067075794E+03  0.59625385202E+02  0.72772466203E+03  0.25500000920E-02 0. -1.
       -2    1    3    3    0  502 -0.69976614610E+03  0.19067075794E+03  0.83205674633E+03  0.11037873103E+04  0.25500000920E-02 0.  1.
</event>
<event>
 5   0  0.7597000E-06  0.1599816E+04  0.7818609E-02  0.8820661E-01
       -4   -1    0    0    0  501  0.00000000000E+00  0.00000000000E+00  0.12026125940E+04  0.12026132646E+04  0.12699999809E+01 0. -1.
        4   -1    0    0  501    0  0.00000000000E+00  0.00000000000E+00 -0.53205061235E+03  0.53205212809E+03  0.12699999809E+01 0.  1.
    10030    2    1    2    0    0  0.00000000000E+00  0.00000000000E+00  0.67056198168E+03  0.17346653927E+04  0.15998158186E+04 0.  0.
        3    1    3    3  502    0 -0.57733789960E+02 -0.52794463055E+03 -0.31329700683E+03  0.61661474854E+03  0.10100000352E+00 0.  1.
       -3    1    3    3    0  502  0.57733789960E+02  0.52794463055E+03  0.98385898852E+03  0.11180506442E+04  0.10100000352E+00 0. -1.
</event>
<event>
 5   0  0.2147844E-05  0.1599419E+04  0.7818609E-02  0.8820905E-01
        2   -1    0    0  501    0  0.00000000000E+00  0.00000000000E+00  0.15997737539E+04  0.15997737539E+04  0.25500000920E-02 0. -1.
       -2   -1    0    0    0  501  0.00000000000E+00  0.00000000000E+00 -0.39976608412E+03  0.39976608413E+03  0.25500000920E-02 0.  1.
    10030    2    1    2    0    0  0.00000000000E+00  0.00000000000E+00  0.12000076698E+04  0.19995398381E+04  0.15994190059E+04 0.  0.
        2    1    3    3  502    0 -0.39198042926E+03  0.60966826226E+03  0.17754518435E+03  0.74623477500E+03  0.25500000920E-02 0.  1.
       -2    1    3    3    0  502  0.39198042926E+03 -0.60966826226E+03  0.10224624855E+04  0.12533050631E+04  0.25500000920E-02 0. -1.
</event>
<event>
 5   0  0.1057506E-05  0.1601867E+04  0.7818609E-02  0.8819402E-01
        1   -1    0    0  501    0  0.00000000000E+00  0.00000000000E+00  0.14640778270E+04  0.14640778270E+04  0.50400001928E-02 0.  1.
       -1   -1    0    0    0  501  0.00000000000E+00  0.00000000000E+00 -0.43815602732E+03  0.43815602735E+03  0.50400001928E-02 0. -1.
    10030    2    1    2    0    0  0.00000000000E+00  0.00000000000E+00  0.10259217997E+04  0.19022338544E+04  0.16018670661E+04 0.  0.
        5    1    3    3  502    0  0.24736849295E+03 -0.18451899872E+03 -0.36470009842E+03  0.47777262790E+03  0.46999998093E+01 0. -1.
       -5    1    3    3    0  502 -0.24736849295E+03  0.18451899872E+03  0.13906218981E+04  0.14244612265E+04  0.46999998093E+01 0.  1.
</event>
<event>
 5   0  0.1090674E-05  0.1600346E+04  0.7818609E-02  0.8820336E-01
       -1   -1    0    0    0  501  0.00000000000E+00  0.00000000000E+00  0.92357980893E+03  0.92357980895E+03  0.50400001928E-02 0.  1.
        1   -1    0    0  501    0  0.00000000000E+00  0.00000000000E+00 -0.69325535819E+03  0.69325535821E+03  0.50400001928E-02 0. -1.
    10030    2    1    2    0    0  0.00000000000E+00  0.00000000000E+00  0.23032445074E+03  0.16168351672E+04  0.16003457767E+04 0.  0.
        4    1    3    3  502    0 -0.61737625723E+03 -0.41318942624E+03  0.41554045605E+03  0.85120762947E+03  0.12699999809E+01 0.  1.
       -4    1    3    3    0  502  0.61737625723E+03  0.41318942624E+03 -0.18521600531E+03  0.76562753769E+03  0.12699999809E+01 0. -1.
</event>
<event>
 5   0  0.1081831E-05  0.1608336E+04  0.7818609E-02  0.8815443E-01
        1   -1    0    0  501    0  0.00000000000E+00  0.00000000000E+00  0.62649293223E+03  0.62649293225E+03  0.50400001928E-02 0. -1.
       -1   -1    0    0    0  501  0.00000000000E+00  0.00000000000E+00 -0.10322321709E+04  0.10322321709E+04  0.50400001928E-02 0.  1.
    10030    2    1    2    0    0  0.00000000000E+00  0.00000000000E+00 -0.40573923863E+03  0.16587251031E+04  0.16083359842E+04 0.  0.
        3    1    3    3  502    0  0.62500212120E+03  0.24188437977E+03 -0.66126121262E+03  0.94148930222E+03  0.10100000352E+00 0.  1.
       -3    1    3    3    0  502 -0.62500212120E+03 -0.24188437977E+03  0.25552197399E+03  0.71723580089E+03  0.10100000352E+00 0. -1.
</event>
<event>
 5   0  0.1057506E-05  0.1600949E+04  0.7818609E-02  0.8819965E-01
       -1   -1    0    0    0  501  0.00000000000E+00  0.00000000000E+00  0.71796632666E+03  0.71796632667E+03  0.50400001928E-02 0. -1.
        1   -1    0    0  501    0  0.00000000000E+00  0.00000000000E+00 -0.89246496986E+03  0.89246496987E+03  0.50400001928E-02 0.  1.
    10030    2    1    2    0    0  0.00000000000E+00  0.00000000000E+00 -0.17449864320E+03  0.16104312965E+04  0.16009494634E+04 0.  0.
        5    1    3    3  502    0 -0.45107423664E+02  0.25884824598E+03 -0.84783633801E+03  0.88762922449E+03  0.46999998093E+01 0.  1.
       -5    1    3    3    0  502  0.45107423664E+02 -0.25884824598E+03  0.67333769481E+03  0.72280207206E+03  0.46999998093E+01 0. -1.
</event>
<event>
 5   0  0.2147844E-05  0.1599573E+04  0.7818609E-02  0.8820811E-01
       -2   -1    0    0    0  501  0.00000000000E+00  0.00000000000E+00  0.35091912271E+03  0.35091912272E+03  0.25500000920E-02 0. -1.
        2   -1    0    0  501    0  0.00000000000E+00  0.00000000000E+00 -0.18228078392E+04  0.18228078392E+04  0.25500000920E-02 0.  1.
    10030    2    1    2    0    0  0.00000000000E+00  0.00000000000E+00 -0.14718887165E+04  0.21737269619E+04  0.15995726027E+04 0.  0.
        2    1    3    3  502    0  0.31344880136E+03  0.67632720003E+03 -0.11297786434E+04  0.13535392184E+04  0.25500000920E-02 0. -1.
       -2    1    3    3    0  502 -0.31344880136E+03 -0.67632720003E+03 -0.34211007308E+03  0.82018774356E+03  0.25500000920E-02 0.  1.
</event>
<event>
 5   0  0.2147844E-05  0.1599534E+04  0.7818609E-02  0.8820834E-01
        2   -1    0    0  501    0  0.00000000000E+00  0.00000000000E+00  0.49289221216E+03  0.49289221217E+03  0.25500000920E-02 0. -1.
       -2   -1    0    0    0  501  0.00000000000E+00  0.00000000000E+00 -0.12977021967E+04  0.12977021967E+04  0.25500000920E-02 0.  1.
    10030    2    1    2    0    0  0.00000000000E+00  0.00000000000E+00 -0.80480998453E+03  0.17905944089E+04  0.15995340652E+04 0.  0.
        2    1    3    3  502    0 -0.28492902436E+02 -0.26901125247E+03 -0.12449321532E+04  0.12739838953E+04  0.25500000920E-02 0.  1.
       -2    1    3    3    0  502  0.28492902436E+02  0.26901125247E+03  0.44012216862E+03  0.51661051360E+03  0.25500000920E-02 0. -1.
</event>
<event>
 5   0  0.1090674E-05  0.1599568E+04  0.7818609E-02  0.8820813E-01
        1   -1    0    0  501    0  0.00000000000E+00  0.00000000000E+00  0.16977284731E+04  0.16977284731E+04  0.50400001928E-02 0. -1.
       -1   -1    0    0    0  501  0.00000000000E+00  0.00000000000E+00 -0.37677086409E+03  0.37677086412E+03  0.50400001928E-02 0.  1.
    10030    2    1    2    0    0  0.00000000000E+00  0.00000000000E+00  0.13209576090E+04  0.20744993372E+04  0.15995682215E+04 0.  0.
        4    1    3    3  502    0  0.32466754822E+03 -0.57338614393E+03  0.72600816019E+02  0.66291264757E+03  0.12699999809E+01 0.  1.
       -4    1    3    3    0  502 -0.32466754822E+03  0.57338614393E+03  0.12483567930E+04  0.14115866897E+04  0.12699999809E+01 0. -1.
</event>
<event>
 5   0  0.1060251E-05  0.1600193E+04  0.7818609E-02  0.8820429E-01
        1   -1    0    0  501    0  0.00000000000E+00  0.00000000000E+00  0.62581480841E+03  0.62581480843E+03  0.50400001928E-02 0.  1.
       -1   -1    0    0    0  501  0.00000000000E+00  0.00000000000E+00 -0.10229140436E+04  0.10229140436E+04  0.50400001928E-02 0. -1.
    10030    2    1    2    0    0  0.00000000000E+00  0.00000000000E+00 -0.39709923519E+03  0.16487288520E+04  0.16001934336E+04 0.  0.
        1    1    3    3  502    0 -0.16777811556E+03 -0.38358043500E+03  0.50394520218E+03  0.65516731680E+03  0.50400001928E-02 0.  1.
       -1    1    3    3    0  502  0.16777811556E+03  0.38358043500E+03 -0.90104443737E+03  0.99356153524E+03  0.50400001928E-02 0. -1.
</event>
<event>
 5   0  0.1060251E-05  0.1599708E+04  0.7818609E-02  0.8820727E-01
        1   -1    0    0  501    0  0.00000000000E+00  0.00000000000E+00  0.11140459487E+04  0.11140459487E+04  0.50400001928E-02 0. -1.
       -1   -1    0    0    0  501  0.00000000000E+00  0.00000000000E+00 -0.57427309066E+03  0.57427309069E+03  0.50400001928E-02 0.  1.
    10030    2    1    2    0    0  0.00000000000E+00  0.00000000000E+00  0.53977285803E+03  0.16883190394E+04  0.15997082361E+04 0.  0.
        1    1    3    3  502    0  0.31034626317E+03 -0.29798504880E+03  0.98151855142E+03  0.10716755849E+04  0.50400001928E-02 0. -1.
       -1    1    3    3    0  502 -0.31034626317E+03  0.29798504880E+03 -0.44174569339E+03  0.61664345454E+03  0.50400001928E-02 0.  1.
</event>
<event>
 5   0  0.1057506E-05  0.1600103E+04  0.7818609E-02  0.8820485E-01
        1   -1    0    0  501    0  0.00000000000E+00  0.00000000000E+00  0.10625813299E+04  0.10625813299E+04  0.50400001928E-02 0. -1.
       -1   -1    0    0    0  501  0.00000000000E+00  0.00000000000E+00 -0.60238466630E+03  0.60238466632E+03  0.50400001928E-02 0.  1.
    10030    2    1    2    0    0  0.00000000000E+00  0.00000000000E+00  0.46019666359E+03  0.16649659962E+04  0.16001033715E+04 0.  0.
        5    1    3    3  502    0  0.55396179507E+03 -0.55466160237E+03  0.39638064642E+03  0.87844343609E+03  0.46999998093E+01 0. -1.
       -5    1    3    3    0  502 -0.55396179507E+03  0.55466160237E+03  0.63816017168E+02  0.78652256013E+03  0.46999998093E+01 0.  1.
</event>
<event>
 5   0  0.2046108E-05  0.1597610E+04  0.7818609E-02  0.8822018E-01
       -2   -1    0    0    0  501  0.00000000000E+00  0.00000000000E+00  0.60726036934E+03  0.60726036934E+03  0.25500000920E-02 0. -1.
        2   -1    0    0  501    0  0.00000000000E+00  0.00000000000E+00 -0.10507670033E+04  0.10507670033E+04  0.25500000920E-02 0.  1.
    10030    2    1    2    0    0  0.00000000000E+00  0.00000000000E+00 -0.44350663396E+03  0.16580273726E+04  0.15976096626E+04 0.  0.
        1    1    3    3  502    0 -0.63100327524E+03  0.12464030970E+03 -0.71336435259E+03  0.96051498673E+03  0.50400001928E-02 0.  1.
       -1    1    3    3    0  502  0.63100327524E+03 -0.12464030970E+03  0.26985771863E+03  0.69751238591E+03  0.50400001928E-02 0. -1.
</event>
<event>
 5   0  0.2125803E-05  0.1601762E+04  0.7818609E-02  0.8819466E-01
       -2   -1    0    0    0  501  0.00000000000E+00  0.00000000000E+00  0.30485070173E+03  0.30485070174E+03  0.25500000920E-02 0.  1.
        2   -1    0    0  501    0  0.00000000000E+00  0.00000000000E+00 -0.21040149407E+04  0.21040149407E+04  0.25500000920E-02 0. -1.
    10030    2    1    2    0    0  0.00000000000E+00  0.00000000000E+00 -0.17991642390E+04  0.24088656425E+04  0.16017620686E+04 0.  0.
        3    1    3    3  502    0  0.71715612837E+02 -0.49741792239E+03 -0.18373633772E+04  0.19048548261E+04  0.10100000352E+00 0. -1.
       -3    1    3    3    0  502 -0.71715612837E+02  0.49741792239E+03  0.38199138166E+02  0.50401081635E+03  0.10100000352E+00 0.  1.
</event>
<event>
 5   0  0.2046108E-05  0.1600564E+04  0.7818609E-02  0.8820202E-01
       -2   -1    0    0    0  501  0.00000000000E+00  0.00000000000E+00  0.67383598337E+03  0.67383598337E+03  0.25500000920E-02 0. -1.
        2   -1    0    0  501    0  0.00000000000E+00  0.00000000000E+00 -0.95045541166E+03  0.95045541166E+03  0.25500000920E-02 0.  1.
    10030    2    1    2    0    0  0.00000000000E+00  0.00000000000E+00 -0.27661942829E+03  0.16242913950E+04  0.16005637219E+04 0.  0.
        1    1    3    3  502    0 -0.73177641051E+02 -0.60087658273E+03 -0.66956182125E+03  0.90261878295E+03  0.50400001928E-02 0.  1.
       -1    1    3    3    0  502  0.73177641051E+02  0.60087658273E+03  0.39294239296E+03  0.72167261209E+03  0.50400001928E-02 0. -1.
</event>
<event>
 5   0  0.2125803E-05  0.1600524E+04  0.7818609E-02  0.8820226E-01
        2   -1    0    0  501    0  0.00000000000E+00  0.00000000000E+00  0.95208606107E+03  0.95208606108E+03  0.25500000920E-02 0. -1.
       -2   -1    0    0    0  501  0.00000000000E+00  0.00000000000E+00 -0.67264838872E+03  0.67264838872E+03  0.25500000920E-02 0.  1.
    10030    2    1    2    0    0  0.00000000000E+00  0.00000000000E+00  0.27943767236E+03  0.16247344498E+04  0.16005238579E+04 0.  0.
        3    1    3    3  502    0  0.44685978445E+03  0.46591502662E+03 -0.34036059774E+03  0.72979848292E+03  0.10100000352E+00 0.  1.
       -3    1    3    3    0  502 -0.44685978445E+03 -0.46591502662E+03  0.61979827010E+03  0.89493596687E+03  0.10100000352E+00 0. -1.
</event>
<event>
 5   0  0.1994525E-05  0.1601651E+04  0.7818609E-02  0.8819535E-01
        2   -1    0    0  501    0  0.00000000000E+00  0.00000000000E+00  0.59064218296E+03  0.59064218297E+03  0.25500000920E-02 0. -1.
       -2   -1    0    0    0  501  0.00000000000E+00  0.00000000000E+00 -0.10858031192E+04  0.10858031192E+04  0.25500000920E-02 0.  1.
    10030    2    1    2    0    0  0.00000000000E+00  0.00000000000E+00 -0.49516093628E+03  0.16764453022E+04  0.16016505544E+04 0.  0.
        5    1    3    3  502    0 -0.65562555042E+03  0.28857439981E+03  0.12715952028E+03  0.72753809535E+03  0.46999998093E+01 0. -1.
       -5    1    3    3    0  502  0.65562555042E+03 -0.28857439981E+03 -0.62232045656E+03  0.94890720686E+03  0.46999998093E+01 0.  1.
</event>
<event>
 5   0  0.7597000E-06  0.1600635E+04  0.7818609E-02  0.8820158E-01
       -4   -1    0    0    0  501  0.00000000000E+00  0.00000000000E+00  0.81688983824E+03  0.81689082546E+03  0.12699999809E+01 0.  1.
        4   -1    0    0  501    0  0.00000000000E+00  0.00000000000E+00 -0.78407932074E+03  0.78408034927E+03  0.12699999809E+01 0. -1.
    10030    2    1    2    0    0  0.00000000000E+00  0.00000000000E+00  0.32810517507E+02  0.16009711747E+04  0.16006349279E+04 0.  0.
        1    1    3    3  502    0 -0.45408243608E+03 -0.22542253006E+03  0.63581062630E+03  0.81317976386E+03  0.50400001928E-02 0.  1.
       -1    1    3    3    0  502  0.45408243608E+03  0.22542253006E+03 -0.60300010879E+03  0.78779141087E+03  0.50400001928E-02 0. -1.
</event>
<event>
 5   0  0.1081831E-05  0.1599135E+04  0.7818609E-02  0.8821080E-01
        1   -1    0    0  501    0  0.00000000000E+00  0.00000000000E+00  0.12989051180E+04  0.12989051180E+04  0.50400001928E-02 0. -1.
       -1   -1    0    0    0  501  0.00000000000E+00  0.00000000000E+00 -0.49219010875E+03  0.49219010878E+03  0.50400001928E-02 0.  1.
    10030    2    1    2    0    0  0.00000000000E+00  0.00000000000E+00  0.80671500922E+03  0.17910952268E+04  0.15991350804E+04 0.  0.
        3    1    3    3  502    0  0.40446950997E+03  0.27469284067E+03  0.11119600738E+04  0.12147044732E+04  0.10100000352E+00 0. -1.
       -3    1    3    3    0  502 -0.40446950997E+03 -0.27469284067E+03 -0.30524506456E+03  0.57639075361E+03  0.10100000352E+00 0.  1.
</event>
<event>
 5   0  0.2046108E-05  0.1604387E+04  0.7818609E-02  0.8817857E-01
        2   -1    0    0  501    0  0.00000000000E+00  0.00000000000E+00  0.15696930357E+04  0.15696930357E+04  0.25500000920E-02 0. -1.
       -2   -1    0    0    0  501  0.00000000000E+00  0.00000000000E+00 -0.40996218181E+03  0.40996218182E+03  0.25500000920E-02 0.  1.
    10030    2    1    2    0    0  0.00000000000E+00  0.00000000000E+00  0.11597308539E+04  0.19796552175E+04  0.16043874615E+04 0.  0.
        1    1    3    3  502    0  0.72257268581E+03 -0.67516565445E+02  0.10016448441E+04  0.12369163944E+04  0.50400001928E-02 0. -1.
       -1    1    3    3    0  502 -0.72257268581E+03  0.67516565445E+02  0.15808600975E+03  0.74273882314E+03  0.50400001928E-02 0.  1.
</event>
<event>
 5   0  0.1081831E-05  0.1600658E+04  0.7818609E-02  0.8820144E-01
        1   -1    0    0  501    0  0.00000000000E+00  0.00000000000E+00  0.22789077004E+04  0.22789077004E+04  0.50400001928E-02 0.  1.
       -1   -1    0    0    0  501  0.00000000000E+00  0.00000000000E+00 -0.28106718773E+03  0.28106718777E+03  0.50400001928E-02 0. -1.
    10030    2    1    2    0    0  0.00000000000E+00  0.00000000000E+00  0.19978405127E+04  0.25599748882E+04  0.16006575880E+04 0.  0.
        3    1    3    3  502    0 -0.32321553570E+03 -0.60505967679E+03  0.16582633915E+04  0.17945481272E+04  0.10100000352E+00 0.  1.
       -3    1    3    3    0  502  0.32321553570E+03  0.60505967679E+03  0.33957712114E+03  0.76542676096E+03  0.10100000352E+00 0. -1.
</event>
<event>
 5   0  0.1126485E-05  0.1599314E+04  0.7818609E-02  0.8820970E-01
        1   -1    0    0  501    0  0.00000000000E+00  0.00000000000E+00  0.62642749441E+03  0.62642749443E+03  0.50400001928E-02 0. -1.
       -1   -1    0    0    0  501  0.00000000000E+00  0.00000000000E+00 -0.10207906863E+04  0.10207906863E+04  0.50400001928E-02 0.  1.
    10030    2    1    2    0    0  0.00000000000E+00  0.00000000000E+00 -0.39436319190E+03  0.16472181807E+04  0.15993140429E+04 0.  0.
        2    1    3    3  502    0  0.37994215606E+03 -0.67330709942E+03  0.13274006028E+02  0.77322357137E+03  0.25500000920E-02 0. -1.
       -2    1    3    3    0  502 -0.37994215606E+03  0.67330709942E+03 -0.40763719793E+03  0.87399460938E+03  0.25500000920E-02 0.  1.
</event>
<event>
 5   0  0.1090674E-05  0.1599641E+04  0.7818609E-02  0.8820769E-01
        1   -1    0    0  501    0  0.00000000000E+00  0.00000000000E+00  0.13121248562E+04  0.13121248562E+04  0.50400001928E-02 0.  1.
       -1   -1    0    0    0  501  0.00000000000E+00  0.00000000000E+00 -0.48753949257E+03  0.48753949260E+03  0.50400001928E-02 0. -1.
    10030    2    1    2    0    0  0.00000000000E+00  0.00000000000E+00  0.82458536363E+03  0.17996643488E+04  0.15996408180E+04 0.  0.
        4    1    3    3  502    0  0.76042992544E+03  0.12130450361E+03  0.16905796598E+03  0.78838484438E+03  0.12699999809E+01 0. -1.
       -4    1    3    3    0  502 -0.76042992544E+03 -0.12130450361E+03  0.65552739765E+03  0.10112795044E+04  0.12699999809E+01 0.  1.
</event>
<event>
 5   0  0.1990948E-05  0.1599436E+04  0.7818609E-02  0.8820894E-01
       -2   -1    0    0    0  501  0.00000000000E+00  0.00000000000E+00  0.32631658230E+03  0.32631658231E+03  0.25500000920E-02 0. -1.
        2   -1    0    0  501    0  0.00000000000E+00  0.00000000000E+00 -0.19599035459E+04  0.19599035459E+04  0.25500000920E-02 0.  1.
    10030    2    1    2    0    0  0.00000000000E+00  0.00000000000E+00 -0.16335869636E+04  0.22862201282E+04  0.15994361841E+04 0.  0.
        4    1    3    3  502    0  0.30075811338E+03  0.24498623172E+03 -0.18164211989E+04  0.18573802199E+04  0.12699999809E+01 0.  1.
       -4    1    3    3    0  502 -0.30075811338E+03 -0.24498623172E+03  0.18283423528E+03  0.42883990834E+03  0.12699999809E+01 0. -1.
</event>
<event>
 5   0  0.1057506E-05  0.1599377E+04  0.7818609E-02  0.8820931E-01
       -1   -1    0    0    0  501  0.00000000000E+00  0.00000000000E+00  0.64516557272E+03  0.64516557274E+03  0.50400001928E-02 0.  1.
        1   -1    0    0  501    0  0.00000000000E+00  0.00000000000E+00 -0.99122109876E+03  0.99122109877E+03  0.50400001928E-02 0. -1.
    10030    2    1    2    0    0  0.00000000000E+00  0.00000000000E+00 -0.34605552604E+03  0.16363866715E+04  0.15993770386E+04 0.  0.
        5    1    3    3  502    0  0.70462287164E+03  0.36452095513E+03 -0.27590661680E+03  0.83994968252E+03  0.46999998093E+01 0.  1.
       -5    1    3    3    0  502 -0.70462287164E+03 -0.36452095513E+03 -0.70148909240E+02  0.79643698899E+03  0.46999998093E+01 0. -1.
</event>
<event>
 5   0  0.1057506E-05  0.1602254E+04  0.7818609E-02  0.8819165E-01
        1   -1    0    0  501    0  0.00000000000E+00  0.00000000000E+00  0.10734232118E+04  0.10734232118E+04  0.50400001928E-02 0. -1.
       -1   -1    0    0    0  501  0.00000000000E+00  0.00000000000E+00 -0.59790425071E+03  0.59790425074E+03  0.50400001928E-02 0.  1.
    10030    2    1    2    0    0  0.00000000000E+00  0.00000000000E+00  0.47551896105E+03  0.16713274625E+04  0.16022537891E+04 0.  0.
        5    1    3    3  502    0  0.92608309492E+02 -0.79513756707E+03  0.27011543777E+03  0.84486951021E+03  0.46999998093E+01 0. -1.
       -5    1    3    3    0  502 -0.92608309492E+02  0.79513756707E+03  0.20540352328E+03  0.82645795231E+03  0.46999998093E+01 0.  1.
</event>
<event>
 5   0  0.1057506E-05  0.1597745E+04  0.7818609E-02  0.8821935E-01
        1   -1    0    0  501    0  0.00000000000E+00  0.00000000000E+00  0.14389426710E+04  0.14389426710E+04  0.50400001928E-02 0. -1.
       -1   -1    0    0    0  501  0.00000000000E+00  0.00000000000E+00 -0.44351821519E+03  0.44351821522E+03  0.50400001928E-02 0.  1.
    10030    2    1    2    0    0  0.00000000000E+00  0.00000000000E+00  0.99542445576E+03  0.18824608862E+04  0.15977450175E+04 0.  0.
        5    1    3    3  502    0  0.15479339795E+03 -0.72424278492E+03  0.14486863184E+03  0.75465065961E+03  0.46999998093E+01 0. -1.
       -5    1    3    3    0  502 -0.15479339795E+03  0.72424278492E+03  0.85055582393E+03  0.11278102266E+04  0.46999998093E+01 0.  1.
</event>
<event>
 5   0  0.1994525E-05  0.1600492E+04  0.7818609E-02  0.8820246E-01
       -2   -1    0    0    0  501  0.00000000000E+00  0.00000000000E+00  0.75367240219E+03  0.75367240219E+03  0.25500000920E-02 0.  1.
        2   -1    0    0  501    0  0.00000000000E+00  0.00000000000E+00 -0.84969781610E+03  0.84969781610E+03  0.25500000920E-02 0. -1.
    10030    2    1    2    0    0  0.00000000000E+00  0.00000000000E+00 -0.96025413910E+02  0.16033702183E+04  0.16004921670E+04 0.  0.
        5    1    3    3  502    0 -0.11187432699E+03  0.34726891308E+02  0.74502299739E+03  0.75419041273E+03  0.46999998093E+01 0.  1.
       -5    1    3    3    0  502  0.11187432699E+03 -0.34726891308E+02 -0.84104841130E+03  0.84917980556E+03  0.46999998093E+01 0. -1.
</event>
<event>
 5   0  0.2046108E-05  0.1599717E+04  0.7818609E-02  0.8820722E-01
       -2   -1    0    0    0  501  0.00000000000E+00  0.00000000000E+00  0.63889782292E+03  0.63889782292E+03  0.25500000920E-02 0.  1.
        2   -1    0    0  501    0  0.00000000000E+00  0.00000000000E+00 -0.10013711265E+04  0.10013711265E+04  0.25500000920E-02 0. -1.
    10030    2    1    2    0    0  0.00000000000E+00  0.00000000000E+00 -0.36247330360E+03  0.16402689494E+04  0.15997172659E+04 0.  0.
        1    1    3    3  502    0  0.20789622979E+03 -0.66646097158E+03  0.21902110251E+03  0.73168388828E+03  0.50400001928E-02 0.  1.
       -1    1    3    3    0  502 -0.20789622979E+03  0.66646097158E+03 -0.58149440610E+03  0.90858506116E+03  0.50400001928E-02 0. -1.
</event>
<event>
 5   0  0.1126485E-05  0.1600564E+04  0.7818609E-02  0.8820202E-01
        1   -1    0    0  501    0  0.00000000000E+00  0.00000000000E+00  0.13569662741E+04  0.13569662741E+04  0.50400001928E-02 0.  1.
       -1   -1    0    0    0  501  0.00000000000E+00  0.00000000000E+00 -0.47197290272E+03  0.47197290275E+03  0.50400001928E-02 0. -1.
    10030    2    1    2    0    0  0.00000000000E+00  0.00000000000E+00  0.88499337140E+03  0.18289391769E+04  0.16005640397E+04 0.  0.
        2    1    3    3  502    0  0.68954463149E+03  0.25963387637E+03  0.79942732680E+03  0.10871824131E+04  0.25500000920E-02 0.  1.
       -2    1    3    3    0  502 -0.68954463149E+03 -0.25963387637E+03  0.85566044603E+02  0.74175676375E+03  0.25500000920E-02 0. -1.
</event>
<event>
 5   0  0.7597000E-06  0.1600006E+04  0.7818609E-02  0.8820545E-01
        4   -1    0    0  501    0  0.00000000000E+00  0.00000000000E+00  0.49248214102E+03  0.49248377854E+03  0.12699999809E+01 0.  1.
       -4   -1    0    0    0  501  0.00000000000E+00  0.00000000000E+00 -0.12995443995E+04  0.12995450201E+04  0.12699999809E+01 0. -1.
    10030    2    1    2    0    0  0.00000000000E+00  0.00000000000E+00 -0.80706225848E+03  0.17920287986E+04  0.16000055394E+04 0.  0.
        4    1    3    3  502    0  0.39034233177E+03  0.13484063560E+03  0.36386547825E+03  0.55040787798E+03  0.12699999809E+01 0.  1.
       -4    1    3    3    0  502 -0.39034233177E+03 -0.13484063560E+03 -0.11709277367E+04  0.12416209206E+04  0.12699999809E+01 0. -1.
</event>
<event>
 5   0  0.2046108E-05  0.1600176E+04  0.7818609E-02  0.8820440E-01
        2   -1    0    0  501    0  0.00000000000E+00  0.00000000000E+00  0.72998068305E+03  0.72998068306E+03  0.25500000920E-02 0.  1.
       -2   -1    0    0    0  501  0.00000000000E+00  0.00000000000E+00 -0.87692876309E+03  0.87692876309E+03  0.25500000920E-02 0. -1.
    10030    2    1    2    0    0  0.00000000000E+00  0.00000000000E+00 -0.14694808003E+03  0.16069094461E+04  0.16001763121E+04 0.  0.
        1    1    3    3  502    0 -0.48443145098E+03  0.61754983843E+03  0.82419061019E+02  0.78919866655E+03  0.50400001928E-02 0.  1.
       -1    1    3    3    0  502  0.48443145098E+03 -0.61754983843E+03 -0.22936714105E+03  0.81771077959E+03  0.50400001928E-02 0. -1.
</event>
<event>
 5   0  0.7597000E-06  0.1600827E+04  0.7818609E-02  0.8820040E-01
       -3   -1    0    0    0  501  0.00000000000E+00  0.00000000000E+00  0.55437738666E+03  0.55437739586E+03  0.10100000352E+00 0. -1.
        3   -1    0    0  501    0  0.00000000000E+00  0.00000000000E+00 -0.11556424675E+04  0.11556424719E+04  0.10100000352E+00 0.  1.
    10030    2    1    2    0    0  0.00000000000E+00  0.00000000000E+00 -0.60126508081E+03  0.17100198677E+04  0.16008273644E+04 0.  0.
        3    1    3    3  502    0  0.41214971531E+03  0.78156530025E+02 -0.10288088648E+04  0.11110461384E+04  0.10100000352E+00 0.  1.
       -3    1    3    3    0  502 -0.41214971531E+03 -0.78156530025E+02  0.42754378402E+03  0.59897372937E+03  0.10100000352E+00 0. -1.
</event>
<event>
 5   0  0.2046108E-05  0.1598974E+04  0.7818609E-02  0.8821178E-01
        2   -1    0    0  501    0  0.00000000000E+00  0.00000000000E+00  0.43584678369E+03  0.43584678369E+03  0.25500000920E-02 0.  1.
       -2   -1    0    0    0  501  0.00000000000E+00  0.00000000000E+00 -0.14665240158E+04  0.14665240158E+04  0.25500000920E-02 0. -1.
    10030    2    1    2    0    0  0.00000000000E+00  0.00000000000E+00 -0.10306772322E+04  0.19023707995E+04  0.15989743907E+04 0.  0.
        1    1    3    3  502    0  0.73940896513E+01  0.48117191626E+03  0.24423531782E+03  0.53965912950E+03  0.50400001928E-02 0.  1.
       -1    1    3    3    0  502 -0.73940896513E+01 -0.48117191626E+03 -0.12749125500E+04  0.13627116700E+04  0.50400001928E-02 0. -1.
</event>
<event>
 5   0  0.2125803E-05  0.1600306E+04  0.7818609E-02  0.8820360E-01
        2   -1    0    0  501    0  0.00000000000E+00  0.00000000000E+00  0.82780074336E+03  0.82780074337E+03  0.25500000920E-02 0.  1.
       -2   -1    0    0    0  501  0.00000000000E+00  0.00000000000E+00 -0.77342904558E+03  0.77342904558E+03  0.25500000920E-02 0. -1.
    10030    2    1    2    0    0  0.00000000000E+00  0.00000000000E+00  0.54371697785E+02  0.16012297890E+04  0.16003063943E+04 0.  0.
        3    1    3    3  502    0 -0.47720538439E+03  0.33704347407E+03 -0.51986708126E+03  0.78203904934E+03  0.10100000352E+00 0. -1.
       -3    1    3    3    0  502  0.47720538439E+03 -0.33704347407E+03  0.57423877905E+03  0.81919073961E+03  0.10100000352E+00 0.  1.
</event>
<event>
 5   0  0.1090674E-05  0.1599937E+04  0.7818609E-02  0.8820586E-01
        1   -1    0    0  501    0  0.00000000000E+00  0.00000000000E+00  0.80319336569E+03  0.80319336571E+03  0.50400001928E-02 0. -1.
       -1   -1    0    0    0  501  0.00000000000E+00  0.00000000000E+00 -0.79675702401E+03  0.79675702403E+03  0.50400001928E-02 0.  1.
    10030    2    1    2    0    0  0.00000000000E+00  0.00000000000E+00  0.64363416795E+01  0.15999503897E+04  0.15999374435E+04 0.  0.
        4    1    3    3  502    0  0.16908511453E+02  0.79883271426E+03  0.42317588891E+02  0.80013248550E+03  0.12699999809E+01 0. -1.
       -4    1    3    3    0  502 -0.16908511453E+02 -0.79883271426E+03 -0.35881247212E+02  0.79981790423E+03  0.12699999809E+01 0.  1.
</event>
<event>
 5   0  0.1090674E-05  0.1600183E+04  0.7818609E-02  0.8820436E-01
       -1   -1    0    0    0  501  0.00000000000E+00  0.00000000000E+00  0.10624960435E+04  0.10624960436E+04  0.50400001928E-02 0.  1.
        1   -1    0    0  501    0  0.00000000000E+00  0.00000000000E+00 -0.60249286972E+03  0.60249286974E+03  0.50400001928E-02 0. -1.
    10030    2    1    2    0    0  0.00000000000E+00  0.00000000000E+00  0.46000317382E+03  0.16649889133E+04  0.16001828525E+04 0.  0.
        4    1    3    3  502    0 -0.66451669897E+03  0.38579013875E+03  0.46203104037E+03  0.89659955918E+03  0.12699999809E+01 0.  1.
       -4    1    3    3    0  502  0.66451669897E+03 -0.38579013875E+03 -0.20278665476E+01  0.76838935411E+03  0.12699999809E+01 0. -1.
</event>
<event>
 5   0  0.1060251E-05  0.1599881E+04  0.7818609E-02  0.8820621E-01
       -1   -1    0    0    0  501  0.00000000000E+00  0.00000000000E+00  0.41498609877E+03  0.41498609880E+03  0.50400001928E-02 0.  1.
        1   -1    0    0  501    0  0.00000000000E+00  0.00000000000E+00 -0.15419903431E+04  0.15419903431E+04  0.50400001928E-02 0. -1.
    10030    2    1    2    0    0  0.00000000000E+00  0.00000000000E+00 -0.11270042443E+04  0.19569764419E+04  0.15998806916E+04 0.  0.
        1    1    3    3  502    0 -0.59833890548E+03 -0.51450347152E+03 -0.40316803270E+03  0.88615333359E+03  0.50400001928E-02 0.  1.
       -1    1    3    3    0  502  0.59833890548E+03  0.51450347152E+03 -0.72383621160E+03  0.10708231083E+04  0.50400001928E-02 0. -1.
</event>
<event>
 5   0  0.1994525E-05  0.1599031E+04  0.7818609E-02  0.8821144E-01
       -2   -1    0    0    0  501  0.00000000000E+00  0.00000000000E+00  0.61981864080E+03  0.61981864080E+03  0.25500000920E-02 0.  1.
        2   -1    0    0  501    0  0.00000000000E+00  0.00000000000E+00 -0.10313095902E+04  0.10313095902E+04  0.25500000920E-02 0. -1.
    10030    2    1    2    0    0  0.00000000000E+00  0.00000000000E+00 -0.41149094944E+03  0.16511282310E+04  0.15990308421E+04 0.  0.
        5    1    3    3  502    0 -0.14174076030E+03 -0.62356124201E+03  0.28976816288E+03  0.70207317559E+03  0.46999998093E+01 0.  1.
       -5    1    3    3    0  502  0.14174076030E+03  0.62356124201E+03 -0.70125911232E+03  0.94905505545E+03  0.46999998093E+01 0. -1.
</event>
<event>
 5   0  0.1060251E-05  0.1600408E+04  0.7818609E-02  0.8820297E-01
        1   -1    0    0  501    0  0.00000000000E+00  0.00000000000E+00  0.11733777271E+04  0.11733777272E+04  0.50400001928E-02 0. -1.
       -1   -1    0    0    0  501  0.00000000000E+00  0.00000000000E+00 -0.54571222496E+03  0.54571222498E+03  0.50400001928E-02 0.  1.
    10030    2    1    2    0    0  0.00000000000E+00  0.00000000000E+00  0.62766550218E+03  0.17190899521E+04  0.16004081607E+04 0.  0.
        1    1    3    3  502    0  0.17914731078E+03 -0.77986159272E+03  0.32132937109E+03  0.86228210437E+03  0.50400001928E-02 0.  1.
       -1    1    3    3    0  502 -0.17914731078E+03  0.77986159272E+03  0.30633613109E+03  0.85680784777E+03  0.50400001928E-02 0. -1.
</event>
<event>
 5   0  0.1994525E-05  0.1599882E+04  0.7818609E-02  0.8820621E-01
        2   -1    0    0  501    0  0.00000000000E+00  0.00000000000E+00  0.43345161648E+03  0.43345161649E+03  0.25500000920E-02 0. -1.
       -2   -1    0    0    0  501  0.00000000000E+00  0.00000000000E+00 -0.14763022131E+04  0.14763022131E+04  0.25500000920E-02 0.  1.
    10030    2    1    2    0    0  0.00000000000E+00  0.00000000000E+00 -0.10428505967E+04  0.19097538296E+04  0.15998819715E+04 0.  0.
        5    1    3    3  502    0  0.13762426375E+02 -0.64697960265E+02  0.43016508616E+03  0.43524627717E+03  0.46999998093E+01 0. -1.
       -5    1    3    3    0  502 -0.13762426375E+02  0.64697960265E+02 -0.14730156828E+04  0.14745075525E+04  0.46999998093E+01 0.  1.
</event>
<event>
 5   0  0.2046108E-05  0.1600214E+04  0.7818609E-02  0.8820417E-01
        2   -1    0    0  501    0  0.00000000000E+00  0.00000000000E+00  0.94848170882E+03  0.94848170882E+03  0.25500000920E-02 0. -1.
       -2   -1    0    0    0  501  0.00000000000E+00  0.00000000000E+00 -0.67494315550E+03  0.67494315551E+03  0.25500000920E-02 0.  1.
    10030    2    1    2    0    0  0.00000000000E+00  0.00000000000E+00  0.27353855332E+03  0.16234248643E+04  0.16002140325E+04 0.  0.
        1    1    3    3  502    0 -0.58182578913E+03  0.44245929291E+03 -0.19334218112E+03  0.75609038733E+03  0.50400001928E-02 0. -1.
       -1    1    3    3    0  502  0.58182578913E+03 -0.44245929291E+03  0.46688073444E+03  0.86733447700E+03  0.50400001928E-02 0.  1.
</event>
<event>
 5   0  0.1990948E-05  0.1600333E+04  0.7818609E-02  0.8820343E-01
        2   -1    0    0  501    0  0.00000000000E+00  0.00000000000E+00  0.10562075643E+04  0.10562075643E+04  0.25500000920E-02 0. -1.
       -2   -1    0    0    0  501  0.00000000000E+00  0.00000000000E+00 -0.60619404759E+03  0.60619404759E+03  0.25500000920E-02 0.  1.
    10030    2    1    2    0    0  0.00000000000E+00  0.00000000000E+00  0.45001351667E+03  0.16624016118E+04  0.16003333884E+04 0.  0.
        4    1    3    3  502    0  0.21195354437E+03 -0.21951103920E+03  0.99339543926E+03  0.10392042691E+04  0.12699999809E+01 0. -1.
       -4    1    3    3    0  502 -0.21195354437E+03  0.21951103920E+03 -0.54338192259E+03  0.62319734274E+03  0.12699999809E+01 0.  1.
</event>
<event>
 5   0  0.1994525E-05  0.1600404E+04  0.7818609E-02  0.8820300E-01
       -2   -1    0    0    0  501  0.00000000000E+00  0.00000000000E+00  0.61281464543E+03  0.61281464544E+03  0.25500000920E-02 0.  1.
        2   -1    0    0  501    0  0.00000000000E+00  0.00000000000E+00 -0.10448887169E+04  0.10448887169E+04  0.25500000920E-02 0. -1.
    10030    2    1    2    0    0  0.00000000000E+00  0.00000000000E+00 -0.43207407147E+03  0.16577033623E+04  0.16004038348E+04 0.  0.
        5    1    3    3  502    0 -0.91248520984E+02 -0.77262221468E+03 -0.40990009781E+03  0.87938135038E+03  0.46999998093E+01 0. -1.
       -5    1    3    3    0  502  0.91248520984E+02  0.77262221468E+03 -0.22173973658E+02  0.77832201197E+03  0.46999998093E+01 0.  1.
</event>
<event>
 5   0  0.1090674E-05  0.1600238E+04  0.7818609E-02  0.8820402E-01
        1   -1    0    0  501    0  0.00000000000E+00  0.00000000000E+00  0.45309413851E+03  0.45309413854E+03  0.50400001928E-02 0.  1.
       -1   -1    0    0    0  501  0.00000000000E+00  0.00000000000E+00 -0.14129299030E+04  0.14129299030E+04  0.50400001928E-02 0. -1.
    10030    2    1    2    0    0  0.00000000000E+00  0.00000000000E+00 -0.95983576452E+03  0.18660240416E+04  0.16002378039E+04 0.  0.
        4    1    3    3  502    0 -0.80348569207E+02 -0.14343547621E+03  0.43318406337E+03  0.46333537969E+03  0.12699999809E+01 0.  1.
       -4    1    3    3    0  502  0.80348569207E+02  0.14343547621E+03 -0.13930198279E+04  0.14026886619E+04  0.12699999809E+01 0. -1.
</event>
<event>
 5   0  0.2046108E-05  0.1600265E+04  0.7818609E-02  0.8820385E-01
       -2   -1    0    0    0  501  0.00000000000E+00  0.00000000000E+00  0.68093597491E+03  0.68093597491E+03  0.25500000920E-02 0.  1.
        2   -1    0    0  501    0  0.00000000000E+00  0.00000000000E+00 -0.94019448110E+03  0.94019448110E+03  0.25500000920E-02 0. -1.
    10030    2    1    2    0    0  0.00000000000E+00  0.00000000000E+00 -0.25925850619E+03  0.16211304560E+04  0.16002652850E+04 0.  0.
        1    1    3    3  502    0 -0.59219469727E+03  0.14368127993E+03  0.39566165127E+03  0.72655833351E+03  0.50400001928E-02 0.  1.
       -1    1    3    3    0  502  0.59219469727E+03 -0.14368127993E+03 -0.65492015746E+03  0.89457212250E+03  0.50400001928E-02 0. -1.
</event>
<event>
 5   0  0.1090674E-05  0.1603113E+04  0.7818609E-02  0.8818638E-01
       -1   -1    0    0    0  501  0.00000000000E+00  0.00000000000E+00  0.42663051395E+03  0.42663051398E+03  0.50400001928E-02 0.  1.
        1   -1    0    0  501    0  0.00000000000E+00  0.00000000000E+00 -0.15059697134E+04  0.15059697134E+04  0.50400001928E-02 0. -1.
    10030    2    1    2    0    0  0.00000000000E+00  0.00000000000E+00 -0.10793391994E+04  0.19326002273E+04  0.16031127631E+04 0.  0.
        4    1    3    3  502    0 -0.23612759031E+03 -0.72615495891E+03 -0.24577301078E+03  0.80216161026E+03  0.12699999809E+01 0.  1.
       -4    1    3    3    0  502  0.23612759031E+03  0.72615495891E+03 -0.83356618863E+03  0.11304386171E+04  0.12699999809E+01 0. -1.
</event>
<event>
 5   0  0.1126485E-05  0.1599871E+04  0.7818609E-02  0.8820627E-01
       -1   -1    0    0    0  501  0.00000000000E+00  0.00000000000E+00  0.12220458447E+04  0.12220458447E+04  0.50400001928E-02 0. -1.
        1   -1    0    0  501    0  0.00000000000E+00  0.00000000000E+00 -0.52362733265E+03  0.52362733267E+03  0.50400001928E-02 0.  1.
    10030    2    1    2    0    0  0.00000000000E+00  0.00000000000E+00  0.69841851203E+03  0.17456731774E+04  0.15998707523E+04 0.  0.
        2    1    3    3  502    0  0.30655525843E+03 -0.63437244253E+03  0.76253457640E+03  0.10382020528E+04  0.25500000920E-02 0. -1.
       -2    1    3    3    0  502 -0.30655525843E+03  0.63437244253E+03 -0.64116064372E+02  0.70747112452E+03  0.25500000920E-02 0.  1.
</event>
<event>
 5   0  0.1126485E-05  0.1598641E+04  0.7818609E-02  0.8821383E-01
        1   -1    0    0  501    0  0.00000000000E+00  0.00000000000E+00  0.90018328455E+03  0.90018328456E+03  0.50400001928E-02 0.  1.
       -1   -1    0    0    0  501  0.00000000000E+00  0.00000000000E+00 -0.70975952232E+03  0.70975952234E+03  0.50400001928E-02 0. -1.
    10030    2    1    2    0    0  0.00000000000E+00  0.00000000000E+00  0.19042376223E+03  0.16099428069E+04  0.15986414959E+04 0.  0.
        2    1    3    3  502    0 -0.35948876146E+03  0.39339643443E+03  0.69517568736E+03  0.87593502072E+03  0.25500000920E-02 0.  1.
       -2    1    3    3    0  502  0.35948876146E+03 -0.39339643443E+03 -0.50475192513E+03  0.73400778617E+03  0.25500000920E-02 0. -1.
</event>
<event>
 5   0  0.1060251E-05  0.1600418E+04  0.7818609E-02  0.8820291E-01
       -1   -1    0    0    0  501  0.00000000000E+00  0.00000000000E+00  0.12350212753E+04  0.12350212753E+04  0.50400001928E-02 0. -1.
        1   -1    0    0  501    0  0.00000000000E+00  0.00000000000E+00 -0.51848078601E+03  0.51848078603E+03  0.50400001928E-02 0.  1.
    10030    2    1    2    0    0  0.00000000000E+00  0.00000000000E+00  0.71654048929E+03  0.17535020613E+04  0.16004184473E+04 0.  0.
        1    1    3    3  502    0 -0.44702414671E+02  0.77584124819E+03  0.56732704727E+03  0.96217873956E+03  0.50400001928E-02 0. -1.
       -1    1    3    3    0  502  0.44702414671E+02 -0.77584124819E+03  0.14921344201E+03  0.79132332177E+03  0.50400001928E-02 0.  1.
</event>
<event>
 5   0  0.1090674E-05  0.1599644E+04  0.7818609E-02  0.8820766E-01
        1   -1    0    0  501    0  0.00000000000E+00  0.00000000000E+00  0.63841626189E+03  0.63841626191E+03  0.50400001928E-02 0. -1.
       -1   -1    0    0    0  501  0.00000000000E+00  0.00000000000E+00 -0.10020352695E+04  0.10020352696E+04  0.50400001928E-02 0.  1.
    10030    2    1    2    0    0  0.00000000000E+00  0.00000000000E+00 -0.36361900766E+03  0.16404515315E+04  0.15996444744E+04 0.  0.
        4    1    3    3  502    0 -0.21079298281E+02  0.34735386432E+03  0.55671081909E+03  0.65652691709E+03  0.12699999809E+01 0. -1.
       -4    1    3    3    0  502  0.21079298281E+02 -0.34735386432E+03 -0.92032982675E+03  0.98392461438E+03  0.12699999809E+01 0.  1.
</event>
<event>
 5   0  0.1990948E-05  0.1599726E+04  0.7818609E-02  0.8820716E-01
       -2   -1    0    0    0  501  0.00000000000E+00  0.00000000000E+00  0.67476364019E+03  0.67476364019E+03  0.25500000920E-02 0. -1.
        2   -1    0    0  501    0  0.00000000000E+00  0.00000000000E+00 -0.94815573832E+03  0.94815573833E+03  0.25500000920E-02 0.  1.
    10030    2    1    2    0    0  0.00000000000E+00  0.00000000000E+00 -0.27339209814E+03  0.16229193785E+04  0.15997262484E+04 0.  0.
        4    1    3    3  502    0  0.12631197942E+03  0.70437084004E+03  0.22581697178E+03  0.75039184037E+03  0.12699999809E+01 0. -1.
       -4    1    3    3    0  502 -0.12631197942E+03 -0.70437084004E+03 -0.49920906992E+03  0.87252753815E+03  0.12699999809E+01 0.  1.
</event>
<event>
 5   0  0.1990948E-05  0.1600729E+04  0.7818609E-02  0.8820100E-01
        2   -1    0    0  501    0  0.00000000000E+00  0.00000000000E+00  0.67668238311E+03  0.67668238311E+03  0.25500000920E-02 0.  1.
       -2   -1    0    0    0  501  0.00000000000E+00  0.00000000000E+00 -0.94665319934E+03  0.94665319934E+03  0.25500000920E-02 0. -1.
    10030    2    1    2    0    0  0.00000000000E+00  0.00000000000E+00 -0.26997081623E+03  0.16233355825E+04  0.16007292624E+04 0.  0.
        4    1    3    3  502    0 -0.17882507252E+03  0.61587693187E+03  0.35062906941E+03  0.73090707959E+03  0.12699999809E+01 0.  1.
       -4    1    3    3    0  502  0.17882507252E+03 -0.61587693187E+03 -0.62059988564E+03  0.89242850287E+03  0.12699999809E+01 0. -1.
</event>
<event>
 5   0  0.1057506E-05  0.1599727E+04  0.7818609E-02  0.8820716E-01
       -1   -1    0    0    0  501  0.00000000000E+00  0.00000000000E+00  0.14060757971E+04  0.14060757971E+04  0.50400001928E-02 0.  1.
        1   -1    0    0  501    0  0.00000000000E+00  0.00000000000E+00 -0.45501209317E+03  0.45501209320E+03  0.50400001928E-02 0. -1.
    10030    2    1    2    0    0  0.00000000000E+00  0.00000000000E+00  0.95106370389E+03  0.18610878903E+04  0.15997268412E+04 0.  0.
        5    1    3    3  502    0 -0.13489865428E+03 -0.68027539072E+03  0.93911615783E+03  0.11674474301E+04  0.46999998093E+01 0.  1.
       -5    1    3    3    0  502  0.13489865428E+03  0.68027539072E+03  0.11947546063E+02  0.69364046018E+03  0.46999998093E+01 0. -1.
</event>
<event>
 5   0  0.2147844E-05  0.1600515E+04  0.7818609E-02  0.8820232E-01
        2   -1    0    0  501    0  0.00000000000E+00  0.00000000000E+00  0.39230559779E+03  0.39230559780E+03  0.25500000920E-02 0.  1.
       -2   -1    0    0    0  501  0.00000000000E+00  0.00000000000E+00 -0.16324311261E+04  0.16324311261E+04  0.25500000920E-02 0. -1.
    10030    2    1    2    0    0  0.00000000000E+00  0.00000000000E+00 -0.12401255283E+04  0.20247367239E+04  0.16005147532E+04 0.  0.
        2    1    3    3  502    0  0.59129964186E+01  0.79537424527E+03 -0.50864670294E+03  0.94412743948E+03  0.25500000920E-02 0. -1.
       -2    1    3    3    0  502 -0.59129964186E+01 -0.79537424527E+03 -0.73147882532E+03  0.10806092844E+04  0.25500000920E-02 0.  1.
</event>
<event>
 5   0  0.1057506E-05  0.1600148E+04  0.7818609E-02  0.8820457E-01
        1   -1    0    0  501    0  0.00000000000E+00  0.00000000000E+00  0.11205056427E+04  0.11205056427E+04  0.50400001928E-02 0.  1.
       -1   -1    0    0    0  501  0.00000000000E+00  0.00000000000E+00 -0.57127632084E+03  0.57127632087E+03  0.50400001928E-02 0. -1.
    10030    2    1    2    0    0  0.00000000000E+00  0.00000000000E+00  0.54922932187E+03  0.16917819636E+04  0.16001479195E+04 0.  0.
        5    1    3    3  502    0 -0.14541304658E+03  0.74429599882E+03  0.54411332194E+03  0.93338249667E+03  0.46999998093E+01 0.  1.
       -5    1    3    3    0  502  0.14541304658E+03 -0.74429599882E+03  0.51159999230E+01  0.75839946692E+03  0.46999998093E+01 0. -1.
</event>
<event>
 5   0  0.2046108E-05  0.1600105E+04  0.7818609E-02  0.8820484E-01
        2   -1    0    0  501    0  0.00000000000E+00  0.00000000000E+00  0.13523679383E+04  0.13523679383E+04  0.25500000920E-02 0. -1.
       -2   -1    0    0    0  501  0.00000000000E+00  0.00000000000E+00 -0.47330590882E+03  0.47330590883E+03  0.25500000920E-02 0.  1.
    10030    2    1    2    0    0  0.00000000000E+00  0.00000000000E+00  0.87906202949E+03  0.18256738471E+04  0.16001046667E+04 0.  0.
        1    1    3    3  502    0  0.49940489338E+02 -0.79531942912E+03  0.35839607158E+03  0.87377044523E+03  0.50400001928E-02 0. -1.
       -1    1    3    3    0  502 -0.49940489338E+02  0.79531942912E+03  0.52066595791E+03  0.95190340191E+03  0.50400001928E-02 0.  1.
</event>
<event>
 5   0  0.1990948E-05  0.1600401E+04  0.7818609E-02  0.8820301E-01
        2   -1    0    0  501    0  0.00000000000E+00  0.00000000000E+00  0.11402010550E+04  0.11402010550E+04  0.25500000920E-02 0. -1.
       -2   -1    0    0    0  501  0.00000000000E+00  0.00000000000E+00 -0.56158614529E+03  0.56158614529E+03  0.25500000920E-02 0.  1.
    10030    2    1    2    0    0  0.00000000000E+00  0.00000000000E+00  0.57861490968E+03  0.17017872003E+04  0.16004013438E+04 0.  0.
        4    1    3    3  502    0  0.43057808436E+03  0.66688742061E+03  0.18200290441E+03  0.81440959511E+03  0.12699999809E+01 0.  1.
       -4    1    3    3    0  502 -0.43057808436E+03 -0.66688742061E+03  0.39661200527E+03  0.88737760515E+03  0.12699999809E+01 0. -1.
</event>
<event>
 5   0  0.1057506E-05  0.1600306E+04  0.7818609E-02  0.8820360E-01
       -1   -1    0    0    0  501  0.00000000000E+00  0.00000000000E+00  0.84870792195E+03  0.84870792197E+03  0.50400001928E-02 0.  1.
        1   -1    0    0  501    0  0.00000000000E+00  0.00000000000E+00 -0.75437587853E+03  0.75437587854E+03  0.50400001928E-02 0. -1.
    10030    2    1    2    0    0  0.00000000000E+00  0.00000000000E+00  0.94332043427E+02  0.16030838005E+04  0.16003059511E+04 0.  0.
        5    1    3    3  502    0 -0.66232976404E+03 -0.23544602431E+03  0.43006916923E+03  0.82407349613E+03  0.46999998093E+01 0.  1.
       -5    1    3    3    0  502  0.66232976404E+03  0.23544602431E+03 -0.33573712581E+03  0.77901030439E+03  0.46999998093E+01 0. -1.
</event>
<event>
 5   0  0.1990948E-05  0.1603812E+04  0.7818609E-02  0.8818209E-01
        2   -1    0    0  501    0  0.00000000000E+00  0.00000000000E+00  0.13884253825E+04  0.13884253825E+04  0.25500000920E-02 0. -1.
       -2   -1    0    0    0  501  0.00000000000E+00  0.00000000000E+00 -0.46315315485E+03  0.46315315486E+03  0.25500000920E-02 0.  1.
    10030    2    1    2    0    0  0.00000000000E+00  0.00000000000E+00  0.92527222764E+03  0.18515785374E+04  0.16038124531E+04 0.  0.
        4    1    3    3  502    0  0.20375526038E+03  0.53352642135E+03 -0.18725354608E+03  0.60102591611E+03  0.12699999809E+01 0.  1.
       -4    1    3    3    0  502 -0.20375526038E+03 -0.53352642135E+03  0.11125257737E+04  0.12505526213E+04  0.12699999809E+01 0. -1.
</event>
<event>
 5   0  0.1994525E-05  0.1599905E+04  0.7818609E-02  0.8820606E-01
        2   -1    0    0  501    0  0.00000000000E+00  0.00000000000E+00  0.19354984224E+04  0.19354984224E+04  0.25500000920E-02 0.  1.
       -2   -1    0    0    0  501  0.00000000000E+00  0.00000000000E+00 -0.33062511403E+03  0.33062511404E+03  0.25500000920E-02 0. -1.
    10030    2    1    2    0    0  0.00000000000E+00  0.00000000000E+00  0.16048733084E+04  0.22661235365E+04  0.15999054805E+04 0.  0.
        5    1    3    3  502    0 -0.47855391343E+02 -0.46057499303E+03 -0.12147464195E+03  0.47874590476E+03  0.46999998093E+01 0. -1.
       -5    1    3    3    0  502  0.47855391343E+02  0.46057499303E+03  0.17263479503E+04  0.17873776317E+04  0.46999998093E+01 0.  1.
</event>
<event>
 5   0  0.2046108E-05  0.1599795E+04  0.7818609E-02  0.8820674E-01
        2   -1    0    0  501    0  0.00000000000E+00  0.00000000000E+00  0.21799342111E+04  0.21799342111E+04  0.25500000920E-02 0.  1.
       -2   -1    0    0    0  501  0.00000000000E+00  0.00000000000E+00 -0.29351175273E+03  0.29351175274E+03  0.25500000920E-02 0. -1.
    10030    2    1    2    0    0  0.00000000000E+00  0.00000000000E+00  0.18864224583E+04  0.24734459638E+04  0.15997953758E+04 0.  0.
        1    1    3    3  502    0 -0.46085322889E+03  0.40465457857E+03  0.14925345350E+03  0.63119538967E+03  0.50400001928E-02 0. -1.
       -1    1    3    3    0  502  0.46085322889E+03 -0.40465457857E+03  0.17371690048E+04  0.18422505741E+04  0.50400001928E-02 0.  1.
</event>
<event>
 5   0  0.1090674E-05  0.1599903E+04  0.7818609E-02  0.8820607E-01
        1   -1    0    0  501    0  0.00000000000E+00  0.00000000000E+00  0.15253427891E+04  0.15253427891E+04  0.50400001928E-02 0. -1.
       -1   -1    0    0    0  501  0.00000000000E+00  0.00000000000E+00 -0.41952719478E+03  0.41952719481E+03  0.50400001928E-02 0.  1.
    10030    2    1    2    0    0  0.00000000000E+00  0.00000000000E+00  0.11058155943E+04  0.19448699839E+04  0.15999034739E+04 0.  0.
        4    1    3    3  502    0 -0.73962698908E+03  0.12187955491E+02  0.18274383557E+03  0.76196689664E+03  0.12699999809E+01 0.  1.
       -4    1    3    3    0  502  0.73962698908E+03 -0.12187955491E+02  0.92307175877E+03  0.11829030873E+04  0.12699999809E+01 0. -1.
</event>
<event>
 5   0  0.2046108E-05  0.1589558E+04  0.7818609E-02  0.8826989E-01
       -2   -1    0    0    0  501  0.00000000000E+00  0.00000000000E+00  0.37166344514E+03  0.37166344515E+03  0.25500000920E-02 0. -1.
        2   -1    0    0  501    0  0.00000000000E+00  0.00000000000E+00 -0.16995852892E+04  0.16995852892E+04  0.25500000920E-02 0.  1.
    10030    2    1    2    0    0  0.00000000000E+00  0.00000000000E+00 -0.13279218441E+04  0.20712487344E+04  0.15895580819E+04 0.  0.
        1    1    3    3  502    0  0.17554108547E+03  0.65188290755E+02  0.34250934741E+03  0.39035476048E+03  0.50400001928E-02 0. -1.
       -1    1    3    3    0  502 -0.17554108547E+03 -0.65188290755E+02 -0.16704311915E+04  0.16808939739E+04  0.50400001928E-02 0.  1.
</event>
<event>
 5   0  0.1126485E-05  0.1600714E+04  0.7818609E-02  0.8820110E-01
        1   -1    0    0  501    0  0.00000000000E+00  0.00000000000E+00  0.57498612927E+03  0.57498612929E+03  0.50400001928E-02 0.  1.
       -1   -1    0    0    0  501  0.00000000000E+00  0.00000000000E+00 -0.11140634831E+04  0.11140634831E+04  0.50400001928E-02 0. -1.
    10030    2    1    2    0    0  0.00000000000E+00  0.00000000000E+00 -0.53907735387E+03  0.16890496124E+04  0.16007136533E+04 0.  0.
        2    1    3    3  502    0 -0.57926091699E+03 -0.49756042828E+03 -0.16598926320E+02  0.76379651355E+03  0.25500000920E-02 0.  1.
       -2    1    3    3    0  502  0.57926091699E+03  0.49756042828E+03 -0.52247842755E+03  0.92525309889E+03  0.25500000920E-02 0. -1.
</event>
<event>
 5   0  0.2125803E-05  0.1600335E+04  0.7818609E-02  0.8820342E-01
       -2   -1    0    0    0  501  0.00000000000E+00  0.00000000000E+00  0.41246232052E+03  0.41246232053E+03  0.25500000920E-02 0.  1.
        2   -1    0    0  501    0  0.00000000000E+00  0.00000000000E+00 -0.15523060895E+04  0.15523060895E+04  0.25500000920E-02 0. -1.
    10030    2    1    2    0    0  0.00000000000E+00  0.00000000000E+00 -0.11398437690E+04  0.19647684101E+04  0.16003346798E+04 0.  0.
        3    1    3    3  502    0 -0.55765498509E+03 -0.15943580541E+02 -0.12741628050E+04  0.13909436164E+04  0.10100000352E+00 0. -1.
       -3    1    3    3    0  502  0.55765498509E+03  0.15943580541E+02  0.13431903603E+03  0.57382479364E+03  0.10100000352E+00 0.  1.
</event>
<event>
 5   0  0.1090674E-05  0.1600004E+04  0.7818609E-02  0.8820546E-01
        1   -1    0    0  501    0  0.00000000000E+00  0.00000000000E+00  0.62511878120E+03  0.62511878122E+03  0.50400001928E-02 0.  1.
       -1   -1    0    0    0  501  0.00000000000E+00  0.00000000000E+00 -0.10238104351E+04  0.10238104351E+04  0.50400001928E-02 0. -1.
    10030    2    1    2    0    0  0.00000000000E+00  0.00000000000E+00 -0.39869165390E+03  0.16489292163E+04  0.16000039142E+04 0.  0.
        4    1    3    3  502    0 -0.68408005860E+03 -0.41347065462E+03 -0.23318286193E+03  0.83264600449E+03  0.12699999809E+01 0.  1.
       -4    1    3    3    0  502  0.68408005860E+03  0.41347065462E+03 -0.16550879197E+03  0.81628321183E+03  0.12699999809E+01 0. -1.
</event>
<event>
 5   0  0.1060251E-05  0.1600185E+04  0.7818609E-02  0.8820434E-01
       -1   -1    0    0    0  501  0.00000000000E+00  0.00000000000E+00  0.10043213615E+04  0.10043213615E+04  0.50400001928E-02 0. -1.
        1   -1    0    0  501    0  0.00000000000E+00  0.00000000000E+00 -0.63739391994E+03  0.63739391996E+03  0.50400001928E-02 0.  1.
    10030    2    1    2    0    0  0.00000000000E+00  0.00000000000E+00  0.36692744159E+03  0.16417152815E+04  0.16001854012E+04 0.  0.
        1    1    3    3  502    0 -0.61332303644E+03  0.18510712108E+03  0.67519242086E+03  0.93076022611E+03  0.50400001928E-02 0. -1.
       -1    1    3    3    0  502  0.61332303644E+03 -0.18510712108E+03 -0.30826497927E+03  0.71095505538E+03  0.50400001928E-02 0.  1.
</event>
<event>
 5   0  0.2046108E-05  0.1599930E+04  0.7818609E-02  0.8820591E-01
        2   -1    0    0  501    0  0.00000000000E+00  0.00000000000E+00  0.75417475828E+03  0.75417475828E+03  0.25500000920E-02 0. -1.
       -2   -1    0    0    0  501  0.00000000000E+00  0.00000000000E+00 -0.84853494320E+03  0.84853494320E+03  0.25500000920E-02 0.  1.
    10030    2    1    2    0    0  0.00000000000E+00  0.00000000000E+00 -0.94360184921E+02  0.16027097015E+04  0.15999295431E+04 0.  0.
        1    1    3    3  502    0 -0.69969664057E+03 -0.59394630791E+02  0.33668354274E+03  0.77875472324E+03  0.50400001928E-02 0. -1.
       -1    1    3    3    0  502  0.69969664057E+03  0.59394630791E+02 -0.43104372767E+03  0.82395497824E+03  0.50400001928E-02 0.  1.
</event>
<event>
 5   0  0.1990948E-05  0.1600004E+04  0.7818609E-02  0.8820546E-01
        2   -1    0    0  501    0  0.00000000000E+00  0.00000000000E+00  0.14490516825E+04  0.14490516825E+04  0.25500000920E-02 0.  1.
       -2   -1    0    0    0  501  0.00000000000E+00  0.00000000000E+00 -0.44167020329E+03  0.44167020330E+03  0.25500000920E-02 0. -1.
    10030    2    1    2    0    0  0.00000000000E+00  0.00000000000E+00  0.10073814792E+04  0.18907218858E+04  0.16000036890E+04 0.  0.
        4    1    3    3  502    0  0.74675523679E+03  0.23067597133E+03  0.70543456516E+03  0.10528505716E+04  0.12699999809E+01 0.  1.
       -4    1    3    3    0  502 -0.74675523679E+03 -0.23067597133E+03  0.30194691406E+03  0.83787131425E+03  0.12699999809E+01 0. -1.
</event>
<event>
 5   0  0.1057506E-05  0.1600093E+04  0.7818609E-02  0.8820491E-01
       -1   -1    0    0    0  501  0.00000000000E+00  0.00000000000E+00  0.45052946135E+03  0.45052946138E+03  0.50400001928E-02 0. -1.
        1   -1    0    0  501    0  0.00000000000E+00  0.00000000000E+00 -0.14207160975E+04  0.14207160975E+04  0.50400001928E-02 0.  1.
    10030    2    1    2    0    0  0.00000000000E+00  0.00000000000E+00 -0.97018663615E+03  0.18712455589E+04  0.16000930700E+04 0.  0.
        5    1    3    3  502    0  0.38219743174E+03  0.66828125752E+03 -0.73964285192E+03  0.10675993417E+04  0.46999998093E+01 0.  1.
       -5    1    3    3    0  502 -0.38219743174E+03 -0.66828125752E+03 -0.23054378423E+03  0.80364621720E+03  0.46999998093E+01 0. -1.
</event>
<event>
 5   0  0.2046108E-05  0.1600125E+04  0.7818609E-02  0.8820471E-01
        2   -1    0    0  501    0  0.00000000000E+00  0.00000000000E+00  0.24008414996E+04  0.24008414996E+04  0.25500000920E-02 0. -1.
       -2   -1    0    0    0  501  0.00000000000E+00  0.00000000000E+00 -0.26661484588E+03  0.26661484589E+03  0.25500000920E-02 0.  1.
    10030    2    1    2    0    0  0.00000000000E+00  0.00000000000E+00  0.21342266537E+04  0.26674563455E+04  0.16001249781E+04 0.  0.
        1    1    3    3  502    0 -0.43014643912E+03  0.35618273211E+03  0.11208132671E+03  0.56960891984E+03  0.50400001928E-02 0.  1.
       -1    1    3    3    0  502  0.43014643912E+03 -0.35618273211E+03  0.20221453270E+04  0.20978474256E+04  0.50400001928E-02 0. -1.
</event>
<event>
 5   0  0.2125803E-05  0.1599660E+04  0.7818609E-02  0.8820757E-01
       -2   -1    0    0    0  501  0.00000000000E+00  0.00000000000E+00  0.12192325713E+04  0.12192325713E+04  0.25500000920E-02 0.  1.
        2   -1    0    0  501    0  0.00000000000E+00  0.00000000000E+00 -0.52469732814E+03  0.52469732815E+03  0.25500000920E-02 0. -1.
    10030    2    1    2    0    0  0.00000000000E+00  0.00000000000E+00  0.69453524312E+03  0.17439298994E+04  0.15996600545E+04 0.  0.
        3    1    3    3  502    0 -0.16300861508E+03 -0.19893555951E+02 -0.50612071814E+03  0.53209562457E+03  0.10100000352E+00 0. -1.
       -3    1    3    3    0  502  0.16300861508E+03  0.19893555951E+02  0.12006559613E+04  0.12118342748E+04  0.10100000352E+00 0.  1.
</event>
<event>
 5   0  0.1060251E-05  0.1600184E+04  0.7818609E-02  0.8820435E-01
        1   -1    0    0  501    0  0.00000000000E+00  0.00000000000E+00  0.90104076603E+03  0.90104076605E+03  0.50400001928E-02 0.  1.
       -1   -1    0    0    0  501  0.00000000000E+00  0.00000000000E+00 -0.71045340453E+03  0.71045340455E+03  0.50400001928E-02 0. -1.
    10030    2    1    2    0    0  0.00000000000E+00  0.00000000000E+00  0.19058736150E+03  0.16114941706E+04  0.16001843392E+04 0.  0.
        1    1    3    3  502    0  0.79727059096E+03 -0.40331064093E+02  0.41244153134E+02  0.79935478364E+03  0.50400001928E-02 0.  1.
       -1    1    3    3    0  502 -0.79727059096E+03  0.40331064093E+02  0.14934320837E+03  0.81213938696E+03  0.50400001928E-02 0. -1.
</event>
<event>
 5   0  0.1060251E-05  0.1599934E+04  0.7818609E-02  0.8820589E-01
        1   -1    0    0  501    0  0.00000000000E+00  0.00000000000E+00  0.61180703094E+03  0.61180703096E+03  0.50400001928E-02 0.  1.
       -1   -1    0    0    0  501  0.00000000000E+00  0.00000000000E+00 -0.10459950655E+04  0.10459950655E+04  0.50400001928E-02 0. -1.
    10030    2    1    2    0    0  0.00000000000E+00  0.00000000000E+00 -0.43418803452E+03  0.16578020964E+04  0.15999339179E+04 0.  0.
        1    1    3    3  502    0  0.46941619383E+03  0.35967898855E+03 -0.77530611495E+03  0.97510005114E+03  0.50400001928E-02 0. -1.
       -1    1    3    3    0  502 -0.46941619383E+03 -0.35967898855E+03  0.34111808043E+03  0.68270204529E+03  0.50400001928E-02 0.  1.
</event>
<event>
 5   0  0.1081831E-05  0.1599894E+04  0.7818609E-02  0.8820613E-01
       -1   -1    0    0    0  501  0.00000000000E+00  0.00000000000E+00  0.74070366794E+03  0.74070366795E+03  0.50400001928E-02 0. -1.
        1   -1    0    0  501    0  0.00000000000E+00  0.00000000000E+00 -0.86392856959E+03  0.86392856960E+03  0.50400001928E-02 0.  1.
    10030    2    1    2    0    0  0.00000000000E+00  0.00000000000E+00 -0.12322490165E+03  0.16046322376E+04  0.15998938219E+04 0.  0.
        3    1    3    3  502    0  0.52126775933E+03 -0.47462356691E+03 -0.44078960588E+03  0.83143435942E+03  0.10100000352E+00 0.  1.
       -3    1    3    3    0  502 -0.52126775933E+03  0.47462356691E+03  0.31756470422E+03  0.77319787813E+03  0.10100000352E+00 0. -1.
</event>
<event>
 5   0  0.1057506E-05  0.1599967E+04  0.7818609E-02  0.8820568E-01
        1   -1    0    0  501    0  0.00000000000E+00  0.00000000000E+00  0.43796781048E+03  0.43796781051E+03  0.50400001928E-02 0. -1.
       -1   -1    0    0    0  501  0.00000000000E+00  0.00000000000E+00 -0.14612337212E+04  0.14612337213E+04  0.50400001928E-02 0.  1.
    10030    2    1    2    0    0  0.00000000000E+00  0.00000000000E+00 -0.10232659108E+04  0.18992015318E+04  0.15999666666E+04 0.  0.
        5    1    3    3  502    0 -0.46533128578E+03  0.17985668153E+03  0.23068019179E+03  0.54965177367E+03  0.46999998093E+01 0. -1.
       -5    1    3    3    0  502  0.46533128578E+03 -0.17985668153E+03 -0.12539461026E+04  0.13495497581E+04  0.46999998093E+01 0.  1.
</event>
<event>
 5   0  0.1057506E-05  0.1599980E+04  0.7818609E-02  0.8820560E-01
        1   -1    0    0  501    0  0.00000000000E+00  0.00000000000E+00  0.12179599947E+04  0.12179599947E+04  0.50400001928E-02 0.  1.
       -1   -1    0    0    0  501  0.00000000000E+00  0.00000000000E+00 -0.52545581541E+03  0.52545581543E+03  0.50400001928E-02 0. -1.
    10030    2    1    2    0    0  0.00000000000E+00  0.00000000000E+00  0.69250417926E+03  0.17434158101E+04  0.15999802026E+04 0.  0.
        5    1    3    3  502    0 -0.73238111466E+03 -0.13784601249E+03  0.66314770987E+03  0.99758237523E+03  0.46999998093E+01 0.  1.
       -5    1    3    3    0  502  0.73238111466E+03  0.13784601249E+03  0.29356469391E+02  0.74583343487E+03  0.46999998093E+01 0. -1.
</event>
<event>
 5   0  0.1990948E-05  0.1599714E+04  0.7818609E-02  0.8820724E-01
       -2   -1    0    0    0  501  0.00000000000E+00  0.00000000000E+00  0.52243438714E+03  0.52243438715E+03  0.25500000920E-02 0.  1.
        2   -1    0    0  501    0  0.00000000000E+00  0.00000000000E+00 -0.12245965044E+04  0.12245965044E+04  0.25500000920E-02 0. -1.
    10030    2    1    2    0    0  0.00000000000E+00  0.00000000000E+00 -0.70216211726E+03  0.17470308916E+04  0.15997141298E+04 0.  0.
        4    1    3    3  502    0  0.67456384585E+03 -0.31455786333E+03 -0.67094709851E+03  0.10020751735E+04  0.12699999809E+01 0. -1.
       -4    1    3    3    0  502 -0.67456384585E+03  0.31455786333E+03 -0.31215018749E+02  0.74495571802E+03  0.12699999809E+01 0.  1.
</event>
<event>
 5   0  0.2046108E-05  0.1599961E+04  0.7818609E-02  0.8820572E-01
        2   -1    0    0  501    0  0.00000000000E+00  0.00000000000E+00  0.17546353249E+04  0.17546353249E+04  0.25500000920E-02 0. -1.
       -2   -1    0    0    0  501  0.00000000000E+00  0.00000000000E+00 -0.36473016126E+03  0.36473016127E+03  0.25500000920E-02 0.  1.
    10030    2    1    2    0    0  0.00000000000E+00  0.00000000000E+00  0.13899051637E+04  0.21193654862E+04  0.15999605308E+04 0.  0.
        1    1    3    3  502    0 -0.66973285952E+02 -0.13998054652E+02 -0.36084725977E+03  0.36727661438E+03  0.50400001928E-02 0.  1.
       -1    1    3    3    0  502  0.66973285952E+02  0.13998054652E+02  0.17507524234E+04  0.17520888718E+04  0.50400001928E-02 0. -1.
</event>
<event>
 5   0  0.1126485E-05  0.1599872E+04  0.7818609E-02  0.8820627E-01
       -1   -1    0    0    0  501  0.00000000000E+00  0.00000000000E+00  0.49463693331E+03  0.49463693334E+03  0.50400001928E-02 0.  1.
        1   -1    0    0  501    0  0.00000000000E+00  0.00000000000E+00 -0.12936713114E+04  0.12936713114E+04  0.50400001928E-02 0. -1.
    10030    2    1    2    0    0  0.00000000000E+00  0.00000000000E+00 -0.79903437811E+03  0.17883082448E+04  0.15998720077E+04 0.  0.
        2    1    3    3  502    0 -0.27195154957E+03  0.67868704434E+03 -0.76227813371E+03  0.10562394154E+04  0.25500000920E-02 0.  1.
       -2    1    3    3    0  502  0.27195154957E+03 -0.67868704434E+03 -0.36756244401E+02  0.73206882939E+03  0.25500000920E-02 0. -1.
</event>
<event>
 5   0  0.1994525E-05  0.1600452E+04  0.7818609E-02  0.8820271E-01
        2   -1    0    0  501    0  0.00000000000E+00  0.00000000000E+00  0.37322126927E+03  0.37322126928E+03  0.25500000920E-02 0. -1.
       -2   -1    0    0    0  501  0.00000000000E+00  0.00000000000E+00 -0.17157684453E+04  0.17157684453E+04  0.25500000920E-02 0.  1.
    10030    2    1    2    0    0  0.00000000000E+00  0.00000000000E+00 -0.13425471760E+04  0.20889897146E+04  0.16004515324E+04 0.  0.
        5    1    3    3  502    0 -0.95206453013E+02 -0.59479005513E+03 -0.13588564458E+04  0.14863890502E+04  0.46999998093E+01 0.  1.
       -5    1    3    3    0  502  0.95206453013E+02  0.59479005513E+03  0.16309269775E+02  0.60260066433E+03  0.46999998093E+01 0. -1.
</event>
<event>
 5   0  0.1126485E-05  0.1599314E+04  0.7818609E-02  0.8820970E-01
        1   -1    0    0  501    0  0.00000000000E+00  0.00000000000E+00  0.82728245144E+03  0.82728245146E+03  0.50400001928E-02 0.  1.
       -1   -1    0    0    0  501  0.00000000000E+00  0.00000000000E+00 -0.77295370273E+03  0.77295370275E+03  0.50400001928E-02 0. -1.
    10030    2    1    2    0    0  0.00000000000E+00  0.00000000000E+00  0.54328748713E+02  0.16002361542E+04  0.15993136454E+04 0.  0.
        2    1    3    3  502    0  0.34279090050E+02 -0.79638630937E+03  0.90799992372E+02  0.80227853541E+03  0.25500000920E-02 0.  1.
       -2    1    3    3    0  502 -0.34279090050E+02  0.79638630937E+03 -0.36471243659E+02  0.79795761879E+03  0.25500000920E-02 0. -1.
</event>
<event>
 5   0  0.2147844E-05  0.1600399E+04  0.7818609E-02  0.8820303E-01
       -2   -1    0    0    0  501  0.00000000000E+00  0.00000000000E+00  0.41329399608E+03  0.41329399608E+03  0.25500000920E-02 0.  1.
        2   -1    0    0  501    0  0.00000000000E+00  0.00000000000E+00 -0.15493078503E+04  0.15493078503E+04  0.25500000920E-02 0. -1.
    10030    2    1    2    0    0  0.00000000000E+00  0.00000000000E+00 -0.11360138542E+04  0.19626018464E+04  0.16003994909E+04 0.  0.
        2    1    3    3  502    0 -0.60107727973E+03  0.51239430171E+03 -0.72542464880E+03  0.10724191054E+04  0.25500000920E-02 0. -1.
       -2    1    3    3    0  502  0.60107727973E+03 -0.51239430171E+03 -0.41058920540E+03  0.89018274092E+03  0.25500000920E-02 0.  1.
</event>
<event>
 5   0  0.2125803E-05  0.1599624E+04  0.7818609E-02  0.8820779E-01
        2   -1    0    0  501    0  0.00000000000E+00  0.00000000000E+00  0.78506160690E+03  0.78506160690E+03  0.25500000920E-02 0.  1.
       -2   -1    0    0    0  501  0.00000000000E+00  0.00000000000E+00 -0.81483974804E+03  0.81483974804E+03  0.25500000920E-02 0. -1.
    10030    2    1    2    0    0  0.00000000000E+00  0.00000000000E+00 -0.29778141144E+02  0.15999013549E+04  0.15996242083E+04 0.  0.
        3    1    3    3  502    0 -0.24312208379E+03  0.74194732163E+03 -0.18842767973E+03  0.80318066236E+03  0.10100000352E+00 0. -1.
       -3    1    3    3    0  502  0.24312208379E+03 -0.74194732163E+03  0.15864953859E+03  0.79672069259E+03  0.10100000352E+00 0.  1.
</event>
<event>
 5   0  0.7597000E-06  0.1599937E+04  0.7818609E-02  0.8820587E-01
       -3   -1    0    0    0  501  0.00000000000E+00  0.00000000000E+00  0.11412374176E+04  0.11412374221E+04  0.10100000352E+00 0.  1.
        3   -1    0    0  501    0  0.00000000000E+00  0.00000000000E+00 -0.56075029691E+03  0.56075030600E+03  0.10100000352E+00 0. -1.
    10030    2    1    2    0    0  0.00000000000E+00  0.00000000000E+00  0.58048712074E+03  0.17019877281E+04  0.15999365392E+04 0.  0.
        5    1    3    3  502    0 -0.40521446768E+02 -0.25712595113E+03 -0.51442445757E+03  0.57655039237E+03  0.46999998093E+01 0. -1.
       -5    1    3    3    0  502  0.40521446768E+02  0.25712595113E+03  0.10949115783E+04  0.11254373357E+04  0.46999998093E+01 0.  1.
</event>
<event>
 5   0  0.2046108E-05  0.1600253E+04  0.7818609E-02  0.8820392E-01
       -2   -1    0    0    0  501  0.00000000000E+00  0.00000000000E+00  0.46839622921E+03  0.46839622922E+03  0.25500000920E-02 0.  1.
        2   -1    0    0  501    0  0.00000000000E+00  0.00000000000E+00 -0.13667970270E+04  0.13667970270E+04  0.25500000920E-02 0. -1.
    10030    2    1    2    0    0  0.00000000000E+00  0.00000000000E+00 -0.89840079777E+03  0.18351932562E+04  0.16002531969E+04 0.  0.
        1    1    3    3  502    0  0.45484304982E+03 -0.31559220220E+03 -0.11116997817E+04  0.12419166811E+04  0.50400001928E-02 0. -1.
       -1    1    3    3    0  502 -0.45484304982E+03  0.31559220220E+03  0.21329898391E+03  0.59327657515E+03  0.50400001928E-02 0.  1.
</event>
<event>
 5   0  0.1990948E-05  0.1599952E+04  0.7818609E-02  0.8820578E-01
        2   -1    0    0  501    0  0.00000000000E+00  0.00000000000E+00  0.13131596480E+04  0.13131596480E+04  0.25500000920E-02 0.  1.
       -2   -1    0    0    0  501  0.00000000000E+00  0.00000000000E+00 -0.48734479345E+03  0.48734479346E+03  0.25500000920E-02 0. -1.
    10030    2    1    2    0    0  0.00000000000E+00  0.00000000000E+00  0.82581485453E+03  0.18005044414E+04  0.15999518960E+04 0.  0.
        4    1    3    3  502    0  0.56588424070E+02  0.54546072247E+01 -0.48506750338E+03  0.48838928961E+03  0.12699999809E+01 0. -1.
       -4    1    3    3    0  502 -0.56588424070E+02 -0.54546072247E+01  0.13108823579E+04  0.13121151518E+04  0.12699999809E+01 0.  1.
</event>
<event>
 5   0  0.1057506E-05  0.1599712E+04  0.7818609E-02  0.8820725E-01
       -1   -1    0    0    0  501  0.00000000000E+00  0.00000000000E+00  0.67459254304E+03  0.67459254305E+03  0.50400001928E-02 0.  1.
        1   -1    0    0  501    0  0.00000000000E+00  0.00000000000E+00 -0.94837924989E+03  0.94837924990E+03  0.50400001928E-02 0. -1.
    10030    2    1    2    0    0  0.00000000000E+00  0.00000000000E+00 -0.27378670685E+03  0.16229717930E+04  0.15997119365E+04 0.  0.
        5    1    3    3  502    0  0.77825095570E+03 -0.15258411929E+03 -0.24228358628E+03  0.82926466806E+03  0.46999998093E+01 0.  1.
       -5    1    3    3    0  502 -0.77825095570E+03  0.15258411929E+03 -0.31503120575E+02  0.79370712490E+03  0.46999998093E+01 0. -1.
</event>
<event>
 5   0  0.1090674E-05  0.1599534E+04  0.7818609E-02  0.8820834E-01
        1   -1    0    0  501    0  0.00000000000E+00  0.00000000000E+00  0.17055167060E+04  0.17055167060E+04  0.50400001928E-02 0.  1.
       -1   -1    0    0    0  501  0.00000000000E+00  0.00000000000E+00 -0.37503424411E+03  0.37503424415E+03  0.50400001928E-02 0. -1.
    10030    2    1    2    0    0  0.00000000000E+00  0.00000000000E+00  0.13304824619E+04  0.20805509501E+04  0.15995338930E+04 0.  0.
        4    1    3    3  502    0  0.20924994877E+03 -0.60225301035E+03  0.12932782244E+04  0.14418961155E+04  0.12699999809E+01 0.  1.
       -4    1    3    3    0  502 -0.20924994877E+03  0.60225301035E+03  0.37204237499E+02  0.63865483458E+03  0.12699999809E+01 0. -1.
</event>
<event>
 5   0  0.1057506E-05  0.1600569E+04  0.7818609E-02  0.8820199E-01
        1   -1    0    0  501    0  0.00000000000E+00  0.00000000000E+00  0.14626872268E+04  0.14626872268E+04  0.50400001928E-02 0. -1.
       -1   -1    0    0    0  501  0.00000000000E+00  0.00000000000E+00 -0.43786209116E+03  0.43786209119E+03  0.50400001928E-02 0.  1.
    10030    2    1    2    0    0  0.00000000000E+00  0.00000000000E+00  0.10248251356E+04  0.19005493180E+04  0.16005690086E+04 0.  0.
        5    1    3    3  502    0 -0.24548302798E+03  0.73457043524E+03  0.75160513820E+03  0.10792534527E+04  0.46999998093E+01 0. -1.
       -5    1    3    3    0  502  0.24548302798E+03 -0.73457043524E+03  0.27321999739E+03  0.82129586528E+03  0.46999998093E+01 0.  1.
</event>
<event>
 5   0  0.2125803E-05  0.1600204E+04  0.7818609E-02  0.8820423E-01
        2   -1    0    0  501    0  0.00000000000E+00  0.00000000000E+00  0.99595824354E+03  0.99595824354E+03  0.25500000920E-02 0.  1.
       -2   -1    0    0    0  501  0.00000000000E+00  0.00000000000E+00 -0.64276090671E+03  0.64276090671E+03  0.25500000920E-02 0. -1.
    10030    2    1    2    0    0  0.00000000000E+00  0.00000000000E+00  0.35319733683E+03  0.16387191503E+04  0.16002037666E+04 0.  0.
        3    1    3    3  502    0 -0.21527510159E+03  0.76191613701E+03  0.58481973046E+02  0.79390158116E+03  0.10100000352E+00 0.  1.
       -3    1    3    3    0  502  0.21527510159E+03 -0.76191613701E+03  0.29471536378E+03  0.84481756909E+03  0.10100000352E+00 0. -1.
</event>
<event>
 5   0  0.2147844E-05  0.1599187E+04  0.7818609E-02  0.8821047E-01
       -2   -1    0    0    0  501  0.00000000000E+00  0.00000000000E+00  0.93450690156E+03  0.93450690157E+03  0.25500000920E-02 0. -1.
        2   -1    0    0  501    0  0.00000000000E+00  0.00000000000E+00 -0.68415755775E+03  0.68415755775E+03  0.25500000920E-02 0.  1.
    10030    2    1    2    0    0  0.00000000000E+00  0.00000000000E+00  0.25034934381E+03  0.16186644593E+04  0.15991872429E+04 0.  0.
        2    1    3    3  502    0 -0.53498728176E+03 -0.59412293299E+03  0.13783736905E+03  0.81129069480E+03  0.25500000920E-02 0. -1.
       -2    1    3    3    0  502  0.53498728176E+03  0.59412293299E+03  0.11251197476E+03  0.80737376452E+03  0.25500000920E-02 0.  1.
</event>
<event>
 5   0  0.1994525E-05  0.1599952E+04  0.7818609E-02  0.8820577E-01
       -2   -1    0    0    0  501  0.00000000000E+00  0.00000000000E+00  0.49339560131E+03  0.49339560132E+03  0.25500000920E-02 0. -1.
        2   -1    0    0  501    0  0.00000000000E+00  0.00000000000E+00 -0.12970559755E+04  0.12970559755E+04  0.25500000920E-02 0.  1.
    10030    2    1    2    0    0  0.00000000000E+00  0.00000000000E+00 -0.80366037420E+03  0.17904515768E+04  0.15999521405E+04 0.  0.
        5    1    3    3  502    0  0.89405159005E+02 -0.79492510033E+03 -0.39471505941E+03  0.89203209904E+03  0.46999998093E+01 0.  1.
       -5    1    3    3    0  502 -0.89405159005E+02  0.79492510033E+03 -0.40894531479E+03  0.89841947779E+03  0.46999998093E+01 0. -1.
</event>
<event>
 5   0  0.1090674E-05  0.1599878E+04  0.7818609E-02  0.8820623E-01
        1   -1    0    0  501    0  0.00000000000E+00  0.00000000000E+00  0.11496919423E+04  0.11496919423E+04  0.50400001928E-02 0. -1.
       -1   -1    0    0    0  501  0.00000000000E+00  0.00000000000E+00 -0.55658572931E+03  0.55658572933E+03  0.50400001928E-02 0.  1.
    10030    2    1    2    0    0  0.00000000000E+00  0.00000000000E+00  0.59310621296E+03  0.17062776716E+04  0.15998776556E+04 0.  0.
        4    1    3    3  502    0  0.43805820722E+03 -0.15564499879E+03  0.99083085003E+03  0.10944714454E+04  0.12699999809E+01 0. -1.
       -4    1    3    3    0  502 -0.43805820722E+03  0.15564499879E+03 -0.39772463707E+03  0.61180622618E+03  0.12699999809E+01 0.  1.
</event>
<event>
 5   0  0.1060251E-05  0.1600057E+04  0.7818609E-02  0.8820513E-01
       -1   -1    0    0    0  501  0.00000000000E+00  0.00000000000E+00  0.11073896876E+04  0.11073896876E+04  0.50400001928E-02 0.  1.
        1   -1    0    0  501    0  0.00000000000E+00  0.00000000000E+00 -0.57797650180E+03  0.57797650183E+03  0.50400001928E-02 0. -1.
    10030    2    1    2    0    0  0.00000000000E+00  0.00000000000E+00  0.52941318582E+03  0.16853661895E+04  0.16000565213E+04 0.  0.
        1    1    3    3  502    0  0.38925953764E+03  0.46361592063E+02 -0.46988103129E+03  0.61193183318E+03  0.50400001928E-02 0. -1.
       -1    1    3    3    0  502 -0.38925953764E+03 -0.46361592063E+02  0.99929421711E+03  0.10734343563E+04  0.50400001928E-02 0.  1.
</event>
<event>
 5   0  0.2147844E-05  0.1600033E+04  0.7818609E-02  0.8820527E-01
       -2   -1    0    0    0  501  0.00000000000E+00  0.00000000000E+00  0.24823423154E+03  0.24823423155E+03  0.25500000920E-02 0.  1.
        2   -1    0    0  501    0  0.00000000000E+00  0.00000000000E+00 -0.25783177337E+04  0.25783177337E+04  0.25500000920E-02 0. -1.
    10030    2    1    2    0    0  0.00000000000E+00  0.00000000000E+00 -0.23300835021E+04  0.28265519652E+04  0.16000334013E+04 0.  0.
        2    1    3    3  502    0  0.68084790900E+03 -0.40704879508E+03 -0.13484928732E+04  0.15645049140E+04  0.25500000920E-02 0. -1.
       -2    1    3    3    0  502 -0.68084790900E+03  0.40704879508E+03 -0.98159062891E+03  0.12620470512E+04  0.25500000920E-02 0.  1.
</event>
<event>
 5   0  0.7597000E-06  0.1599867E+04  0.7818609E-02  0.8820630E-01
       -3   -1    0    0    0  501  0.00000000000E+00  0.00000000000E+00  0.20983014725E+04  0.20983014749E+04  0.10100000352E+00 0.  1.
        3   -1    0    0  501    0  0.00000000000E+00  0.00000000000E+00 -0.30495801510E+03  0.30495803183E+03  0.10100000352E+00 0. -1.
    10030    2    1    2    0    0  0.00000000000E+00  0.00000000000E+00  0.17933434574E+04  0.24032595067E+04  0.15998673384E+04 0.  0.
        3    1    3    3  502    0 -0.10596670397E+03  0.26772797680E+03 -0.22441468864E+03  0.36506050812E+03  0.10100000352E+00 0. -1.
       -3    1    3    3    0  502  0.10596670397E+03 -0.26772797680E+03  0.20177581460E+04  0.20381989986E+04  0.10100000352E+00 0.  1.
</event>
<event>
 5   0  0.1090674E-05  0.1599719E+04  0.7818609E-02  0.8820721E-01
       -1   -1    0    0    0  501  0.00000000000E+00  0.00000000000E+00  0.81562892826E+03  0.81562892828E+03  0.50400001928E-02 0. -1.
        1   -1    0    0  501    0  0.00000000000E+00  0.00000000000E+00 -0.78439490609E+03  0.78439490610E+03  0.50400001928E-02 0.  1.
    10030    2    1    2    0    0  0.00000000000E+00  0.00000000000E+00  0.31234022176E+02  0.16000238344E+04  0.15997189461E+04 0.  0.
        4    1    3    3  502    0 -0.14185134635E+03 -0.35770946405E+03  0.71696082100E+03  0.81370283081E+03  0.12699999809E+01 0. -1.
       -4    1    3    3    0  502  0.14185134635E+03  0.35770946405E+03 -0.68572679882E+03  0.78632100357E+03  0.12699999809E+01 0.  1.
</event>
<event>
 5   0  0.1990948E-05  0.1599532E+04  0.7818609E-02  0.8820835E-01
        2   -1    0    0  501    0  0.00000000000E+00  0.00000000000E+00  0.67896275087E+03  0.67896275088E+03  0.25500000920E-02 0.  1.
       -2   -1    0    0    0  501  0.00000000000E+00  0.00000000000E+00 -0.94206349964E+03  0.94206349964E+03  0.25500000920E-02 0. -1.
    10030    2    1    2    0    0  0.00000000000E+00  0.00000000000E+00 -0.26310074876E+03  0.16210262505E+04  0.15995324632E+04 0.  0.
        4    1    3    3  502    0  0.59332349718E+03  0.29120701437E+03 -0.58792383347E+03  0.88458484295E+03  0.12699999809E+01 0. -1.
       -4    1    3    3    0  502 -0.59332349718E+03 -0.29120701437E+03  0.32482308470E+03  0.73644140757E+03  0.12699999809E+01 0.  1.
</event>
<event>
 5   0  0.1057506E-05  0.1605244E+04  0.7818609E-02  0.8817333E-01
       -1   -1    0    0    0  501  0.00000000000E+00  0.00000000000E+00  0.44088240984E+03  0.44088240986E+03  0.50400001928E-02 0. -1.
        1   -1    0    0  501    0  0.00000000000E+00  0.00000000000E+00 -0.14611660381E+04  0.14611660382E+04  0.50400001928E-02 0.  1.
    10030    2    1    2    0    0  0.00000000000E+00  0.00000000000E+00 -0.10202836283E+04  0.19020484480E+04  0.16052444102E+04 0.  0.
        5    1    3    3  502    0  0.24583693800E+03  0.45951515877E+03 -0.12334047333E+04  0.13389918997E+04  0.46999998093E+01 0.  1.
       -5    1    3    3    0  502 -0.24583693800E+03 -0.45951515877E+03  0.21312110501E+03  0.56305654834E+03  0.46999998093E+01 0. -1.
</event>
<event>
 5   0  0.1994525E-05  0.1601042E+04  0.7818609E-02  0.8819908E-01
       -2   -1    0    0    0  501  0.00000000000E+00  0.00000000000E+00  0.75938395609E+03  0.75938395609E+03  0.25500000920E-02 0.  1.
        2   -1    0    0  501    0  0.00000000000E+00  0.00000000000E+00 -0.84388635832E+03  0.84388635833E+03  0.25500000920E-02 0. -1.
    10030    2    1    2    0    0  0.00000000000E+00  0.00000000000E+00 -0.84502402235E+02  0.16032703144E+04  0.16010418624E+04 0.  0.
        5    1    3    3  502    0 -0.39528949542E+03  0.53772493818E+03  0.40041586108E+03  0.77830382636E+03  0.46999998093E+01 0.  1.
       -5    1    3    3    0  502  0.39528949542E+03 -0.53772493818E+03 -0.48491826331E+03  0.82496648806E+03  0.46999998093E+01 0. -1.
</event>
<event>
 5   0  0.2046108E-05  0.1601157E+04  0.7818609E-02  0.8819838E-01
       -2   -1    0    0    0  501  0.00000000000E+00  0.00000000000E+00  0.30964796046E+03  0.30964796047E+03  0.25500000920E-02 0.  1.
        2   -1    0    0  501    0  0.00000000000E+00  0.00000000000E+00 -0.20698533946E+04  0.20698533946E+04  0.25500000920E-02 0. -1.
    10030    2    1    2    0    0  0.00000000000E+00  0.00000000000E+00 -0.17602054341E+04  0.23795013551E+04  0.16011569343E+04 0.  0.
        1    1    3    3  502    0 -0.16016654326E+03 -0.14588312191E+03  0.26525690734E+03  0.34248566941E+03  0.50400001928E-02 0.  1.
       -1    1    3    3    0  502  0.16016654326E+03  0.14588312191E+03 -0.20254623415E+04  0.20370156857E+04  0.50400001928E-02 0. -1.
</event>
<event>
 5   0  0.1081831E-05  0.1600552E+04  0.7818609E-02  0.8820209E-01
       -1   -1    0    0    0  501  0.00000000000E+00  0.00000000000E+00  0.52645375899E+03  0.52645375902E+03  0.50400001928E-02 0.  1.
        1   -1    0    0  501    0  0.00000000000E+00  0.00000000000E+00 -0.12165207165E+04  0.12165207165E+04  0.50400001928E-02 0. -1.
    10030    2    1    2    0    0  0.00000000000E+00  0.00000000000E+00 -0.69006695749E+03  0.17429744755E+04  0.16005522848E+04 0.  0.
        3    1    3    3  502    0  0.32831044109E+03 -0.11310942214E+03 -0.11302049886E+04  0.11823471628E+04  0.10100000352E+00 0. -1.
       -3    1    3    3    0  502 -0.32831044109E+03  0.11310942214E+03  0.44013803107E+03  0.56062731266E+03  0.10100000352E+00 0.  1.
</event>
<event>
 5   0  0.1090674E-05  0.1606470E+04  0.7818609E-02  0.8816583E-01
       -1   -1    0    0    0  501  0.00000000000E+00  0.00000000000E+00  0.59269373535E+03  0.59269373537E+03  0.50400001928E-02 0.  1.
        1   -1    0    0  501    0  0.00000000000E+00  0.00000000000E+00 -0.10885668317E+04  0.10885668317E+04  0.50400001928E-02 0. -1.
    10030    2    1    2    0    0  0.00000000000E+00  0.00000000000E+00 -0.49587309638E+03  0.16812605671E+04  0.16064703442E+04 0.  0.
        4    1    3    3  502    0  0.47685474262E+03 -0.88871843804E+01  0.42846207384E+03  0.64113242721E+03  0.12699999809E+01 0.  1.
       -4    1    3    3    0  502 -0.47685474262E+03  0.88871843804E+01 -0.92433517022E+03  0.10401281399E+04  0.12699999809E+01 0. -1.
</event>
<event>
 5   0  0.1090674E-05  0.1600039E+04  0.7818609E-02  0.8820524E-01
       -1   -1    0    0    0  501  0.00000000000E+00  0.00000000000E+00  0.76440564644E+03  0.76440564645E+03  0.50400001928E-02 0. -1.
        1   -1    0    0  501    0  0.00000000000E+00  0.00000000000E+00 -0.83729247688E+03  0.83729247690E+03  0.50400001928E-02 0.  1.
    10030    2    1    2    0    0  0.00000000000E+00  0.00000000000E+00 -0.72886830444E+02  0.16016981234E+04  0.16000388709E+04 0.  0.
        4    1    3    3  502    0  0.26931822648E+03  0.23881411987E+03  0.67876582292E+03  0.76830276989E+03  0.12699999809E+01 0. -1.
       -4    1    3    3    0  502 -0.26931822648E+03 -0.23881411987E+03 -0.75165265336E+03  0.83339535346E+03  0.12699999809E+01 0.  1.
</event>
<event>
 5   0  0.1090674E-05  0.1600933E+04  0.7818609E-02  0.8819975E-01
        1   -1    0    0  501    0  0.00000000000E+00  0.00000000000E+00  0.44919116610E+03  0.44919116613E+03  0.50400001928E-02 0.  1.
       -1   -1    0    0    0  501  0.00000000000E+00  0.00000000000E+00 -0.14264446682E+04  0.14264446682E+04  0.50400001928E-02 0. -1.
    10030    2    1    2    0    0  0.00000000000E+00  0.00000000000E+00 -0.97725350207E+03  0.18756358343E+04  0.16009326581E+04 0.  0.
        4    1    3    3  502    0 -0.11359329580E+03  0.72390788110E+02 -0.14130701341E+04  0.14194761992E+04  0.12699999809E+01 0. -1.
       -4    1    3    3    0  502  0.11359329580E+03 -0.72390788110E+02  0.43581663208E+03  0.45615963516E+03  0.12699999809E+01 0.  1.
</event>
<event>
 5   0  0.1081831E-05  0.1602428E+04  0.7818609E-02  0.8819058E-01
        1   -1    0    0  501    0  0.00000000000E+00  0.00000000000E+00  0.79249388242E+03  0.79249388244E+03  0.50400001928E-02 0. -1.
       -1   -1    0    0    0  501  0.00000000000E+00  0.00000000000E+00 -0.81003040653E+03  0.81003040654E+03  0.50400001928E-02 0.  1.
    10030    2    1    2    0    0  0.00000000000E+00  0.00000000000E+00 -0.17536524109E+02  0.16025242890E+04  0.16024283345E+04 0.  0.
        3    1    3    3  502    0  0.20708789898E+03  0.54755838285E+03 -0.55582802966E+03  0.80724865394E+03  0.10100000352E+00 0.  1.
       -3    1    3    3    0  502 -0.20708789898E+03 -0.54755838285E+03  0.53829150556E+03  0.79527563504E+03  0.10100000352E+00 0. -1.
</event>
<event>
 5   0  0.1994525E-05  0.1599210E+04  0.7818609E-02  0.8821034E-01
       -2   -1    0    0    0  501  0.00000000000E+00  0.00000000000E+00  0.41834193652E+03  0.41834193653E+03  0.25500000920E-02 0.  1.
        2   -1    0    0  501    0  0.00000000000E+00  0.00000000000E+00 -0.15283382571E+04  0.15283382571E+04  0.25500000920E-02 0. -1.
    10030    2    1    2    0    0  0.00000000000E+00  0.00000000000E+00 -0.11099963206E+04  0.19466801936E+04  0.15992097875E+04 0.  0.
        5    1    3    3  502    0 -0.51826296355E+03  0.12272989233E+03 -0.12809754365E+04  0.13872920690E+04  0.46999998093E+01 0. -1.
       -5    1    3    3    0  502  0.51826296355E+03 -0.12272989233E+03  0.17097911594E+03  0.55938812460E+03  0.46999998093E+01 0.  1.
</event>
<event>
 5   0  0.2147844E-05  0.1599706E+04  0.7818609E-02  0.8820729E-01
       -2   -1    0    0    0  501  0.00000000000E+00  0.00000000000E+00  0.42783689586E+03  0.42783689586E+03  0.25500000920E-02 0.  1.
        2   -1    0    0  501    0  0.00000000000E+00  0.00000000000E+00 -0.14953472247E+04  0.14953472247E+04  0.25500000920E-02 0. -1.
    10030    2    1    2    0    0  0.00000000000E+00  0.00000000000E+00 -0.10675103289E+04  0.19231841206E+04  0.15997058666E+04 0.  0.
        2    1    3    3  502    0  0.51317155713E+03  0.58673567692E+03 -0.31815707241E+03  0.84191907233E+03  0.25500000920E-02 0.  1.
       -2    1    3    3    0  502 -0.51317155713E+03 -0.58673567692E+03 -0.74935325647E+03  0.10812650483E+04  0.25500000920E-02 0. -1.
</event>
<event>
 5   0  0.1126485E-05  0.1600122E+04  0.7818609E-02  0.8820473E-01
       -1   -1    0    0    0  501  0.00000000000E+00  0.00000000000E+00  0.70832078564E+03  0.70832078566E+03  0.50400001928E-02 0.  1.
        1   -1    0    0  501    0  0.00000000000E+00  0.00000000000E+00 -0.90368266577E+03  0.90368266579E+03  0.50400001928E-02 0. -1.
    10030    2    1    2    0    0  0.00000000000E+00  0.00000000000E+00 -0.19536188013E+03  0.16120034514E+04  0.16001215152E+04 0.  0.
        2    1    3    3  502    0  0.76067937494E+03 -0.24775101755E+03 -0.10688870321E+03  0.80711763271E+03  0.25500000920E-02 0.  1.
       -2    1    3    3    0  502 -0.76067937494E+03  0.24775101755E+03 -0.88473176925E+02  0.80488581873E+03  0.25500000920E-02 0. -1.
</event>
<event>
 5   0  0.1060251E-05  0.1601203E+04  0.7818609E-02  0.8819809E-01
       -1   -1    0    0    0  501  0.00000000000E+00  0.00000000000E+00  0.68423715200E+03  0.68423715202E+03  0.50400001928E-02 0. -1.
        1   -1    0    0  501    0  0.00000000000E+00  0.00000000000E+00 -0.93675548142E+03  0.93675548144E+03  0.50400001928E-02 0.  1.
    10030    2    1    2    0    0  0.00000000000E+00  0.00000000000E+00 -0.25251832942E+03  0.16209926335E+04  0.16012031761E+04 0.  0.
        1    1    3    3  502    0 -0.65461207807E+03  0.35149096588E+03 -0.42810525451E+03  0.85751791866E+03  0.50400001928E-02 0.  1.
       -1    1    3    3    0  502  0.65461207807E+03 -0.35149096588E+03  0.17558692509E+03  0.76347471480E+03  0.50400001928E-02 0. -1.
</event>
<event>
 5   0  0.1081831E-05  0.1600375E+04  0.7818609E-02  0.8820318E-01
        1   -1    0    0  501    0  0.00000000000E+00  0.00000000000E+00  0.69329011398E+03  0.69329011400E+03  0.50400001928E-02 0. -1.
       -1   -1    0    0    0  501  0.00000000000E+00  0.00000000000E+00 -0.92356726149E+03  0.92356726151E+03  0.50400001928E-02 0.  1.
    10030    2    1    2    0    0  0.00000000000E+00  0.00000000000E+00 -0.23027714751E+03  0.16168573755E+04  0.16003750211E+04 0.  0.
        3    1    3    3  502    0  0.20567458367E+03  0.73344740521E+03 -0.36271938454E+03  0.84368980834E+03  0.10100000352E+00 0.  1.
       -3    1    3    3    0  502 -0.20567458367E+03 -0.73344740521E+03  0.13244223702E+03  0.77316756717E+03  0.10100000352E+00 0. -1.
</event>
<event>
 5   0  0.1060251E-05  0.1600307E+04  0.7818609E-02  0.8820359E-01
        1   -1    0    0  501    0  0.00000000000E+00  0.00000000000E+00  0.43512827749E+03  0.43512827752E+03  0.50400001928E-02 0.  1.
       -1   -1    0    0    0  501  0.00000000000E+00  0.00000000000E+00 -0.14713949238E+04  0.14713949238E+04  0.50400001928E-02 0. -1.
    10030    2    1    2    0    0  0.00000000000E+00  0.00000000000E+00 -0.10362666463E+04  0.19065232013E+04  0.16003068940E+04 0.  0.
        1    1    3    3  502    0 -0.47120361500E+03 -0.54964113584E+03 -0.92407964170E+03  0.11739086034E+04  0.50400001928E-02 0.  1.
       -1    1    3    3    0  502  0.47120361500E+03  0.54964113584E+03 -0.11218700460E+03  0.73261459787E+03  0.50400001928E-02 0. -1.
</event>
<event>
 5   0  0.1090674E-05  0.1599806E+04  0.7818609E-02  0.8820667E-01
       -1   -1    0    0    0  501  0.00000000000E+00  0.00000000000E+00  0.18033599604E+04  0.18033599604E+04  0.50400001928E-02 0. -1.
        1   -1    0    0  501    0  0.00000000000E+00  0.00000000000E+00 -0.35480682981E+03  0.35480682985E+03  0.50400001928E-02 0.  1.
    10030    2    1    2    0    0  0.00000000000E+00  0.00000000000E+00  0.14485531306E+04  0.21581667902E+04  0.15998055264E+04 0.  0.
        4    1    3    3  502    0 -0.60179799938E+03  0.45259250820E+03  0.10883665769E+04  0.13234591906E+04  0.12699999809E+01 0.  1.
       -4    1    3    3    0  502  0.60179799938E+03 -0.45259250820E+03  0.36018655363E+03  0.83470759962E+03  0.12699999809E+01 0. -1.
</event>
<event>
 5   0  0.1090674E-05  0.1600511E+04  0.7818609E-02  0.8820234E-01
       -1   -1    0    0    0  501  0.00000000000E+00  0.00000000000E+00  0.12305899943E+04  0.12305899943E+04  0.50400001928E-02 0. -1.
        1   -1    0    0  501    0  0.00000000000E+00  0.00000000000E+00 -0.52040812537E+03  0.52040812540E+03  0.50400001928E-02 0.  1.
    10030    2    1    2    0    0  0.00000000000E+00  0.00000000000E+00  0.71018186889E+03  0.17509981197E+04  0.16005112084E+04 0.  0.
        4    1    3    3  502    0 -0.67262233244E+03  0.10710210192E+03 -0.10455000053E+03  0.68907472588E+03  0.12699999809E+01 0.  1.
       -4    1    3    3    0  502  0.67262233244E+03 -0.10710210192E+03  0.81473186942E+03  0.10619233938E+04  0.12699999809E+01 0. -1.
</event>
<event>
 5   0  0.1081831E-05  0.1600029E+04  0.7818609E-02  0.8820530E-01
       -1   -1    0    0    0  501  0.00000000000E+00  0.00000000000E+00  0.49483913047E+03  0.49483913050E+03  0.50400001928E-02 0.  1.
        1   -1    0    0  501    0  0.00000000000E+00  0.00000000000E+00 -0.12933957517E+04  0.12933957517E+04  0.50400001928E-02 0. -1.
    10030    2    1    2    0    0  0.00000000000E+00  0.00000000000E+00 -0.79855662119E+03  0.17882348822E+04  0.16000285362E+04 0.  0.
        3    1    3    3  502    0 -0.60888565893E+02  0.32095523055E+03  0.41689784889E+03  0.52964469608E+03  0.10100000352E+00 0.  1.
       -3    1    3    3    0  502  0.60888565893E+02 -0.32095523055E+03 -0.12154544701E+04  0.12585901861E+04  0.10100000352E+00 0. -1.
</event>
<event>
 5   0  0.2147844E-05  0.1600219E+04  0.7818609E-02  0.8820414E-01
       -2   -1    0    0    0  501  0.00000000000E+00  0.00000000000E+00  0.63456252901E+03  0.63456252901E+03  0.25500000920E-02 0. -1.
        2   -1    0    0  501    0  0.00000000000E+00  0.00000000000E+00 -0.10088449139E+04  0.10088449139E+04  0.25500000920E-02 0.  1.
    10030    2    1    2    0    0  0.00000000000E+00  0.00000000000E+00 -0.37428238485E+03  0.16434074429E+04  0.16002189599E+04 0.  0.
        2    1    3    3  502    0  0.31652750697E+03  0.71652439198E+03 -0.35456975288E+03  0.85983520318E+03  0.25500000920E-02 0.  1.
       -2    1    3    3    0  502 -0.31652750697E+03 -0.71652439198E+03 -0.19712631978E+02  0.78357223970E+03  0.25500000920E-02 0. -1.
</event>
<event>
 5   0  0.1057506E-05  0.1599753E+04  0.7818609E-02  0.8820700E-01
        1   -1    0    0  501    0  0.00000000000E+00  0.00000000000E+00  0.86957095846E+03  0.86957095847E+03  0.50400001928E-02 0.  1.
       -1   -1    0    0    0  501  0.00000000000E+00  0.00000000000E+00 -0.73576771928E+03  0.73576771930E+03  0.50400001928E-02 0. -1.
    10030    2    1    2    0    0  0.00000000000E+00  0.00000000000E+00  0.13380323918E+03  0.16053386778E+04  0.15997527820E+04 0.  0.
        5    1    3    3  502    0 -0.31223124456E+03 -0.59152023720E+03  0.50706243154E+03  0.83935626558E+03  0.46999998093E+01 0. -1.
       -5    1    3    3    0  502  0.31223124456E+03  0.59152023720E+03 -0.37325919236E+03  0.76598241219E+03  0.46999998093E+01 0.  1.
</event>
<event>
 5   0  0.2046108E-05  0.1603714E+04  0.7818609E-02  0.8818270E-01
        2   -1    0    0  501    0  0.00000000000E+00  0.00000000000E+00  0.19503680360E+04  0.19503680360E+04  0.25500000920E-02 0. -1.
       -2   -1    0    0    0  501  0.00000000000E+00  0.00000000000E+00 -0.32966841040E+03  0.32966841041E+03  0.25500000920E-02 0.  1.
    10030    2    1    2    0    0  0.00000000000E+00  0.00000000000E+00  0.16206996256E+04  0.22800364465E+04  0.16037141019E+04 0.  0.
        1    1    3    3  502    0  0.58296549792E+03 -0.25644270601E+02  0.28443363591E+02  0.58422206851E+03  0.50400001928E-02 0.  1.
       -1    1    3    3    0  502 -0.58296549792E+03  0.25644270601E+02  0.15922562621E+04  0.16958143779E+04  0.50400001928E-02 0. -1.
</event>
<event>
 5   0  0.1081831E-05  0.1599173E+04  0.7818609E-02  0.8821056E-01
        1   -1    0    0  501    0  0.00000000000E+00  0.00000000000E+00  0.12802178294E+04  0.12802178294E+04  0.50400001928E-02 0. -1.
       -1   -1    0    0    0  501  0.00000000000E+00  0.00000000000E+00 -0.49939851668E+03  0.49939851671E+03  0.50400001928E-02 0.  1.
    10030    2    1    2    0    0  0.00000000000E+00  0.00000000000E+00  0.78081931267E+03  0.17796163461E+04  0.15991733928E+04 0.  0.
        3    1    3    3  502    0  0.18442136121E+03  0.75714829299E+03  0.58964785954E+03  0.97722534990E+03  0.10100000352E+00 0. -1.
       -3    1    3    3    0  502 -0.18442136121E+03 -0.75714829299E+03  0.19117145314E+03  0.80239099617E+03  0.10100000352E+00 0.  1.
</event>
<event>
 5   0  0.2046108E-05  0.1599846E+04  0.7818609E-02  0.8820643E-01
        2   -1    0    0  501    0  0.00000000000E+00  0.00000000000E+00  0.79483368331E+03  0.79483368331E+03  0.25500000920E-02 0. -1.
       -2   -1    0    0    0  501  0.00000000000E+00  0.00000000000E+00 -0.80504504534E+03  0.80504504534E+03  0.25500000920E-02 0.  1.
    10030    2    1    2    0    0  0.00000000000E+00  0.00000000000E+00 -0.10211362034E+02  0.15998787287E+04  0.15998461409E+04 0.  0.
        1    1    3    3  502    0  0.49572551491E+03  0.84748994688E+02 -0.62717199932E+03  0.80390975550E+03  0.50400001928E-02 0.  1.
       -1    1    3    3    0  502 -0.49572551491E+03 -0.84748994688E+02  0.61696063729E+03  0.79596897315E+03  0.50400001928E-02 0. -1.
</event>
<event>
 5   0  0.1060251E-05  0.1601297E+04  0.7818609E-02  0.8819752E-01
        1   -1    0    0  501    0  0.00000000000E+00  0.00000000000E+00  0.10620100586E+04  0.10620100587E+04  0.50400001928E-02 0. -1.
       -1   -1    0    0    0  501  0.00000000000E+00  0.00000000000E+00 -0.60360797445E+03  0.60360797447E+03  0.50400001928E-02 0.  1.
    10030    2    1    2    0    0  0.00000000000E+00  0.00000000000E+00  0.45840208420E+03  0.16656180331E+04  0.16012966501E+04 0.  0.
        1    1    3    3  502    0  0.67758805413E+03 -0.38311853540E+03  0.34235768668E+02  0.77915176388E+03  0.50400001928E-02 0.  1.
       -1    1    3    3    0  502 -0.67758805413E+03  0.38311853540E+03  0.42416631553E+03  0.88646626925E+03  0.50400001928E-02 0. -1.
</event>
<event>
 5   0  0.1994525E-05  0.1599999E+04  0.7818609E-02  0.8820549E-01
       -2   -1    0    0    0  501  0.00000000000E+00  0.00000000000E+00  0.25693575078E+03  0.25693575079E+03  0.25500000920E-02 0. -1.
        2   -1    0    0  501    0  0.00000000000E+00  0.00000000000E+00 -0.24908904935E+04  0.24908904935E+04  0.25500000920E-02 0.  1.
    10030    2    1    2    0    0  0.00000000000E+00  0.00000000000E+00 -0.22339547427E+04  0.27478262443E+04  0.15999985238E+04 0.  0.
        5    1    3    3  502    0  0.27364232338E+03 -0.39089469004E+03 -0.14231926590E+02  0.47739230993E+03  0.46999998093E+01 0. -1.
       -5    1    3    3    0  502 -0.27364232338E+03  0.39089469004E+03 -0.22197228161E+04  0.22704339343E+04  0.46999998093E+01 0.  1.
</event>
<event>
 5   0  0.1126485E-05  0.1600036E+04  0.7818609E-02  0.8820526E-01
        1   -1    0    0  501    0  0.00000000000E+00  0.00000000000E+00  0.65935404051E+03  0.65935404053E+03  0.50400001928E-02 0. -1.
       -1   -1    0    0    0  501  0.00000000000E+00  0.00000000000E+00 -0.97069037396E+03  0.97069037398E+03  0.50400001928E-02 0.  1.
    10030    2    1    2    0    0  0.00000000000E+00  0.00000000000E+00 -0.31133633345E+03  0.16300444145E+04  0.16000357748E+04 0.  0.
        2    1    3    3  502    0  0.27567189020E+03  0.67635317562E+03 -0.48825697059E+03  0.87854623017E+03  0.25500000920E-02 0. -1.
       -2    1    3    3    0  502 -0.27567189020E+03 -0.67635317562E+03  0.17692063714E+03  0.75149818434E+03  0.25500000920E-02 0.  1.
</event>
<event>
 5   0  0.2125803E-05  0.1600105E+04  0.7818609E-02  0.8820484E-01
        2   -1    0    0  501    0  0.00000000000E+00  0.00000000000E+00  0.74236178575E+03  0.74236178575E+03  0.25500000920E-02 0.  1.
       -2   -1    0    0    0  501  0.00000000000E+00  0.00000000000E+00 -0.86222604848E+03  0.86222604848E+03  0.25500000920E-02 0. -1.
    10030    2    1    2    0    0  0.00000000000E+00  0.00000000000E+00 -0.11986426273E+03  0.16045878342E+04  0.16001045829E+04 0.  0.
        3    1    3    3  502    0 -0.59476905305E+03 -0.34368148764E+03  0.35135903347E+03  0.77157006941E+03  0.10100000352E+00 0.  1.
       -3    1    3    3    0  502  0.59476905305E+03  0.34368148764E+03 -0.47122329620E+03  0.83301776481E+03  0.10100000352E+00 0. -1.
</event>
<event>
 5   0  0.2147844E-05  0.1599036E+04  0.7818609E-02  0.8821141E-01
       -2   -1    0    0    0  501  0.00000000000E+00  0.00000000000E+00  0.58084568074E+03  0.58084568075E+03  0.25500000920E-02 0. -1.
        2   -1    0    0  501    0  0.00000000000E+00  0.00000000000E+00 -0.11005137442E+04  0.11005137442E+04  0.25500000920E-02 0.  1.
    10030    2    1    2    0    0  0.00000000000E+00  0.00000000000E+00 -0.51966806341E+03  0.16813594249E+04  0.15990355279E+04 0.  0.
        2    1    3    3  502    0  0.56506290178E+03 -0.42234904745E+03  0.13577235898E+03  0.71840722040E+03  0.25500000920E-02 0. -1.
       -2    1    3    3    0  502 -0.56506290178E+03  0.42234904745E+03 -0.65544042239E+03  0.96295220450E+03  0.25500000920E-02 0.  1.
</event>
<event>
 5   0  0.1126485E-05  0.1599802E+04  0.7818609E-02  0.8820670E-01
       -1   -1    0    0    0  501  0.00000000000E+00  0.00000000000E+00  0.41106619320E+03  0.41106619323E+03  0.50400001928E-02 0. -1.
        1   -1    0    0  501    0  0.00000000000E+00  0.00000000000E+00 -0.15565420241E+04  0.15565420241E+04  0.50400001928E-02 0.  1.
    10030    2    1    2    0    0  0.00000000000E+00  0.00000000000E+00 -0.11454758309E+04  0.19676082173E+04  0.15998022433E+04 0.  0.
        2    1    3    3  502    0 -0.40222649453E+03 -0.20350281899E+03  0.23997134131E+03  0.51067190533E+03  0.25500000920E-02 0. -1.
       -2    1    3    3    0  502  0.40222649453E+03  0.20350281899E+03 -0.13854471722E+04  0.14569363120E+04  0.25500000920E-02 0.  1.
</event>
<event>
 5   0  0.1994525E-05  0.1600957E+04  0.7818609E-02  0.8819960E-01
       -2   -1    0    0    0  501  0.00000000000E+00  0.00000000000E+00  0.57260572878E+03  0.57260572878E+03  0.25500000920E-02 0.  1.
        2   -1    0    0  501    0  0.00000000000E+00  0.00000000000E+00 -0.11190348631E+04  0.11190348631E+04  0.25500000920E-02 0. -1.
    10030    2    1    2    0    0  0.00000000000E+00  0.00000000000E+00 -0.54642913433E+03  0.16916405919E+04  0.16009569305E+04 0.  0.
        5    1    3    3  502    0  0.74859944417E+03 -0.27517736846E+03 -0.20139412195E+03  0.82262105144E+03  0.46999998093E+01 0. -1.
       -5    1    3    3    0  502 -0.74859944417E+03  0.27517736846E+03 -0.34503501238E+03  0.86901954045E+03  0.46999998093E+01 0.  1.
</event>
<event>
 5   0  0.1994525E-05  0.1599635E+04  0.7818609E-02  0.8820772E-01
        2   -1    0    0  501    0  0.00000000000E+00  0.00000000000E+00  0.57172437297E+03  0.57172437298E+03  0.25500000920E-02 0.  1.
       -2   -1    0    0    0  501  0.00000000000E+00  0.00000000000E+00 -0.11189105397E+04  0.11189105397E+04  0.25500000920E-02 0. -1.
    10030    2    1    2    0    0  0.00000000000E+00  0.00000000000E+00 -0.54718616669E+03  0.16906349126E+04  0.15996354919E+04 0.  0.
        5    1    3    3  502    0 -0.21304108622E+03 -0.65854356710E+02  0.53819225386E+03  0.58257728485E+03  0.46999998093E+01 0.  1.
       -5    1    3    3    0  502  0.21304108622E+03  0.65854356710E+02 -0.10853784205E+04  0.11080576278E+04  0.46999998093E+01 0. -1.
</event>
<event>
 5   0  0.2125803E-05  0.1599362E+04  0.7818609E-02  0.8820940E-01
        2   -1    0    0  501    0  0.00000000000E+00  0.00000000000E+00  0.11893896430E+04  0.11893896430E+04  0.25500000920E-02 0.  1.
       -2   -1    0    0    0  501  0.00000000000E+00  0.00000000000E+00 -0.53766200021E+03  0.53766200021E+03  0.25500000920E-02 0. -1.
    10030    2    1    2    0    0  0.00000000000E+00  0.00000000000E+00  0.65172764278E+03  0.17270516432E+04  0.15993618909E+04 0.  0.
        3    1    3    3  502    0 -0.37939746252E+03  0.33703579235E+03 -0.34150227100E+03  0.61168568006E+03  0.10100000352E+00 0. -1.
       -3    1    3    3    0  502  0.37939746252E+03 -0.33703579235E+03  0.99322991378E+03  0.11153659631E+04  0.10100000352E+00 0.  1.
</event>
<event>
 5   0  0.2046108E-05  0.1598368E+04  0.7818609E-02  0.8821551E-01
        2   -1    0    0  501    0  0.00000000000E+00  0.00000000000E+00  0.14092549100E+04  0.14092549100E+04  0.25500000920E-02 0. -1.
       -2   -1    0    0    0  501  0.00000000000E+00  0.00000000000E+00 -0.45321459021E+03  0.45321459022E+03  0.25500000920E-02 0.  1.
    10030    2    1    2    0    0  0.00000000000E+00  0.00000000000E+00  0.95604031981E+03  0.18624695002E+04  0.15983677756E+04 0.  0.
        1    1    3    3  502    0 -0.24875624771E+03 -0.46384521445E+02  0.13613427425E+04  0.13846607011E+04  0.50400001928E-02 0. -1.
       -1    1    3    3    0  502  0.24875624771E+03  0.46384521445E+02 -0.40530242273E+03  0.47780879910E+03  0.50400001928E-02 0.  1.
</event>
<event>
 5   0  0.1057506E-05  0.1599932E+04  0.7818609E-02  0.8820590E-01
        1   -1    0    0  501    0  0.00000000000E+00  0.00000000000E+00  0.11693294139E+04  0.11693294139E+04  0.50400001928E-02 0.  1.
       -1   -1    0    0    0  501  0.00000000000E+00  0.00000000000E+00 -0.54727599365E+03  0.54727599367E+03  0.50400001928E-02 0. -1.
    10030    2    1    2    0    0  0.00000000000E+00  0.00000000000E+00  0.62205342027E+03  0.17166054076E+04  0.15999323947E+04 0.  0.
        5    1    3    3  502    0 -0.10493028524E+03  0.66240312199E+03  0.77887012990E+03  0.10278370640E+04  0.46999998093E+01 0. -1.
       -5    1    3    3    0  502  0.10493028524E+03 -0.66240312199E+03 -0.15681670963E+03  0.68876834364E+03  0.46999998093E+01 0.  1.
</event>
<event>
 5   0  0.1060251E-05  0.1600144E+04  0.7818609E-02  0.8820460E-01
        1   -1    0    0  501    0  0.00000000000E+00  0.00000000000E+00  0.99311676409E+03  0.99311676410E+03  0.50400001928E-02 0. -1.
       -1   -1    0    0    0  501  0.00000000000E+00  0.00000000000E+00 -0.64455176543E+03  0.64455176545E+03  0.50400001928E-02 0.  1.
    10030    2    1    2    0    0  0.00000000000E+00  0.00000000000E+00  0.34856499866E+03  0.16376685295E+04  0.16001439480E+04 0.  0.
        1    1    3    3  502    0  0.16281869039E+03 -0.53656288307E+03 -0.40980714044E+03  0.69451533159E+03  0.50400001928E-02 0.  1.
       -1    1    3    3    0  502 -0.16281869039E+03  0.53656288307E+03  0.75837213910E+03  0.94315319796E+03  0.50400001928E-02 0. -1.
</event>
<event>
 5   0  0.2147844E-05  0.1599670E+04  0.7818609E-02  0.8820751E-01
       -2   -1    0    0    0  501  0.00000000000E+00  0.00000000000E+00  0.53217874753E+03  0.53217874753E+03  0.25500000920E-02 0.  1.
        2   -1    0    0  501    0  0.00000000000E+00  0.00000000000E+00 -0.12021067933E+04  0.12021067933E+04  0.25500000920E-02 0. -1.
    10030    2    1    2    0    0  0.00000000000E+00  0.00000000000E+00 -0.66992804578E+03  0.17342855408E+04  0.15996695755E+04 0.  0.
        2    1    3    3  502    0  0.23040807364E+03  0.21614783005E+03 -0.11315968753E+04  0.11748698877E+04  0.25500000920E-02 0. -1.
       -2    1    3    3    0  502 -0.23040807364E+03 -0.21614783005E+03  0.46166882952E+03  0.55941565315E+03  0.25500000920E-02 0.  1.
</event>
<event>
 5   0  0.1126485E-05  0.1600353E+04  0.7818609E-02  0.8820331E-01
        1   -1    0    0  501    0  0.00000000000E+00  0.00000000000E+00  0.77363643805E+03  0.77363643806E+03  0.50400001928E-02 0. -1.
       -1   -1    0    0    0  501  0.00000000000E+00  0.00000000000E+00 -0.82762657007E+03  0.82762657008E+03  0.50400001928E-02 0.  1.
    10030    2    1    2    0    0  0.00000000000E+00  0.00000000000E+00 -0.53990132023E+02  0.16012630081E+04  0.16003525508E+04 0.  0.
        2    1    3    3  502    0  0.67201550459E+03 -0.25193619740E+02  0.40689032716E+03  0.78600209620E+03  0.25500000920E-02 0. -1.
       -2    1    3    3    0  502 -0.67201550459E+03  0.25193619740E+02 -0.46088045919E+03  0.81526091195E+03  0.25500000920E-02 0.  1.
</event>
<event>
 5   0  0.2046108E-05  0.1600219E+04  0.7818609E-02  0.8820413E-01
       -2   -1    0    0    0  501  0.00000000000E+00  0.00000000000E+00  0.52317237158E+03  0.52317237158E+03  0.25500000920E-02 0.  1.
        2   -1    0    0  501    0  0.00000000000E+00  0.00000000000E+00 -0.12236414559E+04  0.12236414559E+04  0.25500000920E-02 0. -1.
    10030    2    1    2    0    0  0.00000000000E+00  0.00000000000E+00 -0.70046908437E+03  0.17468138275E+04  0.16002192381E+04 0.  0.
        1    1    3    3  502    0 -0.54534213048E+03  0.10567566540E+03  0.27837497823E+03  0.62133566939E+03  0.50400001928E-02 0.  1.
       -1    1    3    3    0  502  0.54534213048E+03 -0.10567566540E+03 -0.97884406260E+03  0.11254781581E+04  0.50400001928E-02 0. -1.
</event>
<event>
 5   0  0.1994525E-05  0.1599603E+04  0.7818609E-02  0.8820792E-01
        2   -1    0    0  501    0  0.00000000000E+00  0.00000000000E+00  0.14942522959E+04  0.14942522959E+04  0.25500000920E-02 0.  1.
       -2   -1    0    0    0  501  0.00000000000E+00  0.00000000000E+00 -0.42809508597E+03  0.42809508598E+03  0.25500000920E-02 0. -1.
    10030    2    1    2    0    0  0.00000000000E+00  0.00000000000E+00  0.10661572099E+04  0.19223473819E+04  0.15996025320E+04 0.  0.
        5    1    3    3  502    0  0.38974666013E+03 -0.34559230243E+03  0.12624260874E+04  0.13656786645E+04  0.46999998093E+01 0.  1.
       -5    1    3    3    0  502 -0.38974666013E+03  0.34559230243E+03 -0.19626887751E+03  0.55666871733E+03  0.46999998093E+01 0. -1.
</event>
<event>
 5   0  0.1057506E-05  0.1607173E+04  0.7818609E-02  0.8816153E-01
        1   -1    0    0  501    0  0.00000000000E+00  0.00000000000E+00  0.51469728369E+03  0.51469728372E+03  0.50400001928E-02 0.  1.
       -1   -1    0    0    0  501  0.00000000000E+00  0.00000000000E+00 -0.12546240884E+04  0.12546240884E+04  0.50400001928E-02 0. -1.
    10030    2    1    2    0    0  0.00000000000E+00  0.00000000000E+00 -0.73992680473E+03  0.17693213721E+04  0.16071734323E+04 0.  0.
        5    1    3    3  502    0 -0.60123909455E+03  0.19915422689E+03 -0.91440746296E+03  0.11123461481E+04  0.46999998093E+01 0. -1.
       -5    1    3    3    0  502  0.60123909455E+03 -0.19915422689E+03  0.17448065823E+03  0.65697522403E+03  0.46999998093E+01 0.  1.
</event>
<event>
 5   0  0.1057506E-05  0.1599030E+04  0.7818609E-02  0.8821144E-01
        1   -1    0    0  501    0  0.00000000000E+00  0.00000000000E+00  0.18644284532E+04  0.18644284532E+04  0.50400001928E-02 0.  1.
       -1   -1    0    0    0  501  0.00000000000E+00  0.00000000000E+00 -0.34285258935E+03  0.34285258938E+03  0.50400001928E-02 0. -1.
    10030    2    1    2    0    0  0.00000000000E+00  0.00000000000E+00  0.15215758638E+04  0.22072810426E+04  0.15990298595E+04 0.  0.
        5    1    3    3  502    0  0.79226983432E+03 -0.47258695387E+02  0.89374411566E+03  0.11952930640E+04  0.46999998093E+01 0.  1.
       -5    1    3    3    0  502 -0.79226983432E+03  0.47258695387E+02  0.62783174816E+03  0.10119879785E+04  0.46999998093E+01 0. -1.
</event>
<event>
 5   0  0.2046108E-05  0.1600157E+04  0.7818609E-02  0.8820452E-01
       -2   -1    0    0    0  501  0.00000000000E+00  0.00000000000E+00  0.34758140181E+03  0.34758140182E+03  0.25500000920E-02 0.  1.
        2   -1    0    0  501    0  0.00000000000E+00  0.00000000000E+00 -0.18416558166E+04  0.18416558166E+04  0.25500000920E-02 0. -1.
    10030    2    1    2    0    0  0.00000000000E+00  0.00000000000E+00 -0.14940744148E+04  0.21892372184E+04  0.16001566303E+04 0.  0.
        1    1    3    3  502    0  0.36949261282E+03  0.49945722512E+03 -0.57322632833E+02  0.62391361174E+03  0.50400001928E-02 0.  1.
       -1    1    3    3    0  502 -0.36949261282E+03 -0.49945722512E+03 -0.14367517820E+04  0.15653236067E+04  0.50400001928E-02 0. -1.
</event>
<event>
 5   0  0.1990948E-05  0.1600936E+04  0.7818609E-02  0.8819973E-01
        2   -1    0    0  501    0  0.00000000000E+00  0.00000000000E+00  0.22184839654E+04  0.22184839654E+04  0.25500000920E-02 0.  1.
       -2   -1    0    0    0  501  0.00000000000E+00  0.00000000000E+00 -0.28882291655E+03  0.28882291656E+03  0.25500000920E-02 0. -1.
    10030    2    1    2    0    0  0.00000000000E+00  0.00000000000E+00  0.19296610489E+04  0.25073068820E+04  0.16009359878E+04 0.  0.
        4    1    3    3  502    0 -0.66533032522E+03  0.27715130308E+03  0.15102245936E+04  0.16733969112E+04  0.12699999809E+01 0.  1.
       -4    1    3    3    0  502  0.66533032522E+03 -0.27715130308E+03  0.41943645531E+03  0.83390997080E+03  0.12699999809E+01 0. -1.
</event>
<event>
 5   0  0.1126485E-05  0.1601064E+04  0.7818609E-02  0.8819895E-01
        1   -1    0    0  501    0  0.00000000000E+00  0.00000000000E+00  0.11726216623E+04  0.11726216623E+04  0.50400001928E-02 0.  1.
       -1   -1    0    0    0  501  0.00000000000E+00  0.00000000000E+00 -0.54651149459E+03  0.54651149461E+03  0.50400001928E-02 0. -1.
    10030    2    1    2    0    0  0.00000000000E+00  0.00000000000E+00  0.62611016774E+03  0.17191331570E+04  0.16010636681E+04 0.  0.
        2    1    3    3  502    0 -0.66953890921E+03 -0.22899490699E+03 -0.88890057563E+02  0.71317772029E+03  0.25500000920E-02 0.  1.
       -2    1    3    3    0  502  0.66953890921E+03  0.22899490699E+03  0.71500022530E+03  0.10059554367E+04  0.25500000920E-02 0. -1.
</event>
<event>
 5   0  0.1090674E-05  0.1600996E+04  0.7818609E-02  0.8819936E-01
       -1   -1    0    0    0  501  0.00000000000E+00  0.00000000000E+00  0.96140806221E+03  0.96140806223E+03  0.50400001928E-02 0. -1.
        1   -1    0    0  501    0  0.00000000000E+00  0.00000000000E+00 -0.66651949784E+03  0.66651949786E+03  0.50400001928E-02 0.  1.
    10030    2    1    2    0    0  0.00000000000E+00  0.00000000000E+00  0.29488856438E+03  0.16279275601E+04  0.16009962134E+04 0.  0.
        4    1    3    3  502    0 -0.53492250306E+03 -0.82901297631E+02 -0.45220543368E+03  0.70534110654E+03  0.12699999809E+01 0.  1.
       -4    1    3    3    0  502  0.53492250306E+03  0.82901297631E+02  0.74709399805E+03  0.92258645354E+03  0.12699999809E+01 0. -1.
</event>
<event>
 5   0  0.1994525E-05  0.1600921E+04  0.7818609E-02  0.8819982E-01
        2   -1    0    0  501    0  0.00000000000E+00  0.00000000000E+00  0.14767156326E+04  0.14767156326E+04  0.25500000920E-02 0. -1.
       -2   -1    0    0    0  501  0.00000000000E+00  0.00000000000E+00 -0.43389350014E+03  0.43389350014E+03  0.25500000920E-02 0.  1.
    10030    2    1    2    0    0  0.00000000000E+00  0.00000000000E+00  0.10428221325E+04  0.19106091327E+04  0.16009213779E+04 0.  0.
        5    1    3    3  502    0  0.53803587232E+03 -0.57257517991E+03  0.33888721242E+03  0.85568193232E+03  0.46999998093E+01 0.  1.
       -5    1    3    3    0  502 -0.53803587232E+03  0.57257517991E+03  0.70393492003E+03  0.10549272004E+04  0.46999998093E+01 0. -1.
</event>
<event>
 5   0  0.1060251E-05  0.1600944E+04  0.7818609E-02  0.8819968E-01
       -1   -1    0    0    0  501  0.00000000000E+00  0.00000000000E+00  0.57957153203E+03  0.57957153205E+03  0.50400001928E-02 0. -1.
        1   -1    0    0  501    0  0.00000000000E+00  0.00000000000E+00 -0.11055670548E+04  0.11055670548E+04  0.50400001928E-02 0.  1.
    10030    2    1    2    0    0  0.00000000000E+00  0.00000000000E+00 -0.52599552281E+03  0.16851385869E+04  0.16009437114E+04 0.  0.
        1    1    3    3  502    0  0.60555568671E+02  0.10687240331E+02  0.57708178862E+03  0.58034867518E+03  0.50400001928E-02 0. -1.
       -1    1    3    3    0  502 -0.60555568671E+02 -0.10687240331E+02 -0.11030773114E+04  0.11047899117E+04  0.50400001928E-02 0.  1.
</event>
<event>
 5   0  0.1994525E-05  0.1597500E+04  0.7818609E-02  0.8822086E-01
       -2   -1    0    0    0  501  0.00000000000E+00  0.00000000000E+00  0.11867685189E+04  0.11867685189E+04  0.25500000920E-02 0.  1.
        2   -1    0    0  501    0  0.00000000000E+00  0.00000000000E+00 -0.53759532227E+03  0.53759532227E+03  0.25500000920E-02 0. -1.
    10030    2    1    2    0    0  0.00000000000E+00  0.00000000000E+00  0.64917319659E+03  0.17243638411E+04  0.15974995516E+04 0.  0.
        5    1    3    3  502    0  0.30771230063E+03  0.58605356819E+03 -0.15794113213E+03  0.68052416266E+03  0.46999998093E+01 0. -1.
       -5    1    3    3    0  502 -0.30771230063E+03 -0.58605356819E+03  0.80711432872E+03  0.10438396785E+04  0.46999998093E+01 0.  1.
</event>
<event>
 5   0  0.1126485E-05  0.1599535E+04  0.7818609E-02  0.8820833E-01
        1   -1    0    0  501    0  0.00000000000E+00  0.00000000000E+00  0.69889016386E+03  0.69889016388E+03  0.50400001928E-02 0.  1.
       -1   -1    0    0    0  501  0.00000000000E+00  0.00000000000E+00 -0.91520591656E+03  0.91520591658E+03  0.50400001928E-02 0. -1.
    10030    2    1    2    0    0  0.00000000000E+00  0.00000000000E+00 -0.21631575270E+03  0.16140960805E+04  0.15995354488E+04 0.  0.
        2    1    3    3  502    0  0.19617640632E+03  0.39470436579E+03 -0.78157951621E+03  0.89729775378E+03  0.25500000920E-02 0. -1.
       -2    1    3    3    0  502 -0.19617640632E+03 -0.39470436579E+03  0.56526376351E+03  0.71679832667E+03  0.25500000920E-02 0.  1.
</event>
<event>
 5   0  0.2046108E-05  0.1600173E+04  0.7818609E-02  0.8820442E-01
        2   -1    0    0  501    0  0.00000000000E+00  0.00000000000E+00  0.45062928958E+03  0.45062928958E+03  0.25500000920E-02 0. -1.
       -2   -1    0    0    0  501  0.00000000000E+00  0.00000000000E+00 -0.14205426215E+04  0.14205426215E+04  0.25500000920E-02 0.  1.
    10030    2    1    2    0    0  0.00000000000E+00  0.00000000000E+00 -0.96991333190E+03  0.18711719111E+04  0.16001726311E+04 0.  0.
        1    1    3    3  502    0  0.21091145489E+03 -0.36199884726E+03 -0.12820179929E+04  0.13487390190E+04  0.50400001928E-02 0.  1.
       -1    1    3    3    0  502 -0.21091145489E+03  0.36199884726E+03  0.31210466103E+03  0.52243289204E+03  0.50400001928E-02 0. -1.
</event>
<event>
 5   0  0.2147844E-05  0.1600323E+04  0.7818609E-02  0.8820350E-01
       -2   -1    0    0    0  501  0.00000000000E+00  0.00000000000E+00  0.46417360138E+03  0.46417360139E+03  0.25500000920E-02 0. -1.
        2   -1    0    0  501    0  0.00000000000E+00  0.00000000000E+00 -0.13793514635E+04  0.13793514635E+04  0.25500000920E-02 0.  1.
    10030    2    1    2    0    0  0.00000000000E+00  0.00000000000E+00 -0.91517786209E+03  0.18435250649E+04  0.16003231378E+04 0.  0.
        2    1    3    3  502    0  0.53074859417E+03  0.19322517940E+03 -0.11104915259E+04  0.12458818039E+04  0.25500000920E-02 0.  1.
       -2    1    3    3    0  502 -0.53074859417E+03 -0.19322517940E+03  0.19531366377E+03  0.59764326101E+03  0.25500000920E-02 0. -1.
</event>
<event>
 5   0  0.7597000E-06  0.1599060E+04  0.7818609E-02  0.8821126E-01
       -3   -1    0    0    0  501  0.00000000000E+00  0.00000000000E+00  0.63448133106E+03  0.63448133910E+03  0.10100000352E+00 0. -1.
        3   -1    0    0  501    0  0.00000000000E+00  0.00000000000E+00 -0.10075130255E+04  0.10075130306E+04  0.10100000352E+00 0.  1.
    10030    2    1    2    0    0  0.00000000000E+00  0.00000000000E+00 -0.37303169446E+03  0.16419943697E+04  0.15990599942E+04 0.  0.
        4    1    3    3  502    0  0.56795799385E+03  0.47269825770E+03  0.12701264174E+03  0.74976913091E+03  0.12699999809E+01 0. -1.
       -4    1    3    3    0  502 -0.56795799385E+03 -0.47269825770E+03 -0.50004433620E+03  0.89222523876E+03  0.12699999809E+01 0.  1.
</event>
<event>
 5   0  0.1090674E-05  0.1599596E+04  0.7818609E-02  0.8820796E-01
        1   -1    0    0  501    0  0.00000000000E+00  0.00000000000E+00  0.96742277122E+03  0.96742277123E+03  0.50400001928E-02 0.  1.
       -1   -1    0    0    0  501  0.00000000000E+00  0.00000000000E+00 -0.66121717827E+03  0.66121717829E+03  0.50400001928E-02 0. -1.
    10030    2    1    2    0    0  0.00000000000E+00  0.00000000000E+00  0.30620559294E+03  0.16286399495E+04  0.15995956427E+04 0.  0.
        4    1    3    3  502    0 -0.71947113041E+03 -0.32649270005E+03  0.26593931733E+02  0.79053465502E+03  0.12699999809E+01 0.  1.
       -4    1    3    3    0  502  0.71947113041E+03  0.32649270005E+03  0.27961166121E+03  0.83810529450E+03  0.12699999809E+01 0. -1.
</event>
<event>
 5   0  0.7597000E-06  0.1600021E+04  0.7818609E-02  0.8820535E-01
       -3   -1    0    0    0  501  0.00000000000E+00  0.00000000000E+00  0.22565244363E+04  0.22565244386E+04  0.10100000352E+00 0. -1.
        3   -1    0    0  501    0  0.00000000000E+00  0.00000000000E+00 -0.28362948931E+03  0.28362950729E+03  0.10100000352E+00 0.  1.
    10030    2    1    2    0    0  0.00000000000E+00  0.00000000000E+00  0.19728949470E+04  0.25401539459E+04  0.16000211239E+04 0.  0.
        5    1    3    3  502    0  0.15519018653E+03 -0.17712732127E+03  0.22002281615E+04  0.22128000665E+04  0.46999998093E+01 0. -1.
       -5    1    3    3    0  502 -0.15519018653E+03  0.17712732127E+03 -0.22733321445E+03  0.32735387935E+03  0.46999998093E+01 0.  1.
</event>
<event>
 5   0  0.1990948E-05  0.1599895E+04  0.7818609E-02  0.8820612E-01
       -2   -1    0    0    0  501  0.00000000000E+00  0.00000000000E+00  0.91605630866E+03  0.91605630866E+03  0.25500000920E-02 0. -1.
        2   -1    0    0  501    0  0.00000000000E+00  0.00000000000E+00 -0.69855547474E+03  0.69855547475E+03  0.25500000920E-02 0.  1.
    10030    2    1    2    0    0  0.00000000000E+00  0.00000000000E+00  0.21750083391E+03  0.16146117834E+04  0.15998951836E+04 0.  0.
        4    1    3    3  502    0  0.42865826744E+03 -0.34398460164E+03  0.69533805356E+03  0.88632383362E+03  0.12699999809E+01 0. -1.
       -4    1    3    3    0  502 -0.42865826744E+03  0.34398460164E+03 -0.47783721965E+03  0.72828794978E+03  0.12699999809E+01 0.  1.
</event>
<event>
 5   0  0.1994525E-05  0.1601143E+04  0.7818609E-02  0.8819846E-01
        2   -1    0    0  501    0  0.00000000000E+00  0.00000000000E+00  0.16285628659E+04  0.16285628659E+04  0.25500000920E-02 0. -1.
       -2   -1    0    0    0  501  0.00000000000E+00  0.00000000000E+00 -0.39354596056E+03  0.39354596057E+03  0.25500000920E-02 0.  1.
    10030    2    1    2    0    0  0.00000000000E+00  0.00000000000E+00  0.12350169053E+04  0.20221088265E+04  0.16011425138E+04 0.  0.
        5    1    3    3  502    0 -0.21224715707E+03 -0.34879621808E+03  0.14871659669E+04  0.15422037351E+04  0.46999998093E+01 0. -1.
       -5    1    3    3    0  502  0.21224715707E+03  0.34879621808E+03 -0.25214906160E+03  0.47990509134E+03  0.46999998093E+01 0.  1.
</event>
<event>
 5   0  0.1060251E-05  0.1600197E+04  0.7818609E-02  0.8820427E-01
        1   -1    0    0  501    0  0.00000000000E+00  0.00000000000E+00  0.57391634523E+03  0.57391634525E+03  0.50400001928E-02 0.  1.
       -1   -1    0    0    0  501  0.00000000000E+00  0.00000000000E+00 -0.11154198103E+04  0.11154198103E+04  0.50400001928E-02 0. -1.
    10030    2    1    2    0    0  0.00000000000E+00  0.00000000000E+00 -0.54150346503E+03  0.16893361555E+04  0.16001970640E+04 0.  0.
        1    1    3    3  502    0 -0.63561294683E+03  0.20430129173E+03 -0.73623845431E+03  0.99387619833E+03  0.50400001928E-02 0. -1.
       -1    1    3    3    0  502  0.63561294683E+03 -0.20430129173E+03  0.19473498927E+03  0.69545995719E+03  0.50400001928E-02 0.  1.
</event>
<event>
 5   0  0.1990948E-05  0.1600271E+04  0.7818609E-02  0.8820382E-01
       -2   -1    0    0    0  501  0.00000000000E+00  0.00000000000E+00  0.85955078649E+03  0.85955078650E+03  0.25500000920E-02 0. -1.
        2   -1    0    0  501    0  0.00000000000E+00  0.00000000000E+00 -0.74482683508E+03  0.74482683508E+03  0.25500000920E-02 0.  1.
    10030    2    1    2    0    0  0.00000000000E+00  0.00000000000E+00  0.11472395142E+03  0.16043776216E+04  0.16002705920E+04 0.  0.
        4    1    3    3  502    0  0.38347406599E+02 -0.79207375737E+03  0.16423536419E+03  0.80983098758E+03  0.12699999809E+01 0. -1.
       -4    1    3    3    0  502 -0.38347406599E+02  0.79207375737E+03 -0.49511412769E+02  0.79454663400E+03  0.12699999809E+01 0.  1.
</event>
<event>
 5   0  0.7597000E-06  0.1600280E+04  0.7818609E-02  0.8820376E-01
        3   -1    0    0  501    0  0.00000000000E+00  0.00000000000E+00  0.48986907161E+03  0.48986908202E+03  0.10100000352E+00 0.  1.
       -3   -1    0    0    0  501  0.00000000000E+00  0.00000000000E+00 -0.13069287170E+04  0.13069287210E+04  0.10100000352E+00 0. -1.
    10030    2    1    2    0    0  0.00000000000E+00  0.00000000000E+00 -0.81705964544E+03  0.17967978030E+04  0.16002799382E+04 0.  0.
        5    1    3    3  502    0 -0.62362617277E+03 -0.49490921912E+03 -0.49805273254E+03  0.93910774298E+03  0.46999998093E+01 0. -1.
       -5    1    3    3    0  502  0.62362617277E+03  0.49490921912E+03 -0.31900691290E+03  0.85769005999E+03  0.46999998093E+01 0.  1.
</event>
<event>
 5   0  0.1081831E-05  0.1601822E+04  0.7818609E-02  0.8819429E-01
       -1   -1    0    0    0  501  0.00000000000E+00  0.00000000000E+00  0.15574589107E+04  0.15574589108E+04  0.50400001928E-02 0.  1.
        1   -1    0    0  501    0  0.00000000000E+00  0.00000000000E+00 -0.41186217827E+03  0.41186217830E+03  0.50400001928E-02 0. -1.
    10030    2    1    2    0    0  0.00000000000E+00  0.00000000000E+00  0.11455967325E+04  0.19693210891E+04  0.16018219871E+04 0.  0.
        3    1    3    3  502    0 -0.29093717693E+02  0.73504902375E+03  0.18340818317E+03  0.75814384095E+03  0.10100000352E+00 0. -1.
       -3    1    3    3    0  502  0.29093717693E+02 -0.73504902375E+03  0.96218854930E+03  0.12111772481E+04  0.10100000352E+00 0.  1.
</event>
<event>
 5   0  0.1126485E-05  0.1600614E+04  0.7818609E-02  0.8820171E-01
        1   -1    0    0  501    0  0.00000000000E+00  0.00000000000E+00  0.11821704237E+04  0.11821704237E+04  0.50400001928E-02 0. -1.
       -1   -1    0    0    0  501  0.00000000000E+00  0.00000000000E+00 -0.54179294984E+03  0.54179294987E+03  0.50400001928E-02 0.  1.
    10030    2    1    2    0    0  0.00000000000E+00  0.00000000000E+00  0.64037747384E+03  0.17239633736E+04  0.16006143834E+04 0.  0.
        2    1    3    3  502    0  0.65362507495E+02  0.72844739828E+03 -0.29788520224E+02  0.73198034495E+03  0.25500000920E-02 0.  1.
       -2    1    3    3    0  502 -0.65362507495E+02 -0.72844739828E+03  0.67016599406E+03  0.99198302861E+03  0.25500000920E-02 0. -1.
</event>
<event>
 5   0  0.1126485E-05  0.1599892E+04  0.7818609E-02  0.8820614E-01
       -1   -1    0    0    0  501  0.00000000000E+00  0.00000000000E+00  0.85778900465E+03  0.85778900466E+03  0.50400001928E-02 0. -1.
        1   -1    0    0  501    0  0.00000000000E+00  0.00000000000E+00 -0.74600351867E+03  0.74600351869E+03  0.50400001928E-02 0.  1.
    10030    2    1    2    0    0  0.00000000000E+00  0.00000000000E+00  0.11178548598E+03  0.16037925233E+04  0.15998920161E+04 0.  0.
        2    1    3    3  502    0  0.19833717122E+02  0.13499312612E+03  0.84603843204E+03  0.85696998135E+03  0.25500000920E-02 0. -1.
       -2    1    3    3    0  502 -0.19833717122E+02 -0.13499312612E+03 -0.73425294606E+03  0.74682254200E+03  0.25500000920E-02 0.  1.
</event>
<event>
 5   0  0.1060251E-05  0.1600341E+04  0.7818609E-02  0.8820339E-01
        1   -1    0    0  501    0  0.00000000000E+00  0.00000000000E+00  0.15915438116E+04  0.15915438116E+04  0.50400001928E-02 0. -1.
       -1   -1    0    0    0  501  0.00000000000E+00  0.00000000000E+00 -0.40229668840E+03  0.40229668844E+03  0.50400001928E-02 0.  1.
    10030    2    1    2    0    0  0.00000000000E+00  0.00000000000E+00  0.11892471232E+04  0.19938405001E+04  0.16003409698E+04 0.  0.
        1    1    3    3  502    0  0.27654036347E+02  0.57141878584E+02 -0.39915437904E+03  0.40417095188E+03  0.50400001928E-02 0.  1.
       -1    1    3    3    0  502 -0.27654036347E+02 -0.57141878584E+02  0.15884015023E+04  0.15896695482E+04  0.50400001928E-02 0. -1.
</event>
<event>
 5   0  0.1057506E-05  0.1599702E+04  0.7818609E-02  0.8820731E-01
        1   -1    0    0  501    0  0.00000000000E+00  0.00000000000E+00  0.73679444072E+03  0.73679444073E+03  0.50400001928E-02 0.  1.
       -1   -1    0    0    0  501  0.00000000000E+00  0.00000000000E+00 -0.86830460169E+03  0.86830460170E+03  0.50400001928E-02 0. -1.
    10030    2    1    2    0    0  0.00000000000E+00  0.00000000000E+00 -0.13151016097E+03  0.16050990424E+04  0.15997024766E+04 0.  0.
        5    1    3    3  502    0  0.74725746670E+02  0.59153597251E+03  0.46918619529E+03  0.75872031727E+03  0.46999998093E+01 0.  1.
       -5    1    3    3    0  502 -0.74725746670E+02 -0.59153597251E+03 -0.60069635626E+03  0.84637872516E+03  0.46999998093E+01 0. -1.
</event>
<event>
 5   0  0.1126485E-05  0.1600132E+04  0.7818609E-02  0.8820467E-01
        1   -1    0    0  501    0  0.00000000000E+00  0.00000000000E+00  0.41345582251E+03  0.41345582255E+03  0.50400001928E-02 0. -1.
       -1   -1    0    0    0  501  0.00000000000E+00  0.00000000000E+00 -0.15481838866E+04  0.15481838866E+04  0.50400001928E-02 0.  1.
    10030    2    1    2    0    0  0.00000000000E+00  0.00000000000E+00 -0.11347280641E+04  0.19616397092E+04  0.16001320474E+04 0.  0.
        2    1    3    3  502    0 -0.30927184029E+03  0.73563923636E+03 -0.63769706750E+03  0.10215046291E+04  0.25500000920E-02 0.  1.
       -2    1    3    3    0  502  0.30927184029E+03 -0.73563923636E+03 -0.49703099659E+03  0.94013508010E+03  0.25500000920E-02 0. -1.
</event>
<event>
 5   0  0.1990948E-05  0.1601442E+04  0.7818609E-02  0.8819663E-01
        2   -1    0    0  501    0  0.00000000000E+00  0.00000000000E+00  0.50129781153E+03  0.50129781154E+03  0.25500000920E-02 0. -1.
       -2   -1    0    0    0  501  0.00000000000E+00  0.00000000000E+00 -0.12789885640E+04  0.12789885640E+04  0.25500000920E-02 0.  1.
    10030    2    1    2    0    0  0.00000000000E+00  0.00000000000E+00 -0.77769075250E+03  0.17802863756E+04  0.16014420603E+04 0.  0.
        4    1    3    3  502    0  0.30270437190E+03  0.41392581757E+03 -0.10724933493E+04  0.11887843019E+04  0.12699999809E+01 0.  1.
       -4    1    3    3    0  502 -0.30270437190E+03 -0.41392581757E+03  0.29480259678E+03  0.59150207370E+03  0.12699999809E+01 0. -1.
</event>
<event>
 5   0  0.1990948E-05  0.1599467E+04  0.7818609E-02  0.8820876E-01
       -2   -1    0    0    0  501  0.00000000000E+00  0.00000000000E+00  0.12488024999E+04  0.12488024999E+04  0.25500000920E-02 0.  1.
        2   -1    0    0  501    0  0.00000000000E+00  0.00000000000E+00 -0.51214948299E+03  0.51214948299E+03  0.25500000920E-02 0. -1.
    10030    2    1    2    0    0  0.00000000000E+00  0.00000000000E+00  0.73665301689E+03  0.17609519829E+04  0.15994668545E+04 0.  0.
        4    1    3    3  502    0  0.46883584450E+02 -0.76317175437E+03  0.11026249667E+03  0.77252095650E+03  0.12699999809E+01 0. -1.
       -4    1    3    3    0  502 -0.46883584450E+02  0.76317175437E+03  0.62639052022E+03  0.98843102637E+03  0.12699999809E+01 0.  1.
</event>
<event>
 5   0  0.2046108E-05  0.1600885E+04  0.7818609E-02  0.8820004E-01
       -2   -1    0    0    0  501  0.00000000000E+00  0.00000000000E+00  0.11977928078E+04  0.11977928078E+04  0.25500000920E-02 0.  1.
        2   -1    0    0  501    0  0.00000000000E+00  0.00000000000E+00 -0.53490749911E+03  0.53490749911E+03  0.25500000920E-02 0. -1.
    10030    2    1    2    0    0  0.00000000000E+00  0.00000000000E+00  0.66288530873E+03  0.17327003069E+04  0.16008851992E+04 0.  0.
        1    1    3    3  502    0  0.16925175103E+03  0.51585028535E+03  0.96805731515E+03  0.11099020847E+04  0.50400001928E-02 0.  1.
       -1    1    3    3    0  502 -0.16925175103E+03 -0.51585028535E+03 -0.30517200643E+03  0.62279822227E+03  0.50400001928E-02 0. -1.
</event>
<event>
 5   0  0.1090674E-05  0.1600082E+04  0.7818609E-02  0.8820498E-01
       -1   -1    0    0    0  501  0.00000000000E+00  0.00000000000E+00  0.48473365828E+03  0.48473365831E+03  0.50400001928E-02 0. -1.
        1   -1    0    0  501    0  0.00000000000E+00  0.00000000000E+00 -0.13204476959E+04  0.13204476960E+04  0.50400001928E-02 0.  1.
    10030    2    1    2    0    0  0.00000000000E+00  0.00000000000E+00 -0.83571403767E+03  0.18051813543E+04  0.16000818007E+04 0.  0.
        4    1    3    3  502    0  0.28337845486E+03 -0.33900550955E+03  0.33459444687E+03  0.55424104951E+03  0.12699999809E+01 0. -1.
       -4    1    3    3    0  502 -0.28337845486E+03  0.33900550955E+03 -0.11703084845E+04  0.12509403048E+04  0.12699999809E+01 0.  1.
</event>
<event>
 5   0  0.1090674E-05  0.1600035E+04  0.7818609E-02  0.8820527E-01
       -1   -1    0    0    0  501  0.00000000000E+00  0.00000000000E+00  0.45794721708E+03  0.45794721711E+03  0.50400001928E-02 0. -1.
        1   -1    0    0  501    0  0.00000000000E+00  0.00000000000E+00 -0.13976018309E+04  0.13976018310E+04  0.50400001928E-02 0.  1.
    10030    2    1    2    0    0  0.00000000000E+00  0.00000000000E+00 -0.93965461386E+03  0.18555490481E+04  0.16000348360E+04 0.  0.
        4    1    3    3  502    0 -0.10036568711E+03  0.62813526926E+03 -0.10324864370E+04  0.12127064951E+04  0.12699999809E+01 0.  1.
       -4    1    3    3    0  502  0.10036568711E+03 -0.62813526926E+03  0.92831823162E+02  0.64284255299E+03  0.12699999809E+01 0. -1.
</event>
<event>
 5   0  0.1994525E-05  0.1600921E+04  0.7818609E-02  0.8819982E-01
        2   -1    0    0  501    0  0.00000000000E+00  0.00000000000E+00  0.80358735793E+03  0.80358735794E+03  0.25500000920E-02 0. -1.
       -2   -1    0    0    0  501  0.00000000000E+00  0.00000000000E+00 -0.79734617360E+03  0.79734617360E+03  0.25500000920E-02 0.  1.
    10030    2    1    2    0    0  0.00000000000E+00  0.00000000000E+00  0.62411843331E+01  0.16009335315E+04  0.16009213660E+04 0.  0.
        5    1    3    3  502    0  0.25218501603E+03  0.21330982257E+03 -0.72600555052E+03  0.79762429257E+03  0.46999998093E+01 0.  1.
       -5    1    3    3    0  502 -0.25218501603E+03 -0.21330982257E+03  0.73224673485E+03  0.80330923897E+03  0.46999998093E+01 0. -1.
</event>
<event>
 5   0  0.1057506E-05  0.1599829E+04  0.7818609E-02  0.8820653E-01
        1   -1    0    0  501    0  0.00000000000E+00  0.00000000000E+00  0.55270516932E+03  0.55270516934E+03  0.50400001928E-02 0. -1.
       -1   -1    0    0    0  501  0.00000000000E+00  0.00000000000E+00 -0.11576929779E+04  0.11576929779E+04  0.50400001928E-02 0.  1.
    10030    2    1    2    0    0  0.00000000000E+00  0.00000000000E+00 -0.60498780855E+03  0.17103981472E+04  0.15998286075E+04 0.  0.
        5    1    3    3  502    0 -0.43444754858E+03  0.34296712612E+03  0.31488521410E+03  0.63682486613E+03  0.46999998093E+01 0.  1.
       -5    1    3    3    0  502  0.43444754858E+03 -0.34296712612E+03 -0.91987302265E+03  0.10735732811E+04  0.46999998093E+01 0. -1.
</event>
<event>
 5   0  0.1057506E-05  0.1600498E+04  0.7818609E-02  0.8820242E-01
       -1   -1    0    0    0  501  0.00000000000E+00  0.00000000000E+00  0.38102014689E+03  0.38102014692E+03  0.50400001928E-02 0. -1.
        1   -1    0    0  501    0  0.00000000000E+00  0.00000000000E+00 -0.16807462636E+04  0.16807462637E+04  0.50400001928E-02 0.  1.
    10030    2    1    2    0    0  0.00000000000E+00  0.00000000000E+00 -0.12997261168E+04  0.20617664106E+04  0.16004976580E+04 0.  0.
        5    1    3    3  502    0  0.66759613530E+03  0.92149310842E+02 -0.12057343674E+04  0.13813013973E+04  0.46999998093E+01 0.  1.
       -5    1    3    3    0  502 -0.66759613530E+03 -0.92149310842E+02 -0.93991749313E+02  0.68046501327E+03  0.46999998093E+01 0. -1.
</event>
<event>
 5   0  0.2147844E-05  0.1600138E+04  0.7818609E-02  0.8820463E-01
       -2   -1    0    0    0  501  0.00000000000E+00  0.00000000000E+00  0.15404719598E+04  0.15404719598E+04  0.25500000920E-02 0.  1.
        2   -1    0    0  501    0  0.00000000000E+00  0.00000000000E+00 -0.41552854497E+03  0.41552854498E+03  0.25500000920E-02 0. -1.
    10030    2    1    2    0    0  0.00000000000E+00  0.00000000000E+00  0.11249434148E+04  0.19560005048E+04  0.16001375841E+04 0.  0.
        2    1    3    3  502    0  0.55470247701E+03  0.17982995102E+02  0.12669064101E+04  0.13831377654E+04  0.25500000920E-02 0.  1.
       -2    1    3    3    0  502 -0.55470247701E+03 -0.17982995102E+02 -0.14196299528E+03  0.57286273937E+03  0.25500000920E-02 0. -1.
</event>
<event>
 5   0  0.1081831E-05  0.1599919E+04  0.7818609E-02  0.8820598E-01
       -1   -1    0    0    0  501  0.00000000000E+00  0.00000000000E+00  0.91680058000E+03  0.91680058001E+03  0.50400001928E-02 0.  1.
        1   -1    0    0  501    0  0.00000000000E+00  0.00000000000E+00 -0.69800897669E+03  0.69800897670E+03  0.50400001928E-02 0. -1.
    10030    2    1    2    0    0  0.00000000000E+00  0.00000000000E+00  0.21879160331E+03  0.16148095567E+04  0.15999187913E+04 0.  0.
        3    1    3    3  502    0 -0.46565693829E+03  0.21503128573E+03 -0.51020718288E+03  0.72345436462E+03  0.10100000352E+00 0. -1.
       -3    1    3    3    0  502  0.46565693829E+03 -0.21503128573E+03  0.72899878618E+03  0.89135519210E+03  0.10100000352E+00 0.  1.
</event>
<event>
 5   0  0.2125803E-05  0.1600016E+04  0.7818609E-02  0.8820538E-01
       -2   -1    0    0    0  501  0.00000000000E+00  0.00000000000E+00  0.60555734023E+03  0.60555734024E+03  0.25500000920E-02 0.  1.
        2   -1    0    0  501    0  0.00000000000E+00  0.00000000000E+00 -0.10568982580E+04  0.10568982580E+04  0.25500000920E-02 0. -1.
    10030    2    1    2    0    0  0.00000000000E+00  0.00000000000E+00 -0.45134091772E+03  0.16624555982E+04  0.16000156224E+04 0.  0.
        3    1    3    3  502    0  0.39046959608E+03  0.43554638948E+03 -0.79272029006E+03  0.98517644680E+03  0.10100000352E+00 0. -1.
       -3    1    3    3    0  502 -0.39046959608E+03 -0.43554638948E+03  0.34137937234E+03  0.67727915139E+03  0.10100000352E+00 0.  1.
</event>
<event>
 5   0  0.7597000E-06  0.1601050E+04  0.7818609E-02  0.8819903E-01
       -3   -1    0    0    0  501  0.00000000000E+00  0.00000000000E+00  0.10238907405E+04  0.10238907455E+04  0.10100000352E+00 0.  1.
        3   -1    0    0  501    0  0.00000000000E+00  0.00000000000E+00 -0.62588754274E+03  0.62588755089E+03  0.10100000352E+00 0. -1.
    10030    2    1    2    0    0  0.00000000000E+00  0.00000000000E+00  0.39800319778E+03  0.16497782964E+04  0.16010502434E+04 0.  0.
        5    1    3    3  502    0 -0.71130802174E+03 -0.10503888601E+03  0.56160071556E+03  0.91236490676E+03  0.46999998093E+01 0.  1.
       -5    1    3    3    0  502  0.71130802174E+03  0.10503888601E+03 -0.16359751779E+03  0.73741338962E+03  0.46999998093E+01 0. -1.
</event>
<event>
 5   0  0.1990948E-05  0.1599999E+04  0.7818609E-02  0.8820549E-01
        2   -1    0    0  501    0  0.00000000000E+00  0.00000000000E+00  0.14304846706E+04  0.14304846706E+04  0.25500000920E-02 0. -1.
       -2   -1    0    0    0  501  0.00000000000E+00  0.00000000000E+00 -0.44740032805E+03  0.44740032806E+03  0.25500000920E-02 0.  1.
    10030    2    1    2    0    0  0.00000000000E+00  0.00000000000E+00  0.98308434251E+03  0.18778849986E+04  0.15999991386E+04 0.  0.
        4    1    3    3  502    0 -0.17957111729E+03  0.53582863608E+03 -0.17305396541E+03  0.59102233566E+03  0.12699999809E+01 0.  1.
       -4    1    3    3    0  502  0.17957111729E+03 -0.53582863608E+03  0.11561383079E+04  0.12868626630E+04  0.12699999809E+01 0. -1.
</event>
<event>
 5   0  0.1990948E-05  0.1600385E+04  0.7818609E-02  0.8820311E-01
       -2   -1    0    0    0  501  0.00000000000E+00  0.00000000000E+00  0.26921145468E+03  0.26921145469E+03  0.25500000920E-02 0.  1.
        2   -1    0    0  501    0  0.00000000000E+00  0.00000000000E+00 -0.23784579682E+04  0.23784579682E+04  0.25500000920E-02 0. -1.
    10030    2    1    2    0    0  0.00000000000E+00  0.00000000000E+00 -0.21092465135E+04  0.26476694228E+04  0.16003851155E+04 0.  0.
        4    1    3    3  502    0 -0.68343572742E+03 -0.27212930896E+03 -0.15756074095E+04  0.17388729327E+04  0.12699999809E+01 0. -1.
       -4    1    3    3    0  502  0.68343572742E+03  0.27212930896E+03 -0.53363910398E+03  0.90879649014E+03  0.12699999809E+01 0.  1.
</event>
<event>
 5   0  0.1126485E-05  0.1598483E+04  0.7818609E-02  0.8821480E-01
       -1   -1    0    0    0  501  0.00000000000E+00  0.00000000000E+00  0.32267405762E+03  0.32267405766E+03  0.50400001928E-02 0. -1.
        1   -1    0    0  501    0  0.00000000000E+00  0.00000000000E+00 -0.19796666563E+04  0.19796666563E+04  0.50400001928E-02 0.  1.
    10030    2    1    2    0    0  0.00000000000E+00  0.00000000000E+00 -0.16569925987E+04  0.23023407140E+04  0.15984831219E+04 0.  0.
        2    1    3    3  502    0 -0.78495983510E+03  0.12071055727E+03 -0.69923461343E+03  0.10581408347E+04  0.25500000920E-02 0. -1.
       -2    1    3    3    0  502  0.78495983510E+03 -0.12071055727E+03 -0.95775798528E+03  0.12441998793E+04  0.25500000920E-02 0.  1.
</event>
<event>
 5   0  0.2046108E-05  0.1599775E+04  0.7818609E-02  0.8820686E-01
       -2   -1    0    0    0  501  0.00000000000E+00  0.00000000000E+00  0.70609763181E+03  0.70609763181E+03  0.25500000920E-02 0.  1.
        2   -1    0    0  501    0  0.00000000000E+00  0.00000000000E+00 -0.90613519876E+03  0.90613519876E+03  0.25500000920E-02 0. -1.
    10030    2    1    2    0    0  0.00000000000E+00  0.00000000000E+00 -0.20003756695E+03  0.16122328306E+04  0.15997748816E+04 0.  0.
        1    1    3    3  502    0  0.64110320379E+03  0.43512500345E+03 -0.30024365644E+03  0.83095928889E+03  0.50400001928E-02 0. -1.
       -1    1    3    3    0  502 -0.64110320379E+03 -0.43512500345E+03  0.10020608949E+03  0.78127354168E+03  0.50400001928E-02 0.  1.
</event>
<event>
 5   0  0.1060251E-05  0.1600835E+04  0.7818609E-02  0.8820035E-01
        1   -1    0    0  501    0  0.00000000000E+00  0.00000000000E+00  0.13336099414E+04  0.13336099414E+04  0.50400001928E-02 0. -1.
       -1   -1    0    0    0  501  0.00000000000E+00  0.00000000000E+00 -0.48040172606E+03  0.48040172609E+03  0.50400001928E-02 0.  1.
    10030    2    1    2    0    0  0.00000000000E+00  0.00000000000E+00  0.85320821537E+03  0.18140116675E+04  0.16008354291E+04 0.  0.
        1    1    3    3  502    0  0.35811854364E+03 -0.71295056653E+03  0.49934871706E+03  0.94122077265E+03  0.50400001928E-02 0. -1.
       -1    1    3    3    0  502 -0.35811854364E+03  0.71295056653E+03  0.35385949831E+03  0.87279089488E+03  0.50400001928E-02 0.  1.
</event>
<event>
 5   0  0.1057506E-05  0.1600207E+04  0.7818609E-02  0.8820421E-01
       -1   -1    0    0    0  501  0.00000000000E+00  0.00000000000E+00  0.69109058177E+03  0.69109058179E+03  0.50400001928E-02 0.  1.
        1   -1    0    0  501    0  0.00000000000E+00  0.00000000000E+00 -0.92631179352E+03  0.92631179354E+03  0.50400001928E-02 0. -1.
    10030    2    1    2    0    0  0.00000000000E+00  0.00000000000E+00 -0.23522121175E+03  0.16174023753E+04  0.16002066820E+04 0.  0.
        5    1    3    3  502    0  0.28310178808E+03  0.63705758033E+03 -0.51445458457E+03  0.86641479250E+03  0.46999998093E+01 0.  1.
       -5    1    3    3    0  502 -0.28310178808E+03 -0.63705758033E+03  0.27923337282E+03  0.75098758283E+03  0.46999998093E+01 0. -1.
</event>
<event>
 5   0  0.2046108E-05  0.1599241E+04  0.7818609E-02  0.8821015E-01
        2   -1    0    0  501    0  0.00000000000E+00  0.00000000000E+00  0.19784104156E+04  0.19784104156E+04  0.25500000920E-02 0. -1.
       -2   -1    0    0    0  501  0.00000000000E+00  0.00000000000E+00 -0.32318505934E+03  0.32318505935E+03  0.25500000920E-02 0.  1.
    10030    2    1    2    0    0  0.00000000000E+00  0.00000000000E+00  0.16552253563E+04  0.23015954750E+04  0.15992406793E+04 0.  0.
        1    1    3    3  502    0 -0.27349484183E+03  0.56721907187E+03  0.15368464250E+04  0.16608533463E+04  0.50400001928E-02 0. -1.
       -1    1    3    3    0  502  0.27349484183E+03 -0.56721907187E+03  0.11837893128E+03  0.64074212862E+03  0.50400001928E-02 0.  1.
</event>
<event>
 5   0  0.1057506E-05  0.1598590E+04  0.7818609E-02  0.8821415E-01
       -1   -1    0    0    0  501  0.00000000000E+00  0.00000000000E+00  0.63738118732E+03  0.63738118734E+03  0.50400001928E-02 0.  1.
        1   -1    0    0  501    0  0.00000000000E+00  0.00000000000E+00 -0.10023398682E+04  0.10023398683E+04  0.50400001928E-02 0. -1.
    10030    2    1    2    0    0  0.00000000000E+00  0.00000000000E+00 -0.36495868091E+03  0.16397210556E+04  0.15985900980E+04 0.  0.
        5    1    3    3  502    0  0.25146879166E+03 -0.64846865692E+03 -0.58644274187E+03  0.90977213173E+03  0.46999998093E+01 0. -1.
       -5    1    3    3    0  502 -0.25146879166E+03  0.64846865692E+03  0.22148406095E+03  0.72994892386E+03  0.46999998093E+01 0.  1.
</event>
<event>
 5   0  0.1081831E-05  0.1599419E+04  0.7818609E-02  0.8820905E-01
        1   -1    0    0  501    0  0.00000000000E+00  0.00000000000E+00  0.14340502260E+04  0.14340502260E+04  0.50400001928E-02 0.  1.
       -1   -1    0    0    0  501  0.00000000000E+00  0.00000000000E+00 -0.44596426201E+03  0.44596426204E+03  0.50400001928E-02 0. -1.
    10030    2    1    2    0    0  0.00000000000E+00  0.00000000000E+00  0.98808596402E+03  0.18800144881E+04  0.15994188329E+04 0.  0.
        3    1    3    3  502    0 -0.33614376375E+03 -0.23212753629E+03  0.13021578598E+04  0.13647310816E+04  0.10100000352E+00 0.  1.
       -3    1    3    3    0  502  0.33614376375E+03  0.23212753629E+03 -0.31407189583E+03  0.51528340645E+03  0.10100000352E+00 0. -1.
</event>
<event>
 5   0  0.1090674E-05  0.1600195E+04  0.7818609E-02  0.8820428E-01
        1   -1    0    0  501    0  0.00000000000E+00  0.00000000000E+00  0.10422310243E+04  0.10422310243E+04  0.50400001928E-02 0.  1.
       -1   -1    0    0    0  501  0.00000000000E+00  0.00000000000E+00 -0.61421729745E+03  0.61421729747E+03  0.50400001928E-02 0. -1.
    10030    2    1    2    0    0  0.00000000000E+00  0.00000000000E+00  0.42801372687E+03  0.16564483218E+04  0.16001953919E+04 0.  0.
        4    1    3    3  502    0  0.47254706300E+02  0.79831327350E+03  0.18828125538E+03  0.82157685821E+03  0.12699999809E+01 0. -1.
       -4    1    3    3    0  502 -0.47254706300E+02 -0.79831327350E+03  0.23973247149E+03  0.83487146358E+03  0.12699999809E+01 0.  1.
</event>
<event>
 5   0  0.1994525E-05  0.1600441E+04  0.7818609E-02  0.8820277E-01
       -2   -1    0    0    0  501  0.00000000000E+00  0.00000000000E+00  0.13663701882E+04  0.13663701882E+04  0.25500000920E-02 0.  1.
        2   -1    0    0  501    0  0.00000000000E+00  0.00000000000E+00 -0.46865255163E+03  0.46865255164E+03  0.25500000920E-02 0. -1.
    10030    2    1    2    0    0  0.00000000000E+00  0.00000000000E+00  0.89771763658E+03  0.18350227399E+04  0.16004410332E+04 0.  0.
        5    1    3    3  502    0 -0.47553481729E+03  0.17052144213E+03  0.11603994921E+04  0.12656065723E+04  0.46999998093E+01 0.  1.
       -5    1    3    3    0  502  0.47553481729E+03 -0.17052144213E+03 -0.26268185547E+03  0.56941616756E+03  0.46999998093E+01 0. -1.
</event>
<event>
 5   0  0.2046108E-05  0.1600290E+04  0.7818609E-02  0.8820370E-01
        2   -1    0    0  501    0  0.00000000000E+00  0.00000000000E+00  0.10244244038E+04  0.10244244038E+04  0.25500000920E-02 0. -1.
       -2   -1    0    0    0  501  0.00000000000E+00  0.00000000000E+00 -0.62496788030E+03  0.62496788031E+03  0.25500000920E-02 0.  1.
    10030    2    1    2    0    0  0.00000000000E+00  0.00000000000E+00  0.39945652348E+03  0.16493922841E+04  0.16002904088E+04 0.  0.
        1    1    3    3  502    0  0.74590732956E+02 -0.79660096961E+03  0.20979872216E+03  0.82713504706E+03  0.50400001928E-02 0. -1.
       -1    1    3    3    0  502 -0.74590732956E+02  0.79660096961E+03  0.18965780132E+03  0.82225723703E+03  0.50400001928E-02 0.  1.
</event>
<event>
 5   0  0.1126485E-05  0.1600438E+04  0.7818609E-02  0.8820279E-01
       -1   -1    0    0    0  501  0.00000000000E+00  0.00000000000E+00  0.48304423022E+03  0.48304423025E+03  0.50400001928E-02 0.  1.
        1   -1    0    0  501    0  0.00000000000E+00  0.00000000000E+00 -0.13256560734E+04  0.13256560734E+04  0.50400001928E-02 0. -1.
    10030    2    1    2    0    0  0.00000000000E+00  0.00000000000E+00 -0.84261184319E+03  0.18087003037E+04  0.16004380870E+04 0.  0.
        2    1    3    3  502    0  0.40837853167E+03 -0.48967221898E+03 -0.96775373963E+03  0.11589215710E+04  0.25500000920E-02 0. -1.
       -2    1    3    3    0  502 -0.40837853167E+03  0.48967221898E+03  0.12514189645E+03  0.64977873266E+03  0.25500000920E-02 0.  1.
</event>
<event>
 5   0  0.1057506E-05  0.1599024E+04  0.7818609E-02  0.8821148E-01
       -1   -1    0    0    0  501  0.00000000000E+00  0.00000000000E+00  0.30860028460E+03  0.30860028464E+03  0.50400001928E-02 0.  1.
        1   -1    0    0  501    0  0.00000000000E+00  0.00000000000E+00 -0.20713500407E+04  0.20713500407E+04  0.50400001928E-02 0. -1.
    10030    2    1    2    0    0  0.00000000000E+00  0.00000000000E+00 -0.17627497561E+04  0.23799503254E+04  0.15990237173E+04 0.  0.
        5    1    3    3  502    0  0.77183655537E+03  0.20495369791E+03 -0.93823469560E+03  0.12320893314E+04  0.46999998093E+01 0.  1.
       -5    1    3    3    0  502 -0.77183655537E+03 -0.20495369791E+03 -0.82451506051E+03  0.11478609940E+04  0.46999998093E+01 0. -1.
</event>
<event>
 5   0  0.2125803E-05  0.1596077E+04  0.7818609E-02  0.8822961E-01
       -2   -1    0    0    0  501  0.00000000000E+00  0.00000000000E+00  0.45438068040E+03  0.45438068041E+03  0.25500000920E-02 0.  1.
        2   -1    0    0  501    0  0.00000000000E+00  0.00000000000E+00 -0.14016126461E+04  0.14016126462E+04  0.25500000920E-02 0. -1.
    10030    2    1    2    0    0  0.00000000000E+00  0.00000000000E+00 -0.94723196575E+03  0.18559933266E+04  0.15960773262E+04 0.  0.
        3    1    3    3  502    0  0.17488507903E+03 -0.29765785579E+02 -0.13783936307E+04  0.13897624992E+04  0.10100000352E+00 0. -1.
       -3    1    3    3    0  502 -0.17488507903E+03  0.29765785579E+02  0.43116166495E+03  0.46623082736E+03  0.10100000352E+00 0.  1.
</event>
<event>
 5   0  0.2046108E-05  0.1602618E+04  0.7818609E-02  0.8818941E-01
       -2   -1    0    0    0  501  0.00000000000E+00  0.00000000000E+00  0.24829511082E+03  0.24829511083E+03  0.25500000920E-02 0.  1.
        2   -1    0    0  501    0  0.00000000000E+00  0.00000000000E+00 -0.25860189734E+04  0.25860189734E+04  0.25500000920E-02 0. -1.
    10030    2    1    2    0    0  0.00000000000E+00  0.00000000000E+00 -0.23377238626E+04  0.28343140842E+04  0.16026176932E+04 0.  0.
        1    1    3    3  502    0  0.83572789574E+02  0.59281554747E+03 -0.21108237651E+04  0.21940810495E+04  0.50400001928E-02 0. -1.
       -1    1    3    3    0  502 -0.83572789574E+02 -0.59281554747E+03 -0.22690009747E+03  0.64023303472E+03  0.50400001928E-02 0.  1.
</event>
<event>
 5   0  0.7597000E-06  0.1593214E+04  0.7818609E-02  0.8824728E-01
       -3   -1    0    0    0  501  0.00000000000E+00  0.00000000000E+00  0.80939454375E+03  0.80939455005E+03  0.10100000352E+00 0. -1.
        3   -1    0    0  501    0  0.00000000000E+00  0.00000000000E+00 -0.78402105642E+03  0.78402106293E+03  0.10100000352E+00 0.  1.
    10030    2    1    2    0    0  0.00000000000E+00  0.00000000000E+00  0.25373487328E+02  0.15934156130E+04  0.15932135770E+04 0.  0.
        2    1    3    3  502    0  0.30173952907E+03 -0.43112901980E+03 -0.58543875901E+03  0.78718327959E+03  0.25500000920E-02 0.  1.
       -2    1    3    3    0  502 -0.30173952907E+03  0.43112901980E+03  0.61081224633E+03  0.80623233339E+03  0.25500000920E-02 0. -1.
</event>
<event>
 5   0  0.1126485E-05  0.1588019E+04  0.7818609E-02  0.8827943E-01
       -1   -1    0    0    0  501  0.00000000000E+00  0.00000000000E+00  0.28296909311E+03  0.28296909315E+03  0.50400001928E-02 0. -1.
        1   -1    0    0  501    0  0.00000000000E+00  0.00000000000E+00 -0.22279844920E+04  0.22279844920E+04  0.50400001928E-02 0.  1.
    10030    2    1    2    0    0  0.00000000000E+00  0.00000000000E+00 -0.19450153988E+04  0.25109535851E+04  0.15880185782E+04 0.  0.
        2    1    3    3  502    0 -0.64932964598E+03  0.45276488273E+03 -0.87470747133E+03  0.11797195381E+04  0.25500000920E-02 0. -1.
       -2    1    3    3    0  502  0.64932964598E+03 -0.45276488273E+03 -0.10703079275E+04  0.13312340470E+04  0.25500000920E-02 0.  1.
</event>
<event>
 5   0  0.1057506E-05  0.1600525E+04  0.7818609E-02  0.8820225E-01
       -1   -1    0    0    0  501  0.00000000000E+00  0.00000000000E+00  0.14876776036E+04  0.14876776036E+04  0.50400001928E-02 0. -1.
        1   -1    0    0  501    0  0.00000000000E+00  0.00000000000E+00 -0.43048318704E+03  0.43048318707E+03  0.50400001928E-02 0.  1.
    10030    2    1    2    0    0  0.00000000000E+00  0.00000000000E+00  0.10571944166E+04  0.19181607907E+04  0.16005251590E+04 0.  0.
        5    1    3    3  502    0  0.40585807618E+03 -0.82041907804E+02  0.13492966385E+04  0.14114089277E+04  0.46999998093E+01 0. -1.
       -5    1    3    3    0  502 -0.40585807618E+03  0.82041907804E+02 -0.29210222187E+03  0.50675186300E+03  0.46999998093E+01 0.  1.
</event>
<event>
 5   0  0.1126485E-05  0.1602346E+04  0.7818609E-02  0.8819108E-01
       -1   -1    0    0    0  501  0.00000000000E+00  0.00000000000E+00  0.24297747017E+03  0.24297747022E+03  0.50400001928E-02 0. -1.
        1   -1    0    0  501    0  0.00000000000E+00  0.00000000000E+00 -0.26417181243E+04  0.26417181243E+04  0.50400001928E-02 0.  1.
    10030    2    1    2    0    0  0.00000000000E+00  0.00000000000E+00 -0.23987406541E+04  0.28846955945E+04  0.16023457640E+04 0.  0.
        2    1    3    3  502    0  0.70186961684E+03 -0.31486520322E+03 -0.16023990434E+04  0.17774824189E+04  0.25500000920E-02 0. -1.
       -2    1    3    3    0  502 -0.70186961684E+03  0.31486520322E+03 -0.79634161070E+03  0.11072131756E+04  0.25500000920E-02 0.  1.
</event>
<event>
 5   0  0.1057506E-05  0.1598082E+04  0.7818609E-02  0.8821727E-01
       -1   -1    0    0    0  501  0.00000000000E+00  0.00000000000E+00  0.67836779636E+03  0.67836779638E+03  0.50400001928E-02 0.  1.
        1   -1    0    0  501    0  0.00000000000E+00  0.00000000000E+00 -0.94117990140E+03  0.94117990141E+03  0.50400001928E-02 0. -1.
    10030    2    1    2    0    0  0.00000000000E+00  0.00000000000E+00 -0.26281210504E+03  0.16195476978E+04  0.15980815195E+04 0.  0.
        5    1    3    3  502    0  0.57705292596E+02  0.19651252908E+01 -0.93904896469E+03  0.94083410365E+03  0.46999998093E+01 0. -1.
       -5    1    3    3    0  502 -0.57705292596E+02 -0.19651252908E+01  0.67623685965E+03  0.67871359413E+03  0.46999998093E+01 0.  1.
</event>
<event>
 5   0  0.1126485E-05  0.1599877E+04  0.7818609E-02  0.8820623E-01
       -1   -1    0    0    0  501  0.00000000000E+00  0.00000000000E+00  0.45404593888E+03  0.45404593891E+03  0.50400001928E-02 0. -1.
        1   -1    0    0  501    0  0.00000000000E+00  0.00000000000E+00 -0.14093327245E+04  0.14093327245E+04  0.50400001928E-02 0.  1.
    10030    2    1    2    0    0  0.00000000000E+00  0.00000000000E+00 -0.95528678561E+03  0.18633786634E+04  0.15998772454E+04 0.  0.
        2    1    3    3  502    0  0.13483864945E+03 -0.54839160759E+03 -0.11375130633E+04  0.12699806242E+04  0.25500000920E-02 0.  1.
       -2    1    3    3    0  502 -0.13483864945E+03  0.54839160759E+03  0.18222627769E+03  0.59339803921E+03  0.25500000920E-02 0. -1.
</event>
<event>
 5   0  0.2125803E-05  0.1604765E+04  0.7818609E-02  0.8817626E-01
       -2   -1    0    0    0  501  0.00000000000E+00  0.00000000000E+00  0.53961521072E+03  0.53961521073E+03  0.25500000920E-02 0.  1.
        2   -1    0    0  501    0  0.00000000000E+00  0.00000000000E+00 -0.11931052216E+04  0.11931052216E+04  0.25500000920E-02 0. -1.
    10030    2    1    2    0    0  0.00000000000E+00  0.00000000000E+00 -0.65349001083E+03  0.17327204323E+04  0.16047650614E+04 0.  0.
        3    1    3    3  502    0 -0.68183146726E+03 -0.40090824441E+03 -0.18109626515E+03  0.81142925609E+03  0.10100000352E+00 0.  1.
       -3    1    3    3    0  502  0.68183146726E+03  0.40090824441E+03 -0.47239374568E+03  0.92129117620E+03  0.10100000352E+00 0. -1.
</event>
<event>
 5   0  0.2147844E-05  0.1600584E+04  0.7818609E-02  0.8820189E-01
       -2   -1    0    0    0  501  0.00000000000E+00  0.00000000000E+00  0.52609623346E+03  0.52609623347E+03  0.25500000920E-02 0. -1.
        2   -1    0    0  501    0  0.00000000000E+00  0.00000000000E+00 -0.12173957372E+04  0.12173957372E+04  0.25500000920E-02 0.  1.
    10030    2    1    2    0    0  0.00000000000E+00  0.00000000000E+00 -0.69129950376E+03  0.17434919707E+04  0.16005840334E+04 0.  0.
        2    1    3    3  502    0 -0.43317267889E+03 -0.65607809347E+03 -0.18265590505E+03  0.80711846350E+03  0.25500000920E-02 0. -1.
       -2    1    3    3    0  502  0.43317267889E+03  0.65607809347E+03 -0.50864359872E+03  0.93637350720E+03  0.25500000920E-02 0.  1.
</event>
<event>
 5   0  0.2046108E-05  0.1600310E+04  0.7818609E-02  0.8820357E-01
        2   -1    0    0  501    0  0.00000000000E+00  0.00000000000E+00  0.11731347022E+04  0.11731347022E+04  0.25500000920E-02 0.  1.
       -2   -1    0    0    0  501  0.00000000000E+00  0.00000000000E+00 -0.54575853518E+03  0.54575853519E+03  0.25500000920E-02 0. -1.
    10030    2    1    2    0    0  0.00000000000E+00  0.00000000000E+00  0.62737616706E+03  0.17188932374E+04  0.16003103158E+04 0.  0.
        1    1    3    3  502    0  0.18078929219E+02  0.76961810855E+03  0.54805215490E+03  0.94498679631E+03  0.50400001928E-02 0.  1.
       -1    1    3    3    0  502 -0.18078929219E+02 -0.76961810855E+03  0.79324012163E+02  0.77390644113E+03  0.50400001928E-02 0. -1.
</event>
<event>
 5   0  0.1126485E-05  0.1600003E+04  0.7818609E-02  0.8820546E-01
        1   -1    0    0  501    0  0.00000000000E+00  0.00000000000E+00  0.20704504846E+04  0.20704504846E+04  0.50400001928E-02 0.  1.
       -1   -1    0    0    0  501  0.00000000000E+00  0.00000000000E+00 -0.30911244271E+03  0.30911244276E+03  0.50400001928E-02 0. -1.
    10030    2    1    2    0    0  0.00000000000E+00  0.00000000000E+00  0.17613380419E+04  0.23795629274E+04  0.16000025086E+04 0.  0.
        2    1    3    3  502    0 -0.18389555363E+03 -0.34500757363E+03  0.19186986716E+04  0.19581247133E+04  0.25500000920E-02 0.  1.
       -2    1    3    3    0  502  0.18389555363E+03  0.34500757363E+03 -0.15736062967E+03  0.42143821408E+03  0.25500000920E-02 0. -1.
</event>
<event>
 5   0  0.1990948E-05  0.1600185E+04  0.7818609E-02  0.8820434E-01
        2   -1    0    0  501    0  0.00000000000E+00  0.00000000000E+00  0.10867761554E+04  0.10867761554E+04  0.25500000920E-02 0. -1.
       -2   -1    0    0    0  501  0.00000000000E+00  0.00000000000E+00 -0.58903399386E+03  0.58903399386E+03  0.25500000920E-02 0.  1.
    10030    2    1    2    0    0  0.00000000000E+00  0.00000000000E+00  0.49774216154E+03  0.16758101493E+04  0.16001851134E+04 0.  0.
        4    1    3    3  502    0 -0.23216192160E+03 -0.10977279929E+03  0.10424409114E+04  0.10736078856E+04  0.12699999809E+01 0. -1.
       -4    1    3    3    0  502  0.23216192160E+03  0.10977279929E+03 -0.54469874990E+03  0.60220226365E+03  0.12699999809E+01 0.  1.
</event>
<event>
 5   0  0.1060251E-05  0.1599918E+04  0.7818609E-02  0.8820599E-01
       -1   -1    0    0    0  501  0.00000000000E+00  0.00000000000E+00  0.52779858884E+03  0.52779858886E+03  0.50400001928E-02 0. -1.
        1   -1    0    0  501    0  0.00000000000E+00  0.00000000000E+00 -0.12124589498E+04  0.12124589498E+04  0.50400001928E-02 0.  1.
    10030    2    1    2    0    0  0.00000000000E+00  0.00000000000E+00 -0.68466036092E+03  0.17402575386E+04  0.15999176513E+04 0.  0.
        1    1    3    3  502    0 -0.67457774669E+03 -0.29183584234E+03  0.11384308442E+01  0.73499972194E+03  0.50400001928E-02 0. -1.
       -1    1    3    3    0  502  0.67457774669E+03  0.29183584234E+03 -0.68579879177E+03  0.10052578167E+04  0.50400001928E-02 0.  1.
</event>
<event>
 5   0  0.1090674E-05  0.1600958E+04  0.7818609E-02  0.8819959E-01
       -1   -1    0    0    0  501  0.00000000000E+00  0.00000000000E+00  0.37339393291E+03  0.37339393294E+03  0.50400001928E-02 0.  1.
        1   -1    0    0  501    0  0.00000000000E+00  0.00000000000E+00 -0.17160614829E+04  0.17160614829E+04  0.50400001928E-02 0. -1.
    10030    2    1    2    0    0  0.00000000000E+00  0.00000000000E+00 -0.13426675500E+04  0.20894554159E+04  0.16009583958E+04 0.  0.
        4    1    3    3  502    0 -0.92304780004E+02  0.26060988541E+02  0.36586603567E+03  0.37823130026E+03  0.12699999809E+01 0.  1.
       -4    1    3    3    0  502  0.92304780004E+02 -0.26060988541E+02 -0.17085335857E+04  0.17112241156E+04  0.12699999809E+01 0. -1.
</event>
<event>
 5   0  0.2125803E-05  0.1599242E+04  0.7818609E-02  0.8821014E-01
       -2   -1    0    0    0  501  0.00000000000E+00  0.00000000000E+00  0.65392753446E+03  0.65392753447E+03  0.25500000920E-02 0. -1.
        2   -1    0    0  501    0  0.00000000000E+00  0.00000000000E+00 -0.97777409346E+03  0.97777409347E+03  0.25500000920E-02 0.  1.
    10030    2    1    2    0    0  0.00000000000E+00  0.00000000000E+00 -0.32384655900E+03  0.16317016279E+04  0.15992415730E+04 0.  0.
        3    1    3    3  502    0  0.27387079734E+03 -0.29631308298E+02 -0.92783294953E+03  0.96786219086E+03  0.10100000352E+00 0.  1.
       -3    1    3    3    0  502 -0.27387079734E+03  0.29631308298E+02  0.60398639053E+03  0.66383943707E+03  0.10100000352E+00 0. -1.
</event>
<event>
 5   0  0.1057506E-05  0.1599216E+04  0.7818609E-02  0.8821030E-01
        1   -1    0    0  501    0  0.00000000000E+00  0.00000000000E+00  0.87915702676E+03  0.87915702677E+03  0.50400001928E-02 0.  1.
       -1   -1    0    0    0  501  0.00000000000E+00  0.00000000000E+00 -0.72725660491E+03  0.72725660492E+03  0.50400001928E-02 0. -1.
    10030    2    1    2    0    0  0.00000000000E+00  0.00000000000E+00  0.15190042185E+03  0.16064136317E+04  0.15992157509E+04 0.  0.
        5    1    3    3  502    0  0.24576115522E+03  0.87655512119E+02  0.83517522892E+03  0.87499816413E+03  0.46999998093E+01 0.  1.
       -5    1    3    3    0  502 -0.24576115522E+03 -0.87655512119E+02 -0.68327480707E+03  0.73141546757E+03  0.46999998093E+01 0. -1.
</event>
<event>
 5   0  0.2125803E-05  0.1598078E+04  0.7818609E-02  0.8821730E-01
       -2   -1    0    0    0  501  0.00000000000E+00  0.00000000000E+00  0.96412538910E+03  0.96412538910E+03  0.25500000920E-02 0. -1.
        2   -1    0    0  501    0  0.00000000000E+00  0.00000000000E+00 -0.66222026138E+03  0.66222026138E+03  0.25500000920E-02 0.  1.
    10030    2    1    2    0    0  0.00000000000E+00  0.00000000000E+00  0.30190512772E+03  0.16263456505E+04  0.15980780546E+04 0.  0.
        3    1    3    3  502    0 -0.34312769115E+03  0.71232796532E+03  0.33518127024E+02  0.79137299527E+03  0.10100000352E+00 0.  1.
       -3    1    3    3    0  502  0.34312769115E+03 -0.71232796532E+03  0.26838700069E+03  0.83497265521E+03  0.10100000352E+00 0. -1.
</event>
<event>
 5   0  0.1090674E-05  0.1599178E+04  0.7818609E-02  0.8821053E-01
       -1   -1    0    0    0  501  0.00000000000E+00  0.00000000000E+00  0.11253301793E+04  0.11253301793E+04  0.50400001928E-02 0. -1.
        1   -1    0    0  501    0  0.00000000000E+00  0.00000000000E+00 -0.56813745221E+03  0.56813745224E+03  0.50400001928E-02 0.  1.
    10030    2    1    2    0    0  0.00000000000E+00  0.00000000000E+00  0.55719272707E+03  0.16934676315E+04  0.15991775649E+04 0.  0.
        4    1    3    3  502    0 -0.34072358581E+03 -0.27034598767E+03  0.98909653992E+03  0.10805059431E+04  0.12699999809E+01 0. -1.
       -4    1    3    3    0  502  0.34072358581E+03  0.27034598767E+03 -0.43190381286E+03  0.61296168839E+03  0.12699999809E+01 0.  1.
</event>
<event>
 5   0  0.1057506E-05  0.1600068E+04  0.7818609E-02  0.8820506E-01
        1   -1    0    0  501    0  0.00000000000E+00  0.00000000000E+00  0.85987593483E+03  0.85987593484E+03  0.50400001928E-02 0. -1.
       -1   -1    0    0    0  501  0.00000000000E+00  0.00000000000E+00 -0.74435643916E+03  0.74435643917E+03  0.50400001928E-02 0.  1.
    10030    2    1    2    0    0  0.00000000000E+00  0.00000000000E+00  0.11551949567E+03  0.16042323740E+04  0.16000677348E+04 0.  0.
        5    1    3    3  502    0 -0.42125822300E+03  0.66372091903E+03  0.20663242142E+03  0.81283638967E+03  0.46999998093E+01 0. -1.
       -5    1    3    3    0  502  0.42125822300E+03 -0.66372091903E+03 -0.91112925748E+02  0.79139598434E+03  0.46999998093E+01 0.  1.
</event>
<event>
 5   0  0.1994525E-05  0.1598631E+04  0.7818609E-02  0.8821390E-01
        2   -1    0    0  501    0  0.00000000000E+00  0.00000000000E+00  0.19169707769E+04  0.19169707769E+04  0.25500000920E-02 0. -1.
       -2   -1    0    0    0  501  0.00000000000E+00  0.00000000000E+00 -0.33328892641E+03  0.33328892642E+03  0.25500000920E-02 0.  1.
    10030    2    1    2    0    0  0.00000000000E+00  0.00000000000E+00  0.15836818505E+04  0.22502597033E+04  0.15986308294E+04 0.  0.
        5    1    3    3  502    0 -0.38527553017E+03 -0.24745242026E+03  0.17140320693E+04  0.17741471075E+04  0.46999998093E+01 0. -1.
       -5    1    3    3    0  502  0.38527553017E+03  0.24745242026E+03 -0.13035021875E+03  0.47611259589E+03  0.46999998093E+01 0.  1.
</event>
<event>
 5   0  0.1060251E-05  0.1600360E+04  0.7818609E-02  0.8820327E-01
       -1   -1    0    0    0  501  0.00000000000E+00  0.00000000000E+00  0.61977676714E+03  0.61977676716E+03  0.50400001928E-02 0. -1.
        1   -1    0    0  501    0  0.00000000000E+00  0.00000000000E+00 -0.10330941820E+04  0.10330941820E+04  0.50400001928E-02 0.  1.
    10030    2    1    2    0    0  0.00000000000E+00  0.00000000000E+00 -0.41331741485E+03  0.16528709492E+04  0.16003596749E+04 0.  0.
        1    1    3    3  502    0  0.11723653708E+03  0.17872337570E+03 -0.10030642649E+04  0.10255848918E+04  0.50400001928E-02 0.  1.
       -1    1    3    3    0  502 -0.11723653708E+03 -0.17872337570E+03  0.58974685005E+03  0.62728605741E+03  0.50400001928E-02 0. -1.
</event>
<event>
 5   0  0.1994525E-05  0.1600312E+04  0.7818609E-02  0.8820356E-01
        2   -1    0    0  501    0  0.00000000000E+00  0.00000000000E+00  0.82699495963E+03  0.82699495963E+03  0.25500000920E-02 0.  1.
       -2   -1    0    0    0  501  0.00000000000E+00  0.00000000000E+00 -0.77418845020E+03  0.77418845020E+03  0.25500000920E-02 0. -1.
    10030    2    1    2    0    0  0.00000000000E+00  0.00000000000E+00  0.52806509430E+02  0.16011834098E+04  0.16003124022E+04 0.  0.
        5    1    3    3  502    0  0.50470548240E+03 -0.38677772237E+03  0.51236630607E+03  0.81661860871E+03  0.46999998093E+01 0.  1.
       -5    1    3    3    0  502 -0.50470548240E+03  0.38677772237E+03 -0.45955979664E+03  0.78456480113E+03  0.46999998093E+01 0. -1.
</event>
<event>
 5   0  0.1126485E-05  0.1598882E+04  0.7818609E-02  0.8821235E-01
       -1   -1    0    0    0  501  0.00000000000E+00  0.00000000000E+00  0.80242201675E+03  0.80242201676E+03  0.50400001928E-02 0. -1.
        1   -1    0    0  501    0  0.00000000000E+00  0.00000000000E+00 -0.79647086435E+03  0.79647086436E+03  0.50400001928E-02 0.  1.
    10030    2    1    2    0    0  0.00000000000E+00  0.00000000000E+00  0.59511523995E+01  0.15988928811E+04  0.15988818059E+04 0.  0.
        2    1    3    3  502    0 -0.26075911987E+01  0.41076944100E+03 -0.68286255373E+03  0.79689371969E+03  0.25500000920E-02 0.  1.
       -2    1    3    3    0  502  0.26075911987E+01 -0.41076944100E+03  0.68881370613E+03  0.80199916144E+03  0.25500000920E-02 0. -1.
</event>
<event>
 5   0  0.1081831E-05  0.1599730E+04  0.7818609E-02  0.8820714E-01
        1   -1    0    0  501    0  0.00000000000E+00  0.00000000000E+00  0.75352341974E+03  0.75352341976E+03  0.50400001928E-02 0.  1.
       -1   -1    0    0    0  501  0.00000000000E+00  0.00000000000E+00 -0.84905615410E+03  0.84905615412E+03  0.50400001928E-02 0. -1.
    10030    2    1    2    0    0  0.00000000000E+00  0.00000000000E+00 -0.95532734360E+02  0.16025795739E+04  0.15997295982E+04 0.  0.
        3    1    3    3  502    0 -0.14292840659E+03 -0.62095951570E+03  0.43658691141E+03  0.77241659159E+03  0.10100000352E+00 0.  1.
       -3    1    3    3    0  502  0.14292840659E+03  0.62095951570E+03 -0.53211964577E+03  0.83016298229E+03  0.10100000352E+00 0. -1.
</event>
<event>
 5   0  0.1057506E-05  0.1599084E+04  0.7818609E-02  0.8821111E-01
        1   -1    0    0  501    0  0.00000000000E+00  0.00000000000E+00  0.22904560410E+04  0.22904560410E+04  0.50400001928E-02 0. -1.
       -1   -1    0    0    0  501  0.00000000000E+00  0.00000000000E+00 -0.27910037427E+03  0.27910037432E+03  0.50400001928E-02 0.  1.
    10030    2    1    2    0    0  0.00000000000E+00  0.00000000000E+00  0.20113556667E+04  0.25695564153E+04  0.15990836605E+04 0.  0.
        5    1    3    3  502    0 -0.53335354567E+03 -0.57849135655E+03  0.12336460349E+04  0.14632234565E+04  0.46999998093E+01 0.  1.
       -5    1    3    3    0  502  0.53335354567E+03  0.57849135655E+03  0.77770963180E+03  0.11063329588E+04  0.46999998093E+01 0. -1.
</event>
<event>
 5   0  0.2147844E-05  0.1600673E+04  0.7818609E-02  0.8820135E-01
        2   -1    0    0  501    0  0.00000000000E+00  0.00000000000E+00  0.10873599160E+04  0.10873599160E+04  0.25500000920E-02 0.  1.
       -2   -1    0    0    0  501  0.00000000000E+00  0.00000000000E+00 -0.58907669647E+03  0.58907669647E+03  0.25500000920E-02 0. -1.
    10030    2    1    2    0    0  0.00000000000E+00  0.00000000000E+00  0.49828321955E+03  0.16764366125E+04  0.16006728425E+04 0.  0.
        2    1    3    3  502    0 -0.32311941192E+03  0.10197740378E+01 -0.51772547640E+03  0.61028424789E+03  0.25500000920E-02 0. -1.
       -2    1    3    3    0  502  0.32311941192E+03 -0.10197740378E+01  0.10160086960E+04  0.10661523646E+04  0.25500000920E-02 0.  1.
</event>
<event>
 5   0  0.2046108E-05  0.1599837E+04  0.7818609E-02  0.8820648E-01
        2   -1    0    0  501    0  0.00000000000E+00  0.00000000000E+00  0.21086032843E+04  0.21086032843E+04  0.25500000920E-02 0.  1.
       -2   -1    0    0    0  501  0.00000000000E+00  0.00000000000E+00 -0.30345646645E+03  0.30345646646E+03  0.25500000920E-02 0. -1.
    10030    2    1    2    0    0  0.00000000000E+00  0.00000000000E+00  0.18051468178E+04  0.24120597508E+04  0.15998366189E+04 0.  0.
        1    1    3    3  502    0  0.65973263333E+03  0.41761796630E+03  0.64048917688E+03  0.10098902411E+04  0.50400001928E-02 0. -1.
       -1    1    3    3    0  502 -0.65973263333E+03 -0.41761796630E+03  0.11646576410E+04  0.14021695097E+04  0.50400001928E-02 0.  1.
</event>
<event>
 5   0  0.1060251E-05  0.1600127E+04  0.7818609E-02  0.8820470E-01
       -1   -1    0    0    0  501  0.00000000000E+00  0.00000000000E+00  0.73050581376E+03  0.73050581378E+03  0.50400001928E-02 0.  1.
        1   -1    0    0  501    0  0.00000000000E+00  0.00000000000E+00 -0.87624436126E+03  0.87624436127E+03  0.50400001928E-02 0. -1.
    10030    2    1    2    0    0  0.00000000000E+00  0.00000000000E+00 -0.14573854750E+03  0.16067501750E+04  0.16001269952E+04 0.  0.
        1    1    3    3  502    0  0.41331664585E+03  0.48896075096E+02 -0.75898377234E+03  0.86560836560E+03  0.50400001928E-02 0. -1.
       -1    1    3    3    0  502 -0.41331664585E+03 -0.48896075096E+02  0.61324522484E+03  0.74114180945E+03  0.50400001928E-02 0.  1.
</event>
<event>
 5   0  0.1081831E-05  0.1602270E+04  0.7818609E-02  0.8819155E-01
       -1   -1    0    0    0  501  0.00000000000E+00  0.00000000000E+00  0.41933432342E+03  0.41933432345E+03  0.50400001928E-02 0.  1.
        1   -1    0    0  501    0  0.00000000000E+00  0.00000000000E+00 -0.15305617407E+04  0.15305617407E+04  0.50400001928E-02 0. -1.
    10030    2    1    2    0    0  0.00000000000E+00  0.00000000000E+00 -0.11112274172E+04  0.19498960641E+04  0.16022697301E+04 0.  0.
        3    1    3    3  502    0 -0.48055660656E+02  0.48318141663E+03  0.21985107612E+03  0.53301794883E+03  0.10100000352E+00 0.  1.
       -3    1    3    3    0  502  0.48055660656E+02 -0.48318141663E+03 -0.13310784934E+04  0.14168781153E+04  0.10100000352E+00 0. -1.
</event>
<event>
 5   0  0.1081831E-05  0.1597394E+04  0.7818609E-02  0.8822150E-01
       -1   -1    0    0    0  501  0.00000000000E+00  0.00000000000E+00  0.60885030002E+03  0.60885030004E+03  0.50400001928E-02 0. -1.
        1   -1    0    0  501    0  0.00000000000E+00  0.00000000000E+00 -0.10477403453E+04  0.10477403453E+04  0.50400001928E-02 0.  1.
    10030    2    1    2    0    0  0.00000000000E+00  0.00000000000E+00 -0.43889004526E+03  0.16565906453E+04  0.15973941575E+04 0.  0.
        3    1    3    3  502    0 -0.22093984754E+03  0.29840222744E+03  0.51390888442E+03  0.63400367291E+03  0.10100000352E+00 0. -1.
       -3    1    3    3    0  502  0.22093984754E+03 -0.29840222744E+03 -0.95279892968E+03  0.10225869724E+04  0.10100000352E+00 0.  1.
</event>
<event>
 5   0  0.1126485E-05  0.1602771E+04  0.7818609E-02  0.8818847E-01
        1   -1    0    0  501    0  0.00000000000E+00  0.00000000000E+00  0.10337206738E+04  0.10337206738E+04  0.50400001928E-02 0.  1.
       -1   -1    0    0    0  501  0.00000000000E+00  0.00000000000E+00 -0.62126933668E+03  0.62126933670E+03  0.50400001928E-02 0. -1.
    10030    2    1    2    0    0  0.00000000000E+00  0.00000000000E+00  0.41245133714E+03  0.16549900105E+04  0.16027712967E+04 0.  0.
        2    1    3    3  502    0 -0.39366999576E+03 -0.64850143832E+03 -0.60429615864E+02  0.76104002493E+03  0.25500000920E-02 0. -1.
       -2    1    3    3    0  502  0.39366999576E+03  0.64850143832E+03  0.47288095301E+03  0.89394998562E+03  0.25500000920E-02 0.  1.
</event>
<event>
 5   0  0.2046108E-05  0.1600109E+04  0.7818609E-02  0.8820481E-01
        2   -1    0    0  501    0  0.00000000000E+00  0.00000000000E+00  0.19664219138E+04  0.19664219138E+04  0.25500000920E-02 0. -1.
       -2   -1    0    0    0  501  0.00000000000E+00  0.00000000000E+00 -0.32550870579E+03  0.32550870580E+03  0.25500000920E-02 0.  1.
    10030    2    1    2    0    0  0.00000000000E+00  0.00000000000E+00  0.16409132080E+04  0.22919306196E+04  0.16001093115E+04 0.  0.
        1    1    3    3  502    0 -0.78151466030E+03  0.16894589897E+03  0.78046399906E+03  0.11173325087E+04  0.50400001928E-02 0.  1.
       -1    1    3    3    0  502  0.78151466030E+03 -0.16894589897E+03  0.86044920899E+03  0.11745981110E+04  0.50400001928E-02 0. -1.
</event>
<event>
 5   0  0.2125803E-05  0.1601000E+04  0.7818609E-02  0.8819934E-01
       -2   -1    0    0    0  501  0.00000000000E+00  0.00000000000E+00  0.53493109319E+03  0.53493109320E+03  0.25500000920E-02 0.  1.
        2   -1    0    0  501    0  0.00000000000E+00  0.00000000000E+00 -0.11979119457E+04  0.11979119457E+04  0.25500000920E-02 0. -1.
    10030    2    1    2    0    0  0.00000000000E+00  0.00000000000E+00 -0.66298085251E+03  0.17328430389E+04  0.16010001208E+04 0.  0.
        3    1    3    3  502    0  0.18629349170E+03  0.77638621417E+03 -0.26913053248E+03  0.84256280022E+03  0.10100000352E+00 0.  1.
       -3    1    3    3    0  502 -0.18629349170E+03 -0.77638621417E+03 -0.39385032004E+03  0.89028023869E+03  0.10100000352E+00 0. -1.
</event>
<event>
 5   0  0.1081831E-05  0.1600718E+04  0.7818609E-02  0.8820107E-01
        1   -1    0    0  501    0  0.00000000000E+00  0.00000000000E+00  0.14282058869E+04  0.14282058869E+04  0.50400001928E-02 0. -1.
       -1   -1    0    0    0  501  0.00000000000E+00  0.00000000000E+00 -0.44851709263E+03  0.44851709266E+03  0.50400001928E-02 0.  1.
    10030    2    1    2    0    0  0.00000000000E+00  0.00000000000E+00  0.97968879429E+03  0.18767229796E+04  0.16007182789E+04 0.  0.
        3    1    3    3  502    0  0.65613959663E+03  0.44923573913E+03  0.59628889977E+03  0.99392775480E+03  0.10100000352E+00 0. -1.
       -3    1    3    3    0  502 -0.65613959663E+03 -0.44923573913E+03  0.38339989452E+03  0.88279522478E+03  0.10100000352E+00 0.  1.
</event>
<event>
 5   0  0.1990948E-05  0.1599958E+04  0.7818609E-02  0.8820574E-01
       -2   -1    0    0    0  501  0.00000000000E+00  0.00000000000E+00  0.60496087848E+03  0.60496087848E+03  0.25500000920E-02 0. -1.
        2   -1    0    0  501    0  0.00000000000E+00  0.00000000000E+00 -0.10578644190E+04  0.10578644191E+04  0.25500000920E-02 0.  1.
    10030    2    1    2    0    0  0.00000000000E+00  0.00000000000E+00 -0.45290354057E+03  0.16628252975E+04  0.15999582348E+04 0.  0.
        4    1    3    3  502    0 -0.46411728005E+01  0.75996426602E+03  0.33158840743E+02  0.76070253564E+03  0.12699999809E+01 0. -1.
       -4    1    3    3    0  502  0.46411728005E+01 -0.75996426602E+03 -0.48606238131E+03  0.90212276190E+03  0.12699999809E+01 0.  1.
</event>
<event>
 5   0  0.1081831E-05  0.1600119E+04  0.7818609E-02  0.8820475E-01
        1   -1    0    0  501    0  0.00000000000E+00  0.00000000000E+00  0.10116809593E+04  0.10116809593E+04  0.50400001928E-02 0.  1.
       -1   -1    0    0    0  501  0.00000000000E+00  0.00000000000E+00 -0.63270449370E+03  0.63270449372E+03  0.50400001928E-02 0. -1.
    10030    2    1    2    0    0  0.00000000000E+00  0.00000000000E+00  0.37897646560E+03  0.16443854530E+04  0.16001188570E+04 0.  0.
        3    1    3    3  502    0 -0.31291459617E+03  0.22151018657E+03  0.91113473068E+03  0.98850837877E+03  0.10100000352E+00 0.  1.
       -3    1    3    3    0  502  0.31291459617E+03 -0.22151018657E+03 -0.53215826508E+03  0.65587707426E+03  0.10100000352E+00 0. -1.
</event>
<event>
 5   0  0.1081831E-05  0.1599840E+04  0.7818609E-02  0.8820646E-01
       -1   -1    0    0    0  501  0.00000000000E+00  0.00000000000E+00  0.72579914217E+03  0.72579914219E+03  0.50400001928E-02 0.  1.
        1   -1    0    0  501    0  0.00000000000E+00  0.00000000000E+00 -0.88161048954E+03  0.88161048956E+03  0.50400001928E-02 0. -1.
    10030    2    1    2    0    0  0.00000000000E+00  0.00000000000E+00 -0.15581134737E+03  0.16074096317E+04  0.15998401634E+04 0.  0.
        3    1    3    3  502    0 -0.60775299452E+03 -0.49373327994E+03  0.86379039579E+02  0.78778017413E+03  0.10100000352E+00 0. -1.
       -3    1    3    3    0  502  0.60775299452E+03  0.49373327994E+03 -0.24219038695E+03  0.81962945762E+03  0.10100000352E+00 0.  1.
</event>
<event>
 5   0  0.1994525E-05  0.1600884E+04  0.7818609E-02  0.8820005E-01
        2   -1    0    0  501    0  0.00000000000E+00  0.00000000000E+00  0.74610963907E+03  0.74610963907E+03  0.25500000920E-02 0. -1.
       -2   -1    0    0    0  501  0.00000000000E+00  0.00000000000E+00 -0.85873095888E+03  0.85873095888E+03  0.25500000920E-02 0.  1.
    10030    2    1    2    0    0  0.00000000000E+00  0.00000000000E+00 -0.11262131981E+03  0.16048405980E+04  0.16008840630E+04 0.  0.
        5    1    3    3  502    0  0.55204779869E+03 -0.61535561318E+02  0.52143127571E+03  0.76187667154E+03  0.46999998093E+01 0. -1.
       -5    1    3    3    0  502 -0.55204779869E+03  0.61535561318E+02 -0.63405259552E+03  0.84296392641E+03  0.46999998093E+01 0.  1.
</event>
<event>
 5   0  0.1090674E-05  0.1599830E+04  0.7818609E-02  0.8820652E-01
        1   -1    0    0  501    0  0.00000000000E+00  0.00000000000E+00  0.16847405664E+04  0.16847405664E+04  0.50400001928E-02 0.  1.
       -1   -1    0    0    0  501  0.00000000000E+00  0.00000000000E+00 -0.37979972223E+03  0.37979972226E+03  0.50400001928E-02 0. -1.
    10030    2    1    2    0    0  0.00000000000E+00  0.00000000000E+00  0.13049408441E+04  0.20645402886E+04  0.15998299899E+04 0.  0.
        4    1    3    3  502    0  0.24529063015E+03  0.68831356933E+03  0.23248218452E+03  0.76680678269E+03  0.12699999809E+01 0. -1.
       -4    1    3    3    0  502 -0.24529063015E+03 -0.68831356933E+03  0.10724586596E+04  0.12977335059E+04  0.12699999809E+01 0.  1.
</event>
<event>
 5   0  0.1081831E-05  0.1600742E+04  0.7818609E-02  0.8820092E-01
        1   -1    0    0  501    0  0.00000000000E+00  0.00000000000E+00  0.57204016560E+03  0.57204016562E+03  0.50400001928E-02 0.  1.
       -1   -1    0    0    0  501  0.00000000000E+00  0.00000000000E+00 -0.11198404396E+04  0.11198404396E+04  0.50400001928E-02 0. -1.
    10030    2    1    2    0    0  0.00000000000E+00  0.00000000000E+00 -0.54780027404E+03  0.16918806053E+04  0.16007419662E+04 0.  0.
        3    1    3    3  502    0 -0.19877790430E+03 -0.68696221113E+03 -0.65375620310E+03  0.96893081180E+03  0.10100000352E+00 0. -1.
       -3    1    3    3    0  502  0.19877790430E+03  0.68696221113E+03  0.10595592906E+03  0.72294979346E+03  0.10100000352E+00 0.  1.
</event>
<event>
 5   0  0.2147844E-05  0.1600331E+04  0.7818609E-02  0.8820345E-01
       -2   -1    0    0    0  501  0.00000000000E+00  0.00000000000E+00  0.49832219963E+03  0.49832219964E+03  0.25500000920E-02 0.  1.
        2   -1    0    0  501    0  0.00000000000E+00  0.00000000000E+00 -0.12848414109E+04  0.12848414110E+04  0.25500000920E-02 0. -1.
    10030    2    1    2    0    0  0.00000000000E+00  0.00000000000E+00 -0.78651921132E+03  0.17831636106E+04  0.16003312133E+04 0.  0.
        2    1    3    3  502    0 -0.44266725645E+03 -0.37237043955E+03  0.22275951809E+03  0.61986760448E+03  0.25500000920E-02 0.  1.
       -2    1    3    3    0  502  0.44266725645E+03  0.37237043955E+03 -0.10092787294E+04  0.11632960061E+04  0.25500000920E-02 0. -1.
</event>
<event>
 5   0  0.1090674E-05  0.1600493E+04  0.7818609E-02  0.8820245E-01
        1   -1    0    0  501    0  0.00000000000E+00  0.00000000000E+00  0.63571801608E+03  0.63571801610E+03  0.50400001928E-02 0.  1.
       -1   -1    0    0    0  501  0.00000000000E+00  0.00000000000E+00 -0.10073565493E+04  0.10073565493E+04  0.50400001928E-02 0. -1.
    10030    2    1    2    0    0  0.00000000000E+00  0.00000000000E+00 -0.37163853322E+03  0.16430745654E+04  0.16004933078E+04 0.  0.
        4    1    3    3  502    0  0.13052696197E+03  0.72919961513E+03  0.12492805115E+03  0.75125095499E+03  0.12699999809E+01 0.  1.
       -4    1    3    3    0  502 -0.13052696197E+03 -0.72919961513E+03 -0.49656658437E+03  0.89182361043E+03  0.12699999809E+01 0. -1.
</event>
<event>
 5   0  0.2046108E-05  0.1600048E+04  0.7818609E-02  0.8820518E-01
        2   -1    0    0  501    0  0.00000000000E+00  0.00000000000E+00  0.14929884863E+04  0.14929884863E+04  0.25500000920E-02 0. -1.
       -2   -1    0    0    0  501  0.00000000000E+00  0.00000000000E+00 -0.42869615842E+03  0.42869615842E+03  0.25500000920E-02 0.  1.
    10030    2    1    2    0    0  0.00000000000E+00  0.00000000000E+00  0.10642923279E+04  0.19216846447E+04  0.16000480351E+04 0.  0.
        1    1    3    3  502    0  0.19942830187E+03  0.62264069994E+03 -0.21606406184E+02  0.65415588786E+03  0.50400001928E-02 0.  1.
       -1    1    3    3    0  502 -0.19942830187E+03 -0.62264069994E+03  0.10858987341E+04  0.12675287569E+04  0.50400001928E-02 0. -1.
</event>
<event>
 5   0  0.1126485E-05  0.1600679E+04  0.7818609E-02  0.8820131E-01
        1   -1    0    0  501    0  0.00000000000E+00  0.00000000000E+00  0.13560641175E+04  0.13560641175E+04  0.50400001928E-02 0. -1.
       -1   -1    0    0    0  501  0.00000000000E+00  0.00000000000E+00 -0.47235449860E+03  0.47235449863E+03  0.50400001928E-02 0.  1.
    10030    2    1    2    0    0  0.00000000000E+00  0.00000000000E+00  0.88370961892E+03  0.18284186162E+04  0.16006785890E+04 0.  0.
        2    1    3    3  502    0 -0.27207757738E+03  0.63283838922E+02  0.12985717783E+04  0.13282769725E+04  0.25500000920E-02 0. -1.
       -2    1    3    3    0  502  0.27207757738E+03 -0.63283838922E+02 -0.41486215938E+03  0.50014164362E+03  0.25500000920E-02 0.  1.
</event>
<event>
 5   0  0.1090674E-05  0.1599415E+04  0.7818609E-02  0.8820907E-01
        1   -1    0    0  501    0  0.00000000000E+00  0.00000000000E+00  0.18440579416E+04  0.18440579417E+04  0.50400001928E-02 0. -1.
       -1   -1    0    0    0  501  0.00000000000E+00  0.00000000000E+00 -0.34680698770E+03  0.34680698774E+03  0.50400001928E-02 0.  1.
    10030    2    1    2    0    0  0.00000000000E+00  0.00000000000E+00  0.14972509539E+04  0.21908649294E+04  0.15994151180E+04 0.  0.
        4    1    3    3  502    0 -0.31086764664E+03 -0.50575368634E+03  0.14661328577E+02  0.59383672203E+03  0.12699999809E+01 0.  1.
       -4    1    3    3    0  502  0.31086764664E+03  0.50575368634E+03  0.14825896254E+04  0.15970282074E+04  0.12699999809E+01 0. -1.
</event>
<event>
 5   0  0.2125803E-05  0.1599234E+04  0.7818609E-02  0.8821019E-01
        2   -1    0    0  501    0  0.00000000000E+00  0.00000000000E+00  0.11743958867E+04  0.11743958867E+04  0.25500000920E-02 0. -1.
       -2   -1    0    0    0  501  0.00000000000E+00  0.00000000000E+00 -0.54443908565E+03  0.54443908565E+03  0.25500000920E-02 0.  1.
    10030    2    1    2    0    0  0.00000000000E+00  0.00000000000E+00  0.62995680103E+03  0.17188349723E+04  0.15992335949E+04 0.  0.
        3    1    3    3  502    0  0.14206052689E+03  0.10409714606E+03  0.11532910716E+04  0.11666609255E+04  0.10100000352E+00 0. -1.
       -3    1    3    3    0  502 -0.14206052689E+03 -0.10409714606E+03 -0.52333427052E+03  0.55217404686E+03  0.10100000352E+00 0.  1.
</event>
<event>
 5   0  0.1081831E-05  0.1599469E+04  0.7818609E-02  0.8820874E-01
       -1   -1    0    0    0  501  0.00000000000E+00  0.00000000000E+00  0.56327954110E+03  0.56327954112E+03  0.50400001928E-02 0.  1.
        1   -1    0    0  501    0  0.00000000000E+00  0.00000000000E+00 -0.11354493665E+04  0.11354493666E+04  0.50400001928E-02 0. -1.
    10030    2    1    2    0    0  0.00000000000E+00  0.00000000000E+00 -0.57216982545E+03  0.16987289077E+04  0.15994691596E+04 0.  0.
        3    1    3    3  502    0  0.20291090039E+03 -0.54004064702E+03 -0.87431416582E+03  0.10474932003E+04  0.10100000352E+00 0. -1.
       -3    1    3    3    0  502 -0.20291090039E+03  0.54004064702E+03  0.30214434037E+03  0.65123570737E+03  0.10100000352E+00 0.  1.
</event>
<event>
 5   0  0.2147844E-05  0.1600241E+04  0.7818609E-02  0.8820400E-01
       -2   -1    0    0    0  501  0.00000000000E+00  0.00000000000E+00  0.14051522371E+04  0.14051522371E+04  0.25500000920E-02 0.  1.
        2   -1    0    0  501    0  0.00000000000E+00  0.00000000000E+00 -0.45560385846E+03  0.45560385847E+03  0.25500000920E-02 0. -1.
    10030    2    1    2    0    0  0.00000000000E+00  0.00000000000E+00  0.94954837867E+03  0.18607560956E+04  0.16002409581E+04 0.  0.
        2    1    3    3  502    0 -0.68569526486E+03  0.23536279464E+03  0.81103899044E+02  0.72948713751E+03  0.25500000920E-02 0. -1.
       -2    1    3    3    0  502  0.68569526486E+03 -0.23536279464E+03  0.86844447963E+03  0.11312689581E+04  0.25500000920E-02 0.  1.
</event>
<event>
 5   0  0.2125803E-05  0.1599760E+04  0.7818609E-02  0.8820695E-01
       -2   -1    0    0    0  501  0.00000000000E+00  0.00000000000E+00  0.27622293737E+03  0.27622293738E+03  0.25500000920E-02 0. -1.
        2   -1    0    0  501    0  0.00000000000E+00  0.00000000000E+00 -0.23162754604E+04  0.23162754604E+04  0.25500000920E-02 0.  1.
    10030    2    1    2    0    0  0.00000000000E+00  0.00000000000E+00 -0.20400525230E+04  0.25924983978E+04  0.15997604964E+04 0.  0.
        3    1    3    3  502    0  0.63681132989E+03  0.48396561279E+03 -0.10322630002E+04  0.13058783619E+04  0.10100000352E+00 0. -1.
       -3    1    3    3    0  502 -0.63681132989E+03 -0.48396561279E+03 -0.10077895228E+04  0.12866200359E+04  0.10100000352E+00 0.  1.
</event>
<event>
 5   0  0.2147844E-05  0.1599922E+04  0.7818609E-02  0.8820596E-01
       -2   -1    0    0    0  501  0.00000000000E+00  0.00000000000E+00  0.44236984695E+03  0.44236984696E+03  0.25500000920E-02 0.  1.
        2   -1    0    0  501    0  0.00000000000E+00  0.00000000000E+00 -0.14466119904E+04  0.14466119904E+04  0.25500000920E-02 0. -1.
    10030    2    1    2    0    0  0.00000000000E+00  0.00000000000E+00 -0.10042421434E+04  0.18889818373E+04  0.15999219041E+04 0.  0.
        2    1    3    3  502    0  0.56721443012E+03 -0.53505058732E+03 -0.29115991189E+03  0.83233733247E+03  0.25500000920E-02 0.  1.
       -2    1    3    3    0  502 -0.56721443012E+03  0.53505058732E+03 -0.71308223151E+03  0.10566445048E+04  0.25500000920E-02 0. -1.
</event>
<event>
 5   0  0.1990948E-05  0.1595119E+04  0.7818609E-02  0.8823552E-01
        2   -1    0    0  501    0  0.00000000000E+00  0.00000000000E+00  0.12294946198E+04  0.12294946198E+04  0.25500000920E-02 0.  1.
       -2   -1    0    0    0  501  0.00000000000E+00  0.00000000000E+00 -0.51736783121E+03  0.51736783122E+03  0.25500000920E-02 0. -1.
    10030    2    1    2    0    0  0.00000000000E+00  0.00000000000E+00  0.71212678858E+03  0.17468624510E+04  0.15951187604E+04 0.  0.
        4    1    3    3  502    0  0.52145181515E+03  0.51709167555E+03  0.69679415391E+03  0.10123336912E+04  0.12699999809E+01 0.  1.
       -4    1    3    3    0  502 -0.52145181515E+03 -0.51709167555E+03  0.15332634677E+02  0.73452875984E+03  0.12699999809E+01 0. -1.
</event>
<event>
 5   0  0.1057506E-05  0.1599633E+04  0.7818609E-02  0.8820773E-01
       -1   -1    0    0    0  501  0.00000000000E+00  0.00000000000E+00  0.30812557153E+03  0.30812557157E+03  0.50400001928E-02 0.  1.
        1   -1    0    0  501    0  0.00000000000E+00  0.00000000000E+00 -0.20761233703E+04  0.20761233703E+04  0.50400001928E-02 0. -1.
    10030    2    1    2    0    0  0.00000000000E+00  0.00000000000E+00 -0.17679977988E+04  0.23842489419E+04  0.15996333331E+04 0.  0.
        5    1    3    3  502    0 -0.11479327288E+03  0.15082790439E+03 -0.20421430637E+04  0.20509258726E+04  0.46999998093E+01 0. -1.
       -5    1    3    3    0  502  0.11479327288E+03 -0.15082790439E+03  0.27414526492E+03  0.33332306929E+03  0.46999998093E+01 0.  1.
</event>
<event>
 5   0  0.1090674E-05  0.1600399E+04  0.7818609E-02  0.8820303E-01
        1   -1    0    0  501    0  0.00000000000E+00  0.00000000000E+00  0.22875624889E+04  0.22875624889E+04  0.50400001928E-02 0.  1.
       -1   -1    0    0    0  501  0.00000000000E+00  0.00000000000E+00 -0.27991347082E+03  0.27991347086E+03  0.50400001928E-02 0. -1.
    10030    2    1    2    0    0  0.00000000000E+00  0.00000000000E+00  0.20076490181E+04  0.25674759598E+04  0.16003993952E+04 0.  0.
        4    1    3    3  502    0 -0.78647504538E+03  0.13224670992E+03  0.89879976809E+03  0.12016134259E+04  0.12699999809E+01 0.  1.
       -4    1    3    3    0  502  0.78647504538E+03 -0.13224670992E+03  0.11088492500E+04  0.13658625338E+04  0.12699999809E+01 0. -1.
</event>
<event>
 5   0  0.2147844E-05  0.1601263E+04  0.7818609E-02  0.8819773E-01
       -2   -1    0    0    0  501  0.00000000000E+00  0.00000000000E+00  0.47704363553E+03  0.47704363554E+03  0.25500000920E-02 0.  1.
        2   -1    0    0  501    0  0.00000000000E+00  0.00000000000E+00 -0.13437146353E+04  0.13437146353E+04  0.25500000920E-02 0. -1.
    10030    2    1    2    0    0  0.00000000000E+00  0.00000000000E+00 -0.86667099980E+03  0.18207582709E+04  0.16012626452E+04 0.  0.
        2    1    3    3  502    0 -0.40649995839E+03 -0.66937429552E+03 -0.62260445546E+03  0.10004701253E+04  0.25500000920E-02 0. -1.
       -2    1    3    3    0  502  0.40649995839E+03  0.66937429552E+03 -0.24406654434E+03  0.82028814556E+03  0.25500000920E-02 0.  1.
</event>
<event>
 5   0  0.2147844E-05  0.1600402E+04  0.7818609E-02  0.8820301E-01
       -2   -1    0    0    0  501  0.00000000000E+00  0.00000000000E+00  0.30173529882E+03  0.30173529883E+03  0.25500000920E-02 0. -1.
        2   -1    0    0  501    0  0.00000000000E+00  0.00000000000E+00 -0.21221292403E+04  0.21221292403E+04  0.25500000920E-02 0.  1.
    10030    2    1    2    0    0  0.00000000000E+00  0.00000000000E+00 -0.18203939415E+04  0.24238645391E+04  0.16004015752E+04 0.  0.
        2    1    3    3  502    0  0.54295928792E+03  0.50950749599E+03 -0.13541356959E+04  0.15453433792E+04  0.25500000920E-02 0.  1.
       -2    1    3    3    0  502 -0.54295928792E+03 -0.50950749599E+03 -0.46625824557E+03  0.87852115989E+03  0.25500000920E-02 0. -1.
</event>
<event>
 5   0  0.7597000E-06  0.1599749E+04  0.7818609E-02  0.8820702E-01
        3   -1    0    0  501    0  0.00000000000E+00  0.00000000000E+00  0.10125106223E+04  0.10125106274E+04  0.10100000352E+00 0.  1.
       -3   -1    0    0    0  501  0.00000000000E+00  0.00000000000E+00 -0.63189354817E+03  0.63189355624E+03  0.10100000352E+00 0. -1.
    10030    2    1    2    0    0  0.00000000000E+00  0.00000000000E+00  0.38061707418E+03  0.16444041836E+04  0.15997486559E+04 0.  0.
        3    1    3    3  502    0  0.75963685031E+03  0.25047374643E+03  0.19411158185E+03  0.82308235214E+03  0.10100000352E+00 0. -1.
       -3    1    3    3    0  502 -0.75963685031E+03 -0.25047374643E+03  0.18650549232E+03  0.82132183148E+03  0.10100000352E+00 0.  1.
</event>
<event>
 5   0  0.2125803E-05  0.1600231E+04  0.7818609E-02  0.8820406E-01
        2   -1    0    0  501    0  0.00000000000E+00  0.00000000000E+00  0.13499770211E+04  0.13499770211E+04  0.25500000920E-02 0. -1.
       -2   -1    0    0    0  501  0.00000000000E+00  0.00000000000E+00 -0.47421885755E+03  0.47421885756E+03  0.25500000920E-02 0.  1.
    10030    2    1    2    0    0  0.00000000000E+00  0.00000000000E+00  0.87575816351E+03  0.18241958786E+04  0.16002306842E+04 0.  0.
        3    1    3    3  502    0 -0.52376740928E+03  0.21286283305E+03  0.10832822920E+04  0.12219424778E+04  0.10100000352E+00 0. -1.
       -3    1    3    3    0  502  0.52376740928E+03 -0.21286283305E+03 -0.20752412845E+03  0.60225340083E+03  0.10100000352E+00 0.  1.
</event>
<event>
 5   0  0.1126485E-05  0.1603886E+04  0.7818609E-02  0.8818164E-01
       -1   -1    0    0    0  501  0.00000000000E+00  0.00000000000E+00  0.39263326316E+03  0.39263326319E+03  0.50400001928E-02 0.  1.
        1   -1    0    0  501    0  0.00000000000E+00  0.00000000000E+00 -0.16379479997E+04  0.16379479997E+04  0.50400001928E-02 0. -1.
    10030    2    1    2    0    0  0.00000000000E+00  0.00000000000E+00 -0.12453147366E+04  0.20305812629E+04  0.16038863651E+04 0.  0.
        2    1    3    3  502    0 -0.62041253603E+03  0.50577863507E+03 -0.68453964169E+03  0.10532417878E+04  0.25500000920E-02 0. -1.
       -2    1    3    3    0  502  0.62041253603E+03 -0.50577863507E+03 -0.56077509488E+03  0.97733947511E+03  0.25500000920E-02 0.  1.
</event>
<event>
 5   0  0.1060251E-05  0.1600008E+04  0.7818609E-02  0.8820543E-01
        1   -1    0    0  501    0  0.00000000000E+00  0.00000000000E+00  0.29419540351E+03  0.29419540356E+03  0.50400001928E-02 0.  1.
       -1   -1    0    0    0  501  0.00000000000E+00  0.00000000000E+00 -0.21754460438E+04  0.21754460438E+04  0.50400001928E-02 0. -1.
    10030    2    1    2    0    0  0.00000000000E+00  0.00000000000E+00 -0.18812506403E+04  0.24696414474E+04  0.16000077834E+04 0.  0.
        1    1    3    3  502    0  0.25719336719E+03 -0.38518559333E+03 -0.19474559422E+04  0.20017744669E+04  0.50400001928E-02 0. -1.
       -1    1    3    3    0  502 -0.25719336719E+03  0.38518559333E+03  0.66205301868E+02  0.46786698052E+03  0.50400001928E-02 0.  1.
</event>
<event>
 5   0  0.2147844E-05  0.1599656E+04  0.7818609E-02  0.8820759E-01
       -2   -1    0    0    0  501  0.00000000000E+00  0.00000000000E+00  0.65586144327E+03  0.65586144328E+03  0.25500000920E-02 0. -1.
        2   -1    0    0  501    0  0.00000000000E+00  0.00000000000E+00 -0.97539664874E+03  0.97539664874E+03  0.25500000920E-02 0.  1.
    10030    2    1    2    0    0  0.00000000000E+00  0.00000000000E+00 -0.31953520546E+03  0.16312580920E+04  0.15996562803E+04 0.  0.
        2    1    3    3  502    0  0.23680501807E+03  0.36863520815E+02  0.61838628182E+03  0.66320217830E+03  0.25500000920E-02 0. -1.
       -2    1    3    3    0  502 -0.23680501807E+03 -0.36863520815E+02 -0.93792148729E+03  0.96805591371E+03  0.25500000920E-02 0.  1.
</event>
<event>
 5   0  0.1994525E-05  0.1600000E+04  0.7818609E-02  0.8820548E-01
       -2   -1    0    0    0  501  0.00000000000E+00  0.00000000000E+00  0.27623615090E+03  0.27623615091E+03  0.25500000920E-02 0. -1.
        2   -1    0    0  501    0  0.00000000000E+00  0.00000000000E+00 -0.23168592728E+04  0.23168592728E+04  0.25500000920E-02 0.  1.
    10030    2    1    2    0    0  0.00000000000E+00  0.00000000000E+00 -0.20406231219E+04  0.25930954237E+04  0.16000003596E+04 0.  0.
        5    1    3    3  502    0  0.34302974216E+03 -0.20984896277E+03 -0.21411318666E+04  0.21785714932E+04  0.46999998093E+01 0.  1.
       -5    1    3    3    0  502 -0.34302974216E+03  0.20984896277E+03  0.10050874466E+03  0.41452393047E+03  0.46999998093E+01 0. -1.
</event>
<event>
 5   0  0.7597000E-06  0.1600099E+04  0.7818609E-02  0.8820487E-01
        4   -1    0    0  501    0  0.00000000000E+00  0.00000000000E+00  0.54380330464E+03  0.54380478762E+03  0.12699999809E+01 0. -1.
       -4   -1    0    0    0  501  0.00000000000E+00  0.00000000000E+00 -0.11770378753E+04  0.11770385605E+04  0.12699999809E+01 0.  1.
    10030    2    1    2    0    0  0.00000000000E+00  0.00000000000E+00 -0.63323457066E+03  0.17208433481E+04  0.16000986867E+04 0.  0.
        5    1    3    3  502    0  0.55602698978E+03 -0.57103594058E+03 -0.39119568516E+03  0.88786497446E+03  0.46999998093E+01 0. -1.
       -5    1    3    3    0  502 -0.55602698978E+03  0.57103594058E+03 -0.24203888551E+03  0.83297837361E+03  0.46999998093E+01 0.  1.
</event>
<event>
 5   0  0.1057506E-05  0.1599241E+04  0.7818609E-02  0.8821014E-01
       -1   -1    0    0    0  501  0.00000000000E+00  0.00000000000E+00  0.27377431745E+03  0.27377431750E+03  0.50400001928E-02 0.  1.
        1   -1    0    0  501    0  0.00000000000E+00  0.00000000000E+00 -0.23354758003E+04  0.23354758003E+04  0.50400001928E-02 0. -1.
    10030    2    1    2    0    0  0.00000000000E+00  0.00000000000E+00 -0.20617014829E+04  0.26092501178E+04  0.15992414367E+04 0.  0.
        5    1    3    3  502    0 -0.13759339513E+03 -0.73928465582E+03 -0.58732745262E+03  0.95417470692E+03  0.46999998093E+01 0. -1.
       -5    1    3    3    0  502  0.13759339513E+03  0.73928465582E+03 -0.14743740302E+04  0.16550754109E+04  0.46999998093E+01 0.  1.
</event>
<event>
 5   0  0.1990948E-05  0.1601072E+04  0.7818609E-02  0.8819890E-01
       -2   -1    0    0    0  501  0.00000000000E+00  0.00000000000E+00  0.32242117649E+03  0.32242117650E+03  0.25500000920E-02 0.  1.
        2   -1    0    0  501    0  0.00000000000E+00  0.00000000000E+00 -0.19876415271E+04  0.19876415271E+04  0.25500000920E-02 0. -1.
    10030    2    1    2    0    0  0.00000000000E+00  0.00000000000E+00 -0.16652203506E+04  0.23100627036E+04  0.16010717906E+04 0.  0.
        4    1    3    3  502    0  0.55356861036E+03 -0.35084794848E+03 -0.16934532756E+03  0.67691354115E+03  0.12699999809E+01 0.  1.
       -4    1    3    3    0  502 -0.55356861036E+03  0.35084794848E+03 -0.14958750230E+04  0.16331491624E+04  0.12699999809E+01 0. -1.
</event>
<event>
 5   0  0.1081831E-05  0.1598299E+04  0.7818609E-02  0.8821593E-01
        1   -1    0    0  501    0  0.00000000000E+00  0.00000000000E+00  0.65468324207E+03  0.65468324209E+03  0.50400001928E-02 0.  1.
       -1   -1    0    0    0  501  0.00000000000E+00  0.00000000000E+00 -0.97549511879E+03  0.97549511880E+03  0.50400001928E-02 0. -1.
    10030    2    1    2    0    0  0.00000000000E+00  0.00000000000E+00 -0.32081187672E+03  0.16301783609E+04  0.15982994801E+04 0.  0.
        3    1    3    3  502    0 -0.47870179405E+03  0.43786465512E+03  0.31554858028E+03  0.72142344053E+03  0.10100000352E+00 0.  1.
       -3    1    3    3    0  502  0.47870179405E+03 -0.43786465512E+03 -0.63636045701E+03  0.90875492036E+03  0.10100000352E+00 0. -1.
</event>
<event>
 5   0  0.1126485E-05  0.1599888E+04  0.7818609E-02  0.8820617E-01
        1   -1    0    0  501    0  0.00000000000E+00  0.00000000000E+00  0.46846097141E+03  0.46846097144E+03  0.50400001928E-02 0. -1.
       -1   -1    0    0    0  501  0.00000000000E+00  0.00000000000E+00 -0.13659848419E+04  0.13659848419E+04  0.50400001928E-02 0.  1.
    10030    2    1    2    0    0  0.00000000000E+00  0.00000000000E+00 -0.89752387053E+03  0.18344458134E+04  0.15998882286E+04 0.  0.
        2    1    3    3  502    0 -0.57909621227E+03  0.14320750788E+03  0.16233832385E+03  0.61823502390E+03  0.25500000920E-02 0. -1.
       -2    1    3    3    0  502  0.57909621227E+03 -0.14320750788E+03 -0.10598621944E+04  0.12162107895E+04  0.25500000920E-02 0.  1.
</event>
<event>
 5   0  0.2147844E-05  0.1600111E+04  0.7818609E-02  0.8820480E-01
       -2   -1    0    0    0  501  0.00000000000E+00  0.00000000000E+00  0.82044105259E+03  0.82044105260E+03  0.25500000920E-02 0. -1.
        2   -1    0    0  501    0  0.00000000000E+00  0.00000000000E+00 -0.78017631959E+03  0.78017631959E+03  0.25500000920E-02 0.  1.
    10030    2    1    2    0    0  0.00000000000E+00  0.00000000000E+00  0.40264733005E+02  0.16006173722E+04  0.16001108472E+04 0.  0.
        2    1    3    3  502    0  0.14991528764E+02 -0.26890249339E+03  0.77373356551E+03  0.81926609065E+03  0.25500000920E-02 0. -1.
       -2    1    3    3    0  502 -0.14991528764E+02  0.26890249339E+03 -0.73346883251E+03  0.78135128153E+03  0.25500000920E-02 0.  1.
</event>
<event>
 5   0  0.1994525E-05  0.1599381E+04  0.7818609E-02  0.8820928E-01
       -2   -1    0    0    0  501  0.00000000000E+00  0.00000000000E+00  0.36138522275E+03  0.36138522276E+03  0.25500000920E-02 0. -1.
        2   -1    0    0  501    0  0.00000000000E+00  0.00000000000E+00 -0.17695938440E+04  0.17695938440E+04  0.25500000920E-02 0.  1.
    10030    2    1    2    0    0  0.00000000000E+00  0.00000000000E+00 -0.14082086212E+04  0.21309790667E+04  0.15993812122E+04 0.  0.
        5    1    3    3  502    0  0.79438426535E+03  0.81717113706E+02 -0.64822497960E+03  0.10285629596E+04  0.46999998093E+01 0. -1.
       -5    1    3    3    0  502 -0.79438426535E+03 -0.81717113706E+02 -0.75998364164E+03  0.11024161071E+04  0.46999998093E+01 0.  1.
</event>
<event>
 5   0  0.1090674E-05  0.1599939E+04  0.7818609E-02  0.8820585E-01
        1   -1    0    0  501    0  0.00000000000E+00  0.00000000000E+00  0.14196270919E+04  0.14196270919E+04  0.50400001928E-02 0.  1.
       -1   -1    0    0    0  501  0.00000000000E+00  0.00000000000E+00 -0.45078832544E+03  0.45078832547E+03  0.50400001928E-02 0. -1.
    10030    2    1    2    0    0  0.00000000000E+00  0.00000000000E+00  0.96883876641E+03  0.18704154173E+04  0.15999391482E+04 0.  0.
        4    1    3    3  502    0  0.22817517408E+03 -0.29703274463E+03 -0.34194339405E+03  0.50716788056E+03  0.12699999809E+01 0. -1.
       -4    1    3    3    0  502 -0.22817517408E+03  0.29703274463E+03  0.13107821605E+04  0.13632475368E+04  0.12699999809E+01 0.  1.
</event>
<event>
 5   0  0.1994525E-05  0.1599860E+04  0.7818609E-02  0.8820634E-01
        2   -1    0    0  501    0  0.00000000000E+00  0.00000000000E+00  0.14960900161E+04  0.14960900161E+04  0.25500000920E-02 0.  1.
       -2   -1    0    0    0  501  0.00000000000E+00  0.00000000000E+00 -0.42770705376E+03  0.42770705377E+03  0.25500000920E-02 0. -1.
    10030    2    1    2    0    0  0.00000000000E+00  0.00000000000E+00  0.10683829624E+04  0.19237970699E+04  0.15998603101E+04 0.  0.
        5    1    3    3  502    0 -0.45006467788E+03 -0.55220266930E+03  0.97170214868E+03  0.12048705980E+04  0.46999998093E+01 0.  1.
       -5    1    3    3    0  502  0.45006467788E+03  0.55220266930E+03  0.96680813706E+02  0.71892647189E+03  0.46999998093E+01 0. -1.
</event>
<event>
 5   0  0.1081831E-05  0.1599420E+04  0.7818609E-02  0.8820905E-01
        1   -1    0    0  501    0  0.00000000000E+00  0.00000000000E+00  0.21299292770E+04  0.21299292770E+04  0.50400001928E-02 0. -1.
       -1   -1    0    0    0  501  0.00000000000E+00  0.00000000000E+00 -0.30026158476E+03  0.30026158481E+03  0.50400001928E-02 0.  1.
    10030    2    1    2    0    0  0.00000000000E+00  0.00000000000E+00  0.18296676923E+04  0.24301908618E+04  0.15994198201E+04 0.  0.
        3    1    3    3  502    0 -0.30440360299E+03  0.66641698469E+03  0.42775885629E+03  0.84838128240E+03  0.10100000352E+00 0. -1.
       -3    1    3    3    0  502  0.30440360299E+03 -0.66641698469E+03  0.14019088360E+04  0.15818095794E+04  0.10100000352E+00 0.  1.
</event>
<event>
 5   0  0.2147844E-05  0.1600028E+04  0.7818609E-02  0.8820531E-01
       -2   -1    0    0    0  501  0.00000000000E+00  0.00000000000E+00  0.64590703907E+03  0.64590703908E+03  0.25500000920E-02 0. -1.
        2   -1    0    0  501    0  0.00000000000E+00  0.00000000000E+00 -0.99088944714E+03  0.99088944715E+03  0.25500000920E-02 0.  1.
    10030    2    1    2    0    0  0.00000000000E+00  0.00000000000E+00 -0.34498240807E+03  0.16367964862E+04  0.16000280858E+04 0.  0.
        2    1    3    3  502    0  0.53395622697E+03  0.54514904966E+01  0.43691936297E+03  0.68995470925E+03  0.25500000920E-02 0. -1.
       -2    1    3    3    0  502 -0.53395622697E+03 -0.54514904966E+01 -0.78190177104E+03  0.94684177698E+03  0.25500000920E-02 0.  1.
</event>
<event>
 5   0  0.2125803E-05  0.1599207E+04  0.7818609E-02  0.8821035E-01
       -2   -1    0    0    0  501  0.00000000000E+00  0.00000000000E+00  0.29262765770E+03  0.29262765771E+03  0.25500000920E-02 0. -1.
        2   -1    0    0  501    0  0.00000000000E+00  0.00000000000E+00 -0.21849127804E+04  0.21849127804E+04  0.25500000920E-02 0.  1.
    10030    2    1    2    0    0  0.00000000000E+00  0.00000000000E+00 -0.18922851227E+04  0.24775404381E+04  0.15992071901E+04 0.  0.
        3    1    3    3  502    0 -0.67698679227E+03 -0.38990260432E+03 -0.12101067921E+04  0.14403796778E+04  0.10100000352E+00 0.  1.
       -3    1    3    3    0  502  0.67698679227E+03  0.38990260432E+03 -0.68217833059E+03  0.10371607603E+04  0.10100000352E+00 0. -1.
</event>
<event>
 5   0  0.2046108E-05  0.1597200E+04  0.7818609E-02  0.8822270E-01
        2   -1    0    0  501    0  0.00000000000E+00  0.00000000000E+00  0.18396546014E+04  0.18396546015E+04  0.25500000920E-02 0.  1.
       -2   -1    0    0    0  501  0.00000000000E+00  0.00000000000E+00 -0.34667464318E+03  0.34667464319E+03  0.25500000920E-02 0. -1.
    10030    2    1    2    0    0  0.00000000000E+00  0.00000000000E+00  0.14929799583E+04  0.21863292446E+04  0.15971995524E+04 0.  0.
        1    1    3    3  502    0 -0.58467395567E+03  0.30913859631E+03  0.13378351445E+03  0.67476539251E+03  0.50400001928E-02 0. -1.
       -1    1    3    3    0  502  0.58467395567E+03 -0.30913859631E+03  0.13591964438E+04  0.15115638521E+04  0.50400001928E-02 0.  1.
</event>
<event>
 5   0  0.1060251E-05  0.1601106E+04  0.7818609E-02  0.8819869E-01
        1   -1    0    0  501    0  0.00000000000E+00  0.00000000000E+00  0.95271163630E+03  0.95271163631E+03  0.50400001928E-02 0. -1.
       -1   -1    0    0    0  501  0.00000000000E+00  0.00000000000E+00 -0.67269568126E+03  0.67269568128E+03  0.50400001928E-02 0.  1.
    10030    2    1    2    0    0  0.00000000000E+00  0.00000000000E+00  0.28001595503E+03  0.16254073176E+04  0.16011058719E+04 0.  0.
        1    1    3    3  502    0  0.40407201617E+03  0.14975128925E+03  0.82492238720E+03  0.93069682916E+03  0.50400001928E-02 0. -1.
       -1    1    3    3    0  502 -0.40407201617E+03 -0.14975128925E+03 -0.54490643217E+03  0.69471048842E+03  0.50400001928E-02 0.  1.
</event>
<event>
 5   0  0.2125803E-05  0.1600281E+04  0.7818609E-02  0.8820376E-01
        2   -1    0    0  501    0  0.00000000000E+00  0.00000000000E+00  0.93244181050E+03  0.93244181051E+03  0.25500000920E-02 0.  1.
       -2   -1    0    0    0  501  0.00000000000E+00  0.00000000000E+00 -0.68661070609E+03  0.68661070610E+03  0.25500000920E-02 0. -1.
    10030    2    1    2    0    0  0.00000000000E+00  0.00000000000E+00  0.24583110441E+03  0.16190525166E+04  0.16002806378E+04 0.  0.
        3    1    3    3  502    0 -0.19037559929E+03  0.71411428081E+03  0.43314323956E+03  0.85663011332E+03  0.10100000352E+00 0.  1.
       -3    1    3    3    0  502  0.19037559929E+03 -0.71411428081E+03 -0.18731213515E+03  0.76242240329E+03  0.10100000352E+00 0. -1.
</event>
<event>
 5   0  0.1090674E-05  0.1600408E+04  0.7818609E-02  0.8820297E-01
       -1   -1    0    0    0  501  0.00000000000E+00  0.00000000000E+00  0.52011254417E+03  0.52011254419E+03  0.50400001928E-02 0. -1.
        1   -1    0    0  501    0  0.00000000000E+00  0.00000000000E+00 -0.12311308359E+04  0.12311308360E+04  0.50400001928E-02 0.  1.
    10030    2    1    2    0    0  0.00000000000E+00  0.00000000000E+00 -0.71101829177E+03  0.17512433801E+04  0.16004081871E+04 0.  0.
        4    1    3    3  502    0 -0.67169656486E+03  0.16153982320E+03  0.86347023428E+02  0.69622468433E+03  0.12699999809E+01 0. -1.
       -4    1    3    3    0  502  0.67169656486E+03 -0.16153982320E+03 -0.79736531520E+03  0.10550186958E+04  0.12699999809E+01 0.  1.
</event>
<event>
 5   0  0.1994525E-05  0.1599659E+04  0.7818609E-02  0.8820758E-01
       -2   -1    0    0    0  501  0.00000000000E+00  0.00000000000E+00  0.73200489264E+03  0.73200489264E+03  0.25500000920E-02 0.  1.
        2   -1    0    0  501    0  0.00000000000E+00  0.00000000000E+00 -0.87393813541E+03  0.87393813541E+03  0.25500000920E-02 0. -1.
    10030    2    1    2    0    0  0.00000000000E+00  0.00000000000E+00 -0.14193324277E+03  0.16059430281E+04  0.15996587023E+04 0.  0.
        5    1    3    3  502    0  0.25713255530E+03 -0.72463730079E+03  0.15009956570E+03  0.78343368469E+03  0.46999998093E+01 0.  1.
       -5    1    3    3    0  502 -0.25713255530E+03  0.72463730079E+03 -0.29203280847E+03  0.82250934336E+03  0.46999998093E+01 0. -1.
</event>
<event>
 5   0  0.1090674E-05  0.1600647E+04  0.7818609E-02  0.8820150E-01
        1   -1    0    0  501    0  0.00000000000E+00  0.00000000000E+00  0.77625389065E+03  0.77625389067E+03  0.50400001928E-02 0. -1.
       -1   -1    0    0    0  501  0.00000000000E+00  0.00000000000E+00 -0.82513971105E+03  0.82513971107E+03  0.50400001928E-02 0.  1.
    10030    2    1    2    0    0  0.00000000000E+00  0.00000000000E+00 -0.48885820396E+02  0.16013936017E+04  0.16006472579E+04 0.  0.
        4    1    3    3  502    0 -0.53867140573E+03 -0.25458674739E+03  0.51016100050E+03  0.78437692127E+03  0.12699999809E+01 0.  1.
       -4    1    3    3    0  502  0.53867140573E+03  0.25458674739E+03 -0.55904682089E+03  0.81701668046E+03  0.12699999809E+01 0. -1.
</event>
<event>
 5   0  0.1081831E-05  0.1600332E+04  0.7818609E-02  0.8820344E-01
        1   -1    0    0  501    0  0.00000000000E+00  0.00000000000E+00  0.98751640638E+03  0.98751640639E+03  0.50400001928E-02 0. -1.
       -1   -1    0    0    0  501  0.00000000000E+00  0.00000000000E+00 -0.64835925169E+03  0.64835925171E+03  0.50400001928E-02 0.  1.
    10030    2    1    2    0    0  0.00000000000E+00  0.00000000000E+00  0.33915715468E+03  0.16358756581E+04  0.16003317135E+04 0.  0.
        3    1    3    3  502    0  0.31956793657E+03  0.24523191788E+02 -0.57987684713E+03  0.66255733417E+03  0.10100000352E+00 0.  1.
       -3    1    3    3    0  502 -0.31956793657E+03 -0.24523191788E+02  0.91903400181E+03  0.97331832394E+03  0.10100000352E+00 0. -1.
</event>
<event>
 5   0  0.2046108E-05  0.1601156E+04  0.7818609E-02  0.8819838E-01
        2   -1    0    0  501    0  0.00000000000E+00  0.00000000000E+00  0.61133918286E+03  0.61133918287E+03  0.25500000920E-02 0.  1.
       -2   -1    0    0    0  501  0.00000000000E+00  0.00000000000E+00 -0.10483959473E+04  0.10483959473E+04  0.25500000920E-02 0. -1.
    10030    2    1    2    0    0  0.00000000000E+00  0.00000000000E+00 -0.43705676439E+03  0.16597351301E+04  0.16011564842E+04 0.  0.
        1    1    3    3  502    0  0.97586969407E+02 -0.28248674710E+03  0.55134362956E+03  0.62713776538E+03  0.50400001928E-02 0.  1.
       -1    1    3    3    0  502 -0.97586969407E+02  0.28248674710E+03 -0.98840039395E+03  0.10325973647E+04  0.50400001928E-02 0. -1.
</event>
<event>
 5   0  0.1990948E-05  0.1598925E+04  0.7818609E-02  0.8821208E-01
        2   -1    0    0  501    0  0.00000000000E+00  0.00000000000E+00  0.12273860541E+04  0.12273860541E+04  0.25500000920E-02 0. -1.
       -2   -1    0    0    0  501  0.00000000000E+00  0.00000000000E+00 -0.52073312457E+03  0.52073312457E+03  0.25500000920E-02 0.  1.
    10030    2    1    2    0    0  0.00000000000E+00  0.00000000000E+00  0.70665292957E+03  0.17481191787E+04  0.15989253579E+04 0.  0.
        4    1    3    3  502    0  0.30855089006E+03  0.14970457408E+03 -0.43622407489E+03  0.55489473567E+03  0.12699999809E+01 0.  1.
       -4    1    3    3    0  502 -0.30855089006E+03 -0.14970457408E+03  0.11428770045E+04  0.11932244430E+04  0.12699999809E+01 0. -1.
</event>
<event>
 5   0  0.2125803E-05  0.1599643E+04  0.7818609E-02  0.8820767E-01
        2   -1    0    0  501    0  0.00000000000E+00  0.00000000000E+00  0.24364647504E+04  0.24364647504E+04  0.25500000920E-02 0. -1.
       -2   -1    0    0    0  501  0.00000000000E+00  0.00000000000E+00 -0.26255859551E+03  0.26255859553E+03  0.25500000920E-02 0.  1.
    10030    2    1    2    0    0  0.00000000000E+00  0.00000000000E+00  0.21739061549E+04  0.26990233459E+04  0.15996434139E+04 0.  0.
        3    1    3    3  502    0 -0.70208864131E+03 -0.38220287230E+03  0.11318247273E+04  0.13856531743E+04  0.10100000352E+00 0.  1.
       -3    1    3    3    0  502  0.70208864131E+03  0.38220287230E+03  0.10420814276E+04  0.13133701716E+04  0.10100000352E+00 0. -1.
</event>
<event>
 5   0  0.1090674E-05  0.1599908E+04  0.7818609E-02  0.8820604E-01
       -1   -1    0    0    0  501  0.00000000000E+00  0.00000000000E+00  0.31258789047E+03  0.31258789051E+03  0.50400001928E-02 0. -1.
        1   -1    0    0  501    0  0.00000000000E+00  0.00000000000E+00 -0.20471889908E+04  0.20471889908E+04  0.50400001928E-02 0.  1.
    10030    2    1    2    0    0  0.00000000000E+00  0.00000000000E+00 -0.17346011003E+04  0.23597768813E+04  0.15999081075E+04 0.  0.
        4    1    3    3  502    0 -0.56455330656E+02 -0.22354865742E+03 -0.19971160031E+04  0.20103818417E+04  0.12699999809E+01 0.  1.
       -4    1    3    3    0  502  0.56455330656E+02  0.22354865742E+03  0.26251490282E+03  0.34939503960E+03  0.12699999809E+01 0. -1.
</event>
<event>
 5   0  0.1126485E-05  0.1599716E+04  0.7818609E-02  0.8820723E-01
        1   -1    0    0  501    0  0.00000000000E+00  0.00000000000E+00  0.60210780194E+03  0.60210780196E+03  0.50400001928E-02 0.  1.
       -1   -1    0    0    0  501  0.00000000000E+00  0.00000000000E+00 -0.10625546603E+04  0.10625546603E+04  0.50400001928E-02 0. -1.
    10030    2    1    2    0    0  0.00000000000E+00  0.00000000000E+00 -0.46044685836E+03  0.16646624623E+04  0.15997155384E+04 0.  0.
        2    1    3    3  502    0 -0.10006197368E+03  0.91524749067E+02 -0.10505054681E+04  0.10592218449E+04  0.25500000920E-02 0. -1.
       -2    1    3    3    0  502  0.10006197368E+03 -0.91524749067E+02  0.59005860970E+03  0.60544061737E+03  0.25500000920E-02 0.  1.
</event>
<event>
 5   0  0.1994525E-05  0.1600113E+04  0.7818609E-02  0.8820479E-01
        2   -1    0    0  501    0  0.00000000000E+00  0.00000000000E+00  0.97624409023E+03  0.97624409024E+03  0.25500000920E-02 0. -1.
       -2   -1    0    0    0  501  0.00000000000E+00  0.00000000000E+00 -0.65566629314E+03  0.65566629315E+03  0.25500000920E-02 0.  1.
    10030    2    1    2    0    0  0.00000000000E+00  0.00000000000E+00  0.32057779709E+03  0.16319103834E+04  0.16001129258E+04 0.  0.
        5    1    3    3  502    0 -0.50905376696E+03 -0.60201279226E+03  0.29905564684E+03  0.84321498422E+03  0.46999998093E+01 0.  1.
       -5    1    3    3    0  502  0.50905376696E+03  0.60201279226E+03  0.21522150250E+02  0.78869539916E+03  0.46999998093E+01 0. -1.
</event>
<event>
 5   0  0.1060251E-05  0.1598822E+04  0.7818609E-02  0.8821272E-01
       -1   -1    0    0    0  501  0.00000000000E+00  0.00000000000E+00  0.73994579386E+03  0.73994579388E+03  0.50400001928E-02 0. -1.
        1   -1    0    0  501    0  0.00000000000E+00  0.00000000000E+00 -0.86365550331E+03  0.86365550333E+03  0.50400001928E-02 0.  1.
    10030    2    1    2    0    0  0.00000000000E+00  0.00000000000E+00 -0.12370970945E+03  0.16036012972E+04  0.15988223879E+04 0.  0.
        1    1    3    3  502    0  0.48725101824E+03  0.42758618663E+03 -0.53102944139E+03  0.83799508914E+03  0.50400001928E-02 0.  1.
       -1    1    3    3    0  502 -0.48725101824E+03 -0.42758618663E+03  0.40731973194E+03  0.76560620806E+03  0.50400001928E-02 0. -1.
</event>
<event>
 5   0  0.2125803E-05  0.1600555E+04  0.7818609E-02  0.8820207E-01
       -2   -1    0    0    0  501  0.00000000000E+00  0.00000000000E+00  0.88110097690E+03  0.88110097691E+03  0.25500000920E-02 0. -1.
        2   -1    0    0  501    0  0.00000000000E+00  0.00000000000E+00 -0.72686782428E+03  0.72686782428E+03  0.25500000920E-02 0.  1.
    10030    2    1    2    0    0  0.00000000000E+00  0.00000000000E+00  0.15423315262E+03  0.16079688012E+04  0.16005548414E+04 0.  0.
        3    1    3    3  502    0 -0.46463212566E+03 -0.60535396383E+03 -0.16505500467E+03  0.78075578672E+03  0.10100000352E+00 0.  1.
       -3    1    3    3    0  502  0.46463212566E+03  0.60535396383E+03  0.31928815730E+03  0.82721301447E+03  0.10100000352E+00 0. -1.
</event>
<event>
 5   0  0.1126485E-05  0.1602588E+04  0.7818609E-02  0.8818960E-01
        1   -1    0    0  501    0  0.00000000000E+00  0.00000000000E+00  0.68629319451E+03  0.68629319453E+03  0.50400001928E-02 0. -1.
       -1   -1    0    0    0  501  0.00000000000E+00  0.00000000000E+00 -0.93556494211E+03  0.93556494212E+03  0.50400001928E-02 0.  1.
    10030    2    1    2    0    0  0.00000000000E+00  0.00000000000E+00 -0.24927174759E+03  0.16218581367E+04  0.16025877234E+04 0.  0.
        2    1    3    3  502    0  0.64087228222E+03 -0.28879424346E+03 -0.51390695497E+03  0.87075814986E+03  0.25500000920E-02 0.  1.
       -2    1    3    3    0  502 -0.64087228222E+03  0.28879424346E+03  0.26463520738E+03  0.75109998679E+03  0.25500000920E-02 0. -1.
</event>
<event>
 5   0  0.1090674E-05  0.1599325E+04  0.7818609E-02  0.8820963E-01
        1   -1    0    0  501    0  0.00000000000E+00  0.00000000000E+00  0.61339157272E+03  0.61339157274E+03  0.50400001928E-02 0. -1.
       -1   -1    0    0    0  501  0.00000000000E+00  0.00000000000E+00 -0.10424988331E+04  0.10424988331E+04  0.50400001928E-02 0.  1.
    10030    2    1    2    0    0  0.00000000000E+00  0.00000000000E+00 -0.42910726033E+03  0.16558904058E+04  0.15993248560E+04 0.  0.
        4    1    3    3  502    0 -0.14374647306E+03 -0.31614644121E+03  0.53123277019E+03  0.63468219593E+03  0.12699999809E+01 0. -1.
       -4    1    3    3    0  502  0.14374647306E+03  0.31614644121E+03 -0.96034003052E+03  0.10212082099E+04  0.12699999809E+01 0.  1.
</event>
<event>
 5   0  0.7597000E-06  0.1599893E+04  0.7818609E-02  0.8820614E-01
        3   -1    0    0  501    0  0.00000000000E+00  0.00000000000E+00  0.62450218177E+03  0.62450218994E+03  0.10100000352E+00 0. -1.
       -3   -1    0    0    0  501  0.00000000000E+00  0.00000000000E+00 -0.10246788738E+04  0.10246788788E+04  0.10100000352E+00 0.  1.
    10030    2    1    2    0    0  0.00000000000E+00  0.00000000000E+00 -0.40017669204E+03  0.16491810687E+04  0.15998927503E+04 0.  0.
        2    1    3    3  502    0 -0.49897032905E+02 -0.20696521483E+03  0.59476357877E+03  0.63171831435E+03  0.25500000920E-02 0. -1.
       -2    1    3    3    0  502  0.49897032905E+02  0.20696521483E+03 -0.99494027082E+03  0.10174627544E+04  0.25500000920E-02 0.  1.
</event>
<event>
 5   0  0.1990948E-05  0.1601174E+04  0.7818609E-02  0.8819827E-01
       -2   -1    0    0    0  501  0.00000000000E+00  0.00000000000E+00  0.39210361055E+03  0.39210361056E+03  0.25500000920E-02 0.  1.
        2   -1    0    0  501    0  0.00000000000E+00  0.00000000000E+00 -0.16346187883E+04  0.16346187883E+04  0.25500000920E-02 0. -1.
    10030    2    1    2    0    0  0.00000000000E+00  0.00000000000E+00 -0.12425151777E+04  0.20267223988E+04  0.16011744799E+04 0.  0.
        4    1    3    3  502    0 -0.64494504193E+03 -0.29783267507E+03 -0.10885314859E+04  0.12998310729E+04  0.12699999809E+01 0. -1.
       -4    1    3    3    0  502  0.64494504193E+03  0.29783267507E+03 -0.15398369183E+03  0.72689132592E+03  0.12699999809E+01 0.  1.
</event>
<event>
 5   0  0.1057506E-05  0.1599416E+04  0.7818609E-02  0.8820907E-01
        1   -1    0    0  501    0  0.00000000000E+00  0.00000000000E+00  0.56497365116E+03  0.56497365119E+03  0.50400001928E-02 0.  1.
       -1   -1    0    0    0  501  0.00000000000E+00  0.00000000000E+00 -0.11319692195E+04  0.11319692195E+04  0.50400001928E-02 0. -1.
    10030    2    1    2    0    0  0.00000000000E+00  0.00000000000E+00 -0.56699556836E+03  0.16969428707E+04  0.15994158721E+04 0.  0.
        5    1    3    3  502    0 -0.46418230097E+03  0.60891872018E+03 -0.52835932355E+03  0.93028645111E+03  0.46999998093E+01 0. -1.
       -5    1    3    3    0  502  0.46418230097E+03 -0.60891872018E+03 -0.38636244807E+02  0.76665641962E+03  0.46999998093E+01 0.  1.
</event>
<event>
 5   0  0.2147844E-05  0.1600357E+04  0.7818609E-02  0.8820329E-01
        2   -1    0    0  501    0  0.00000000000E+00  0.00000000000E+00  0.13868906036E+04  0.13868906036E+04  0.25500000920E-02 0.  1.
       -2   -1    0    0    0  501  0.00000000000E+00  0.00000000000E+00 -0.46166964834E+03  0.46166964835E+03  0.25500000920E-02 0. -1.
    10030    2    1    2    0    0  0.00000000000E+00  0.00000000000E+00  0.92522095526E+03  0.18485602520E+04  0.16003565818E+04 0.  0.
        2    1    3    3  502    0  0.32894474730E+03 -0.60519751330E+03  0.93297101713E+03  0.11596997869E+04  0.25500000920E-02 0.  1.
       -2    1    3    3    0  502 -0.32894474730E+03  0.60519751330E+03 -0.77500618667E+01  0.68886046508E+03  0.25500000920E-02 0. -1.
</event>
<event>
 5   0  0.1090674E-05  0.1600306E+04  0.7818609E-02  0.8820360E-01
       -1   -1    0    0    0  501  0.00000000000E+00  0.00000000000E+00  0.41389888134E+03  0.41389888137E+03  0.50400001928E-02 0.  1.
        1   -1    0    0  501    0  0.00000000000E+00  0.00000000000E+00 -0.15468625894E+04  0.15468625894E+04  0.50400001928E-02 0. -1.
    10030    2    1    2    0    0  0.00000000000E+00  0.00000000000E+00 -0.11329637081E+04  0.19607614708E+04  0.16003058400E+04 0.  0.
        4    1    3    3  502    0  0.20359884375E+03  0.39237110778E+03  0.25070523617E+03  0.50819514337E+03  0.12699999809E+01 0.  1.
       -4    1    3    3    0  502 -0.20359884375E+03 -0.39237110778E+03 -0.13836689442E+04  0.14525663274E+04  0.12699999809E+01 0. -1.
</event>
<event>
 5   0  0.1060251E-05  0.1599707E+04  0.7818609E-02  0.8820728E-01
        1   -1    0    0  501    0  0.00000000000E+00  0.00000000000E+00  0.10038493051E+04  0.10038493051E+04  0.50400001928E-02 0. -1.
       -1   -1    0    0    0  501  0.00000000000E+00  0.00000000000E+00 -0.63731267978E+03  0.63731267980E+03  0.50400001928E-02 0.  1.
    10030    2    1    2    0    0  0.00000000000E+00  0.00000000000E+00  0.36653662530E+03  0.16411619849E+04  0.15997073367E+04 0.  0.
        1    1    3    3  502    0 -0.53892696368E+03 -0.30693028985E+03 -0.33491206775E+03  0.70485074176E+03  0.50400001928E-02 0.  1.
       -1    1    3    3    0  502  0.53892696368E+03  0.30693028985E+03  0.70144869305E+03  0.93631124313E+03  0.50400001928E-02 0. -1.
</event>
<event>
 5   0  0.2147844E-05  0.1597065E+04  0.7818609E-02  0.8822353E-01
       -2   -1    0    0    0  501  0.00000000000E+00  0.00000000000E+00  0.25593451415E+03  0.25593451416E+03  0.25500000920E-02 0. -1.
        2   -1    0    0  501    0  0.00000000000E+00  0.00000000000E+00 -0.24914728930E+04  0.24914728930E+04  0.25500000920E-02 0.  1.
    10030    2    1    2    0    0  0.00000000000E+00  0.00000000000E+00 -0.22355383789E+04  0.27474074072E+04  0.15970646880E+04 0.  0.
        2    1    3    3  502    0 -0.40805388323E+02  0.53918797224E+03 -0.21285964203E+04  0.21962038771E+04  0.25500000920E-02 0.  1.
       -2    1    3    3    0  502  0.40805388323E+02 -0.53918797224E+03 -0.10694195860E+03  0.55120353014E+03  0.25500000920E-02 0. -1.
</event>
<event>
 5   0  0.2046108E-05  0.1600458E+04  0.7818609E-02  0.8820266E-01
       -2   -1    0    0    0  501  0.00000000000E+00  0.00000000000E+00  0.46373754189E+03  0.46373754190E+03  0.25500000920E-02 0. -1.
        2   -1    0    0  501    0  0.00000000000E+00  0.00000000000E+00 -0.13808819451E+04  0.13808819451E+04  0.25500000920E-02 0.  1.
    10030    2    1    2    0    0  0.00000000000E+00  0.00000000000E+00 -0.91714440324E+03  0.18446194870E+04  0.16004584329E+04 0.  0.
        1    1    3    3  502    0  0.65386845095E+03 -0.29140583691E+03 -0.87077124464E+03  0.11272550170E+04  0.50400001928E-02 0. -1.
       -1    1    3    3    0  502 -0.65386845095E+03  0.29140583691E+03 -0.46373158596E+02  0.71736446999E+03  0.50400001928E-02 0.  1.
</event>
<event>
 5   0  0.1126485E-05  0.1600037E+04  0.7818609E-02  0.8820525E-01
       -1   -1    0    0    0  501  0.00000000000E+00  0.00000000000E+00  0.94543933381E+03  0.94543933382E+03  0.50400001928E-02 0.  1.
        1   -1    0    0  501    0  0.00000000000E+00  0.00000000000E+00 -0.67696524521E+03  0.67696524523E+03  0.50400001928E-02 0. -1.
    10030    2    1    2    0    0  0.00000000000E+00  0.00000000000E+00  0.26847408859E+03  0.16224045791E+04  0.16000369627E+04 0.  0.
        2    1    3    3  502    0  0.24601472198E+03  0.16534107283E+03 -0.61923132151E+03  0.68651900435E+03  0.25500000920E-02 0. -1.
       -2    1    3    3    0  502 -0.24601472198E+03 -0.16534107283E+03  0.88770541010E+03  0.93588557470E+03  0.25500000920E-02 0.  1.
</event>
<event>
 5   0  0.1060251E-05  0.1591517E+04  0.7818609E-02  0.8825776E-01
        1   -1    0    0  501    0  0.00000000000E+00  0.00000000000E+00  0.14134604443E+04  0.14134604443E+04  0.50400001928E-02 0.  1.
       -1   -1    0    0    0  501  0.00000000000E+00  0.00000000000E+00 -0.44800099477E+03  0.44800099480E+03  0.50400001928E-02 0. -1.
    10030    2    1    2    0    0  0.00000000000E+00  0.00000000000E+00  0.96545944954E+03  0.18614614391E+04  0.15915171192E+04 0.  0.
        1    1    3    3  502    0  0.58087326058E+03  0.42189048020E+03  0.88420977123E+03  0.11389610361E+04  0.50400001928E-02 0.  1.
       -1    1    3    3    0  502 -0.58087326058E+03 -0.42189048020E+03  0.81249678313E+02  0.72250040304E+03  0.50400001928E-02 0. -1.
</event>
<event>
 5   0  0.1090674E-05  0.1601195E+04  0.7818609E-02  0.8819814E-01
       -1   -1    0    0    0  501  0.00000000000E+00  0.00000000000E+00  0.11888122088E+04  0.11888122088E+04  0.50400001928E-02 0. -1.
        1   -1    0    0  501    0  0.00000000000E+00  0.00000000000E+00 -0.53915682723E+03  0.53915682725E+03  0.50400001928E-02 0.  1.
    10030    2    1    2    0    0  0.00000000000E+00  0.00000000000E+00  0.64965538153E+03  0.17279690360E+04  0.16011948272E+04 0.  0.
        4    1    3    3  502    0  0.17042993607E+03  0.76740242907E+03  0.16115649336E+03  0.80244992336E+03  0.12699999809E+01 0. -1.
       -4    1    3    3    0  502 -0.17042993607E+03 -0.76740242907E+03  0.48849888817E+03  0.92551911266E+03  0.12699999809E+01 0.  1.
</event>
<event>
 5   0  0.1990948E-05  0.1601168E+04  0.7818609E-02  0.8819830E-01
        2   -1    0    0  501    0  0.00000000000E+00  0.00000000000E+00  0.18330713925E+04  0.18330713925E+04  0.25500000920E-02 0.  1.
       -2   -1    0    0    0  501  0.00000000000E+00  0.00000000000E+00 -0.34965092814E+03  0.34965092815E+03  0.25500000920E-02 0. -1.
    10030    2    1    2    0    0  0.00000000000E+00  0.00000000000E+00  0.14834204643E+04  0.21827223206E+04  0.16011684655E+04 0.  0.
        4    1    3    3  502    0  0.76463375334E+03  0.22662285969E+03  0.83723978454E+03  0.11562848987E+04  0.12699999809E+01 0. -1.
       -4    1    3    3    0  502 -0.76463375334E+03 -0.22662285969E+03  0.64618067980E+03  0.10264374219E+04  0.12699999809E+01 0.  1.
</event>
<event>
 5   0  0.1081831E-05  0.1600359E+04  0.7818609E-02  0.8820327E-01
        1   -1    0    0  501    0  0.00000000000E+00  0.00000000000E+00  0.76137251420E+03  0.76137251422E+03  0.50400001928E-02 0.  1.
       -1   -1    0    0    0  501  0.00000000000E+00  0.00000000000E+00 -0.84096469041E+03  0.84096469043E+03  0.50400001928E-02 0. -1.
    10030    2    1    2    0    0  0.00000000000E+00  0.00000000000E+00 -0.79592176209E+02  0.16023372046E+04  0.16003592106E+04 0.  0.
        3    1    3    3  502    0  0.14510819679E+03  0.57754309381E+03  0.49535023176E+03  0.77458651956E+03  0.10100000352E+00 0.  1.
       -3    1    3    3    0  502 -0.14510819679E+03 -0.57754309381E+03 -0.57494240796E+03  0.82775068509E+03  0.10100000352E+00 0. -1.
</event>
<event>
 5   0  0.1060251E-05  0.1599685E+04  0.7818609E-02  0.8820742E-01
        1   -1    0    0  501    0  0.00000000000E+00  0.00000000000E+00  0.18293318112E+04  0.18293318112E+04  0.50400001928E-02 0. -1.
       -1   -1    0    0    0  501  0.00000000000E+00  0.00000000000E+00 -0.34971660057E+03  0.34971660061E+03  0.50400001928E-02 0.  1.
    10030    2    1    2    0    0  0.00000000000E+00  0.00000000000E+00  0.14796152106E+04  0.21790484118E+04  0.15996845969E+04 0.  0.
        1    1    3    3  502    0  0.66567570910E+03  0.22511475571E+02  0.13430472838E+04  0.14991353917E+04  0.50400001928E-02 0. -1.
       -1    1    3    3    0  502 -0.66567570910E+03 -0.22511475571E+02  0.13656792685E+03  0.67991302009E+03  0.50400001928E-02 0.  1.
</event>
<event>
 5   0  0.1060251E-05  0.1599997E+04  0.7818609E-02  0.8820550E-01
       -1   -1    0    0    0  501  0.00000000000E+00  0.00000000000E+00  0.48607170899E+03  0.48607170902E+03  0.50400001928E-02 0.  1.
        1   -1    0    0  501    0  0.00000000000E+00  0.00000000000E+00 -0.13166724411E+04  0.13166724411E+04  0.50400001928E-02 0. -1.
    10030    2    1    2    0    0  0.00000000000E+00  0.00000000000E+00 -0.83060073207E+03  0.18027441501E+04  0.15999965295E+04 0.  0.
        1    1    3    3  502    0  0.25286890482E+03  0.37990984138E+03 -0.11556172839E+04  0.12424674956E+04  0.50400001928E-02 0. -1.
       -1    1    3    3    0  502 -0.25286890482E+03 -0.37990984138E+03  0.32501655185E+03  0.56027665452E+03  0.50400001928E-02 0.  1.
</event>
<event>
 5   0  0.1990948E-05  0.1600024E+04  0.7818609E-02  0.8820533E-01
       -2   -1    0    0    0  501  0.00000000000E+00  0.00000000000E+00  0.27784042871E+03  0.27784042872E+03  0.25500000920E-02 0. -1.
        2   -1    0    0  501    0  0.00000000000E+00  0.00000000000E+00 -0.23035506212E+04  0.23035506212E+04  0.25500000920E-02 0.  1.
    10030    2    1    2    0    0  0.00000000000E+00  0.00000000000E+00 -0.20257101925E+04  0.25813910499E+04  0.16000243650E+04 0.  0.
        4    1    3    3  502    0 -0.18956279290E+03 -0.14030879288E+03 -0.22461907683E+04  0.22585382862E+04  0.12699999809E+01 0.  1.
       -4    1    3    3    0  502  0.18956279290E+03  0.14030879288E+03  0.22048057582E+03  0.32285276369E+03  0.12699999809E+01 0. -1.
</event>
<event>
 5   0  0.2125803E-05  0.1599931E+04  0.7818609E-02  0.8820591E-01
        2   -1    0    0  501    0  0.00000000000E+00  0.00000000000E+00  0.99489332398E+03  0.99489332398E+03  0.25500000920E-02 0. -1.
       -2   -1    0    0    0  501  0.00000000000E+00  0.00000000000E+00 -0.64322941294E+03  0.64322941295E+03  0.25500000920E-02 0.  1.
    10030    2    1    2    0    0  0.00000000000E+00  0.00000000000E+00  0.35166391103E+03  0.16381227369E+04  0.15999308094E+04 0.  0.
        3    1    3    3  502    0  0.67116110138E+03 -0.42338168014E+03  0.27941697591E+03  0.84129847718E+03  0.10100000352E+00 0. -1.
       -3    1    3    3    0  502 -0.67116110138E+03  0.42338168014E+03  0.72246935130E+02  0.79682425974E+03  0.10100000352E+00 0.  1.
</event>
<event>
 5   0  0.1994525E-05  0.1599500E+04  0.7818609E-02  0.8820856E-01
       -2   -1    0    0    0  501  0.00000000000E+00  0.00000000000E+00  0.60985539152E+03  0.60985539153E+03  0.25500000920E-02 0.  1.
        2   -1    0    0  501    0  0.00000000000E+00  0.00000000000E+00 -0.10487727401E+04  0.10487727401E+04  0.25500000920E-02 0. -1.
    10030    2    1    2    0    0  0.00000000000E+00  0.00000000000E+00 -0.43891734861E+03  0.16586281317E+04  0.15994995593E+04 0.  0.
        5    1    3    3  502    0 -0.65174463210E+03  0.45819209236E+03 -0.14711909274E+03  0.81017107849E+03  0.46999998093E+01 0. -1.
       -5    1    3    3    0  502  0.65174463210E+03 -0.45819209236E+03 -0.29179825586E+03  0.84845705318E+03  0.46999998093E+01 0.  1.
</event>
<event>
 5   0  0.2125803E-05  0.1599632E+04  0.7818609E-02  0.8820774E-01
        2   -1    0    0  501    0  0.00000000000E+00  0.00000000000E+00  0.61148526855E+03  0.61148526855E+03  0.25500000920E-02 0.  1.
       -2   -1    0    0    0  501  0.00000000000E+00  0.00000000000E+00 -0.10461510195E+04  0.10461510195E+04  0.25500000920E-02 0. -1.
    10030    2    1    2    0    0  0.00000000000E+00  0.00000000000E+00 -0.43466575099E+03  0.16576362881E+04  0.15996323792E+04 0.  0.
        3    1    3    3  502    0  0.61586204962E+03  0.46083473650E+03 -0.44448730820E+03  0.88838262921E+03  0.10100000352E+00 0. -1.
       -3    1    3    3    0  502 -0.61586204962E+03 -0.46083473650E+03  0.98215572042E+01  0.76925365889E+03  0.10100000352E+00 0.  1.
</event>
<event>
 5   0  0.1057506E-05  0.1600060E+04  0.7818609E-02  0.8820511E-01
       -1   -1    0    0    0  501  0.00000000000E+00  0.00000000000E+00  0.62873113211E+03  0.62873113213E+03  0.50400001928E-02 0. -1.
        1   -1    0    0  501    0  0.00000000000E+00  0.00000000000E+00 -0.10179995298E+04  0.10179995298E+04  0.50400001928E-02 0.  1.
    10030    2    1    2    0    0  0.00000000000E+00  0.00000000000E+00 -0.38926839767E+03  0.16467306619E+04  0.16000599950E+04 0.  0.
        5    1    3    3  502    0  0.29467339300E+03  0.69692477350E+03  0.72730432059E+02  0.76016337336E+03  0.46999998093E+01 0. -1.
       -5    1    3    3    0  502 -0.29467339300E+03 -0.69692477350E+03 -0.46199882973E+03  0.88656728855E+03  0.46999998093E+01 0.  1.
</event>
<event>
 5   0  0.1994525E-05  0.1600209E+04  0.7818609E-02  0.8820420E-01
        2   -1    0    0  501    0  0.00000000000E+00  0.00000000000E+00  0.12874800957E+04  0.12874800957E+04  0.25500000920E-02 0. -1.
       -2   -1    0    0    0  501  0.00000000000E+00  0.00000000000E+00 -0.49722491639E+03  0.49722491639E+03  0.25500000920E-02 0.  1.
    10030    2    1    2    0    0  0.00000000000E+00  0.00000000000E+00  0.79025517936E+03  0.17847050121E+04  0.16002089651E+04 0.  0.
        5    1    3    3  502    0  0.24973424357E+03 -0.73365774205E+03  0.61685602260E+03  0.99053234046E+03  0.46999998093E+01 0.  1.
       -5    1    3    3    0  502 -0.24973424357E+03  0.73365774205E+03  0.17339915676E+03  0.79417267168E+03  0.46999998093E+01 0. -1.
</event>
<event>
 5   0  0.2147844E-05  0.1599693E+04  0.7818609E-02  0.8820737E-01
       -2   -1    0    0    0  501  0.00000000000E+00  0.00000000000E+00  0.36386336061E+03  0.36386336062E+03  0.25500000920E-02 0.  1.
        2   -1    0    0  501    0  0.00000000000E+00  0.00000000000E+00 -0.17582275432E+04  0.17582275432E+04  0.25500000920E-02 0. -1.
    10030    2    1    2    0    0  0.00000000000E+00  0.00000000000E+00 -0.13943641826E+04  0.21220909038E+04  0.15996931988E+04 0.  0.
        2    1    3    3  502    0 -0.18596520556E+03 -0.73302351305E+03 -0.10427202257E+04  0.12880885053E+04  0.25500000920E-02 0. -1.
       -2    1    3    3    0  502  0.18596520556E+03  0.73302351305E+03 -0.35164395693E+03  0.83400239857E+03  0.25500000920E-02 0.  1.
</event>
<event>
 5   0  0.1994525E-05  0.1600262E+04  0.7818609E-02  0.8820387E-01
        2   -1    0    0  501    0  0.00000000000E+00  0.00000000000E+00  0.54598261097E+03  0.54598261098E+03  0.25500000920E-02 0.  1.
       -2   -1    0    0    0  501  0.00000000000E+00  0.00000000000E+00 -0.11725831622E+04  0.11725831622E+04  0.25500000920E-02 0. -1.
    10030    2    1    2    0    0  0.00000000000E+00  0.00000000000E+00 -0.62660055124E+03  0.17185657732E+04  0.16002624991E+04 0.  0.
        5    1    3    3  502    0 -0.37315416148E+03  0.43448873655E+03  0.28672002804E+03  0.64051147913E+03  0.46999998093E+01 0.  1.
       -5    1    3    3    0  502  0.37315416148E+03 -0.43448873655E+03 -0.91332057928E+03  0.10780542941E+04  0.46999998093E+01 0. -1.
</event>
<event>
 5   0  0.1060251E-05  0.1597970E+04  0.7818609E-02  0.8821796E-01
        1   -1    0    0  501    0  0.00000000000E+00  0.00000000000E+00  0.16741387248E+04  0.16741387248E+04  0.50400001928E-02 0. -1.
       -1   -1    0    0    0  501  0.00000000000E+00  0.00000000000E+00 -0.38131678564E+03  0.38131678567E+03  0.50400001928E-02 0.  1.
    10030    2    1    2    0    0  0.00000000000E+00  0.00000000000E+00  0.12928219392E+04  0.20554555105E+04  0.15979702091E+04 0.  0.
        1    1    3    3  502    0  0.35519259596E+03 -0.70603353395E+03  0.49567831651E+03  0.93292128541E+03  0.50400001928E-02 0.  1.
       -1    1    3    3    0  502 -0.35519259596E+03  0.70603353395E+03  0.79714362264E+03  0.11225342251E+04  0.50400001928E-02 0. -1.
</event>
<event>
 5   0  0.2147844E-05  0.1599855E+04  0.7818609E-02  0.8820637E-01
       -2   -1    0    0    0  501  0.00000000000E+00  0.00000000000E+00  0.43744109362E+03  0.43744109363E+03  0.25500000920E-02 0. -1.
        2   -1    0    0  501    0  0.00000000000E+00  0.00000000000E+00 -0.14627883849E+04  0.14627883849E+04  0.25500000920E-02 0.  1.
    10030    2    1    2    0    0  0.00000000000E+00  0.00000000000E+00 -0.10253472913E+04  0.19002294785E+04  0.15998546819E+04 0.  0.
        2    1    3    3  502    0 -0.69252720392E+03 -0.21972456148E+03 -0.11515661937E+03  0.73561801099E+03  0.25500000920E-02 0. -1.
       -2    1    3    3    0  502  0.69252720392E+03  0.21972456148E+03 -0.91019067190E+03  0.11646114675E+04  0.25500000920E-02 0.  1.
</event>
<event>
 5   0  0.1057506E-05  0.1599786E+04  0.7818609E-02  0.8820679E-01
       -1   -1    0    0    0  501  0.00000000000E+00  0.00000000000E+00  0.93261625957E+03  0.93261625958E+03  0.50400001928E-02 0. -1.
        1   -1    0    0  501    0  0.00000000000E+00  0.00000000000E+00 -0.68605834102E+03  0.68605834104E+03  0.50400001928E-02 0.  1.
    10030    2    1    2    0    0  0.00000000000E+00  0.00000000000E+00  0.24655791855E+03  0.16186746006E+04  0.15997864406E+04 0.  0.
        5    1    3    3  502    0  0.27390026653E+02 -0.72289399624E+03  0.46860181925E+03  0.86193717773E+03  0.46999998093E+01 0. -1.
       -5    1    3    3    0  502 -0.27390026653E+02  0.72289399624E+03 -0.22204390070E+03  0.75673742289E+03  0.46999998093E+01 0.  1.
</event>
<event>
 5   0  0.1081831E-05  0.1601514E+04  0.7818609E-02  0.8819618E-01
        1   -1    0    0  501    0  0.00000000000E+00  0.00000000000E+00  0.59335059993E+03  0.59335059995E+03  0.50400001928E-02 0. -1.
       -1   -1    0    0    0  501  0.00000000000E+00  0.00000000000E+00 -0.10806629867E+04  0.10806629867E+04  0.50400001928E-02 0.  1.
    10030    2    1    2    0    0  0.00000000000E+00  0.00000000000E+00 -0.48731238674E+03  0.16740135866E+04  0.16015143227E+04 0.  0.
        3    1    3    3  502    0  0.14671636225E+03 -0.42980142856E+03  0.44571216378E+03  0.63632876887E+03  0.10100000352E+00 0. -1.
       -3    1    3    3    0  502 -0.14671636225E+03  0.42980142856E+03 -0.93302455052E+03  0.10376848178E+04  0.10100000352E+00 0.  1.
</event>
<event>
 5   0  0.1990948E-05  0.1602728E+04  0.7818609E-02  0.8818874E-01
        2   -1    0    0  501    0  0.00000000000E+00  0.00000000000E+00  0.11588541184E+04  0.11588541184E+04  0.25500000920E-02 0.  1.
       -2   -1    0    0    0  501  0.00000000000E+00  0.00000000000E+00 -0.55415433721E+03  0.55415433722E+03  0.25500000920E-02 0. -1.
    10030    2    1    2    0    0  0.00000000000E+00  0.00000000000E+00  0.60469978123E+03  0.17130084557E+04  0.16027277198E+04 0.  0.
        4    1    3    3  502    0 -0.55277958635E+03 -0.26182773700E+03  0.85572358412E+03  0.10518476602E+04  0.12699999809E+01 0.  1.
       -4    1    3    3    0  502  0.55277958635E+03  0.26182773700E+03 -0.25102380289E+03  0.66116079547E+03  0.12699999809E+01 0. -1.
</event>
<event>
 5   0  0.1057506E-05  0.1592276E+04  0.7818609E-02  0.8825307E-01
        1   -1    0    0  501    0  0.00000000000E+00  0.00000000000E+00  0.16836941582E+04  0.16836941582E+04  0.50400001928E-02 0. -1.
       -1   -1    0    0    0  501  0.00000000000E+00  0.00000000000E+00 -0.37645521072E+03  0.37645521075E+03  0.50400001928E-02 0.  1.
    10030    2    1    2    0    0  0.00000000000E+00  0.00000000000E+00  0.13072389474E+04  0.20601493689E+04  0.15922756534E+04 0.  0.
        5    1    3    3  502    0 -0.35223389138E+02 -0.78789890450E+03  0.51314412512E+03  0.94093801815E+03  0.46999998093E+01 0. -1.
       -5    1    3    3    0  502  0.35223389138E+02  0.78789890450E+03  0.79409482232E+03  0.11192113508E+04  0.46999998093E+01 0.  1.
</event>
<event>
 5   0  0.1060251E-05  0.1599943E+04  0.7818609E-02  0.8820583E-01
        1   -1    0    0  501    0  0.00000000000E+00  0.00000000000E+00  0.87915664187E+03  0.87915664188E+03  0.50400001928E-02 0. -1.
       -1   -1    0    0    0  501  0.00000000000E+00  0.00000000000E+00 -0.72791830205E+03  0.72791830207E+03  0.50400001928E-02 0.  1.
    10030    2    1    2    0    0  0.00000000000E+00  0.00000000000E+00  0.15123833982E+03  0.16070749440E+04  0.15999427615E+04 0.  0.
        1    1    3    3  502    0 -0.54650864788E+03  0.26117282410E+03 -0.44927250447E+03  0.75414105415E+03  0.50400001928E-02 0.  1.
       -1    1    3    3    0  502  0.54650864788E+03 -0.26117282410E+03  0.60051084428E+03  0.85293388981E+03  0.50400001928E-02 0. -1.
</event>
<event>
 5   0  0.1081831E-05  0.1599717E+04  0.7818609E-02  0.8820722E-01
       -1   -1    0    0    0  501  0.00000000000E+00  0.00000000000E+00  0.62462008121E+03  0.62462008123E+03  0.50400001928E-02 0. -1.
        1   -1    0    0  501    0  0.00000000000E+00  0.00000000000E+00 -0.10242608940E+04  0.10242608940E+04  0.50400001928E-02 0.  1.
    10030    2    1    2    0    0  0.00000000000E+00  0.00000000000E+00 -0.39964081277E+03  0.16488809752E+04  0.15997173785E+04 0.  0.
        3    1    3    3  502    0  0.32342909031E+03 -0.14119159671E+03 -0.93967718338E+03  0.10037602615E+04  0.10100000352E+00 0.  1.
       -3    1    3    3    0  502 -0.32342909031E+03  0.14119159671E+03  0.54003637062E+03  0.64512071369E+03  0.10100000352E+00 0. -1.
</event>
<event>
 5   0  0.1994525E-05  0.1600223E+04  0.7818609E-02  0.8820411E-01
        2   -1    0    0  501    0  0.00000000000E+00  0.00000000000E+00  0.12818666292E+04  0.12818666292E+04  0.25500000920E-02 0. -1.
       -2   -1    0    0    0  501  0.00000000000E+00  0.00000000000E+00 -0.49941119425E+03  0.49941119425E+03  0.25500000920E-02 0.  1.
    10030    2    1    2    0    0  0.00000000000E+00  0.00000000000E+00  0.78245543497E+03  0.17812778235E+04  0.16002231646E+04 0.  0.
        5    1    3    3  502    0 -0.13249028561E+03 -0.22006140422E+03 -0.45224984414E+03  0.52012758909E+03  0.46999998093E+01 0.  1.
       -5    1    3    3    0  502  0.13249028561E+03  0.22006140422E+03  0.12347052791E+04  0.12611502344E+04  0.46999998093E+01 0. -1.
</event>
<event>
 5   0  0.1090674E-05  0.1600385E+04  0.7818609E-02  0.8820311E-01
       -1   -1    0    0    0  501  0.00000000000E+00  0.00000000000E+00  0.52551742380E+03  0.52551742382E+03  0.50400001928E-02 0.  1.
        1   -1    0    0  501    0  0.00000000000E+00  0.00000000000E+00 -0.12184336904E+04  0.12184336904E+04  0.50400001928E-02 0. -1.
    10030    2    1    2    0    0  0.00000000000E+00  0.00000000000E+00 -0.69291626660E+03  0.17439511142E+04  0.16003851212E+04 0.  0.
        4    1    3    3  502    0  0.65168486717E+03 -0.46398483438E+03 -0.32661981950E+03  0.86409328896E+03  0.12699999809E+01 0.  1.
       -4    1    3    3    0  502 -0.65168486717E+03  0.46398483438E+03 -0.36629644710E+03  0.87985782527E+03  0.12699999809E+01 0. -1.
</event>
<event>
 5   0  0.1057506E-05  0.1603929E+04  0.7818609E-02  0.8818138E-01
       -1   -1    0    0    0  501  0.00000000000E+00  0.00000000000E+00  0.87152287464E+03  0.87152287466E+03  0.50400001928E-02 0. -1.
        1   -1    0    0  501    0  0.00000000000E+00  0.00000000000E+00 -0.73795743713E+03  0.73795743715E+03  0.50400001928E-02 0.  1.
    10030    2    1    2    0    0  0.00000000000E+00  0.00000000000E+00  0.13356543751E+03  0.16094803118E+04  0.16039286605E+04 0.  0.
        5    1    3    3  502    0  0.56165539303E+03 -0.27244286879E+03  0.57195626388E+03  0.84666283435E+03  0.46999998093E+01 0. -1.
       -5    1    3    3    0  502 -0.56165539303E+03  0.27244286879E+03 -0.43839082637E+03  0.76281747746E+03  0.46999998093E+01 0.  1.
</event>
<event>
 5   0  0.1994525E-05  0.1598144E+04  0.7818609E-02  0.8821689E-01
        2   -1    0    0  501    0  0.00000000000E+00  0.00000000000E+00  0.77398635281E+03  0.77398635282E+03  0.25500000920E-02 0. -1.
       -2   -1    0    0    0  501  0.00000000000E+00  0.00000000000E+00 -0.82497050161E+03  0.82497050161E+03  0.25500000920E-02 0.  1.
    10030    2    1    2    0    0  0.00000000000E+00  0.00000000000E+00 -0.50984148793E+02  0.15989568544E+04  0.15981438105E+04 0.  0.
        5    1    3    3  502    0 -0.40332794259E+03 -0.13212052514E+03 -0.70286276696E+03  0.82107698885E+03  0.46999998093E+01 0.  1.
       -5    1    3    3    0  502  0.40332794259E+03  0.13212052514E+03  0.65187861817E+03  0.77787986557E+03  0.46999998093E+01 0. -1.
</event>
<event>
 5   0  0.1057506E-05  0.1600268E+04  0.7818609E-02  0.8820383E-01
       -1   -1    0    0    0  501  0.00000000000E+00  0.00000000000E+00  0.52188638106E+03  0.52188638109E+03  0.50400001928E-02 0. -1.
        1   -1    0    0  501    0  0.00000000000E+00  0.00000000000E+00 -0.12267318971E+04  0.12267318971E+04  0.50400001928E-02 0.  1.
    10030    2    1    2    0    0  0.00000000000E+00  0.00000000000E+00 -0.70484551599E+03  0.17486182781E+04  0.16002683154E+04 0.  0.
        5    1    3    3  502    0  0.67202776064E+03 -0.38450530354E+03 -0.13190523686E+03  0.78542136528E+03  0.46999998093E+01 0.  1.
       -5    1    3    3    0  502 -0.67202776064E+03  0.38450530354E+03 -0.57294027913E+03  0.96319691287E+03  0.46999998093E+01 0. -1.
</event>
<event>
 5   0  0.1990948E-05  0.1604413E+04  0.7818609E-02  0.8817842E-01
        2   -1    0    0  501    0  0.00000000000E+00  0.00000000000E+00  0.55778708533E+03  0.55778708534E+03  0.25500000920E-02 0. -1.
       -2   -1    0    0    0  501  0.00000000000E+00  0.00000000000E+00 -0.11537287453E+04  0.11537287453E+04  0.25500000920E-02 0.  1.
    10030    2    1    2    0    0  0.00000000000E+00  0.00000000000E+00 -0.59594165993E+03  0.17115158306E+04  0.16044126578E+04 0.  0.
        4    1    3    3  502    0  0.38337462815E+03 -0.68172279170E+03 -0.10770726742E+03  0.78950904908E+03  0.12699999809E+01 0. -1.
       -4    1    3    3    0  502 -0.38337462815E+03  0.68172279170E+03 -0.48823439252E+03  0.92200678152E+03  0.12699999809E+01 0.  1.
</event>
<event>
 5   0  0.1090674E-05  0.1600992E+04  0.7818609E-02  0.8819939E-01
        1   -1    0    0  501    0  0.00000000000E+00  0.00000000000E+00  0.54753067069E+03  0.54753067071E+03  0.50400001928E-02 0. -1.
       -1   -1    0    0    0  501  0.00000000000E+00  0.00000000000E+00 -0.11703340607E+04  0.11703340607E+04  0.50400001928E-02 0.  1.
    10030    2    1    2    0    0  0.00000000000E+00  0.00000000000E+00 -0.62280339000E+03  0.17178647314E+04  0.16009919340E+04 0.  0.
        4    1    3    3  502    0 -0.29666485733E+03 -0.28148764089E+03  0.42698063637E+03  0.59123549139E+03  0.12699999809E+01 0. -1.
       -4    1    3    3    0  502  0.29666485733E+03  0.28148764089E+03 -0.10497840264E+04  0.11266292400E+04  0.12699999809E+01 0.  1.
</event>
<event>
 5   0  0.1126485E-05  0.1600301E+04  0.7818609E-02  0.8820363E-01
        1   -1    0    0  501    0  0.00000000000E+00  0.00000000000E+00  0.98077907226E+03  0.98077907227E+03  0.50400001928E-02 0.  1.
       -1   -1    0    0    0  501  0.00000000000E+00  0.00000000000E+00 -0.65278792023E+03  0.65278792024E+03  0.50400001928E-02 0. -1.
    10030    2    1    2    0    0  0.00000000000E+00  0.00000000000E+00  0.32799115203E+03  0.16335669925E+04  0.16003008852E+04 0.  0.
        2    1    3    3  502    0 -0.99511088241E+02  0.38447016821E+03 -0.54508142211E+03  0.67441346640E+03  0.25500000920E-02 0. -1.
       -2    1    3    3    0  502  0.99511088241E+02 -0.38447016821E+03  0.87307257414E+03  0.95915352611E+03  0.25500000920E-02 0.  1.
</event>
<event>
 5   0  0.1081831E-05  0.1599279E+04  0.7818609E-02  0.8820991E-01
       -1   -1    0    0    0  501  0.00000000000E+00  0.00000000000E+00  0.33649655108E+03  0.33649655112E+03  0.50400001928E-02 0. -1.
        1   -1    0    0  501    0  0.00000000000E+00  0.00000000000E+00 -0.19002378641E+04  0.19002378641E+04  0.50400001928E-02 0.  1.
    10030    2    1    2    0    0  0.00000000000E+00  0.00000000000E+00 -0.15637413131E+04  0.22367344153E+04  0.15992791971E+04 0.  0.
        3    1    3    3  502    0 -0.69930991120E+03 -0.35173071568E+03 -0.55344792183E+03  0.95867275993E+03  0.10100000352E+00 0.  1.
       -3    1    3    3    0  502  0.69930991120E+03  0.35173071568E+03 -0.10102933912E+04  0.12780616553E+04  0.10100000352E+00 0. -1.
</event>
<event>
 5   0  0.2125803E-05  0.1600356E+04  0.7818609E-02  0.8820329E-01
       -2   -1    0    0    0  501  0.00000000000E+00  0.00000000000E+00  0.32854154586E+03  0.32854154587E+03  0.25500000920E-02 0.  1.
        2   -1    0    0  501    0  0.00000000000E+00  0.00000000000E+00 -0.19488714200E+04  0.19488714200E+04  0.25500000920E-02 0. -1.
    10030    2    1    2    0    0  0.00000000000E+00  0.00000000000E+00 -0.16203298741E+04  0.22774129659E+04  0.16003564966E+04 0.  0.
        3    1    3    3  502    0  0.75200131721E+03  0.18379370911E+03 -0.10983107196E+04  0.13437159505E+04  0.10100000352E+00 0. -1.
       -3    1    3    3    0  502 -0.75200131721E+03 -0.18379370911E+03 -0.52201915448E+03  0.93369701534E+03  0.10100000352E+00 0.  1.
</event>
<event>
 5   0  0.1126485E-05  0.1599793E+04  0.7818609E-02  0.8820675E-01
       -1   -1    0    0    0  501  0.00000000000E+00  0.00000000000E+00  0.81797605197E+03  0.81797605199E+03  0.50400001928E-02 0. -1.
        1   -1    0    0  501    0  0.00000000000E+00  0.00000000000E+00 -0.78221625324E+03  0.78221625325E+03  0.50400001928E-02 0.  1.
    10030    2    1    2    0    0  0.00000000000E+00  0.00000000000E+00  0.35759798735E+02  0.16001923052E+04  0.15997926899E+04 0.  0.
        2    1    3    3  502    0 -0.52066586715E+03  0.27062040506E+03 -0.52586035312E+03  0.78794508682E+03  0.25500000920E-02 0.  1.
       -2    1    3    3    0  502  0.52066586715E+03 -0.27062040506E+03  0.56162015186E+03  0.81224721842E+03  0.25500000920E-02 0. -1.
</event>
<event>
 5   0  0.1126485E-05  0.1599765E+04  0.7818609E-02  0.8820693E-01
        1   -1    0    0  501    0  0.00000000000E+00  0.00000000000E+00  0.60121717557E+03  0.60121717559E+03  0.50400001928E-02 0.  1.
       -1   -1    0    0    0  501  0.00000000000E+00  0.00000000000E+00 -0.10641940386E+04  0.10641940387E+04  0.50400001928E-02 0. -1.
    10030    2    1    2    0    0  0.00000000000E+00  0.00000000000E+00 -0.46297686308E+03  0.16654112142E+04  0.15997646504E+04 0.  0.
        2    1    3    3  502    0 -0.78817313281E+03  0.81311131394E+02 -0.34544895960E+03  0.86438612383E+03  0.25500000920E-02 0. -1.
       -2    1    3    3    0  502  0.78817313281E+03 -0.81311131394E+02 -0.11752790348E+03  0.80102509042E+03  0.25500000920E-02 0.  1.
</event>
<event>
 5   0  0.1994525E-05  0.1600269E+04  0.7818609E-02  0.8820383E-01
       -2   -1    0    0    0  501  0.00000000000E+00  0.00000000000E+00  0.34794369448E+03  0.34794369449E+03  0.25500000920E-02 0.  1.
        2   -1    0    0  501    0  0.00000000000E+00  0.00000000000E+00 -0.18399955887E+04  0.18399955887E+04  0.25500000920E-02 0. -1.
    10030    2    1    2    0    0  0.00000000000E+00  0.00000000000E+00 -0.14920518942E+04  0.21879392832E+04  0.16002685562E+04 0.  0.
        5    1    3    3  502    0  0.10406273649E+02  0.19138974466E+03  0.31607217373E+03  0.36967828432E+03  0.46999998093E+01 0.  1.
       -5    1    3    3    0  502 -0.10406273649E+02 -0.19138974466E+03 -0.18081240679E+04  0.18182609988E+04  0.46999998093E+01 0. -1.
</event>
<event>
 5   0  0.1990948E-05  0.1600215E+04  0.7818609E-02  0.8820416E-01
        2   -1    0    0  501    0  0.00000000000E+00  0.00000000000E+00  0.19982862836E+04  0.19982862836E+04  0.25500000920E-02 0. -1.
       -2   -1    0    0    0  501  0.00000000000E+00  0.00000000000E+00 -0.32036064910E+03  0.32036064911E+03  0.25500000920E-02 0.  1.
    10030    2    1    2    0    0  0.00000000000E+00  0.00000000000E+00  0.16779256345E+04  0.23186469327E+04  0.16002153491E+04 0.  0.
        4    1    3    3  502    0 -0.44987950713E+02  0.68867869808E+03  0.14255111633E+04  0.15837884817E+04  0.12699999809E+01 0. -1.
       -4    1    3    3    0  502  0.44987950713E+02 -0.68867869808E+03  0.25241447111E+03  0.73485845101E+03  0.12699999809E+01 0.  1.
</event>
<event>
 5   0  0.1126485E-05  0.1600260E+04  0.7818609E-02  0.8820388E-01
       -1   -1    0    0    0  501  0.00000000000E+00  0.00000000000E+00  0.10722253105E+04  0.10722253105E+04  0.50400001928E-02 0. -1.
        1   -1    0    0  501    0  0.00000000000E+00  0.00000000000E+00 -0.59708323345E+03  0.59708323347E+03  0.50400001928E-02 0.  1.
    10030    2    1    2    0    0  0.00000000000E+00  0.00000000000E+00  0.47514207702E+03  0.16693085440E+04  0.16002596732E+04 0.  0.
        2    1    3    3  502    0 -0.25996197342E+03  0.48208986389E+03 -0.37087783425E+03  0.66146899583E+03  0.25500000920E-02 0.  1.
       -2    1    3    3    0  502  0.25996197342E+03 -0.48208986389E+03  0.84601991128E+03  0.10078395481E+04  0.25500000920E-02 0. -1.
</event>
<event>
 5   0  0.1081831E-05  0.1600959E+04  0.7818609E-02  0.8819959E-01
       -1   -1    0    0    0  501  0.00000000000E+00  0.00000000000E+00  0.34700242561E+03  0.34700242565E+03  0.50400001928E-02 0.  1.
        1   -1    0    0  501    0  0.00000000000E+00  0.00000000000E+00 -0.18465798709E+04  0.18465798709E+04  0.50400001928E-02 0. -1.
    10030    2    1    2    0    0  0.00000000000E+00  0.00000000000E+00 -0.14995774453E+04  0.21935822966E+04  0.16009593303E+04 0.  0.
        3    1    3    3  502    0 -0.13849035469E+03  0.20927672478E+03  0.29171098874E+03  0.38480077577E+03  0.10100000352E+00 0.  1.
       -3    1    3    3    0  502  0.13849035469E+03 -0.20927672478E+03 -0.17912884340E+04  0.18087815208E+04  0.10100000352E+00 0. -1.
</event>
<event>
 5   0  0.1081831E-05  0.1599867E+04  0.7818609E-02  0.8820630E-01
        1   -1    0    0  501    0  0.00000000000E+00  0.00000000000E+00  0.97241841512E+03  0.97241841514E+03  0.50400001928E-02 0.  1.
       -1   -1    0    0    0  501  0.00000000000E+00  0.00000000000E+00 -0.65804321269E+03  0.65804321271E+03  0.50400001928E-02 0. -1.
    10030    2    1    2    0    0  0.00000000000E+00  0.00000000000E+00  0.31437520244E+03  0.16304616278E+04  0.15998666669E+04 0.  0.
        3    1    3    3  502    0  0.51444084759E+03 -0.17273353381E+03 -0.44176492736E+03  0.69974461099E+03  0.10100000352E+00 0. -1.
       -3    1    3    3    0  502 -0.51444084759E+03  0.17273353381E+03  0.75614012979E+03  0.93071701685E+03  0.10100000352E+00 0.  1.
</event>
<event>
 5   0  0.2147844E-05  0.1600155E+04  0.7818609E-02  0.8820453E-01
       -2   -1    0    0    0  501  0.00000000000E+00  0.00000000000E+00  0.39868948559E+03  0.39868948560E+03  0.25500000920E-02 0. -1.
        2   -1    0    0  501    0  0.00000000000E+00  0.00000000000E+00 -0.16055702860E+04  0.16055702860E+04  0.25500000920E-02 0.  1.
    10030    2    1    2    0    0  0.00000000000E+00  0.00000000000E+00 -0.12068808004E+04  0.20042597716E+04  0.16001549818E+04 0.  0.
        2    1    3    3  502    0  0.28618075518E+03 -0.61053148881E+03 -0.64009689771E+02  0.67730743674E+03  0.25500000920E-02 0. -1.
       -2    1    3    3    0  502 -0.28618075518E+03  0.61053148881E+03 -0.11428711106E+04  0.13269523349E+04  0.25500000920E-02 0.  1.
</event>
<event>
 5   0  0.1060251E-05  0.1598542E+04  0.7818609E-02  0.8821444E-01
       -1   -1    0    0    0  501  0.00000000000E+00  0.00000000000E+00  0.63924598523E+03  0.63924598525E+03  0.50400001928E-02 0.  1.
        1   -1    0    0  501    0  0.00000000000E+00  0.00000000000E+00 -0.99935587867E+03  0.99935587869E+03  0.50400001928E-02 0. -1.
    10030    2    1    2    0    0  0.00000000000E+00  0.00000000000E+00 -0.36010989344E+03  0.16386018639E+04  0.15985421274E+04 0.  0.
        1    1    3    3  502    0 -0.20170946559E+03  0.47537998918E+03  0.44528333572E+03  0.68187248934E+03  0.50400001928E-02 0. -1.
       -1    1    3    3    0  502  0.20170946559E+03 -0.47537998918E+03 -0.80539322916E+03  0.95672937460E+03  0.50400001928E-02 0.  1.
</event>
<event>
 5   0  0.1994525E-05  0.1600109E+04  0.7818609E-02  0.8820481E-01
       -2   -1    0    0    0  501  0.00000000000E+00  0.00000000000E+00  0.10865903205E+04  0.10865903205E+04  0.25500000920E-02 0.  1.
        2   -1    0    0  501    0  0.00000000000E+00  0.00000000000E+00 -0.58907861367E+03  0.58907861368E+03  0.25500000920E-02 0. -1.
    10030    2    1    2    0    0  0.00000000000E+00  0.00000000000E+00  0.49751170688E+03  0.16756689342E+04  0.16001088959E+04 0.  0.
        5    1    3    3  502    0  0.11153012004E+03 -0.52322681656E+03  0.87170739959E+03  0.10227908632E+04  0.46999998093E+01 0.  1.
       -5    1    3    3    0  502 -0.11153012004E+03  0.52322681656E+03 -0.37419569271E+03  0.65287807108E+03  0.46999998093E+01 0. -1.
</event>
<event>
 5   0  0.1081831E-05  0.1600119E+04  0.7818609E-02  0.8820475E-01
        1   -1    0    0  501    0  0.00000000000E+00  0.00000000000E+00  0.99429443980E+03  0.99429443981E+03  0.50400001928E-02 0.  1.
       -1   -1    0    0    0  501  0.00000000000E+00  0.00000000000E+00 -0.64376792413E+03  0.64376792415E+03  0.50400001928E-02 0. -1.
    10030    2    1    2    0    0  0.00000000000E+00  0.00000000000E+00  0.35052651567E+03  0.16380623640E+04  0.16001185800E+04 0.  0.
        3    1    3    3  502    0 -0.11855190910E+03 -0.12779113231E+03  0.97461849811E+03  0.99008401447E+03  0.10100000352E+00 0.  1.
       -3    1    3    3    0  502  0.11855190910E+03  0.12779113231E+03 -0.62409198244E+03  0.64797834948E+03  0.10100000352E+00 0. -1.
</event>
<event>
 5   0  0.2147844E-05  0.1599274E+04  0.7818609E-02  0.8820994E-01
        2   -1    0    0  501    0  0.00000000000E+00  0.00000000000E+00  0.22477453891E+04  0.22477453891E+04  0.25500000920E-02 0.  1.
       -2   -1    0    0    0  501  0.00000000000E+00  0.00000000000E+00 -0.28447143966E+03  0.28447143967E+03  0.25500000920E-02 0. -1.
    10030    2    1    2    0    0  0.00000000000E+00  0.00000000000E+00  0.19632739494E+04  0.25322168287E+04  0.15992740439E+04 0.  0.
        2    1    3    3  502    0  0.79459887411E+03 -0.88539230787E+02  0.95965167910E+03  0.12490628132E+04  0.25500000920E-02 0. -1.
       -2    1    3    3    0  502 -0.79459887411E+03  0.88539230787E+02  0.10036222703E+04  0.12831540155E+04  0.25500000920E-02 0.  1.
</event>
<event>
 5   0  0.7597000E-06  0.1600354E+04  0.7818609E-02  0.8820331E-01
        3   -1    0    0  501    0  0.00000000000E+00  0.00000000000E+00  0.38757309940E+03  0.38757311256E+03  0.10100000352E+00 0. -1.
       -3   -1    0    0    0  501  0.00000000000E+00  0.00000000000E+00 -0.16520317417E+04  0.16520317448E+04  0.10100000352E+00 0.  1.
    10030    2    1    2    0    0  0.00000000000E+00  0.00000000000E+00 -0.12644586423E+04  0.20396048573E+04  0.16003538096E+04 0.  0.
        1    1    3    3  502    0 -0.22731954907E+03  0.67484637786E+03 -0.16710622421E+03  0.73144808517E+03  0.50400001928E-02 0. -1.
       -1    1    3    3    0  502  0.22731954907E+03 -0.67484637786E+03 -0.10973524181E+04  0.13081567722E+04  0.50400001928E-02 0.  1.
</event>
<event>
 5   0  0.1994525E-05  0.1599943E+04  0.7818609E-02  0.8820583E-01
        2   -1    0    0  501    0  0.00000000000E+00  0.00000000000E+00  0.11122877421E+04  0.11122877421E+04  0.25500000920E-02 0.  1.
       -2   -1    0    0    0  501  0.00000000000E+00  0.00000000000E+00 -0.57534977397E+03  0.57534977398E+03  0.25500000920E-02 0. -1.
    10030    2    1    2    0    0  0.00000000000E+00  0.00000000000E+00  0.53693796814E+03  0.16876375161E+04  0.15999431253E+04 0.  0.
        5    1    3    3  502    0  0.31513032364E+03 -0.10545106955E+03 -0.49908655072E+03  0.59961364566E+03  0.46999998093E+01 0. -1.
       -5    1    3    3    0  502 -0.31513032364E+03  0.10545106955E+03  0.10360245189E+04  0.10880238704E+04  0.46999998093E+01 0.  1.
</event>
<event>
 5   0  0.1060251E-05  0.1599727E+04  0.7818609E-02  0.8820716E-01
        1   -1    0    0  501    0  0.00000000000E+00  0.00000000000E+00  0.14085085268E+04  0.14085085268E+04  0.50400001928E-02 0.  1.
       -1   -1    0    0    0  501  0.00000000000E+00  0.00000000000E+00 -0.45422612841E+03  0.45422612844E+03  0.50400001928E-02 0. -1.
    10030    2    1    2    0    0  0.00000000000E+00  0.00000000000E+00  0.95428239838E+03  0.18627346552E+04  0.15997266954E+04 0.  0.
        1    1    3    3  502    0 -0.21884801594E+03 -0.76355359622E+03  0.58682341084E+03  0.98755772688E+03  0.50400001928E-02 0.  1.
       -1    1    3    3    0  502  0.21884801594E+03  0.76355359622E+03  0.36745898754E+03  0.87517692836E+03  0.50400001928E-02 0. -1.
</event>
<event>
 5   0  0.1090674E-05  0.1600454E+04  0.7818609E-02  0.8820269E-01
       -1   -1    0    0    0  501  0.00000000000E+00  0.00000000000E+00  0.67522696482E+03  0.67522696484E+03  0.50400001928E-02 0.  1.
        1   -1    0    0  501    0  0.00000000000E+00  0.00000000000E+00 -0.94836763804E+03  0.94836763805E+03  0.50400001928E-02 0. -1.
    10030    2    1    2    0    0  0.00000000000E+00  0.00000000000E+00 -0.27314067321E+03  0.16235946029E+04  0.16004541878E+04 0.  0.
        4    1    3    3  502    0 -0.75539011361E+03  0.25615165384E+03 -0.20179533731E+03  0.82277023802E+03  0.12699999809E+01 0. -1.
       -4    1    3    3    0  502  0.75539011361E+03 -0.25615165384E+03 -0.71345335899E+02  0.80082436487E+03  0.12699999809E+01 0.  1.
</event>
<event>
 5   0  0.2125803E-05  0.1599953E+04  0.7818609E-02  0.8820577E-01
        2   -1    0    0  501    0  0.00000000000E+00  0.00000000000E+00  0.18323551656E+04  0.18323551656E+04  0.25500000920E-02 0. -1.
       -2   -1    0    0    0  501  0.00000000000E+00  0.00000000000E+00 -0.34925663283E+03  0.34925663284E+03  0.25500000920E-02 0.  1.
    10030    2    1    2    0    0  0.00000000000E+00  0.00000000000E+00  0.14830985328E+04  0.21816117984E+04  0.15999527434E+04 0.  0.
        3    1    3    3  502    0  0.73380598158E+03  0.25276934584E+03  0.47715240488E+03  0.91106420656E+03  0.10100000352E+00 0.  1.
       -3    1    3    3    0  502 -0.73380598158E+03 -0.25276934584E+03  0.10059461279E+04  0.12705475919E+04  0.10100000352E+00 0. -1.
</event>
<event>
 5   0  0.1057506E-05  0.1599859E+04  0.7818609E-02  0.8820635E-01
       -1   -1    0    0    0  501  0.00000000000E+00  0.00000000000E+00  0.40526631170E+03  0.40526631174E+03  0.50400001928E-02 0. -1.
        1   -1    0    0  501    0  0.00000000000E+00  0.00000000000E+00 -0.15789296207E+04  0.15789296207E+04  0.50400001928E-02 0.  1.
    10030    2    1    2    0    0  0.00000000000E+00  0.00000000000E+00 -0.11736633090E+04  0.19841959325E+04  0.15998587236E+04 0.  0.
        5    1    3    3  502    0 -0.10104749123E+03  0.22016518566E+03 -0.15323258030E+04  0.15513631945E+04  0.46999998093E+01 0.  1.
       -5    1    3    3    0  502  0.10104749123E+03 -0.22016518566E+03  0.35866249403E+03  0.43283273800E+03  0.46999998093E+01 0. -1.
</event>
<event>
 5   0  0.2046108E-05  0.1599925E+04  0.7818609E-02  0.8820594E-01
        2   -1    0    0  501    0  0.00000000000E+00  0.00000000000E+00  0.16033139416E+04  0.16033139416E+04  0.25500000920E-02 0. -1.
       -2   -1    0    0    0  501  0.00000000000E+00  0.00000000000E+00 -0.39913599491E+03  0.39913599492E+03  0.25500000920E-02 0.  1.
    10030    2    1    2    0    0  0.00000000000E+00  0.00000000000E+00  0.12041779467E+04  0.20024499365E+04  0.15999253798E+04 0.  0.
        1    1    3    3  502    0  0.80273882073E+01  0.53539396323E+03 -0.14176933820E+03  0.55390403510E+03  0.50400001928E-02 0.  1.
       -1    1    3    3    0  502 -0.80273882073E+01 -0.53539396323E+03  0.13459472849E+04  0.14485459014E+04  0.50400001928E-02 0. -1.
</event>
<event>
 5   0  0.1060251E-05  0.1600194E+04  0.7818609E-02  0.8820429E-01
       -1   -1    0    0    0  501  0.00000000000E+00  0.00000000000E+00  0.81333740149E+03  0.81333740151E+03  0.50400001928E-02 0. -1.
        1   -1    0    0  501    0  0.00000000000E+00  0.00000000000E+00 -0.78707218426E+03  0.78707218427E+03  0.50400001928E-02 0.  1.
    10030    2    1    2    0    0  0.00000000000E+00  0.00000000000E+00  0.26265217238E+02  0.16004095858E+04  0.16001940447E+04 0.  0.
        1    1    3    3  502    0 -0.16620249007E+03 -0.39346043538E+03 -0.66350923064E+03  0.78910004504E+03  0.50400001928E-02 0.  1.
       -1    1    3    3    0  502  0.16620249007E+03  0.39346043538E+03  0.68977444788E+03  0.81130954074E+03  0.50400001928E-02 0. -1.
</event>
<event>
 5   0  0.2147844E-05  0.1600003E+04  0.7818609E-02  0.8820546E-01
        2   -1    0    0  501    0  0.00000000000E+00  0.00000000000E+00  0.14644253232E+04  0.14644253232E+04  0.25500000920E-02 0. -1.
       -2   -1    0    0    0  501  0.00000000000E+00  0.00000000000E+00 -0.43703341083E+03  0.43703341084E+03  0.25500000920E-02 0.  1.
    10030    2    1    2    0    0  0.00000000000E+00  0.00000000000E+00  0.10273919124E+04  0.19014587341E+04  0.16000034924E+04 0.  0.
        2    1    3    3  502    0 -0.25936594986E+03  0.35216826982E+03  0.13097611915E+04  0.13808575469E+04  0.25500000920E-02 0. -1.
       -2    1    3    3    0  502  0.25936594986E+03 -0.35216826982E+03 -0.28236927912E+03  0.52060118710E+03  0.25500000920E-02 0.  1.
</event>
<event>
 5   0  0.1081831E-05  0.1596580E+04  0.7818609E-02  0.8822652E-01
        1   -1    0    0  501    0  0.00000000000E+00  0.00000000000E+00  0.11797610453E+04  0.11797610453E+04  0.50400001928E-02 0. -1.
       -1   -1    0    0    0  501  0.00000000000E+00  0.00000000000E+00 -0.54016610471E+03  0.54016610473E+03  0.50400001928E-02 0.  1.
    10030    2    1    2    0    0  0.00000000000E+00  0.00000000000E+00  0.63959494055E+03  0.17199271500E+04  0.15965800053E+04 0.  0.
        3    1    3    3  502    0  0.41835598904E+03  0.67988196862E+03  0.32236787696E+03  0.86091944055E+03  0.10100000352E+00 0.  1.
       -3    1    3    3    0  502 -0.41835598904E+03 -0.67988196862E+03  0.31722706359E+03  0.85900770945E+03  0.10100000352E+00 0. -1.
</event>
<event>
 5   0  0.1990948E-05  0.1600012E+04  0.7818609E-02  0.8820541E-01
        2   -1    0    0  501    0  0.00000000000E+00  0.00000000000E+00  0.11154203263E+04  0.11154203263E+04  0.25500000920E-02 0.  1.
       -2   -1    0    0    0  501  0.00000000000E+00  0.00000000000E+00 -0.57378318767E+03  0.57378318767E+03  0.25500000920E-02 0. -1.
    10030    2    1    2    0    0  0.00000000000E+00  0.00000000000E+00  0.54163713860E+03  0.16892035139E+04  0.16000117880E+04 0.  0.
        4    1    3    3  502    0  0.21815811566E+03  0.51892795768E+03  0.87095019354E+03  0.10370318419E+04  0.12699999809E+01 0.  1.
       -4    1    3    3    0  502 -0.21815811566E+03 -0.51892795768E+03 -0.32931305494E+03  0.65217167199E+03  0.12699999809E+01 0. -1.
</event>
<event>
 5   0  0.2046108E-05  0.1599869E+04  0.7818609E-02  0.8820629E-01
       -2   -1    0    0    0  501  0.00000000000E+00  0.00000000000E+00  0.52665469210E+03  0.52665469211E+03  0.25500000920E-02 0.  1.
        2   -1    0    0  501    0  0.00000000000E+00  0.00000000000E+00 -0.12150181829E+04  0.12150181829E+04  0.25500000920E-02 0. -1.
    10030    2    1    2    0    0  0.00000000000E+00  0.00000000000E+00 -0.68836349081E+03  0.17416728750E+04  0.15998687784E+04 0.  0.
        1    1    3    3  502    0  0.79864088756E+03 -0.43516269682E+02 -0.35854570304E+03  0.87651352197E+03  0.50400001928E-02 0. -1.
       -1    1    3    3    0  502 -0.79864088756E+03  0.43516269682E+02 -0.32981778776E+03  0.86515935304E+03  0.50400001928E-02 0.  1.
</event>
<event>
 5   0  0.1081831E-05  0.1599787E+04  0.7818609E-02  0.8820679E-01
       -1   -1    0    0    0  501  0.00000000000E+00  0.00000000000E+00  0.46540530588E+03  0.46540530591E+03  0.50400001928E-02 0.  1.
        1   -1    0    0  501    0  0.00000000000E+00  0.00000000000E+00 -0.13747786410E+04  0.13747786410E+04  0.50400001928E-02 0. -1.
    10030    2    1    2    0    0  0.00000000000E+00  0.00000000000E+00 -0.90937333507E+03  0.18401839469E+04  0.15997865782E+04 0.  0.
        3    1    3    3  502    0  0.70609935480E+03  0.34883923014E+03 -0.61557692703E+03  0.99959995529E+03  0.10100000352E+00 0.  1.
       -3    1    3    3    0  502 -0.70609935480E+03 -0.34883923014E+03 -0.29379640805E+03  0.84058399159E+03  0.10100000352E+00 0. -1.
</event>
<event>
 5   0  0.1057506E-05  0.1599475E+04  0.7818609E-02  0.8820871E-01
        1   -1    0    0  501    0  0.00000000000E+00  0.00000000000E+00  0.79120309009E+03  0.79120309010E+03  0.50400001928E-02 0. -1.
       -1   -1    0    0    0  501  0.00000000000E+00  0.00000000000E+00 -0.80836383018E+03  0.80836383020E+03  0.50400001928E-02 0.  1.
    10030    2    1    2    0    0  0.00000000000E+00  0.00000000000E+00 -0.17160740095E+02  0.15995669203E+04  0.15994748643E+04 0.  0.
        5    1    3    3  502    0 -0.79323010865E+02 -0.33798777605E+03 -0.72905919672E+03  0.80751302103E+03  0.46999998093E+01 0.  1.
       -5    1    3    3    0  502  0.79323010865E+02  0.33798777605E+03  0.71189845662E+03  0.79205389927E+03  0.46999998093E+01 0. -1.
</event>
<event>
 5   0  0.1081831E-05  0.1600213E+04  0.7818609E-02  0.8820417E-01
       -1   -1    0    0    0  501  0.00000000000E+00  0.00000000000E+00  0.13141112829E+04  0.13141112829E+04  0.50400001928E-02 0.  1.
        1   -1    0    0  501    0  0.00000000000E+00  0.00000000000E+00 -0.48715102506E+03  0.48715102508E+03  0.50400001928E-02 0. -1.
    10030    2    1    2    0    0  0.00000000000E+00  0.00000000000E+00  0.82696025787E+03  0.18012623080E+04  0.16002133090E+04 0.  0.
        3    1    3    3  502    0  0.40142904622E+03  0.38050764496E+03 -0.23729034544E+03  0.60186216467E+03  0.10100000352E+00 0. -1.
       -3    1    3    3    0  502 -0.40142904622E+03 -0.38050764496E+03  0.10642506033E+04  0.11994001434E+04  0.10100000352E+00 0.  1.
</event>
<event>
 5   0  0.1057506E-05  0.1599490E+04  0.7818609E-02  0.8820861E-01
        1   -1    0    0  501    0  0.00000000000E+00  0.00000000000E+00  0.45706680291E+03  0.45706680293E+03  0.50400001928E-02 0. -1.
       -1   -1    0    0    0  501  0.00000000000E+00  0.00000000000E+00 -0.13993402634E+04  0.13993402634E+04  0.50400001928E-02 0.  1.
    10030    2    1    2    0    0  0.00000000000E+00  0.00000000000E+00 -0.94227346051E+03  0.18564070664E+04  0.15994898942E+04 0.  0.
        5    1    3    3  502    0 -0.30253253117E+03  0.53737675550E+03 -0.10621102174E+04  0.12281693342E+04  0.46999998093E+01 0.  1.
       -5    1    3    3    0  502  0.30253253117E+03 -0.53737675550E+03  0.11983675684E+03  0.62823773212E+03  0.46999998093E+01 0. -1.
</event>
<event>
 5   0  0.2147844E-05  0.1600554E+04  0.7818609E-02  0.8820208E-01
        2   -1    0    0  501    0  0.00000000000E+00  0.00000000000E+00  0.84148799436E+03  0.84148799437E+03  0.25500000920E-02 0.  1.
       -2   -1    0    0    0  501  0.00000000000E+00  0.00000000000E+00 -0.76108446463E+03  0.76108446464E+03  0.25500000920E-02 0. -1.
    10030    2    1    2    0    0  0.00000000000E+00  0.00000000000E+00  0.80403529728E+02  0.16025724590E+04  0.16005542036E+04 0.  0.
        2    1    3    3  502    0 -0.28107032697E+03 -0.74013326330E+01  0.79040494685E+03  0.83892507916E+03  0.25500000920E-02 0.  1.
       -2    1    3    3    0  502  0.28107032697E+03  0.74013326330E+01 -0.71000141712E+03  0.76364737985E+03  0.25500000920E-02 0. -1.
</event>
<event>
 5   0  0.1081831E-05  0.1600065E+04  0.7818609E-02  0.8820508E-01
        1   -1    0    0  501    0  0.00000000000E+00  0.00000000000E+00  0.11232525286E+04  0.11232525286E+04  0.50400001928E-02 0.  1.
       -1   -1    0    0    0  501  0.00000000000E+00  0.00000000000E+00 -0.56981992148E+03  0.56981992150E+03  0.50400001928E-02 0. -1.
    10030    2    1    2    0    0  0.00000000000E+00  0.00000000000E+00  0.55343260711E+03  0.16930724501E+04  0.16000645833E+04 0.  0.
        3    1    3    3  502    0  0.25313880274E+03  0.73514062044E+03  0.77235619304E+02  0.78132985119E+03  0.10100000352E+00 0. -1.
       -3    1    3    3    0  502 -0.25313880274E+03 -0.73514062044E+03  0.47619698781E+03  0.91174259891E+03  0.10100000352E+00 0.  1.
</event>
<event>
 5   0  0.2046108E-05  0.1600477E+04  0.7818609E-02  0.8820255E-01
       -2   -1    0    0    0  501  0.00000000000E+00  0.00000000000E+00  0.68921241312E+03  0.68921241312E+03  0.25500000920E-02 0.  1.
        2   -1    0    0  501    0  0.00000000000E+00  0.00000000000E+00 -0.92914954186E+03  0.92914954187E+03  0.25500000920E-02 0. -1.
    10030    2    1    2    0    0  0.00000000000E+00  0.00000000000E+00 -0.23993712875E+03  0.16183619550E+04  0.16004766764E+04 0.  0.
        1    1    3    3  502    0  0.38009677786E+03  0.66407554187E+03  0.11698214433E+03  0.77405084327E+03  0.50400001928E-02 0.  1.
       -1    1    3    3    0  502 -0.38009677786E+03 -0.66407554187E+03 -0.35691927307E+03  0.84431111172E+03  0.50400001928E-02 0. -1.
</event>
<event>
 5   0  0.1990948E-05  0.1599252E+04  0.7818609E-02  0.8821008E-01
        2   -1    0    0  501    0  0.00000000000E+00  0.00000000000E+00  0.16091390457E+04  0.16091390457E+04  0.25500000920E-02 0.  1.
       -2   -1    0    0    0  501  0.00000000000E+00  0.00000000000E+00 -0.39735632502E+03  0.39735632503E+03  0.25500000920E-02 0. -1.
    10030    2    1    2    0    0  0.00000000000E+00  0.00000000000E+00  0.12117827207E+04  0.20064953708E+04  0.15992517971E+04 0.  0.
        4    1    3    3  502    0  0.57645954699E+03 -0.55332311044E+03  0.56767320026E+03  0.98016659250E+03  0.12699999809E+01 0.  1.
       -4    1    3    3    0  502 -0.57645954699E+03  0.55332311044E+03  0.64410952045E+03  0.10263287783E+04  0.12699999809E+01 0. -1.
</event>
<event>
 5   0  0.1057506E-05  0.1600005E+04  0.7818609E-02  0.8820545E-01
       -1   -1    0    0    0  501  0.00000000000E+00  0.00000000000E+00  0.88117975047E+03  0.88117975049E+03  0.50400001928E-02 0.  1.
        1   -1    0    0  501    0  0.00000000000E+00  0.00000000000E+00 -0.72630320227E+03  0.72630320229E+03  0.50400001928E-02 0. -1.
    10030    2    1    2    0    0  0.00000000000E+00  0.00000000000E+00  0.15487654820E+03  0.16074829528E+04  0.16000045932E+04 0.  0.
        5    1    3    3  502    0  0.23473124878E+03 -0.45221131455E+03  0.69707679582E+03  0.86344193866E+03  0.46999998093E+01 0.  1.
       -5    1    3    3    0  502 -0.23473124878E+03  0.45221131455E+03 -0.54220024762E+03  0.74404101412E+03  0.46999998093E+01 0. -1.
</event>
<event>
 5   0  0.2125803E-05  0.1599235E+04  0.7818609E-02  0.8821018E-01
        2   -1    0    0  501    0  0.00000000000E+00  0.00000000000E+00  0.13962270025E+04  0.13962270025E+04  0.25500000920E-02 0. -1.
       -2   -1    0    0    0  501  0.00000000000E+00  0.00000000000E+00 -0.45793995485E+03  0.45793995486E+03  0.25500000920E-02 0.  1.
    10030    2    1    2    0    0  0.00000000000E+00  0.00000000000E+00  0.93828704760E+03  0.18541669573E+04  0.15992349802E+04 0.  0.
        3    1    3    3  502    0 -0.14374763480E+03  0.69716977250E+03  0.89145970994E+03  0.11407933638E+04  0.10100000352E+00 0. -1.
       -3    1    3    3    0  502  0.14374763480E+03 -0.69716977250E+03  0.46827337663E+02  0.71337359354E+03  0.10100000352E+00 0.  1.
</event>
<event>
 5   0  0.2125803E-05  0.1599562E+04  0.7818609E-02  0.8820817E-01
        2   -1    0    0  501    0  0.00000000000E+00  0.00000000000E+00  0.12661855271E+04  0.12661855271E+04  0.25500000920E-02 0.  1.
       -2   -1    0    0    0  501  0.00000000000E+00  0.00000000000E+00 -0.50517860852E+03  0.50517860852E+03  0.25500000920E-02 0. -1.
    10030    2    1    2    0    0  0.00000000000E+00  0.00000000000E+00  0.76100691854E+03  0.17713641356E+04  0.15995622435E+04 0.  0.
        3    1    3    3  502    0 -0.71896928673E+03 -0.32347543681E+03  0.52947580784E+03  0.94968301805E+03  0.10100000352E+00 0.  1.
       -3    1    3    3    0  502  0.71896928673E+03  0.32347543681E+03  0.23153111069E+03  0.82168111753E+03  0.10100000352E+00 0. -1.
</event>
<event>
 5   0  0.1126485E-05  0.1599788E+04  0.7818609E-02  0.8820678E-01
        1   -1    0    0  501    0  0.00000000000E+00  0.00000000000E+00  0.99627353211E+03  0.99627353212E+03  0.50400001928E-02 0. -1.
       -1   -1    0    0    0  501  0.00000000000E+00  0.00000000000E+00 -0.64222355985E+03  0.64222355987E+03  0.50400001928E-02 0.  1.
    10030    2    1    2    0    0  0.00000000000E+00  0.00000000000E+00  0.35404997226E+03  0.16384970920E+04  0.15997879039E+04 0.  0.
        2    1    3    3  502    0 -0.24063858363E+03  0.33677075776E+03  0.87806397420E+03  0.97073055686E+03  0.25500000920E-02 0. -1.
       -2    1    3    3    0  502  0.24063858363E+03 -0.33677075776E+03 -0.52401400194E+03  0.66776653514E+03  0.25500000920E-02 0.  1.
</event>
<event>
 5   0  0.1057506E-05  0.1600117E+04  0.7818609E-02  0.8820476E-01
        1   -1    0    0  501    0  0.00000000000E+00  0.00000000000E+00  0.12500928232E+04  0.12500928232E+04  0.50400001928E-02 0.  1.
       -1   -1    0    0    0  501  0.00000000000E+00  0.00000000000E+00 -0.51203663505E+03  0.51203663507E+03  0.50400001928E-02 0. -1.
    10030    2    1    2    0    0  0.00000000000E+00  0.00000000000E+00  0.73805618819E+03  0.17621294583E+04  0.16001166492E+04 0.  0.
        5    1    3    3  502    0 -0.53575377066E+02  0.44752329580E+03 -0.35890091032E+03  0.57617651353E+03  0.46999998093E+01 0. -1.
       -5    1    3    3    0  502  0.53575377066E+02 -0.44752329580E+03  0.10969570985E+04  0.11859529448E+04  0.46999998093E+01 0.  1.
</event>
<event>
 5   0  0.1060251E-05  0.1599466E+04  0.7818609E-02  0.8820876E-01
        1   -1    0    0  501    0  0.00000000000E+00  0.00000000000E+00  0.71218895174E+03  0.71218895175E+03  0.50400001928E-02 0. -1.
       -1   -1    0    0    0  501  0.00000000000E+00  0.00000000000E+00 -0.89803816896E+03  0.89803816898E+03  0.50400001928E-02 0.  1.
    10030    2    1    2    0    0  0.00000000000E+00  0.00000000000E+00 -0.18584921722E+03  0.16102271207E+04  0.15994659886E+04 0.  0.
        1    1    3    3  502    0 -0.12135808092E+03 -0.26222904558E+03 -0.84365009175E+03  0.89176080509E+03  0.50400001928E-02 0.  1.
       -1    1    3    3    0  502  0.12135808092E+03  0.26222904558E+03  0.65780087453E+03  0.71846631564E+03  0.50400001928E-02 0. -1.
</event>
<event>
 5   0  0.1994525E-05  0.1602747E+04  0.7818609E-02  0.8818862E-01
       -2   -1    0    0    0  501  0.00000000000E+00  0.00000000000E+00  0.40734950340E+03  0.40734950340E+03  0.25500000920E-02 0.  1.
        2   -1    0    0  501    0  0.00000000000E+00  0.00000000000E+00 -0.15765312371E+04  0.15765312371E+04  0.25500000920E-02 0. -1.
    10030    2    1    2    0    0  0.00000000000E+00  0.00000000000E+00 -0.11691817337E+04  0.19838807405E+04  0.16027466631E+04 0.  0.
        5    1    3    3  502    0  0.10149903529E+03 -0.71764789150E+03 -0.16145751448E+03  0.74257064938E+03  0.46999998093E+01 0. -1.
       -5    1    3    3    0  502 -0.10149903529E+03  0.71764789150E+03 -0.10077242192E+04  0.12413100911E+04  0.46999998093E+01 0.  1.
</event>
<event>
 5   0  0.2125803E-05  0.1600075E+04  0.7818609E-02  0.8820502E-01
       -2   -1    0    0    0  501  0.00000000000E+00  0.00000000000E+00  0.86204429157E+03  0.86204429158E+03  0.25500000920E-02 0. -1.
        2   -1    0    0  501    0  0.00000000000E+00  0.00000000000E+00 -0.74249083822E+03  0.74249083823E+03  0.25500000920E-02 0.  1.
    10030    2    1    2    0    0  0.00000000000E+00  0.00000000000E+00  0.11955345335E+03  0.16045351298E+04  0.16000749840E+04 0.  0.
        3    1    3    3  502    0  0.22618802356E+03 -0.35087503330E+02  0.82850853384E+03  0.85954555187E+03  0.10100000352E+00 0. -1.
       -3    1    3    3    0  502 -0.22618802356E+03  0.35087503330E+02 -0.70895508048E+03  0.74498957794E+03  0.10100000352E+00 0.  1.
</event>
<event>
 5   0  0.1990948E-05  0.1601998E+04  0.7818609E-02  0.8819321E-01
        2   -1    0    0  501    0  0.00000000000E+00  0.00000000000E+00  0.10852060792E+04  0.10852060792E+04  0.25500000920E-02 0. -1.
       -2   -1    0    0    0  501  0.00000000000E+00  0.00000000000E+00 -0.59122365614E+03  0.59122365614E+03  0.25500000920E-02 0.  1.
    10030    2    1    2    0    0  0.00000000000E+00  0.00000000000E+00  0.49398242307E+03  0.16764297354E+04  0.16019981346E+04 0.  0.
        4    1    3    3  502    0  0.68770973430E+02 -0.60956502582E+03 -0.29201167980E+03  0.67939046323E+03  0.12699999809E+01 0.  1.
       -4    1    3    3    0  502 -0.68770973430E+02  0.60956502582E+03  0.78599410287E+03  0.99703927212E+03  0.12699999809E+01 0. -1.
</event>
<event>
 5   0  0.2125803E-05  0.1600049E+04  0.7818609E-02  0.8820518E-01
        2   -1    0    0  501    0  0.00000000000E+00  0.00000000000E+00  0.15591493650E+04  0.15591493650E+04  0.25500000920E-02 0.  1.
       -2   -1    0    0    0  501  0.00000000000E+00  0.00000000000E+00 -0.41050543795E+03  0.41050543796E+03  0.25500000920E-02 0. -1.
    10030    2    1    2    0    0  0.00000000000E+00  0.00000000000E+00  0.11486439270E+04  0.19696548030E+04  0.16000491154E+04 0.  0.
        3    1    3    3  502    0 -0.68469562605E+03  0.76620659681E+02  0.10749009759E+04  0.12767501494E+04  0.10100000352E+00 0.  1.
       -3    1    3    3    0  502  0.68469562605E+03 -0.76620659681E+02  0.73742951105E+02  0.69290465351E+03  0.10100000352E+00 0. -1.
</event>
<event>
 5   0  0.1057506E-05  0.1602122E+04  0.7818609E-02  0.8819245E-01
        1   -1    0    0  501    0  0.00000000000E+00  0.00000000000E+00  0.84866655177E+03  0.84866655178E+03  0.50400001928E-02 0. -1.
       -1   -1    0    0    0  501  0.00000000000E+00  0.00000000000E+00 -0.75612613639E+03  0.75612613641E+03  0.50400001928E-02 0.  1.
    10030    2    1    2    0    0  0.00000000000E+00  0.00000000000E+00  0.92540415373E+02  0.16047926882E+04  0.16021222936E+04 0.  0.
        5    1    3    3  502    0 -0.35757446258E+03  0.45253376972E+03 -0.51056154058E+03  0.77028662571E+03  0.46999998093E+01 0.  1.
       -5    1    3    3    0  502  0.35757446258E+03 -0.45253376972E+03  0.60310195596E+03  0.83450606248E+03  0.46999998093E+01 0. -1.
</event>
<event>
 5   0  0.1090674E-05  0.1599937E+04  0.7818609E-02  0.8820587E-01
       -1   -1    0    0    0  501  0.00000000000E+00  0.00000000000E+00  0.40689088401E+03  0.40689088404E+03  0.50400001928E-02 0.  1.
        1   -1    0    0  501    0  0.00000000000E+00  0.00000000000E+00 -0.15727787025E+04  0.15727787025E+04  0.50400001928E-02 0. -1.
    10030    2    1    2    0    0  0.00000000000E+00  0.00000000000E+00 -0.11658878185E+04  0.19796695866E+04  0.15999366446E+04 0.  0.
        4    1    3    3  502    0  0.34625866004E+03 -0.27189865263E+02  0.30872715071E+03  0.46470250151E+03  0.12699999809E+01 0.  1.
       -4    1    3    3    0  502 -0.34625866004E+03  0.27189865263E+02 -0.14746149692E+04  0.15149670851E+04  0.12699999809E+01 0. -1.
</event>
<event>
 5   0  0.1057506E-05  0.1600522E+04  0.7818609E-02  0.8820228E-01
        1   -1    0    0  501    0  0.00000000000E+00  0.00000000000E+00  0.14016583627E+04  0.14016583627E+04  0.50400001928E-02 0.  1.
       -1   -1    0    0    0  501  0.00000000000E+00  0.00000000000E+00 -0.45689983011E+03  0.45689983014E+03  0.50400001928E-02 0. -1.
    10030    2    1    2    0    0  0.00000000000E+00  0.00000000000E+00  0.94475853262E+03  0.18585581929E+04  0.16005217497E+04 0.  0.
        5    1    3    3  502    0 -0.51016502112E+02  0.79852183043E+03  0.45789513663E+03  0.92191639714E+03  0.46999998093E+01 0. -1.
       -5    1    3    3    0  502  0.51016502112E+02 -0.79852183043E+03  0.48686339599E+03  0.93664179574E+03  0.46999998093E+01 0.  1.
</event>
<event>
 5   0  0.1090674E-05  0.1606223E+04  0.7818609E-02  0.8816734E-01
       -1   -1    0    0    0  501  0.00000000000E+00  0.00000000000E+00  0.68108657019E+03  0.68108657021E+03  0.50400001928E-02 0.  1.
        1   -1    0    0  501    0  0.00000000000E+00  0.00000000000E+00 -0.94699880883E+03  0.94699880884E+03  0.50400001928E-02 0. -1.
    10030    2    1    2    0    0  0.00000000000E+00  0.00000000000E+00 -0.26591223864E+03  0.16280853790E+04  0.16062231112E+04 0.  0.
        4    1    3    3  502    0  0.31506626455E+02  0.32878750088E+03  0.60905465913E+03  0.69285141189E+03  0.12699999809E+01 0.  1.
       -4    1    3    3    0  502 -0.31506626455E+02 -0.32878750088E+03 -0.87496689777E+03  0.93523396716E+03  0.12699999809E+01 0. -1.
</event>
<event>
 5   0  0.2125803E-05  0.1599984E+04  0.7818609E-02  0.8820558E-01
        2   -1    0    0  501    0  0.00000000000E+00  0.00000000000E+00  0.18949627482E+04  0.18949627482E+04  0.25500000920E-02 0.  1.
       -2   -1    0    0    0  501  0.00000000000E+00  0.00000000000E+00 -0.33773086254E+03  0.33773086255E+03  0.25500000920E-02 0. -1.
    10030    2    1    2    0    0  0.00000000000E+00  0.00000000000E+00  0.15572318856E+04  0.22326936107E+04  0.15999842542E+04 0.  0.
        3    1    3    3  502    0 -0.26880806724E+03  0.99329046836E+01  0.18299638533E+04  0.18496281124E+04  0.10100000352E+00 0.  1.
       -3    1    3    3    0  502  0.26880806724E+03 -0.99329046836E+01 -0.27273196768E+03  0.38306549832E+03  0.10100000352E+00 0. -1.
</event>
<event>
 5   0  0.1081831E-05  0.1600404E+04  0.7818609E-02  0.8820300E-01
       -1   -1    0    0    0  501  0.00000000000E+00  0.00000000000E+00  0.31574013258E+03  0.31574013262E+03  0.50400001928E-02 0. -1.
        1   -1    0    0  501    0  0.00000000000E+00  0.00000000000E+00 -0.20280063805E+04  0.20280063806E+04  0.50400001928E-02 0.  1.
    10030    2    1    2    0    0  0.00000000000E+00  0.00000000000E+00 -0.17122662480E+04  0.23437465132E+04  0.16004037035E+04 0.  0.
        3    1    3    3  502    0  0.21289513870E+03  0.38062447721E+03 -0.18386658220E+04  0.18896802237E+04  0.10100000352E+00 0.  1.
       -3    1    3    3    0  502 -0.21289513870E+03 -0.38062447721E+03  0.12639957400E+03  0.45406628948E+03  0.10100000352E+00 0. -1.
</event>
<event>
 5   0  0.7597000E-06  0.1599817E+04  0.7818609E-02  0.8820661E-01
       -4   -1    0    0    0  501  0.00000000000E+00  0.00000000000E+00  0.54955212444E+03  0.54955359191E+03  0.12699999809E+01 0. -1.
        4   -1    0    0  501    0  0.00000000000E+00  0.00000000000E+00 -0.11643145738E+04  0.11643152664E+04  0.12699999809E+01 0.  1.
    10030    2    1    2    0    0  0.00000000000E+00  0.00000000000E+00 -0.61476244936E+03  0.17138688583E+04  0.15998167378E+04 0.  0.
        2    1    3    3  502    0 -0.25225874110E+03  0.45068319198E+03 -0.96174923983E+03  0.10916553542E+04  0.25500000920E-02 0.  1.
       -2    1    3    3    0  502  0.25225874110E+03 -0.45068319198E+03  0.34698679047E+03  0.62221350417E+03  0.25500000920E-02 0. -1.
</event>
<event>
 5   0  0.2125803E-05  0.1600578E+04  0.7818609E-02  0.8820193E-01
       -2   -1    0    0    0  501  0.00000000000E+00  0.00000000000E+00  0.56956275060E+03  0.56956275061E+03  0.25500000920E-02 0.  1.
        2   -1    0    0  501    0  0.00000000000E+00  0.00000000000E+00 -0.11244809358E+04  0.11244809358E+04  0.25500000920E-02 0. -1.
    10030    2    1    2    0    0  0.00000000000E+00  0.00000000000E+00 -0.55491818523E+03  0.16940436864E+04  0.16005779641E+04 0.  0.
        3    1    3    3  502    0  0.42997130215E+02 -0.78853888506E+03 -0.41472487617E+03  0.89198601983E+03  0.10100000352E+00 0. -1.
       -3    1    3    3    0  502 -0.42997130215E+02  0.78853888506E+03 -0.14019330906E+03  0.80205766661E+03  0.10100000352E+00 0.  1.
</event>
<event>
 5   0  0.1081831E-05  0.1599637E+04  0.7818609E-02  0.8820771E-01
       -1   -1    0    0    0  501  0.00000000000E+00  0.00000000000E+00  0.58128771042E+03  0.58128771045E+03  0.50400001928E-02 0.  1.
        1   -1    0    0  501    0  0.00000000000E+00  0.00000000000E+00 -0.11005042041E+04  0.11005042041E+04  0.50400001928E-02 0. -1.
    10030    2    1    2    0    0  0.00000000000E+00  0.00000000000E+00 -0.51921649371E+03  0.16817919146E+04  0.15996369203E+04 0.  0.
        3    1    3    3  502    0 -0.70272893821E+02 -0.74126497835E+03  0.47448766117E+02  0.74609881607E+03  0.10100000352E+00 0.  1.
       -3    1    3    3    0  502  0.70272893821E+02  0.74126497835E+03 -0.56666525983E+03  0.93569309853E+03  0.10100000352E+00 0. -1.
</event>
<event>
 5   0  0.1990948E-05  0.1600065E+04  0.7818609E-02  0.8820508E-01
        2   -1    0    0  501    0  0.00000000000E+00  0.00000000000E+00  0.13764730903E+04  0.13764730903E+04  0.25500000920E-02 0. -1.
       -2   -1    0    0    0  501  0.00000000000E+00  0.00000000000E+00 -0.46499438315E+03  0.46499438316E+03  0.25500000920E-02 0.  1.
    10030    2    1    2    0    0  0.00000000000E+00  0.00000000000E+00  0.91147870712E+03  0.18414674734E+04  0.16000653181E+04 0.  0.
        4    1    3    3  502    0 -0.49279310710E+03 -0.59030785853E+03  0.20165435155E+03  0.79496824128E+03  0.12699999809E+01 0.  1.
       -4    1    3    3    0  502  0.49279310710E+03  0.59030785853E+03  0.70982435557E+03  0.10464992322E+04  0.12699999809E+01 0. -1.
</event>
<event>
 5   0  0.7597000E-06  0.1601381E+04  0.7818609E-02  0.8819700E-01
        4   -1    0    0  501    0  0.00000000000E+00  0.00000000000E+00  0.80278375912E+03  0.80278476369E+03  0.12699999809E+01 0.  1.
       -4   -1    0    0    0  501  0.00000000000E+00  0.00000000000E+00 -0.79860109352E+03  0.79860210335E+03  0.12699999809E+01 0. -1.
    10030    2    1    2    0    0  0.00000000000E+00  0.00000000000E+00  0.41826655979E+01  0.16013868670E+04  0.16013814047E+04 0.  0.
        4    1    3    3  502    0  0.28672147187E+03  0.36323759635E+03  0.65551014703E+03  0.80240009944E+03  0.12699999809E+01 0.  1.
       -4    1    3    3    0  502 -0.28672147187E+03 -0.36323759635E+03 -0.65132748143E+03  0.79898676760E+03  0.12699999809E+01 0. -1.
</event>
<event>
 5   0  0.1126485E-05  0.1599575E+04  0.7818609E-02  0.8820809E-01
       -1   -1    0    0    0  501  0.00000000000E+00  0.00000000000E+00  0.49731165218E+03  0.49731165221E+03  0.50400001928E-02 0. -1.
        1   -1    0    0  501    0  0.00000000000E+00  0.00000000000E+00 -0.12862361302E+04  0.12862361303E+04  0.50400001928E-02 0.  1.
    10030    2    1    2    0    0  0.00000000000E+00  0.00000000000E+00 -0.78892447806E+03  0.17835477825E+04  0.15995752124E+04 0.  0.
        2    1    3    3  502    0  0.64255229429E+03  0.34167814014E+03 -0.76434230345E+03  0.10553845551E+04  0.25500000920E-02 0.  1.
       -2    1    3    3    0  502 -0.64255229429E+03 -0.34167814014E+03 -0.24582174613E+02  0.72816322734E+03  0.25500000920E-02 0. -1.
</event>
<event>
 5   0  0.1090674E-05  0.1597860E+04  0.7818609E-02  0.8821864E-01
       -1   -1    0    0    0  501  0.00000000000E+00  0.00000000000E+00  0.75551409621E+03  0.75551409623E+03  0.50400001928E-02 0.  1.
        1   -1    0    0  501    0  0.00000000000E+00  0.00000000000E+00 -0.84484113825E+03  0.84484113826E+03  0.50400001928E-02 0. -1.
    10030    2    1    2    0    0  0.00000000000E+00  0.00000000000E+00 -0.89327042038E+02  0.16003552345E+04  0.15978603056E+04 0.  0.
        4    1    3    3  502    0  0.88568189701E+02  0.71698157098E+03 -0.38634261180E+03  0.81924912203E+03  0.12699999809E+01 0. -1.
       -4    1    3    3    0  502 -0.88568189701E+02 -0.71698157098E+03  0.29701556976E+03  0.78110611247E+03  0.12699999809E+01 0.  1.
</event>
<event>
 5   0  0.1081831E-05  0.1599879E+04  0.7818609E-02  0.8820622E-01
       -1   -1    0    0    0  501  0.00000000000E+00  0.00000000000E+00  0.56614002545E+03  0.56614002547E+03  0.50400001928E-02 0. -1.
        1   -1    0    0  501    0  0.00000000000E+00  0.00000000000E+00 -0.11302914557E+04  0.11302914557E+04  0.50400001928E-02 0.  1.
    10030    2    1    2    0    0  0.00000000000E+00  0.00000000000E+00 -0.56415143029E+03  0.16964314812E+04  0.15998790374E+04 0.  0.
        3    1    3    3  502    0  0.24322906613E+03 -0.62231906487E+03  0.18431169320E+03  0.69311774437E+03  0.10100000352E+00 0. -1.
       -3    1    3    3    0  502 -0.24322906613E+03  0.62231906487E+03 -0.74846312349E+03  0.10033137368E+04  0.10100000352E+00 0.  1.
</event>
<event>
 5   0  0.1057506E-05  0.1600374E+04  0.7818609E-02  0.8820318E-01
        1   -1    0    0  501    0  0.00000000000E+00  0.00000000000E+00  0.76683529519E+03  0.76683529520E+03  0.50400001928E-02 0. -1.
       -1   -1    0    0    0  501  0.00000000000E+00  0.00000000000E+00 -0.83498895633E+03  0.83498895635E+03  0.50400001928E-02 0.  1.
    10030    2    1    2    0    0  0.00000000000E+00  0.00000000000E+00 -0.68153661148E+02  0.16018242516E+04  0.16003737099E+04 0.  0.
        5    1    3    3  502    0 -0.32615514208E+03 -0.33071944933E+03 -0.68622274128E+03  0.82865932175E+03  0.46999998093E+01 0.  1.
       -5    1    3    3    0  502  0.32615514208E+03  0.33071944933E+03  0.61806908013E+03  0.77316492981E+03  0.46999998093E+01 0. -1.
</event>
<event>
 5   0  0.2125803E-05  0.1600308E+04  0.7818609E-02  0.8820359E-01
        2   -1    0    0  501    0  0.00000000000E+00  0.00000000000E+00  0.18489895138E+04  0.18489895138E+04  0.25500000920E-02 0. -1.
       -2   -1    0    0    0  501  0.00000000000E+00  0.00000000000E+00 -0.34626817964E+03  0.34626817965E+03  0.25500000920E-02 0.  1.
    10030    2    1    2    0    0  0.00000000000E+00  0.00000000000E+00  0.15027213341E+04  0.21952576934E+04  0.16003077618E+04 0.  0.
        3    1    3    3  502    0 -0.95603863600E+02 -0.57479186869E+03 -0.89152922249E+00  0.58268910756E+03  0.10100000352E+00 0.  1.
       -3    1    3    3    0  502  0.95603863600E+02  0.57479186869E+03  0.15036128633E+04  0.16125685858E+04  0.10100000352E+00 0. -1.
</event>
<event>
 5   0  0.1060251E-05  0.1599432E+04  0.7818609E-02  0.8820897E-01
        1   -1    0    0  501    0  0.00000000000E+00  0.00000000000E+00  0.84156588425E+03  0.84156588427E+03  0.50400001928E-02 0. -1.
       -1   -1    0    0    0  501  0.00000000000E+00  0.00000000000E+00 -0.75994768998E+03  0.75994768999E+03  0.50400001928E-02 0.  1.
    10030    2    1    2    0    0  0.00000000000E+00  0.00000000000E+00  0.81618194274E+02  0.16015135743E+04  0.15994324615E+04 0.  0.
        1    1    3    3  502    0  0.57125498417E+03  0.36672450852E+03  0.46412025196E+03  0.82233006171E+03  0.50400001928E-02 0. -1.
       -1    1    3    3    0  502 -0.57125498417E+03 -0.36672450852E+03 -0.38250205768E+03  0.77918351256E+03  0.50400001928E-02 0.  1.
</event>
<event>
 5   0  0.2046108E-05  0.1600295E+04  0.7818609E-02  0.8820367E-01
        2   -1    0    0  501    0  0.00000000000E+00  0.00000000000E+00  0.42875604878E+03  0.42875604878E+03  0.25500000920E-02 0.  1.
       -2   -1    0    0    0  501  0.00000000000E+00  0.00000000000E+00 -0.14932407575E+04  0.14932407575E+04  0.25500000920E-02 0. -1.
    10030    2    1    2    0    0  0.00000000000E+00  0.00000000000E+00 -0.10644847087E+04  0.19219968062E+04  0.16002949816E+04 0.  0.
        1    1    3    3  502    0  0.97265494628E+02  0.96896908002E+02  0.41450368547E+03  0.43664962215E+03  0.50400001928E-02 0.  1.
       -1    1    3    3    0  502 -0.97265494628E+02 -0.96896908002E+02 -0.14789883942E+04  0.14853471841E+04  0.50400001928E-02 0. -1.
</event>
<event>
 5   0  0.1081831E-05  0.1600516E+04  0.7818609E-02  0.8820231E-01
        1   -1    0    0  501    0  0.00000000000E+00  0.00000000000E+00  0.87206012973E+03  0.87206012974E+03  0.50400001928E-02 0.  1.
       -1   -1    0    0    0  501  0.00000000000E+00  0.00000000000E+00 -0.73436787293E+03  0.73436787295E+03  0.50400001928E-02 0. -1.
    10030    2    1    2    0    0  0.00000000000E+00  0.00000000000E+00  0.13769225680E+03  0.16064280027E+04  0.16005160950E+04 0.  0.
        3    1    3    3  502    0  0.60062048198E+03 -0.27029274455E+03  0.52506860750E+03  0.84231833882E+03  0.10100000352E+00 0.  1.
       -3    1    3    3    0  502 -0.60062048198E+03  0.27029274455E+03 -0.38737635070E+03  0.76410966387E+03  0.10100000352E+00 0. -1.
</event>
<event>
 5   0  0.1126485E-05  0.1600251E+04  0.7818609E-02  0.8820394E-01
        1   -1    0    0  501    0  0.00000000000E+00  0.00000000000E+00  0.18801082203E+04  0.18801082203E+04  0.50400001928E-02 0.  1.
       -1   -1    0    0    0  501  0.00000000000E+00  0.00000000000E+00 -0.34051267510E+03  0.34051267514E+03  0.50400001928E-02 0. -1.
    10030    2    1    2    0    0  0.00000000000E+00  0.00000000000E+00  0.15395955452E+04  0.22206208955E+04  0.16002508299E+04 0.  0.
        2    1    3    3  502    0  0.22078783373E+03  0.26772534793E+03 -0.23065064621E+03  0.41668195311E+03  0.25500000920E-02 0. -1.
       -2    1    3    3    0  502 -0.22078783373E+03 -0.26772534793E+03  0.17702461914E+04  0.18039389423E+04  0.25500000920E-02 0.  1.
</event>
<event>
 5   0  0.1057506E-05  0.1600541E+04  0.7818609E-02  0.8820216E-01
        1   -1    0    0  501    0  0.00000000000E+00  0.00000000000E+00  0.78871451239E+03  0.78871451241E+03  0.50400001928E-02 0.  1.
       -1   -1    0    0    0  501  0.00000000000E+00  0.00000000000E+00 -0.81199581454E+03  0.81199581455E+03  0.50400001928E-02 0. -1.
    10030    2    1    2    0    0  0.00000000000E+00  0.00000000000E+00 -0.23281302145E+02  0.16007103270E+04  0.16005410122E+04 0.  0.
        5    1    3    3  502    0 -0.61704310368E+03 -0.50906633710E+03 -0.34448010132E+02  0.80068688185E+03  0.46999998093E+01 0. -1.
       -5    1    3    3    0  502  0.61704310368E+03  0.50906633710E+03  0.11166707987E+02  0.80002344511E+03  0.46999998093E+01 0.  1.
</event>
<event>
 5   0  0.1994525E-05  0.1599570E+04  0.7818609E-02  0.8820812E-01
       -2   -1    0    0    0  501  0.00000000000E+00  0.00000000000E+00  0.49293097614E+03  0.49293097615E+03  0.25500000920E-02 0. -1.
        2   -1    0    0  501    0  0.00000000000E+00  0.00000000000E+00 -0.12976589029E+04  0.12976589029E+04  0.25500000920E-02 0.  1.
    10030    2    1    2    0    0  0.00000000000E+00  0.00000000000E+00 -0.80472792677E+03  0.17905898791E+04  0.15995702794E+04 0.  0.
        5    1    3    3  502    0  0.46532050808E+02 -0.64804865309E+03  0.11970072349E+03  0.66066832960E+03  0.46999998093E+01 0. -1.
       -5    1    3    3    0  502 -0.46532050808E+02  0.64804865309E+03 -0.92442865026E+03  0.11299215495E+04  0.46999998093E+01 0.  1.
</event>
<event>
 5   0  0.1994525E-05  0.1600046E+04  0.7818609E-02  0.8820520E-01
       -2   -1    0    0    0  501  0.00000000000E+00  0.00000000000E+00  0.98198862475E+03  0.98198862475E+03  0.25500000920E-02 0. -1.
        2   -1    0    0  501    0  0.00000000000E+00  0.00000000000E+00 -0.65177586808E+03  0.65177586808E+03  0.25500000920E-02 0.  1.
    10030    2    1    2    0    0  0.00000000000E+00  0.00000000000E+00  0.33021275667E+03  0.16337644928E+04  0.16000456098E+04 0.  0.
        5    1    3    3  502    0 -0.13428093468E+03  0.48540484258E+03 -0.46957546402E+03  0.68860179859E+03  0.46999998093E+01 0.  1.
       -5    1    3    3    0  502  0.13428093468E+03 -0.48540484258E+03  0.79978822069E+03  0.94516269423E+03  0.46999998093E+01 0. -1.
</event>
<event>
 5   0  0.1994525E-05  0.1598674E+04  0.7818609E-02  0.8821363E-01
        2   -1    0    0  501    0  0.00000000000E+00  0.00000000000E+00  0.45608545391E+03  0.45608545392E+03  0.25500000920E-02 0.  1.
       -2   -1    0    0    0  501  0.00000000000E+00  0.00000000000E+00 -0.14009205376E+04  0.14009205376E+04  0.25500000920E-02 0. -1.
    10030    2    1    2    0    0  0.00000000000E+00  0.00000000000E+00 -0.94483508364E+03  0.18570059915E+04  0.15986737995E+04 0.  0.
        5    1    3    3  502    0 -0.48324761640E+03 -0.34825820414E+03 -0.10915636629E+04  0.12435213531E+04  0.46999998093E+01 0. -1.
       -5    1    3    3    0  502  0.48324761640E+03  0.34825820414E+03  0.14672857928E+03  0.61348463834E+03  0.46999998093E+01 0.  1.
</event>
<event>
 5   0  0.1090674E-05  0.1601650E+04  0.7818609E-02  0.8819535E-01
       -1   -1    0    0    0  501  0.00000000000E+00  0.00000000000E+00  0.59451290192E+03  0.59451290194E+03  0.50400001928E-02 0. -1.
        1   -1    0    0  501    0  0.00000000000E+00  0.00000000000E+00 -0.10787328338E+04  0.10787328338E+04  0.50400001928E-02 0.  1.
    10030    2    1    2    0    0  0.00000000000E+00  0.00000000000E+00 -0.48421993192E+03  0.16732457358E+04  0.16016498837E+04 0.  0.
        4    1    3    3  502    0  0.36466098293E+03  0.66505175308E+03 -0.51059517044E+03  0.91431969667E+03  0.12699999809E+01 0.  1.
       -4    1    3    3    0  502 -0.36466098293E+03 -0.66505175308E+03  0.26375238516E+02  0.75892603912E+03  0.12699999809E+01 0. -1.
</event>
<event>
 5   0  0.2147844E-05  0.1600068E+04  0.7818609E-02  0.8820506E-01
       -2   -1    0    0    0  501  0.00000000000E+00  0.00000000000E+00  0.32605260154E+03  0.32605260155E+03  0.25500000920E-02 0.  1.
        2   -1    0    0  501    0  0.00000000000E+00  0.00000000000E+00 -0.19630393228E+04  0.19630393228E+04  0.25500000920E-02 0. -1.
    10030    2    1    2    0    0  0.00000000000E+00  0.00000000000E+00 -0.16369867213E+04  0.22890919244E+04  0.16000675963E+04 0.  0.
        2    1    3    3  502    0  0.41888437136E+03  0.51752344425E+03 -0.14530825931E+04  0.15983565479E+04  0.25500000920E-02 0. -1.
       -2    1    3    3    0  502 -0.41888437136E+03 -0.51752344425E+03 -0.18390412817E+03  0.69073537645E+03  0.25500000920E-02 0.  1.
</event>
<event>
 5   0  0.2125803E-05  0.1600298E+04  0.7818609E-02  0.8820365E-01
       -2   -1    0    0    0  501  0.00000000000E+00  0.00000000000E+00  0.56215899186E+03  0.56215899186E+03  0.25500000920E-02 0.  1.
        2   -1    0    0  501    0  0.00000000000E+00  0.00000000000E+00 -0.11388926988E+04  0.11388926989E+04  0.25500000920E-02 0. -1.
    10030    2    1    2    0    0  0.00000000000E+00  0.00000000000E+00 -0.57673370699E+03  0.17010516907E+04  0.16002984364E+04 0.  0.
        3    1    3    3  502    0 -0.33354913315E+03  0.20834017775E+03  0.45233951559E+03  0.59939277729E+03  0.10100000352E+00 0.  1.
       -3    1    3    3    0  502  0.33354913315E+03 -0.20834017775E+03 -0.10290732226E+04  0.11016589134E+04  0.10100000352E+00 0. -1.
</event>
<event>
 5   0  0.1060251E-05  0.1598118E+04  0.7818609E-02  0.8821705E-01
       -1   -1    0    0    0  501  0.00000000000E+00  0.00000000000E+00  0.42092380516E+03  0.42092380519E+03  0.50400001928E-02 0. -1.
        1   -1    0    0  501    0  0.00000000000E+00  0.00000000000E+00 -0.15168901702E+04  0.15168901702E+04  0.50400001928E-02 0.  1.
    10030    2    1    2    0    0  0.00000000000E+00  0.00000000000E+00 -0.10959663651E+04  0.19378139754E+04  0.15981178711E+04 0.  0.
        1    1    3    3  502    0  0.63777663581E+03  0.26885134937E+00 -0.11316971657E+04  0.12990371759E+04  0.50400001928E-02 0.  1.
       -1    1    3    3    0  502 -0.63777663581E+03 -0.26885134937E+00  0.35730800638E+02  0.63877679952E+03  0.50400001928E-02 0. -1.
</event>
<event>
 5   0  0.2125803E-05  0.1599424E+04  0.7818609E-02  0.8820902E-01
        2   -1    0    0  501    0  0.00000000000E+00  0.00000000000E+00  0.14614235037E+04  0.14614235037E+04  0.25500000920E-02 0. -1.
       -2   -1    0    0    0  501  0.00000000000E+00  0.00000000000E+00 -0.43761409762E+03  0.43761409763E+03  0.25500000920E-02 0.  1.
    10030    2    1    2    0    0  0.00000000000E+00  0.00000000000E+00  0.10238094060E+04  0.18990376013E+04  0.15994243062E+04 0.  0.
        3    1    3    3  502    0 -0.33171087892E+03  0.23394155321E+03 -0.30621247805E+03  0.50845535638E+03  0.10100000352E+00 0.  1.
       -3    1    3    3    0  502  0.33171087892E+03 -0.23394155321E+03  0.13300218841E+04  0.13905822449E+04  0.10100000352E+00 0. -1.
</event>
<event>
 5   0  0.1090674E-05  0.1598236E+04  0.7818609E-02  0.8821632E-01
        1   -1    0    0  501    0  0.00000000000E+00  0.00000000000E+00  0.97579381881E+03  0.97579381882E+03  0.50400001928E-02 0. -1.
       -1   -1    0    0    0  501  0.00000000000E+00  0.00000000000E+00 -0.65443102126E+03  0.65443102128E+03  0.50400001928E-02 0.  1.
    10030    2    1    2    0    0  0.00000000000E+00  0.00000000000E+00  0.32136279755E+03  0.16302248401E+04  0.15982362096E+04 0.  0.
        4    1    3    3  502    0  0.82021488958E+02 -0.36135308051E+03 -0.56150400100E+03  0.67274952953E+03  0.12699999809E+01 0.  1.
       -4    1    3    3    0  502 -0.82021488958E+02  0.36135308051E+03  0.88286679856E+03  0.95747531056E+03  0.12699999809E+01 0. -1.
</event>
<event>
 5   0  0.1994525E-05  0.1600467E+04  0.7818609E-02  0.8820261E-01
       -2   -1    0    0    0  501  0.00000000000E+00  0.00000000000E+00  0.33197871504E+03  0.33197871505E+03  0.25500000920E-02 0.  1.
        2   -1    0    0  501    0  0.00000000000E+00  0.00000000000E+00 -0.19289592829E+04  0.19289592829E+04  0.25500000920E-02 0. -1.
    10030    2    1    2    0    0  0.00000000000E+00  0.00000000000E+00 -0.15969805679E+04  0.22609379980E+04  0.16004667121E+04 0.  0.
        5    1    3    3  502    0  0.27158987743E+03  0.31655960965E+02  0.26391975708E+03  0.38005116703E+03  0.46999998093E+01 0.  1.
       -5    1    3    3    0  502 -0.27158987743E+03 -0.31655960965E+02 -0.18609003249E+04  0.18808868309E+04  0.46999998093E+01 0. -1.
</event>
<event>
 5   0  0.1081831E-05  0.1600155E+04  0.7818609E-02  0.8820453E-01
        1   -1    0    0  501    0  0.00000000000E+00  0.00000000000E+00  0.86403915422E+03  0.86403915424E+03  0.50400001928E-02 0. -1.
       -1   -1    0    0    0  501  0.00000000000E+00  0.00000000000E+00 -0.74085075339E+03  0.74085075340E+03  0.50400001928E-02 0.  1.
    10030    2    1    2    0    0  0.00000000000E+00  0.00000000000E+00  0.12318840083E+03  0.16048899076E+04  0.16001550655E+04 0.  0.
        3    1    3    3  502    0 -0.60381158361E+03 -0.37529354467E+03 -0.30649362761E+03  0.77419120839E+03  0.10100000352E+00 0.  1.
       -3    1    3    3    0  502  0.60381158361E+03  0.37529354467E+03  0.42968202844E+03  0.83069869925E+03  0.10100000352E+00 0. -1.
</event>
<event>
 5   0  0.2147844E-05  0.1600403E+04  0.7818609E-02  0.8820301E-01
        2   -1    0    0  501    0  0.00000000000E+00  0.00000000000E+00  0.17277749655E+04  0.17277749655E+04  0.25500000920E-02 0. -1.
       -2   -1    0    0    0  501  0.00000000000E+00  0.00000000000E+00 -0.37060503063E+03  0.37060503064E+03  0.25500000920E-02 0.  1.
    10030    2    1    2    0    0  0.00000000000E+00  0.00000000000E+00  0.13571699349E+04  0.20983799961E+04  0.16004025669E+04 0.  0.
        2    1    3    3  502    0  0.37422602136E+03 -0.38802981419E+03  0.14539546679E+04  0.15506761197E+04  0.25500000920E-02 0. -1.
       -2    1    3    3    0  502 -0.37422602136E+03  0.38802981419E+03 -0.96784733036E+02  0.54770387649E+03  0.25500000920E-02 0.  1.
</event>
<event>
 5   0  0.1057506E-05  0.1599265E+04  0.7818609E-02  0.8821000E-01
        1   -1    0    0  501    0  0.00000000000E+00  0.00000000000E+00  0.56536327217E+03  0.56536327219E+03  0.50400001928E-02 0. -1.
       -1   -1    0    0    0  501  0.00000000000E+00  0.00000000000E+00 -0.11309757529E+04  0.11309757529E+04  0.50400001928E-02 0.  1.
    10030    2    1    2    0    0  0.00000000000E+00  0.00000000000E+00 -0.56561248069E+03  0.16963390251E+04  0.15992650217E+04 0.  0.
        5    1    3    3  502    0 -0.33151820493E+03  0.25499092294E+02 -0.10541581002E+04  0.11053623451E+04  0.46999998093E+01 0.  1.
       -5    1    3    3    0  502  0.33151820493E+03 -0.25499092294E+02  0.48854561948E+03  0.59097667992E+03  0.46999998093E+01 0. -1.
</event>
<event>
 5   0  0.1126485E-05  0.1599409E+04  0.7818609E-02  0.8820911E-01
        1   -1    0    0  501    0  0.00000000000E+00  0.00000000000E+00  0.64411074119E+03  0.64411074121E+03  0.50400001928E-02 0. -1.
       -1   -1    0    0    0  501  0.00000000000E+00  0.00000000000E+00 -0.99288367328E+03  0.99288367329E+03  0.50400001928E-02 0.  1.
    10030    2    1    2    0    0  0.00000000000E+00  0.00000000000E+00 -0.34877293209E+03  0.16369944145E+04  0.15994086892E+04 0.  0.
        2    1    3    3  502    0 -0.16716467690E+03 -0.69794904503E+03  0.18667857506E+03  0.74156981401E+03  0.25500000920E-02 0. -1.
       -2    1    3    3    0  502  0.16716467690E+03  0.69794904503E+03 -0.53545150714E+03  0.89542460049E+03  0.25500000920E-02 0.  1.
</event>
<event>
 5   0  0.1057506E-05  0.1599959E+04  0.7818609E-02  0.8820573E-01
       -1   -1    0    0    0  501  0.00000000000E+00  0.00000000000E+00  0.64429771418E+03  0.64429771420E+03  0.50400001928E-02 0.  1.
        1   -1    0    0  501    0  0.00000000000E+00  0.00000000000E+00 -0.99327843902E+03  0.99327843903E+03  0.50400001928E-02 0. -1.
    10030    2    1    2    0    0  0.00000000000E+00  0.00000000000E+00 -0.34898072484E+03  0.16375761532E+04  0.15999587843E+04 0.  0.
        5    1    3    3  502    0  0.61647948643E+02  0.51491458229E+03  0.44893435968E+03  0.68593122536E+03  0.46999998093E+01 0.  1.
       -5    1    3    3    0  502 -0.61647948643E+02 -0.51491458229E+03 -0.79791508452E+03  0.95164492786E+03  0.46999998093E+01 0. -1.
</event>
<event>
 5   0  0.1994525E-05  0.1600626E+04  0.7818609E-02  0.8820163E-01
       -2   -1    0    0    0  501  0.00000000000E+00  0.00000000000E+00  0.30870072272E+03  0.30870072273E+03  0.25500000920E-02 0.  1.
        2   -1    0    0  501    0  0.00000000000E+00  0.00000000000E+00 -0.20748285781E+04  0.20748285781E+04  0.25500000920E-02 0. -1.
    10030    2    1    2    0    0  0.00000000000E+00  0.00000000000E+00 -0.17661278554E+04  0.23835293008E+04  0.16006262294E+04 0.  0.
        5    1    3    3  502    0  0.39559219880E+03  0.55299386764E+03 -0.25447834838E+03  0.72600049945E+03  0.46999998093E+01 0. -1.
       -5    1    3    3    0  502 -0.39559219880E+03 -0.55299386764E+03 -0.15116495070E+04  0.16575288014E+04  0.46999998093E+01 0.  1.
</event>
<event>
 5   0  0.1057506E-05  0.1603190E+04  0.7818609E-02  0.8818591E-01
        1   -1    0    0  501    0  0.00000000000E+00  0.00000000000E+00  0.15923255292E+04  0.15923255292E+04  0.50400001928E-02 0. -1.
       -1   -1    0    0    0  501  0.00000000000E+00  0.00000000000E+00 -0.40353223316E+03  0.40353223320E+03  0.50400001928E-02 0.  1.
    10030    2    1    2    0    0  0.00000000000E+00  0.00000000000E+00  0.11887932960E+04  0.19958577624E+04  0.16031901656E+04 0.  0.
        5    1    3    3  502    0  0.42726000971E+03  0.67329484509E+03  0.69595967197E+03  0.10584228925E+04  0.46999998093E+01 0. -1.
       -5    1    3    3    0  502 -0.42726000971E+03 -0.67329484509E+03  0.49283362405E+03  0.93743486991E+03  0.46999998093E+01 0.  1.
</event>
<event>
 5   0  0.2046108E-05  0.1599535E+04  0.7818609E-02  0.8820834E-01
        2   -1    0    0  501    0  0.00000000000E+00  0.00000000000E+00  0.15258115709E+04  0.15258115709E+04  0.25500000920E-02 0. -1.
       -2   -1    0    0    0  501  0.00000000000E+00  0.00000000000E+00 -0.41920525396E+03  0.41920525396E+03  0.25500000920E-02 0.  1.
    10030    2    1    2    0    0  0.00000000000E+00  0.00000000000E+00  0.11066063170E+04  0.19450168249E+04  0.15995352164E+04 0.  0.
        1    1    3    3  502    0  0.37276833295E+03  0.17619269294E+03 -0.28000687007E+03  0.49840138684E+03  0.50400001928E-02 0.  1.
       -1    1    3    3    0  502 -0.37276833295E+03 -0.17619269294E+03  0.13866131871E+04  0.14466154381E+04  0.50400001928E-02 0. -1.
</event>
<event>
 5   0  0.1994525E-05  0.1600250E+04  0.7818609E-02  0.8820395E-01
       -2   -1    0    0    0  501  0.00000000000E+00  0.00000000000E+00  0.26858361405E+03  0.26858361406E+03  0.25500000920E-02 0.  1.
        2   -1    0    0  501    0  0.00000000000E+00  0.00000000000E+00 -0.23836139966E+04  0.23836139966E+04  0.25500000920E-02 0. -1.
    10030    2    1    2    0    0  0.00000000000E+00  0.00000000000E+00 -0.21150303826E+04  0.26521976107E+04  0.16002495577E+04 0.  0.
        5    1    3    3  502    0  0.24045964398E+03  0.12221082097E+03 -0.23059646357E+04  0.23216914774E+04  0.46999998093E+01 0. -1.
       -5    1    3    3    0  502 -0.24045964398E+03 -0.12221082097E+03  0.19093425310E+03  0.33050613330E+03  0.46999998093E+01 0.  1.
</event>
<event>
 5   0  0.1994525E-05  0.1599498E+04  0.7818609E-02  0.8820856E-01
        2   -1    0    0  501    0  0.00000000000E+00  0.00000000000E+00  0.13830776659E+04  0.13830776659E+04  0.25500000920E-02 0.  1.
       -2   -1    0    0    0  501  0.00000000000E+00  0.00000000000E+00 -0.46244597393E+03  0.46244597394E+03  0.25500000920E-02 0. -1.
    10030    2    1    2    0    0  0.00000000000E+00  0.00000000000E+00  0.92063169198E+03  0.18455236398E+04  0.15994982941E+04 0.  0.
        5    1    3    3  502    0 -0.44861360358E+03 -0.23626547099E+03 -0.25327974589E+03  0.56678766551E+03  0.46999998093E+01 0. -1.
       -5    1    3    3    0  502  0.44861360358E+03  0.23626547099E+03  0.11739114379E+04  0.12787359743E+04  0.46999998093E+01 0.  1.
</event>
<event>
 5   0  0.1057506E-05  0.1598733E+04  0.7818609E-02  0.8821327E-01
       -1   -1    0    0    0  501  0.00000000000E+00  0.00000000000E+00  0.38353465792E+03  0.38353465796E+03  0.50400001928E-02 0. -1.
        1   -1    0    0  501    0  0.00000000000E+00  0.00000000000E+00 -0.16660463398E+04  0.16660463398E+04  0.50400001928E-02 0.  1.
    10030    2    1    2    0    0  0.00000000000E+00  0.00000000000E+00 -0.12825116819E+04  0.20495809977E+04  0.15987326394E+04 0.  0.
        5    1    3    3  502    0 -0.41922480586E+03 -0.45402158531E+03  0.87583989140E+01  0.61804841018E+03  0.46999998093E+01 0. -1.
       -5    1    3    3    0  502  0.41922480586E+03  0.45402158531E+03 -0.12912700808E+04  0.14315325876E+04  0.46999998093E+01 0.  1.
</event>
<event>
 5   0  0.1057506E-05  0.1599689E+04  0.7818609E-02  0.8820739E-01
       -1   -1    0    0    0  501  0.00000000000E+00  0.00000000000E+00  0.41868183478E+03  0.41868183481E+03  0.50400001928E-02 0.  1.
        1   -1    0    0  501    0  0.00000000000E+00  0.00000000000E+00 -0.15280125107E+04  0.15280125107E+04  0.50400001928E-02 0. -1.
    10030    2    1    2    0    0  0.00000000000E+00  0.00000000000E+00 -0.11093306759E+04  0.19466943455E+04  0.15996888217E+04 0.  0.
        5    1    3    3  502    0 -0.70120565248E+03  0.36794163616E+03 -0.69158149460E+03  0.10513693301E+04  0.46999998093E+01 0. -1.
       -5    1    3    3    0  502  0.70120565248E+03 -0.36794163616E+03 -0.41774918133E+03  0.89532501539E+03  0.46999998093E+01 0.  1.
</event>
<event>
 5   0  0.1994525E-05  0.1591818E+04  0.7818609E-02  0.8825590E-01
       -2   -1    0    0    0  501  0.00000000000E+00  0.00000000000E+00  0.39685567852E+03  0.39685567853E+03  0.25500000920E-02 0. -1.
        2   -1    0    0  501    0  0.00000000000E+00  0.00000000000E+00 -0.15962251129E+04  0.15962251129E+04  0.25500000920E-02 0.  1.
    10030    2    1    2    0    0  0.00000000000E+00  0.00000000000E+00 -0.11993694344E+04  0.19930807914E+04  0.15918178291E+04 0.  0.
        5    1    3    3  502    0  0.11589187686E+03  0.28919339519E+03 -0.15166859450E+04  0.15483610990E+04  0.46999998093E+01 0.  1.
       -5    1    3    3    0  502 -0.11589187686E+03 -0.28919339519E+03  0.31731651064E+03  0.44471969247E+03  0.46999998093E+01 0. -1.
</event>
<event>
 5   0  0.1090674E-05  0.1600100E+04  0.7818609E-02  0.8820486E-01
       -1   -1    0    0    0  501  0.00000000000E+00  0.00000000000E+00  0.37264785600E+03  0.37264785604E+03  0.50400001928E-02 0.  1.
        1   -1    0    0  501    0  0.00000000000E+00  0.00000000000E+00 -0.17176544933E+04  0.17176544933E+04  0.50400001928E-02 0. -1.
    10030    2    1    2    0    0  0.00000000000E+00  0.00000000000E+00 -0.13450066373E+04  0.20903023494E+04  0.16001003273E+04 0.  0.
        4    1    3    3  502    0 -0.15917272907E+03 -0.48612660717E+03  0.13111718715E+03  0.52806094871E+03  0.12699999809E+01 0.  1.
       -4    1    3    3    0  502  0.15917272907E+03  0.48612660717E+03 -0.14761238245E+04  0.15622414007E+04  0.12699999809E+01 0. -1.
</event>
<event>
 5   0  0.2046108E-05  0.1600225E+04  0.7818609E-02  0.8820410E-01
        2   -1    0    0  501    0  0.00000000000E+00  0.00000000000E+00  0.62554475830E+03  0.62554475830E+03  0.25500000920E-02 0.  1.
       -2   -1    0    0    0  501  0.00000000000E+00  0.00000000000E+00 -0.10233958428E+04  0.10233958429E+04  0.25500000920E-02 0. -1.
    10030    2    1    2    0    0  0.00000000000E+00  0.00000000000E+00 -0.39785108455E+03  0.16489406012E+04  0.16002248657E+04 0.  0.
        1    1    3    3  502    0  0.62467937870E+03 -0.43211791660E+03 -0.45803574049E+03  0.88698757579E+03  0.50400001928E-02 0. -1.
       -1    1    3    3    0  502 -0.62467937870E+03  0.43211791660E+03  0.60184655935E+02  0.76195302536E+03  0.50400001928E-02 0.  1.
</event>
<event>
 5   0  0.1057506E-05  0.1599458E+04  0.7818609E-02  0.8820881E-01
       -1   -1    0    0    0  501  0.00000000000E+00  0.00000000000E+00  0.35943063003E+03  0.35943063006E+03  0.50400001928E-02 0. -1.
        1   -1    0    0  501    0  0.00000000000E+00  0.00000000000E+00 -0.17793886969E+04  0.17793886969E+04  0.50400001928E-02 0.  1.
    10030    2    1    2    0    0  0.00000000000E+00  0.00000000000E+00 -0.14199580668E+04  0.21388193269E+04  0.15994584089E+04 0.  0.
        5    1    3    3  502    0  0.71418485696E+03  0.37856814869E+02 -0.11884918656E+04  0.13870934190E+04  0.46999998093E+01 0.  1.
       -5    1    3    3    0  502 -0.71418485696E+03 -0.37856814869E+02 -0.23146620118E+03  0.75172590792E+03  0.46999998093E+01 0. -1.
</event>
<event>
 5   0  0.1060251E-05  0.1600184E+04  0.7818609E-02  0.8820435E-01
       -1   -1    0    0    0  501  0.00000000000E+00  0.00000000000E+00  0.62310101162E+03  0.62310101164E+03  0.50400001928E-02 0. -1.
        1   -1    0    0  501    0  0.00000000000E+00  0.00000000000E+00 -0.10273576706E+04  0.10273576706E+04  0.50400001928E-02 0.  1.
    10030    2    1    2    0    0  0.00000000000E+00  0.00000000000E+00 -0.40425665900E+03  0.16504586823E+04  0.16001844942E+04 0.  0.
        1    1    3    3  502    0  0.34912409833E+03 -0.38392039667E+03  0.42599160994E+03  0.67138018944E+03  0.50400001928E-02 0. -1.
       -1    1    3    3    0  502 -0.34912409833E+03  0.38392039667E+03 -0.83024826894E+03  0.97907849283E+03  0.50400001928E-02 0.  1.
</event>
<event>
 5   0  0.1060251E-05  0.1601681E+04  0.7818609E-02  0.8819516E-01
        1   -1    0    0  501    0  0.00000000000E+00  0.00000000000E+00  0.12114143020E+04  0.12114143020E+04  0.50400001928E-02 0. -1.
       -1   -1    0    0    0  501  0.00000000000E+00  0.00000000000E+00 -0.52941854687E+03  0.52941854690E+03  0.50400001928E-02 0.  1.
    10030    2    1    2    0    0  0.00000000000E+00  0.00000000000E+00  0.68199575509E+03  0.17408328489E+04  0.16016806167E+04 0.  0.
        1    1    3    3  502    0 -0.20267880416E+03 -0.51605641087E+03 -0.28709426637E+03  0.62435249232E+03  0.50400001928E-02 0.  1.
       -1    1    3    3    0  502  0.20267880416E+03  0.51605641087E+03  0.96909002146E+03  0.11164803566E+04  0.50400001928E-02 0. -1.
</event>
<event>
 5   0  0.1090674E-05  0.1601884E+04  0.7818609E-02  0.8819392E-01
       -1   -1    0    0    0  501  0.00000000000E+00  0.00000000000E+00  0.23639216473E+03  0.23639216478E+03  0.50400001928E-02 0.  1.
        1   -1    0    0  501    0  0.00000000000E+00  0.00000000000E+00 -0.27137438585E+04  0.27137438585E+04  0.50400001928E-02 0. -1.
    10030    2    1    2    0    0  0.00000000000E+00  0.00000000000E+00 -0.24773516938E+04  0.29501360233E+04  0.16018836229E+04 0.  0.
        4    1    3    3  502    0 -0.42020777037E+03 -0.66895930334E+03 -0.99556847501E+03  0.12709206589E+04  0.12699999809E+01 0.  1.
       -4    1    3    3    0  502  0.42020777037E+03  0.66895930334E+03 -0.14817832188E+04  0.16792153644E+04  0.12699999809E+01 0. -1.
</event>
<event>
 5   0  0.1990948E-05  0.1598881E+04  0.7818609E-02  0.8821236E-01
        2   -1    0    0  501    0  0.00000000000E+00  0.00000000000E+00  0.13589307288E+04  0.13589307288E+04  0.25500000920E-02 0. -1.
       -2   -1    0    0    0  501  0.00000000000E+00  0.00000000000E+00 -0.47029974486E+03  0.47029974487E+03  0.25500000920E-02 0.  1.
    10030    2    1    2    0    0  0.00000000000E+00  0.00000000000E+00  0.88863098394E+03  0.18292304737E+04  0.15988805772E+04 0.  0.
        4    1    3    3  502    0  0.75641914593E+03 -0.24733701152E+03  0.35750450867E+03  0.87244289682E+03  0.12699999809E+01 0.  1.
       -4    1    3    3    0  502 -0.75641914593E+03  0.24733701152E+03  0.53112647528E+03  0.95678757686E+03  0.12699999809E+01 0. -1.
</event>
<event>
 5   0  0.2125803E-05  0.1600742E+04  0.7818609E-02  0.8820092E-01
       -2   -1    0    0    0  501  0.00000000000E+00  0.00000000000E+00  0.70662714681E+03  0.70662714681E+03  0.25500000920E-02 0.  1.
        2   -1    0    0  501    0  0.00000000000E+00  0.00000000000E+00 -0.90655121708E+03  0.90655121709E+03  0.25500000920E-02 0. -1.
    10030    2    1    2    0    0  0.00000000000E+00  0.00000000000E+00 -0.19992407027E+03  0.16131783639E+04  0.16007419529E+04 0.  0.
        3    1    3    3  502    0 -0.16673190207E+03  0.61509177166E+03 -0.58793076429E+03  0.86706401640E+03  0.10100000352E+00 0. -1.
       -3    1    3    3    0  502  0.16673190207E+03 -0.61509177166E+03  0.38800669402E+03  0.74611434750E+03  0.10100000352E+00 0.  1.
</event>
<event>
 5   0  0.1090674E-05  0.1599999E+04  0.7818609E-02  0.8820549E-01
       -1   -1    0    0    0  501  0.00000000000E+00  0.00000000000E+00  0.23453148784E+04  0.23453148784E+04  0.50400001928E-02 0.  1.
        1   -1    0    0  501    0  0.00000000000E+00  0.00000000000E+00 -0.27288417321E+03  0.27288417325E+03  0.50400001928E-02 0. -1.
    10030    2    1    2    0    0  0.00000000000E+00  0.00000000000E+00  0.20724307052E+04  0.26181990516E+04  0.15999991395E+04 0.  0.
        4    1    3    3  502    0 -0.58645640827E+03 -0.44550712447E+03  0.52502160786E+03  0.90446504541E+03  0.12699999809E+01 0. -1.
       -4    1    3    3    0  502  0.58645640827E+03  0.44550712447E+03  0.15474090973E+04  0.17137340062E+04  0.12699999809E+01 0.  1.
</event>
<event>
 5   0  0.1994525E-05  0.1602111E+04  0.7818609E-02  0.8819252E-01
       -2   -1    0    0    0  501  0.00000000000E+00  0.00000000000E+00  0.70103749301E+03  0.70103749302E+03  0.25500000920E-02 0.  1.
        2   -1    0    0  501    0  0.00000000000E+00  0.00000000000E+00 -0.91534361999E+03  0.91534361999E+03  0.25500000920E-02 0. -1.
    10030    2    1    2    0    0  0.00000000000E+00  0.00000000000E+00 -0.21430612698E+03  0.16163811130E+04  0.16021113527E+04 0.  0.
        5    1    3    3  502    0 -0.27932477476E+01 -0.32491963693E+03 -0.84585446582E+03  0.90613047628E+03  0.46999998093E+01 0. -1.
       -5    1    3    3    0  502  0.27932477476E+01  0.32491963693E+03  0.63154833884E+03  0.71025063674E+03  0.46999998093E+01 0.  1.
</event>
<event>
 5   0  0.2125803E-05  0.1600278E+04  0.7818609E-02  0.8820377E-01
        2   -1    0    0  501    0  0.00000000000E+00  0.00000000000E+00  0.22950473286E+04  0.22950473286E+04  0.25500000920E-02 0. -1.
       -2   -1    0    0    0  501  0.00000000000E+00  0.00000000000E+00 -0.27895812392E+03  0.27895812394E+03  0.25500000920E-02 0.  1.
    10030    2    1    2    0    0  0.00000000000E+00  0.00000000000E+00  0.20160892047E+04  0.25740054526E+04  0.16002775973E+04 0.  0.
        3    1    3    3  502    0 -0.30380192581E+03 -0.49980214392E+03  0.12980539632E+03  0.59912206128E+03  0.10100000352E+00 0.  1.
       -3    1    3    3    0  502  0.30380192581E+03  0.49980214392E+03  0.18862838084E+04  0.19748833913E+04  0.10100000352E+00 0. -1.
</event>
<event>
 5   0  0.1990948E-05  0.1599860E+04  0.7818609E-02  0.8820634E-01
       -2   -1    0    0    0  501  0.00000000000E+00  0.00000000000E+00  0.11071744607E+04  0.11071744607E+04  0.25500000920E-02 0. -1.
        2   -1    0    0  501    0  0.00000000000E+00  0.00000000000E+00 -0.57794669695E+03  0.57794669695E+03  0.25500000920E-02 0.  1.
    10030    2    1    2    0    0  0.00000000000E+00  0.00000000000E+00  0.52922776375E+03  0.16851211577E+04  0.15998597720E+04 0.  0.
        4    1    3    3  502    0 -0.78729769381E+03 -0.11017296066E+03  0.35829462949E+03  0.87198187731E+03  0.12699999809E+01 0. -1.
       -4    1    3    3    0  502  0.78729769381E+03  0.11017296066E+03  0.17093313427E+03  0.81313928034E+03  0.12699999809E+01 0.  1.
</event>
<event>
 5   0  0.2147844E-05  0.1600413E+04  0.7818609E-02  0.8820294E-01
        2   -1    0    0  501    0  0.00000000000E+00  0.00000000000E+00  0.11771243659E+04  0.11771243659E+04  0.25500000920E-02 0.  1.
       -2   -1    0    0    0  501  0.00000000000E+00  0.00000000000E+00 -0.54397881081E+03  0.54397881081E+03  0.25500000920E-02 0. -1.
    10030    2    1    2    0    0  0.00000000000E+00  0.00000000000E+00  0.63314555506E+03  0.17211031767E+04  0.16004133375E+04 0.  0.
        2    1    3    3  502    0 -0.20550624382E+03  0.61246998451E+03  0.82438851496E+03  0.10473627460E+04  0.25500000920E-02 0.  1.
       -2    1    3    3    0  502  0.20550624382E+03 -0.61246998451E+03 -0.19124295990E+03  0.67374043065E+03  0.25500000920E-02 0. -1.
</event>
<event>
 5   0  0.2147844E-05  0.1600344E+04  0.7818609E-02  0.8820337E-01
        2   -1    0    0  501    0  0.00000000000E+00  0.00000000000E+00  0.13430646329E+04  0.13430646330E+04  0.25500000920E-02 0.  1.
       -2   -1    0    0    0  501  0.00000000000E+00  0.00000000000E+00 -0.47672713758E+03  0.47672713759E+03  0.25500000920E-02 0. -1.
    10030    2    1    2    0    0  0.00000000000E+00  0.00000000000E+00  0.86633749537E+03  0.18197917705E+04  0.16003441606E+04 0.  0.
        2    1    3    3  502    0 -0.82120616150E+02  0.79592719015E+03  0.42678964284E+03  0.90685902259E+03  0.25500000920E-02 0.  1.
       -2    1    3    3    0  502  0.82120616150E+02 -0.79592719015E+03  0.43954785253E+03  0.91293274795E+03  0.25500000920E-02 0. -1.
</event>
<event>
 5   0  0.2147844E-05  0.1599856E+04  0.7818609E-02  0.8820636E-01
        2   -1    0    0  501    0  0.00000000000E+00  0.00000000000E+00  0.20847998303E+04  0.20847998303E+04  0.25500000920E-02 0. -1.
       -2   -1    0    0    0  501  0.00000000000E+00  0.00000000000E+00 -0.30692878350E+03  0.30692878351E+03  0.25500000920E-02 0.  1.
    10030    2    1    2    0    0  0.00000000000E+00  0.00000000000E+00  0.17778710468E+04  0.23917286138E+04  0.15998563382E+04 0.  0.
        2    1    3    3  502    0 -0.51051196885E+03 -0.58672109493E+03  0.60916951272E+03  0.98790263124E+03  0.25500000920E-02 0.  1.
       -2    1    3    3    0  502  0.51051196885E+03  0.58672109493E+03  0.11687015340E+04  0.14038259825E+04  0.25500000920E-02 0. -1.
</event>
<event>
 5   0  0.2125803E-05  0.1600725E+04  0.7818609E-02  0.8820103E-01
       -2   -1    0    0    0  501  0.00000000000E+00  0.00000000000E+00  0.86510950241E+03  0.86510950242E+03  0.25500000920E-02 0. -1.
        2   -1    0    0  501    0  0.00000000000E+00  0.00000000000E+00 -0.74046146383E+03  0.74046146383E+03  0.25500000920E-02 0.  1.
    10030    2    1    2    0    0  0.00000000000E+00  0.00000000000E+00  0.12464803858E+03  0.16055709663E+04  0.16007251463E+04 0.  0.
        3    1    3    3  502    0  0.32865697863E+03  0.56717404525E+03  0.52292920126E+03  0.83854443349E+03  0.10100000352E+00 0. -1.
       -3    1    3    3    0  502 -0.32865697863E+03 -0.56717404525E+03 -0.39828116268E+03  0.76702653276E+03  0.10100000352E+00 0.  1.
</event>
<event>
 5   0  0.1990948E-05  0.1600280E+04  0.7818609E-02  0.8820376E-01
        2   -1    0    0  501    0  0.00000000000E+00  0.00000000000E+00  0.99711277718E+03  0.99711277719E+03  0.25500000920E-02 0.  1.
       -2   -1    0    0    0  501  0.00000000000E+00  0.00000000000E+00 -0.64207772100E+03  0.64207772101E+03  0.25500000920E-02 0. -1.
    10030    2    1    2    0    0  0.00000000000E+00  0.00000000000E+00  0.35503505618E+03  0.16391904982E+04  0.16002798500E+04 0.  0.
        4    1    3    3  502    0 -0.37990692172E+03  0.70272239696E+03  0.22416886271E+03  0.82969954096E+03  0.12699999809E+01 0. -1.
       -4    1    3    3    0  502  0.37990692172E+03 -0.70272239696E+03  0.13086619347E+03  0.80949095724E+03  0.12699999809E+01 0.  1.
</event>
<event>
 5   0  0.2046108E-05  0.1601379E+04  0.7818609E-02  0.8819701E-01
        2   -1    0    0  501    0  0.00000000000E+00  0.00000000000E+00  0.45926841514E+03  0.45926841514E+03  0.25500000920E-02 0. -1.
       -2   -1    0    0    0  501  0.00000000000E+00  0.00000000000E+00 -0.13959245554E+04  0.13959245554E+04  0.25500000920E-02 0.  1.
    10030    2    1    2    0    0  0.00000000000E+00  0.00000000000E+00 -0.93665614029E+03  0.18551929706E+04  0.16013794781E+04 0.  0.
        1    1    3    3  502    0  0.43722627762E+02 -0.20149562810E+03 -0.13646422147E+04  0.13801306208E+04  0.50400001928E-02 0.  1.
       -1    1    3    3    0  502 -0.43722627762E+02  0.20149562810E+03  0.42798607437E+03  0.47506234981E+03  0.50400001928E-02 0. -1.
</event>
<event>
 5   0  0.1060251E-05  0.1600086E+04  0.7818609E-02  0.8820495E-01
        1   -1    0    0  501    0  0.00000000000E+00  0.00000000000E+00  0.50769184977E+03  0.50769184979E+03  0.50400001928E-02 0.  1.
       -1   -1    0    0    0  501  0.00000000000E+00  0.00000000000E+00 -0.12607424068E+04  0.12607424068E+04  0.50400001928E-02 0. -1.
    10030    2    1    2    0    0  0.00000000000E+00  0.00000000000E+00 -0.75305055703E+03  0.17684342566E+04  0.16000858035E+04 0.  0.
        1    1    3    3  502    0  0.97938278497E+02  0.74355077379E+03 -0.68630978592E+02  0.75310681238E+03  0.50400001928E-02 0.  1.
       -1    1    3    3    0  502 -0.97938278497E+02 -0.74355077379E+03 -0.68441957844E+03  0.10153274442E+04  0.50400001928E-02 0. -1.
</event>
<event>
 5   0  0.1081831E-05  0.1599763E+04  0.7818609E-02  0.8820694E-01
        1   -1    0    0  501    0  0.00000000000E+00  0.00000000000E+00  0.69815948528E+03  0.69815948529E+03  0.50400001928E-02 0. -1.
       -1   -1    0    0    0  501  0.00000000000E+00  0.00000000000E+00 -0.91642421013E+03  0.91642421014E+03  0.50400001928E-02 0.  1.
    10030    2    1    2    0    0  0.00000000000E+00  0.00000000000E+00 -0.21826472485E+03  0.16145836954E+04  0.15997628010E+04 0.  0.
        3    1    3    3  502    0 -0.55903994913E+03  0.75093086089E+02 -0.68152466072E+03  0.88466971785E+03  0.10100000352E+00 0.  1.
       -3    1    3    3    0  502  0.55903994913E+03 -0.75093086089E+02  0.46325993587E+03  0.72991397759E+03  0.10100000352E+00 0. -1.
</event>
<event>
 5   0  0.1060251E-05  0.1599502E+04  0.7818609E-02  0.8820854E-01
        1   -1    0    0  501    0  0.00000000000E+00  0.00000000000E+00  0.81272727668E+03  0.81272727669E+03  0.50400001928E-02 0.  1.
       -1   -1    0    0    0  501  0.00000000000E+00  0.00000000000E+00 -0.78698230519E+03  0.78698230521E+03  0.50400001928E-02 0. -1.
    10030    2    1    2    0    0  0.00000000000E+00  0.00000000000E+00  0.25744971486E+02  0.15997095819E+04  0.15995024048E+04 0.  0.
        1    1    3    3  502    0 -0.66705642943E+03 -0.11166013880E+03 -0.41399624528E+03  0.79298496693E+03  0.50400001928E-02 0. -1.
       -1    1    3    3    0  502  0.66705642943E+03  0.11166013880E+03  0.43974121677E+03  0.80672461497E+03  0.50400001928E-02 0.  1.
</event>
<event>
 5   0  0.1990948E-05  0.1600034E+04  0.7818609E-02  0.8820527E-01
       -2   -1    0    0    0  501  0.00000000000E+00  0.00000000000E+00  0.49711765690E+03  0.49711765691E+03  0.25500000920E-02 0. -1.
        2   -1    0    0  501    0  0.00000000000E+00  0.00000000000E+00 -0.12874763119E+04  0.12874763119E+04  0.25500000920E-02 0.  1.
    10030    2    1    2    0    0  0.00000000000E+00  0.00000000000E+00 -0.79035865503E+03  0.17845939688E+04  0.16000340090E+04 0.  0.
        4    1    3    3  502    0 -0.25294329456E+03 -0.24506341162E+03 -0.11963600972E+04  0.12471228813E+04  0.12699999809E+01 0.  1.
       -4    1    3    3    0  502  0.25294329456E+03  0.24506341162E+03  0.40600144219E+03  0.53747108753E+03  0.12699999809E+01 0. -1.
</event>
<event>
 5   0  0.2147844E-05  0.1600015E+04  0.7818609E-02  0.8820539E-01
       -2   -1    0    0    0  501  0.00000000000E+00  0.00000000000E+00  0.68259869702E+03  0.68259869703E+03  0.25500000920E-02 0. -1.
        2   -1    0    0  501    0  0.00000000000E+00  0.00000000000E+00 -0.93761125765E+03  0.93761125765E+03  0.25500000920E-02 0.  1.
    10030    2    1    2    0    0  0.00000000000E+00  0.00000000000E+00 -0.25501256062E+03  0.16202099547E+04  0.16000152784E+04 0.  0.
        2    1    3    3  502    0  0.11420997194E+02  0.21117029144E+03  0.65378154299E+03  0.68713436614E+03  0.25500000920E-02 0. -1.
       -2    1    3    3    0  502 -0.11420997194E+02 -0.21117029144E+03 -0.90879410361E+03  0.93307558854E+03  0.25500000920E-02 0.  1.
</event>
<event>
 5   0  0.2147844E-05  0.1598963E+04  0.7818609E-02  0.8821185E-01
        2   -1    0    0  501    0  0.00000000000E+00  0.00000000000E+00  0.10912595145E+04  0.10912595145E+04  0.25500000920E-02 0. -1.
       -2   -1    0    0    0  501  0.00000000000E+00  0.00000000000E+00 -0.58571850057E+03  0.58571850057E+03  0.25500000920E-02 0.  1.
    10030    2    1    2    0    0  0.00000000000E+00  0.00000000000E+00  0.50554101395E+03  0.16769780151E+04  0.15989632724E+04 0.  0.
        2    1    3    3  502    0  0.62311226640E+03  0.40930997284E+03 -0.50051088460E+02  0.74720054996E+03  0.25500000920E-02 0.  1.
       -2    1    3    3    0  502 -0.62311226640E+03 -0.40930997284E+03  0.55559210241E+03  0.92977746513E+03  0.25500000920E-02 0. -1.
</event>
<event>
 5   0  0.2046108E-05  0.1603042E+04  0.7818609E-02  0.8818681E-01
        2   -1    0    0  501    0  0.00000000000E+00  0.00000000000E+00  0.19485214073E+04  0.19485214073E+04  0.25500000920E-02 0. -1.
       -2   -1    0    0    0  501  0.00000000000E+00  0.00000000000E+00 -0.32970435286E+03  0.32970435286E+03  0.25500000920E-02 0.  1.
    10030    2    1    2    0    0  0.00000000000E+00  0.00000000000E+00  0.16188170545E+04  0.22782257602E+04  0.16030420951E+04 0.  0.
        1    1    3    3  502    0  0.27140947935E+03 -0.17350889955E+03 -0.23365854717E+03  0.39795070096E+03  0.50400001928E-02 0.  1.
       -1    1    3    3    0  502 -0.27140947935E+03  0.17350889955E+03  0.18524756017E+04  0.18802750593E+04  0.50400001928E-02 0. -1.
</event>
<event>
 5   0  0.1994525E-05  0.1600050E+04  0.7818609E-02  0.8820517E-01
       -2   -1    0    0    0  501  0.00000000000E+00  0.00000000000E+00  0.30596285349E+03  0.30596285350E+03  0.25500000920E-02 0.  1.
        2   -1    0    0  501    0  0.00000000000E+00  0.00000000000E+00 -0.20918879378E+04  0.20918879378E+04  0.25500000920E-02 0. -1.
    10030    2    1    2    0    0  0.00000000000E+00  0.00000000000E+00 -0.17859250844E+04  0.23978507914E+04  0.16000500026E+04 0.  0.
        5    1    3    3  502    0 -0.49918209105E+03 -0.15861856030E+03 -0.17991883301E+04  0.18738845602E+04  0.46999998093E+01 0. -1.
       -5    1    3    3    0  502  0.49918209105E+03  0.15861856030E+03  0.13263245779E+02  0.52396623115E+03  0.46999998093E+01 0.  1.
</event>
<event>
 5   0  0.1126485E-05  0.1599871E+04  0.7818609E-02  0.8820628E-01
        1   -1    0    0  501    0  0.00000000000E+00  0.00000000000E+00  0.10428554846E+04  0.10428554846E+04  0.50400001928E-02 0.  1.
       -1   -1    0    0    0  501  0.00000000000E+00  0.00000000000E+00 -0.61360030831E+03  0.61360030833E+03  0.50400001928E-02 0. -1.
    10030    2    1    2    0    0  0.00000000000E+00  0.00000000000E+00  0.42925517630E+03  0.16564557930E+04  0.15998705534E+04 0.  0.
        2    1    3    3  502    0 -0.58859037177E+03  0.53282346333E+03  0.11341015946E+03  0.80199833733E+03  0.25500000920E-02 0. -1.
       -2    1    3    3    0  502  0.58859037177E+03 -0.53282346333E+03  0.31584501684E+03  0.85445745563E+03  0.25500000920E-02 0.  1.
</event>
<event>
 5   0  0.1081831E-05  0.1598146E+04  0.7818609E-02  0.8821688E-01
        1   -1    0    0  501    0  0.00000000000E+00  0.00000000000E+00  0.11676529347E+04  0.11676529348E+04  0.50400001928E-02 0. -1.
       -1   -1    0    0    0  501  0.00000000000E+00  0.00000000000E+00 -0.54683874161E+03  0.54683874163E+03  0.50400001928E-02 0.  1.
    10030    2    1    2    0    0  0.00000000000E+00  0.00000000000E+00  0.62081419313E+03  0.17144916764E+04  0.15981462530E+04 0.  0.
        3    1    3    3  502    0  0.65428972238E+03  0.45412251936E+03  0.24091855411E+03  0.83208416841E+03  0.10100000352E+00 0. -1.
       -3    1    3    3    0  502 -0.65428972238E+03 -0.45412251936E+03  0.37989563902E+03  0.88240750798E+03  0.10100000352E+00 0.  1.
</event>
<event>
 5   0  0.1060251E-05  0.1599579E+04  0.7818609E-02  0.8820807E-01
       -1   -1    0    0    0  501  0.00000000000E+00  0.00000000000E+00  0.39482982335E+03  0.39482982338E+03  0.50400001928E-02 0.  1.
        1   -1    0    0  501    0  0.00000000000E+00  0.00000000000E+00 -0.16200985665E+04  0.16200985665E+04  0.50400001928E-02 0. -1.
    10030    2    1    2    0    0  0.00000000000E+00  0.00000000000E+00 -0.12252687432E+04  0.20149283899E+04  0.15995789832E+04 0.  0.
        1    1    3    3  502    0 -0.60027303288E+03 -0.70411688839E+02 -0.12724587252E+04  0.14087003681E+04  0.50400001928E-02 0. -1.
       -1    1    3    3    0  502  0.60027303288E+03  0.70411688839E+02  0.47189982009E+02  0.60622802175E+03  0.50400001928E-02 0.  1.
</event>
<event>
 5   0  0.1126485E-05  0.1599483E+04  0.7818609E-02  0.8820866E-01
        1   -1    0    0  501    0  0.00000000000E+00  0.00000000000E+00  0.80333415198E+03  0.80333415200E+03  0.50400001928E-02 0. -1.
       -1   -1    0    0    0  501  0.00000000000E+00  0.00000000000E+00 -0.79616516203E+03  0.79616516205E+03  0.50400001928E-02 0.  1.
    10030    2    1    2    0    0  0.00000000000E+00  0.00000000000E+00  0.71689899522E+01  0.15994993140E+04  0.15994832482E+04 0.  0.
        2    1    3    3  502    0 -0.10629718318E+03  0.60340457601E+03  0.51758429954E+03  0.80205341508E+03  0.25500000920E-02 0. -1.
       -2    1    3    3    0  502  0.10629718318E+03 -0.60340457601E+03 -0.51041530959E+03  0.79744589896E+03  0.25500000920E-02 0.  1.
</event>
<event>
 5   0  0.2125803E-05  0.1601918E+04  0.7818609E-02  0.8819371E-01
       -2   -1    0    0    0  501  0.00000000000E+00  0.00000000000E+00  0.12477690825E+04  0.12477690825E+04  0.25500000920E-02 0.  1.
        2   -1    0    0  501    0  0.00000000000E+00  0.00000000000E+00 -0.51414588541E+03  0.51414588542E+03  0.25500000920E-02 0. -1.
    10030    2    1    2    0    0  0.00000000000E+00  0.00000000000E+00  0.73362319707E+03  0.17619149679E+04  0.16019180250E+04 0.  0.
        3    1    3    3  502    0 -0.34506971560E+03  0.46935606897E+03  0.97141174234E+03  0.11326998770E+04  0.10100000352E+00 0.  1.
       -3    1    3    3    0  502  0.34506971560E+03 -0.46935606897E+03 -0.23778854527E+03  0.62921509086E+03  0.10100000352E+00 0. -1.
</event>
<event>
 5   0  0.1126485E-05  0.1600017E+04  0.7818609E-02  0.8820538E-01
        1   -1    0    0  501    0  0.00000000000E+00  0.00000000000E+00  0.95280508165E+03  0.95280508166E+03  0.50400001928E-02 0. -1.
       -1   -1    0    0    0  501  0.00000000000E+00  0.00000000000E+00 -0.67171479193E+03  0.67171479195E+03  0.50400001928E-02 0.  1.
    10030    2    1    2    0    0  0.00000000000E+00  0.00000000000E+00  0.28109028971E+03  0.16245198736E+04  0.16000165839E+04 0.  0.
        2    1    3    3  502    0 -0.56633517517E+03 -0.32462339353E+03 -0.32902803756E+03  0.73100980005E+03  0.25500000920E-02 0.  1.
       -2    1    3    3    0  502  0.56633517517E+03  0.32462339353E+03  0.61011832728E+03  0.89351007356E+03  0.25500000920E-02 0. -1.
</event>
<event>
 5   0  0.1994525E-05  0.1600859E+04  0.7818609E-02  0.8820020E-01
       -2   -1    0    0    0  501  0.00000000000E+00  0.00000000000E+00  0.21380136973E+03  0.21380136974E+03  0.25500000920E-02 0. -1.
        2   -1    0    0  501    0  0.00000000000E+00  0.00000000000E+00 -0.29966489027E+04  0.29966489027E+04  0.25500000920E-02 0.  1.
    10030    2    1    2    0    0  0.00000000000E+00  0.00000000000E+00 -0.27828475330E+04  0.32104502724E+04  0.16008593193E+04 0.  0.
        5    1    3    3  502    0  0.46367029120E+01  0.71003654225E+02 -0.29902659136E+04  0.29911160696E+04  0.46999998093E+01 0.  1.
       -5    1    3    3    0  502 -0.46367029120E+01 -0.71003654225E+02  0.20741838060E+03  0.21933420284E+03  0.46999998093E+01 0. -1.
</event>
<event>
 5   0  0.2046108E-05  0.1601049E+04  0.7818609E-02  0.8819904E-01
        2   -1    0    0  501    0  0.00000000000E+00  0.00000000000E+00  0.63628945824E+03  0.63628945825E+03  0.25500000920E-02 0.  1.
       -2   -1    0    0    0  501  0.00000000000E+00  0.00000000000E+00 -0.10071503950E+04  0.10071503950E+04  0.25500000920E-02 0. -1.
    10030    2    1    2    0    0  0.00000000000E+00  0.00000000000E+00 -0.37086093673E+03  0.16434398532E+04  0.16010486304E+04 0.  0.
        1    1    3    3  502    0  0.64862411962E+03 -0.31600940181E+03  0.17054255943E+03  0.74139055509E+03  0.50400001928E-02 0.  1.
       -1    1    3    3    0  502 -0.64862411962E+03  0.31600940181E+03 -0.54140349617E+03  0.90204929814E+03  0.50400001928E-02 0. -1.
</event>
<event>
 5   0  0.1057506E-05  0.1600119E+04  0.7818609E-02  0.8820475E-01
        1   -1    0    0  501    0  0.00000000000E+00  0.00000000000E+00  0.60639265525E+03  0.60639265527E+03  0.50400001928E-02 0. -1.
       -1   -1    0    0    0  501  0.00000000000E+00  0.00000000000E+00 -0.10555790019E+04  0.10555790019E+04  0.50400001928E-02 0.  1.
    10030    2    1    2    0    0  0.00000000000E+00  0.00000000000E+00 -0.44918634667E+03  0.16619716572E+04  0.16001191878E+04 0.  0.
        5    1    3    3  502    0 -0.36882217701E+03  0.70077125304E+03 -0.34284993765E+03  0.86294745905E+03  0.46999998093E+01 0. -1.
       -5    1    3    3    0  502  0.36882217701E+03 -0.70077125304E+03 -0.10633640902E+03  0.79902419815E+03  0.46999998093E+01 0.  1.
</event>
<event>
 5   0  0.1081831E-05  0.1599931E+04  0.7818609E-02  0.8820591E-01
        1   -1    0    0  501    0  0.00000000000E+00  0.00000000000E+00  0.14999857695E+04  0.14999857695E+04  0.50400001928E-02 0. -1.
       -1   -1    0    0    0  501  0.00000000000E+00  0.00000000000E+00 -0.42663370918E+03  0.42663370921E+03  0.50400001928E-02 0.  1.
    10030    2    1    2    0    0  0.00000000000E+00  0.00000000000E+00  0.10733520603E+04  0.19266194787E+04  0.15999306142E+04 0.  0.
        3    1    3    3  502    0 -0.13797627161E+03 -0.71021793890E+03  0.12566533796E+03  0.73432878170E+03  0.10100000352E+00 0.  1.
       -3    1    3    3    0  502  0.13797627161E+03  0.71021793890E+03  0.94768672235E+03  0.11922906970E+04  0.10100000352E+00 0. -1.
</event>
<event>
 5   0  0.1060251E-05  0.1599814E+04  0.7818609E-02  0.8820663E-01
       -1   -1    0    0    0  501  0.00000000000E+00  0.00000000000E+00  0.69956574146E+03  0.69956574148E+03  0.50400001928E-02 0.  1.
        1   -1    0    0  501    0  0.00000000000E+00  0.00000000000E+00 -0.91464011362E+03  0.91464011363E+03  0.50400001928E-02 0. -1.
    10030    2    1    2    0    0  0.00000000000E+00  0.00000000000E+00 -0.21507437216E+03  0.16142058551E+04  0.15998136007E+04 0.  0.
        1    1    3    3  502    0 -0.41201944459E+03 -0.44100386158E+03  0.42216800691E+03  0.73652580045E+03  0.50400001928E-02 0.  1.
       -1    1    3    3    0  502  0.41201944459E+03  0.44100386158E+03 -0.63724237907E+03  0.87768005466E+03  0.50400001928E-02 0. -1.
</event>
<event>
 5   0  0.1057506E-05  0.1599438E+04  0.7818609E-02  0.8820893E-01
       -1   -1    0    0    0  501  0.00000000000E+00  0.00000000000E+00  0.32399998030E+03  0.32399998034E+03  0.50400001928E-02 0. -1.
        1   -1    0    0  501    0  0.00000000000E+00  0.00000000000E+00 -0.19739219569E+04  0.19739219569E+04  0.50400001928E-02 0.  1.
    10030    2    1    2    0    0  0.00000000000E+00  0.00000000000E+00 -0.16499219766E+04  0.22979219372E+04  0.15994382454E+04 0.  0.
        5    1    3    3  502    0  0.18658988261E+03 -0.75971890544E+03 -0.58653716425E+03  0.97777120770E+03  0.46999998093E+01 0. -1.
       -5    1    3    3    0  502 -0.18658988261E+03  0.75971890544E+03 -0.10633848124E+04  0.13201507295E+04  0.46999998093E+01 0.  1.
</event>
<event>
 5   0  0.2147844E-05  0.1600729E+04  0.7818609E-02  0.8820100E-01
       -2   -1    0    0    0  501  0.00000000000E+00  0.00000000000E+00  0.59111190819E+03  0.59111190820E+03  0.25500000920E-02 0.  1.
        2   -1    0    0  501    0  0.00000000000E+00  0.00000000000E+00 -0.10836927860E+04  0.10836927860E+04  0.25500000920E-02 0. -1.
    10030    2    1    2    0    0  0.00000000000E+00  0.00000000000E+00 -0.49258087785E+03  0.16748046942E+04  0.16007294720E+04 0.  0.
        2    1    3    3  502    0  0.72233510387E+02 -0.17960442096E+03  0.56624792402E+03  0.59842471499E+03  0.25500000920E-02 0.  1.
       -2    1    3    3    0  502 -0.72233510387E+02  0.17960442096E+03 -0.10588288019E+04  0.10763799792E+04  0.25500000920E-02 0. -1.
</event>
<event>
 5   0  0.1126485E-05  0.1600459E+04  0.7818609E-02  0.8820266E-01
        1   -1    0    0  501    0  0.00000000000E+00  0.00000000000E+00  0.57863226636E+03  0.57863226638E+03  0.50400001928E-02 0.  1.
       -1   -1    0    0    0  501  0.00000000000E+00  0.00000000000E+00 -0.11066917453E+04  0.11066917453E+04  0.50400001928E-02 0. -1.
    10030    2    1    2    0    0  0.00000000000E+00  0.00000000000E+00 -0.52805947889E+03  0.16853240116E+04  0.16004593750E+04 0.  0.
        2    1    3    3  502    0  0.27683468250E+03  0.85280392947E+02  0.52148565634E+03  0.59653790880E+03  0.25500000920E-02 0.  1.
       -2    1    3    3    0  502 -0.27683468250E+03 -0.85280392947E+02 -0.10495451352E+04  0.10887861029E+04  0.25500000920E-02 0. -1.
</event>
<event>
 5   0  0.1994525E-05  0.1601311E+04  0.7818609E-02  0.8819743E-01
        2   -1    0    0  501    0  0.00000000000E+00  0.00000000000E+00  0.12366123995E+04  0.12366123996E+04  0.25500000920E-02 0. -1.
       -2   -1    0    0    0  501  0.00000000000E+00  0.00000000000E+00 -0.51839156569E+03  0.51839156570E+03  0.25500000920E-02 0.  1.
    10030    2    1    2    0    0  0.00000000000E+00  0.00000000000E+00  0.71822083386E+03  0.17550039653E+04  0.16013112601E+04 0.  0.
        5    1    3    3  502    0  0.10808484592E+03 -0.79192666993E+03  0.30773758194E+03  0.85647807549E+03  0.46999998093E+01 0.  1.
       -5    1    3    3    0  502 -0.10808484592E+03  0.79192666993E+03  0.41048325192E+03  0.89852588976E+03  0.46999998093E+01 0. -1.
</event>
<event>
 5   0  0.1060251E-05  0.1598533E+04  0.7818609E-02  0.8821450E-01
        1   -1    0    0  501    0  0.00000000000E+00  0.00000000000E+00  0.60984539232E+03  0.60984539234E+03  0.50400001928E-02 0. -1.
       -1   -1    0    0    0  501  0.00000000000E+00  0.00000000000E+00 -0.10475227083E+04  0.10475227083E+04  0.50400001928E-02 0.  1.
    10030    2    1    2    0    0  0.00000000000E+00  0.00000000000E+00 -0.43767731594E+03  0.16573681006E+04  0.15985329487E+04 0.  0.
        1    1    3    3  502    0 -0.70845822052E+03  0.34426879358E+03 -0.78226836713E+02  0.79155131891E+03  0.50400001928E-02 0. -1.
       -1    1    3    3    0  502  0.70845822052E+03 -0.34426879358E+03 -0.35945047923E+03  0.86581678171E+03  0.50400001928E-02 0.  1.
</event>
<event>
 5   0  0.2125803E-05  0.1600091E+04  0.7818609E-02  0.8820492E-01
       -2   -1    0    0    0  501  0.00000000000E+00  0.00000000000E+00  0.12129219963E+04  0.12129219963E+04  0.25500000920E-02 0. -1.
        2   -1    0    0  501    0  0.00000000000E+00  0.00000000000E+00 -0.52771158645E+03  0.52771158646E+03  0.25500000920E-02 0.  1.
    10030    2    1    2    0    0  0.00000000000E+00  0.00000000000E+00  0.68521040988E+03  0.17406335828E+04  0.16000912361E+04 0.  0.
        3    1    3    3  502    0 -0.41566452665E+03  0.28440483423E+03 -0.33361278205E+03  0.60411969592E+03  0.10100000352E+00 0.  1.
       -3    1    3    3    0  502  0.41566452665E+03 -0.28440483423E+03  0.10188231919E+04  0.11365138869E+04  0.10100000352E+00 0. -1.
</event>
<event>
 5   0  0.1994525E-05  0.1599910E+04  0.7818609E-02  0.8820603E-01
        2   -1    0    0  501    0  0.00000000000E+00  0.00000000000E+00  0.45263861404E+03  0.45263861405E+03  0.25500000920E-02 0.  1.
       -2   -1    0    0    0  501  0.00000000000E+00  0.00000000000E+00 -0.14137719473E+04  0.14137719473E+04  0.25500000920E-02 0. -1.
    10030    2    1    2    0    0  0.00000000000E+00  0.00000000000E+00 -0.96113333328E+03  0.18664105614E+04  0.15999097160E+04 0.  0.
        5    1    3    3  502    0  0.49660913319E+03 -0.52122537826E+03 -0.73753641469E+02  0.72371141744E+03  0.46999998093E+01 0.  1.
       -5    1    3    3    0  502 -0.49660913319E+03  0.52122537826E+03 -0.88737969181E+03  0.11426991439E+04  0.46999998093E+01 0. -1.
</event>
<event>
 5   0  0.1994525E-05  0.1600265E+04  0.7818609E-02  0.8820385E-01
        2   -1    0    0  501    0  0.00000000000E+00  0.00000000000E+00  0.51232653344E+03  0.51232653345E+03  0.25500000920E-02 0.  1.
       -2   -1    0    0    0  501  0.00000000000E+00  0.00000000000E+00 -0.12496173133E+04  0.12496173133E+04  0.25500000920E-02 0. -1.
    10030    2    1    2    0    0  0.00000000000E+00  0.00000000000E+00 -0.73729077988E+03  0.17619438468E+04  0.16002651109E+04 0.  0.
        5    1    3    3  502    0 -0.51868762198E+03  0.11630128543E+03  0.28979336408E+03  0.60544621731E+03  0.46999998093E+01 0.  1.
       -5    1    3    3    0  502  0.51868762198E+03 -0.11630128543E+03 -0.10270841440E+04  0.11564976295E+04  0.46999998093E+01 0. -1.
</event>
<event>
 5   0  0.2125803E-05  0.1599628E+04  0.7818609E-02  0.8820777E-01
        2   -1    0    0  501    0  0.00000000000E+00  0.00000000000E+00  0.30964511604E+04  0.30964511604E+04  0.25500000920E-02 0. -1.
       -2   -1    0    0    0  501  0.00000000000E+00  0.00000000000E+00 -0.20659202816E+03  0.20659202817E+03  0.25500000920E-02 0.  1.
    10030    2    1    2    0    0  0.00000000000E+00  0.00000000000E+00  0.28898591322E+04  0.33030431885E+04  0.15996276133E+04 0.  0.
        3    1    3    3  502    0  0.54481194186E+03 -0.50972049296E+03  0.84980231436E+03  0.11308399607E+04  0.10100000352E+00 0.  1.
       -3    1    3    3    0  502 -0.54481194186E+03  0.50972049296E+03  0.20400568179E+04  0.21722032279E+04  0.10100000352E+00 0. -1.
</event>
<event>
 5   0  0.1060251E-05  0.1600570E+04  0.7818609E-02  0.8820198E-01
       -1   -1    0    0    0  501  0.00000000000E+00  0.00000000000E+00  0.42013668590E+03  0.42013668593E+03  0.50400001928E-02 0.  1.
        1   -1    0    0  501    0  0.00000000000E+00  0.00000000000E+00 -0.15243990432E+04  0.15243990432E+04  0.50400001928E-02 0. -1.
    10030    2    1    2    0    0  0.00000000000E+00  0.00000000000E+00 -0.11042623573E+04  0.19445357291E+04  0.16005698511E+04 0.  0.
        1    1    3    3  502    0  0.68029046402E+03  0.41825993087E+03 -0.48877572961E+03  0.93628959147E+03  0.50400001928E-02 0.  1.
       -1    1    3    3    0  502 -0.68029046402E+03 -0.41825993087E+03 -0.61548662767E+03  0.10082461376E+04  0.50400001928E-02 0. -1.
</event>
<event>
 5   0  0.1090674E-05  0.1600234E+04  0.7818609E-02  0.8820404E-01
        1   -1    0    0  501    0  0.00000000000E+00  0.00000000000E+00  0.45798479055E+03  0.45798479057E+03  0.50400001928E-02 0. -1.
       -1   -1    0    0    0  501  0.00000000000E+00  0.00000000000E+00 -0.13978350118E+04  0.13978350118E+04  0.50400001928E-02 0.  1.
    10030    2    1    2    0    0  0.00000000000E+00  0.00000000000E+00 -0.93985022128E+03  0.18558198024E+04  0.16002339518E+04 0.  0.
        4    1    3    3  502    0 -0.14879865571E+03  0.23838992689E+03 -0.13387192212E+04  0.13678967663E+04  0.12699999809E+01 0.  1.
       -4    1    3    3    0  502  0.14879865571E+03 -0.23838992689E+03  0.39886899990E+03  0.48792303611E+03  0.12699999809E+01 0. -1.
</event>
<event>
 5   0  0.1057506E-05  0.1601428E+04  0.7818609E-02  0.8819671E-01
       -1   -1    0    0    0  501  0.00000000000E+00  0.00000000000E+00  0.10100072107E+04  0.10100072107E+04  0.50400001928E-02 0.  1.
        1   -1    0    0  501    0  0.00000000000E+00  0.00000000000E+00 -0.63479016315E+03  0.63479016317E+03  0.50400001928E-02 0. -1.
    10030    2    1    2    0    0  0.00000000000E+00  0.00000000000E+00  0.37521704754E+03  0.16447973739E+04  0.16014276657E+04 0.  0.
        5    1    3    3  502    0 -0.42268959591E+03 -0.56054634928E+03 -0.20784048110E+03  0.73218744851E+03  0.46999998093E+01 0.  1.
       -5    1    3    3    0  502  0.42268959591E+03  0.56054634928E+03  0.58305752864E+03  0.91260992537E+03  0.46999998093E+01 0. -1.
</event>
<event>
 5   0  0.2147844E-05  0.1600180E+04  0.7818609E-02  0.8820437E-01
        2   -1    0    0  501    0  0.00000000000E+00  0.00000000000E+00  0.85973917168E+03  0.85973917168E+03  0.25500000920E-02 0. -1.
       -2   -1    0    0    0  501  0.00000000000E+00  0.00000000000E+00 -0.74457930697E+03  0.74457930698E+03  0.25500000920E-02 0.  1.
    10030    2    1    2    0    0  0.00000000000E+00  0.00000000000E+00  0.11515986471E+03  0.16043184787E+04  0.16001799857E+04 0.  0.
        2    1    3    3  502    0  0.68775360868E+03 -0.16397285057E+03  0.43305066410E+03  0.82911096945E+03  0.25500000920E-02 0. -1.
       -2    1    3    3    0  502 -0.68775360868E+03  0.16397285057E+03 -0.31789079939E+03  0.77520750920E+03  0.25500000920E-02 0.  1.
</event>
<event>
 5   0  0.1081831E-05  0.1598970E+04  0.7818609E-02  0.8821181E-01
       -1   -1    0    0    0  501  0.00000000000E+00  0.00000000000E+00  0.76573272074E+03  0.76573272076E+03  0.50400001928E-02 0. -1.
        1   -1    0    0  501    0  0.00000000000E+00  0.00000000000E+00 -0.83472535509E+03  0.83472535511E+03  0.50400001928E-02 0.  1.
    10030    2    1    2    0    0  0.00000000000E+00  0.00000000000E+00 -0.68992634349E+02  0.16004580759E+04  0.15989703152E+04 0.  0.
        3    1    3    3  502    0  0.51515312452E+03  0.56408540718E+03  0.20152261316E+03  0.79005472096E+03  0.10100000352E+00 0. -1.
       -3    1    3    3    0  502 -0.51515312452E+03 -0.56408540718E+03 -0.27051524751E+03  0.81040335490E+03  0.10100000352E+00 0.  1.
</event>
<event>
 5   0  0.1090674E-05  0.1602427E+04  0.7818609E-02  0.8819058E-01
        1   -1    0    0  501    0  0.00000000000E+00  0.00000000000E+00  0.98034415742E+03  0.98034415743E+03  0.50400001928E-02 0. -1.
       -1   -1    0    0    0  501  0.00000000000E+00  0.00000000000E+00 -0.65481429597E+03  0.65481429599E+03  0.50400001928E-02 0.  1.
    10030    2    1    2    0    0  0.00000000000E+00  0.00000000000E+00  0.32552986145E+03  0.16351584534E+04  0.16024273703E+04 0.  0.
        4    1    3    3  502    0 -0.33148023627E+03  0.51986641491E+03 -0.35935175364E+03  0.71363543364E+03  0.12699999809E+01 0. -1.
       -4    1    3    3    0  502  0.33148023627E+03 -0.51986641491E+03  0.68488161509E+03  0.92152301978E+03  0.12699999809E+01 0.  1.
</event>
<event>
 5   0  0.1990948E-05  0.1599773E+04  0.7818609E-02  0.8820687E-01
        2   -1    0    0  501    0  0.00000000000E+00  0.00000000000E+00  0.11640958254E+04  0.11640958255E+04  0.25500000920E-02 0. -1.
       -2   -1    0    0    0  501  0.00000000000E+00  0.00000000000E+00 -0.54962698184E+03  0.54962698185E+03  0.25500000920E-02 0.  1.
    10030    2    1    2    0    0  0.00000000000E+00  0.00000000000E+00  0.61446884360E+03  0.17137228073E+04  0.15997730778E+04 0.  0.
        4    1    3    3  502    0 -0.79531608857E+03 -0.23025117953E+02  0.39530365861E+03  0.88843932388E+03  0.12699999809E+01 0.  1.
       -4    1    3    3    0  502  0.79531608857E+03  0.23025117953E+02  0.21916518499E+03  0.82528348342E+03  0.12699999809E+01 0. -1.
</event>
<event>
 5   0  0.1090674E-05  0.1600703E+04  0.7818609E-02  0.8820116E-01
        1   -1    0    0  501    0  0.00000000000E+00  0.00000000000E+00  0.88166541119E+03  0.88166541120E+03  0.50400001928E-02 0.  1.
       -1   -1    0    0    0  501  0.00000000000E+00  0.00000000000E+00 -0.72653695074E+03  0.72653695076E+03  0.50400001928E-02 0. -1.
    10030    2    1    2    0    0  0.00000000000E+00  0.00000000000E+00  0.15512846045E+03  0.16082023620E+04  0.16007029699E+04 0.  0.
        4    1    3    3  502    0 -0.38158430945E+03  0.44947296322E+03 -0.46620002126E+03  0.75164925504E+03  0.12699999809E+01 0. -1.
       -4    1    3    3    0  502  0.38158430945E+03 -0.44947296322E+03  0.62132848171E+03  0.85655310692E+03  0.12699999809E+01 0.  1.
</event>
<event>
 5   0  0.1090674E-05  0.1600830E+04  0.7818609E-02  0.8820038E-01
       -1   -1    0    0    0  501  0.00000000000E+00  0.00000000000E+00  0.50174245568E+03  0.50174245571E+03  0.50400001928E-02 0. -1.
        1   -1    0    0  501    0  0.00000000000E+00  0.00000000000E+00 -0.12768783389E+04  0.12768783389E+04  0.50400001928E-02 0.  1.
    10030    2    1    2    0    0  0.00000000000E+00  0.00000000000E+00 -0.77513588321E+03  0.17786207946E+04  0.16008298765E+04 0.  0.
        4    1    3    3  502    0  0.31082759543E+00  0.60481318329E+03 -0.97006887240E+03  0.11431685411E+04  0.12699999809E+01 0.  1.
       -4    1    3    3    0  502 -0.31082759543E+00 -0.60481318329E+03  0.19493298919E+03  0.63545225349E+03  0.12699999809E+01 0. -1.
</event>
<event>
 5   0  0.1060251E-05  0.1599614E+04  0.7818609E-02  0.8820785E-01
       -1   -1    0    0    0  501  0.00000000000E+00  0.00000000000E+00  0.39851954250E+03  0.39851954253E+03  0.50400001928E-02 0. -1.
        1   -1    0    0  501    0  0.00000000000E+00  0.00000000000E+00 -0.16051684326E+04  0.16051684326E+04  0.50400001928E-02 0.  1.
    10030    2    1    2    0    0  0.00000000000E+00  0.00000000000E+00 -0.12066488901E+04  0.20036879752E+04  0.15996136902E+04 0.  0.
        1    1    3    3  502    0  0.31159018623E+03 -0.55727537271E+03 -0.12067207992E+04  0.13652177015E+04  0.50400001928E-02 0.  1.
       -1    1    3    3    0  502 -0.31159018623E+03  0.55727537271E+03  0.71909078816E-01  0.63847027368E+03  0.50400001928E-02 0. -1.
</event>
<event>
 5   0  0.2046108E-05  0.1600697E+04  0.7818609E-02  0.8820120E-01
        2   -1    0    0  501    0  0.00000000000E+00  0.00000000000E+00  0.24031525758E+04  0.24031525758E+04  0.25500000920E-02 0.  1.
       -2   -1    0    0    0  501  0.00000000000E+00  0.00000000000E+00 -0.26654893972E+03  0.26654893973E+03  0.25500000920E-02 0. -1.
    10030    2    1    2    0    0  0.00000000000E+00  0.00000000000E+00  0.21366036360E+04  0.26697015155E+04  0.16006970620E+04 0.  0.
        1    1    3    3  502    0  0.56301543314E+03 -0.34957489291E+03  0.31987448888E+03  0.73587272838E+03  0.50400001928E-02 0. -1.
       -1    1    3    3    0  502 -0.56301543314E+03  0.34957489291E+03  0.18167291472E+04  0.19338287871E+04  0.50400001928E-02 0.  1.
</event>
<event>
 5   0  0.1081831E-05  0.1600529E+04  0.7818609E-02  0.8820223E-01
       -1   -1    0    0    0  501  0.00000000000E+00  0.00000000000E+00  0.38628231456E+03  0.38628231460E+03  0.50400001928E-02 0.  1.
        1   -1    0    0  501    0  0.00000000000E+00  0.00000000000E+00 -0.16579146069E+04  0.16579146070E+04  0.50400001928E-02 0. -1.
    10030    2    1    2    0    0  0.00000000000E+00  0.00000000000E+00 -0.12716322924E+04  0.20441969215E+04  0.16005287773E+04 0.  0.
        3    1    3    3  502    0  0.36614002130E+03 -0.45328826814E+03 -0.13364098533E+04  0.14579163472E+04  0.10100000352E+00 0. -1.
       -3    1    3    3    0  502 -0.36614002130E+03  0.45328826814E+03  0.64777560943E+02  0.58628057433E+03  0.10100000352E+00 0.  1.
</event>
<event>
 5   0  0.2147844E-05  0.1600561E+04  0.7818609E-02  0.8820204E-01
        2   -1    0    0  501    0  0.00000000000E+00  0.00000000000E+00  0.94608340717E+03  0.94608340718E+03  0.25500000920E-02 0. -1.
       -2   -1    0    0    0  501  0.00000000000E+00  0.00000000000E+00 -0.67694748642E+03  0.67694748643E+03  0.25500000920E-02 0.  1.
    10030    2    1    2    0    0  0.00000000000E+00  0.00000000000E+00  0.26913592075E+03  0.16230308936E+04  0.16005608822E+04 0.  0.
        2    1    3    3  502    0 -0.20600209706E+03 -0.60372005240E+03 -0.35546993327E+03  0.73025587237E+03  0.25500000920E-02 0.  1.
       -2    1    3    3    0  502  0.20600209706E+03  0.60372005240E+03  0.62460585402E+03  0.89277502124E+03  0.25500000920E-02 0. -1.
</event>
<event>
 5   0  0.2125803E-05  0.1599685E+04  0.7818609E-02  0.8820741E-01
       -2   -1    0    0    0  501  0.00000000000E+00  0.00000000000E+00  0.38030554592E+03  0.38030554592E+03  0.25500000920E-02 0.  1.
        2   -1    0    0  501    0  0.00000000000E+00  0.00000000000E+00 -0.16821953892E+04  0.16821953892E+04  0.25500000920E-02 0. -1.
    10030    2    1    2    0    0  0.00000000000E+00  0.00000000000E+00 -0.13018898433E+04  0.20625009351E+04  0.15996852638E+04 0.  0.
        3    1    3    3  502    0  0.12350109919E+03  0.26457550011E+03 -0.16110275827E+04  0.16372729153E+04  0.10100000352E+00 0. -1.
       -3    1    3    3    0  502 -0.12350109919E+03 -0.26457550011E+03  0.30913773938E+03  0.42522801986E+03  0.10100000352E+00 0.  1.
</event>
<event>
 5   0  0.7597000E-06  0.1600201E+04  0.7818609E-02  0.8820424E-01
       -3   -1    0    0    0  501  0.00000000000E+00  0.00000000000E+00  0.11149264414E+04  0.11149264459E+04  0.10100000352E+00 0.  1.
        3   -1    0    0  501    0  0.00000000000E+00  0.00000000000E+00 -0.57417333653E+03  0.57417334541E+03  0.10100000352E+00 0. -1.
    10030    2    1    2    0    0  0.00000000000E+00  0.00000000000E+00  0.54075310482E+03  0.16890997913E+04  0.16002012951E+04 0.  0.
        3    1    3    3  502    0  0.26506659763E+03  0.33620525395E+03  0.98384615124E+03  0.10729620373E+04  0.10100000352E+00 0.  1.
       -3    1    3    3    0  502 -0.26506659763E+03 -0.33620525395E+03 -0.44309304642E+03  0.61613775404E+03  0.10100000352E+00 0. -1.
</event>
<event>
 5   0  0.1057506E-05  0.1599234E+04  0.7818609E-02  0.8821019E-01
        1   -1    0    0  501    0  0.00000000000E+00  0.00000000000E+00  0.15467849548E+04  0.15467849548E+04  0.50400001928E-02 0. -1.
       -1   -1    0    0    0  501  0.00000000000E+00  0.00000000000E+00 -0.41336554922E+03  0.41336554925E+03  0.50400001928E-02 0.  1.
    10030    2    1    2    0    0  0.00000000000E+00  0.00000000000E+00  0.11334194056E+04  0.19601505041E+04  0.15992343323E+04 0.  0.
        5    1    3    3  502    0 -0.35691881442E+03  0.62917143734E+03  0.98437335807E+03  0.12215812440E+04  0.46999998093E+01 0. -1.
       -5    1    3    3    0  502  0.35691881442E+03 -0.62917143734E+03  0.14904604754E+03  0.73856926008E+03  0.46999998093E+01 0.  1.
</event>
<event>
 5   0  0.1990948E-05  0.1600060E+04  0.7818609E-02  0.8820511E-01
        2   -1    0    0  501    0  0.00000000000E+00  0.00000000000E+00  0.97405552361E+03  0.97405552362E+03  0.25500000920E-02 0.  1.
       -2   -1    0    0    0  501  0.00000000000E+00  0.00000000000E+00 -0.65709583016E+03  0.65709583016E+03  0.25500000920E-02 0. -1.
    10030    2    1    2    0    0  0.00000000000E+00  0.00000000000E+00  0.31695969346E+03  0.16311513538E+04  0.16000597775E+04 0.  0.
        4    1    3    3  502    0  0.32913734054E+02 -0.32357797404E+03 -0.58665429039E+03  0.67078378671E+03  0.12699999809E+01 0. -1.
       -4    1    3    3    0  502 -0.32913734054E+02  0.32357797404E+03  0.90361398385E+03  0.96036756707E+03  0.12699999809E+01 0.  1.
</event>
<event>
 5   0  0.1990948E-05  0.1600253E+04  0.7818609E-02  0.8820393E-01
        2   -1    0    0  501    0  0.00000000000E+00  0.00000000000E+00  0.94700206579E+03  0.94700206579E+03  0.25500000920E-02 0.  1.
       -2   -1    0    0    0  501  0.00000000000E+00  0.00000000000E+00 -0.67603051369E+03  0.67603051370E+03  0.25500000920E-02 0. -1.
    10030    2    1    2    0    0  0.00000000000E+00  0.00000000000E+00  0.27097155210E+03  0.16230325795E+04  0.16002528463E+04 0.  0.
        4    1    3    3  502    0 -0.10406983877E+03  0.48285377919E+03  0.77390819392E+03  0.91810337595E+03  0.12699999809E+01 0.  1.
       -4    1    3    3    0  502  0.10406983877E+03 -0.48285377919E+03 -0.50293664182E+03  0.70492920354E+03  0.12699999809E+01 0. -1.
</event>
<event>
 5   0  0.2147844E-05  0.1600699E+04  0.7818609E-02  0.8820119E-01
       -2   -1    0    0    0  501  0.00000000000E+00  0.00000000000E+00  0.39749076353E+03  0.39749076354E+03  0.25500000920E-02 0. -1.
        2   -1    0    0  501    0  0.00000000000E+00  0.00000000000E+00 -0.16115066034E+04  0.16115066034E+04  0.25500000920E-02 0.  1.
    10030    2    1    2    0    0  0.00000000000E+00  0.00000000000E+00 -0.12140158398E+04  0.20089973669E+04  0.16006985853E+04 0.  0.
        2    1    3    3  502    0  0.61215280371E+03 -0.21116890166E+03 -0.11973413018E+04  0.13612308964E+04  0.25500000920E-02 0.  1.
       -2    1    3    3    0  502 -0.61215280371E+03  0.21116890166E+03 -0.16674537979E+02  0.64776647053E+03  0.25500000920E-02 0. -1.
</event>
<event>
 5   0  0.1057506E-05  0.1599537E+04  0.7818609E-02  0.8820833E-01
       -1   -1    0    0    0  501  0.00000000000E+00  0.00000000000E+00  0.11747397400E+04  0.11747397400E+04  0.50400001928E-02 0.  1.
        1   -1    0    0  501    0  0.00000000000E+00  0.00000000000E+00 -0.54448608607E+03  0.54448608609E+03  0.50400001928E-02 0. -1.
    10030    2    1    2    0    0  0.00000000000E+00  0.00000000000E+00  0.63025365392E+03  0.17192258261E+04  0.15995367369E+04 0.  0.
        5    1    3    3  502    0 -0.44811341792E+03  0.61706280579E+02 -0.39376564937E+03  0.59973892403E+03  0.46999998093E+01 0. -1.
       -5    1    3    3    0  502  0.44811341792E+03 -0.61706280579E+02  0.10240193033E+04  0.11194869021E+04  0.46999998093E+01 0.  1.
</event>
<event>
 5   0  0.2125803E-05  0.1603582E+04  0.7818609E-02  0.8818350E-01
        2   -1    0    0  501    0  0.00000000000E+00  0.00000000000E+00  0.11634853414E+04  0.11634853414E+04  0.25500000920E-02 0.  1.
       -2   -1    0    0    0  501  0.00000000000E+00  0.00000000000E+00 -0.55253728269E+03  0.55253728270E+03  0.25500000920E-02 0. -1.
    10030    2    1    2    0    0  0.00000000000E+00  0.00000000000E+00  0.61094805872E+03  0.17160226241E+04  0.16035822760E+04 0.  0.
        3    1    3    3  502    0  0.55737300388E+02  0.59136307269E+03  0.88180208325E+03  0.10631988782E+04  0.10100000352E+00 0.  1.
       -3    1    3    3    0  502 -0.55737300388E+02 -0.59136307269E+03 -0.27085402453E+03  0.65282374590E+03  0.10100000352E+00 0. -1.
</event>
<event>
 5   0  0.7597000E-06  0.1599240E+04  0.7818609E-02  0.8821015E-01
        3   -1    0    0  501    0  0.00000000000E+00  0.00000000000E+00  0.70046732395E+03  0.70046733123E+03  0.10100000352E+00 0.  1.
       -3   -1    0    0    0  501  0.00000000000E+00  0.00000000000E+00 -0.91280810323E+03  0.91280810882E+03  0.10100000352E+00 0. -1.
    10030    2    1    2    0    0  0.00000000000E+00  0.00000000000E+00 -0.21234077929E+03  0.16132754401E+04  0.15992401442E+04 0.  0.
        4    1    3    3  502    0 -0.67932545147E+03 -0.15315791794E+03  0.29028024648E+03  0.75445652707E+03  0.12699999809E+01 0.  1.
       -4    1    3    3    0  502  0.67932545147E+03  0.15315791794E+03 -0.50262102576E+03  0.85881891298E+03  0.12699999809E+01 0. -1.
</event>
<event>
 5   0  0.1081831E-05  0.1602090E+04  0.7818609E-02  0.8819265E-01
        1   -1    0    0  501    0  0.00000000000E+00  0.00000000000E+00  0.12013425617E+04  0.12013425617E+04  0.50400001928E-02 0. -1.
       -1   -1    0    0    0  501  0.00000000000E+00  0.00000000000E+00 -0.53413031214E+03  0.53413031217E+03  0.50400001928E-02 0.  1.
    10030    2    1    2    0    0  0.00000000000E+00  0.00000000000E+00  0.66721224952E+03  0.17354728738E+04  0.16020904812E+04 0.  0.
        3    1    3    3  502    0  0.50485791077E+03 -0.37947441607E+03 -0.20015531159E+03  0.66252886841E+03  0.10100000352E+00 0.  1.
       -3    1    3    3    0  502 -0.50485791077E+03  0.37947441607E+03  0.86736756111E+03  0.10729440054E+04  0.10100000352E+00 0. -1.
</event>
<event>
 5   0  0.7597000E-06  0.1600141E+04  0.7818609E-02  0.8820461E-01
        3   -1    0    0  501    0  0.00000000000E+00  0.00000000000E+00  0.57642955881E+03  0.57642956765E+03  0.10100000352E+00 0.  1.
       -3   -1    0    0    0  501  0.00000000000E+00  0.00000000000E+00 -0.11104788126E+04  0.11104788172E+04  0.10100000352E+00 0. -1.
    10030    2    1    2    0    0  0.00000000000E+00  0.00000000000E+00 -0.53404925376E+03  0.16869083848E+04  0.16001410229E+04 0.  0.
        4    1    3    3  502    0 -0.26961734924E+03 -0.71241995151E+03 -0.90613747450E+01  0.76178699368E+03  0.12699999809E+01 0.  1.
       -4    1    3    3    0  502  0.26961734924E+03  0.71241995151E+03 -0.52498787901E+03  0.92512139113E+03  0.12699999809E+01 0. -1.
</event>
<event>
 5   0  0.1990948E-05  0.1600271E+04  0.7818609E-02  0.8820382E-01
       -2   -1    0    0    0  501  0.00000000000E+00  0.00000000000E+00  0.97391350598E+03  0.97391350598E+03  0.25500000920E-02 0.  1.
        2   -1    0    0  501    0  0.00000000000E+00  0.00000000000E+00 -0.65736506386E+03  0.65736506386E+03  0.25500000920E-02 0. -1.
    10030    2    1    2    0    0  0.00000000000E+00  0.00000000000E+00  0.31654844212E+03  0.16312785698E+04  0.16002708696E+04 0.  0.
        4    1    3    3  502    0 -0.56234826569E+03 -0.44322151902E+03 -0.20576484097E+03  0.74499776477E+03  0.12699999809E+01 0. -1.
       -4    1    3    3    0  502  0.56234826569E+03  0.44322151902E+03  0.52231328308E+03  0.88628080507E+03  0.12699999809E+01 0.  1.
</event>
<event>
 5   0  0.1090674E-05  0.1600086E+04  0.7818609E-02  0.8820495E-01
       -1   -1    0    0    0  501  0.00000000000E+00  0.00000000000E+00  0.77829955763E+03  0.77829955764E+03  0.50400001928E-02 0.  1.
        1   -1    0    0  501    0  0.00000000000E+00  0.00000000000E+00 -0.82239425042E+03  0.82239425044E+03  0.50400001928E-02 0. -1.
    10030    2    1    2    0    0  0.00000000000E+00  0.00000000000E+00 -0.44094692795E+02  0.16006938081E+04  0.16000863493E+04 0.  0.
        4    1    3    3  502    0 -0.43522725372E+03  0.45659452759E+02  0.64795307804E+03  0.78189024310E+03  0.12699999809E+01 0.  1.
       -4    1    3    3    0  502  0.43522725372E+03 -0.45659452759E+02 -0.69204777084E+03  0.81880356498E+03  0.12699999809E+01 0. -1.
</event>
<event>
 5   0  0.1081831E-05  0.1605683E+04  0.7818609E-02  0.8817064E-01
       -1   -1    0    0    0  501  0.00000000000E+00  0.00000000000E+00  0.96850970029E+03  0.96850970030E+03  0.50400001928E-02 0. -1.
        1   -1    0    0  501    0  0.00000000000E+00  0.00000000000E+00 -0.66551167300E+03  0.66551167302E+03  0.50400001928E-02 0.  1.
    10030    2    1    2    0    0  0.00000000000E+00  0.00000000000E+00  0.30299802729E+03  0.16340213733E+04  0.16056830459E+04 0.  0.
        3    1    3    3  502    0 -0.23056578064E+03 -0.20022853849E+03  0.90710062244E+03  0.95712256073E+03  0.10100000352E+00 0. -1.
       -3    1    3    3    0  502  0.23056578064E+03  0.20022853849E+03 -0.60410259515E+03  0.67689881260E+03  0.10100000352E+00 0.  1.
</event>
<event>
 5   0  0.2147844E-05  0.1600029E+04  0.7818609E-02  0.8820530E-01
        2   -1    0    0  501    0  0.00000000000E+00  0.00000000000E+00  0.26840986831E+04  0.26840986831E+04  0.25500000920E-02 0. -1.
       -2   -1    0    0    0  501  0.00000000000E+00  0.00000000000E+00 -0.23844999169E+03  0.23844999170E+03  0.25500000920E-02 0.  1.
    10030    2    1    2    0    0  0.00000000000E+00  0.00000000000E+00  0.24456486914E+04  0.29225486748E+04  0.16000291356E+04 0.  0.
        2    1    3    3  502    0  0.55593515625E+03 -0.29699879851E+03  0.21227662762E+04  0.22143642085E+04  0.25500000920E-02 0. -1.
       -2    1    3    3    0  502 -0.55593515625E+03  0.29699879851E+03  0.32288241512E+03  0.70818446627E+03  0.25500000920E-02 0.  1.
</event>
<event>
 5   0  0.1081831E-05  0.1599913E+04  0.7818609E-02  0.8820601E-01
       -1   -1    0    0    0  501  0.00000000000E+00  0.00000000000E+00  0.32016766095E+03  0.32016766099E+03  0.50400001928E-02 0.  1.
        1   -1    0    0  501    0  0.00000000000E+00  0.00000000000E+00 -0.19987359393E+04  0.19987359393E+04  0.50400001928E-02 0. -1.
    10030    2    1    2    0    0  0.00000000000E+00  0.00000000000E+00 -0.16785682783E+04  0.23189036003E+04  0.15999132609E+04 0.  0.
        3    1    3    3  502    0 -0.72333905541E+03  0.64994469261E+02 -0.13253971995E+04  0.15113310084E+04  0.10100000352E+00 0. -1.
       -3    1    3    3    0  502  0.72333905541E+03 -0.64994469261E+02 -0.35317107880E+03  0.80757259192E+03  0.10100000352E+00 0.  1.
</event>
<event>
 5   0  0.1990948E-05  0.1599718E+04  0.7818609E-02  0.8820722E-01
        2   -1    0    0  501    0  0.00000000000E+00  0.00000000000E+00  0.94598559963E+03  0.94598559963E+03  0.25500000920E-02 0. -1.
       -2   -1    0    0    0  501  0.00000000000E+00  0.00000000000E+00 -0.67630423066E+03  0.67630423067E+03  0.25500000920E-02 0.  1.
    10030    2    1    2    0    0  0.00000000000E+00  0.00000000000E+00  0.26968136897E+03  0.16222898303E+04  0.15997175540E+04 0.  0.
        4    1    3    3  502    0  0.22986377680E+03  0.21694410399E+03 -0.61028558292E+03  0.68727884135E+03  0.12699999809E+01 0.  1.
       -4    1    3    3    0  502 -0.22986377680E+03 -0.21694410399E+03  0.87996695189E+03  0.93501098895E+03  0.12699999809E+01 0. -1.
</event>
<event>
 5   0  0.2046108E-05  0.1600051E+04  0.7818609E-02  0.8820517E-01
       -2   -1    0    0    0  501  0.00000000000E+00  0.00000000000E+00  0.47440278724E+03  0.47440278725E+03  0.25500000920E-02 0.  1.
        2   -1    0    0  501    0  0.00000000000E+00  0.00000000000E+00 -0.13491504327E+04  0.13491504327E+04  0.25500000920E-02 0. -1.
    10030    2    1    2    0    0  0.00000000000E+00  0.00000000000E+00 -0.87474764547E+03  0.18235532200E+04  0.16000509063E+04 0.  0.
        1    1    3    3  502    0  0.12216165027E+03 -0.70827159107E+03 -0.83783730751E+03  0.11038765644E+04  0.50400001928E-02 0. -1.
       -1    1    3    3    0  502 -0.12216165027E+03  0.70827159107E+03 -0.36910337959E+02  0.71967665558E+03  0.50400001928E-02 0.  1.
</event>
<event>
 5   0  0.2125803E-05  0.1600920E+04  0.7818609E-02  0.8819983E-01
        2   -1    0    0  501    0  0.00000000000E+00  0.00000000000E+00  0.69164776836E+03  0.69164776837E+03  0.25500000920E-02 0.  1.
       -2   -1    0    0    0  501  0.00000000000E+00  0.00000000000E+00 -0.92639146199E+03  0.92639146200E+03  0.25500000920E-02 0. -1.
    10030    2    1    2    0    0  0.00000000000E+00  0.00000000000E+00 -0.23474369363E+03  0.16180392304E+04  0.16009204694E+04 0.  0.
        3    1    3    3  502    0 -0.30196936088E+03  0.30318671584E+03 -0.80108826681E+03  0.90821258580E+03  0.10100000352E+00 0. -1.
       -3    1    3    3    0  502  0.30196936088E+03 -0.30318671584E+03  0.56634457318E+03  0.70982664457E+03  0.10100000352E+00 0.  1.
</event>
<event>
 5   0  0.2125803E-05  0.1600595E+04  0.7818609E-02  0.8820183E-01
        2   -1    0    0  501    0  0.00000000000E+00  0.00000000000E+00  0.12118653099E+04  0.12118653100E+04  0.25500000920E-02 0.  1.
       -2   -1    0    0    0  501  0.00000000000E+00  0.00000000000E+00 -0.52850431609E+03  0.52850431610E+03  0.25500000920E-02 0. -1.
    10030    2    1    2    0    0  0.00000000000E+00  0.00000000000E+00  0.68336099386E+03  0.17403696260E+04  0.16005949479E+04 0.  0.
        3    1    3    3  502    0  0.66403738322E+03 -0.43934196229E+03  0.25395654137E+03  0.83573975689E+03  0.10100000352E+00 0. -1.
       -3    1    3    3    0  502 -0.66403738322E+03  0.43934196229E+03  0.42940445249E+03  0.90462986915E+03  0.10100000352E+00 0.  1.
</event>
<event>
 5   0  0.1994525E-05  0.1600081E+04  0.7818609E-02  0.8820498E-01
        2   -1    0    0  501    0  0.00000000000E+00  0.00000000000E+00  0.12019128067E+04  0.12019128067E+04  0.25500000920E-02 0. -1.
       -2   -1    0    0    0  501  0.00000000000E+00  0.00000000000E+00 -0.53253863212E+03  0.53253863212E+03  0.25500000920E-02 0.  1.
    10030    2    1    2    0    0  0.00000000000E+00  0.00000000000E+00  0.66937417460E+03  0.17344514388E+04  0.16000812505E+04 0.  0.
        5    1    3    3  502    0 -0.45193987985E+03 -0.28180744894E+03 -0.31241893471E+03  0.61748908820E+03  0.46999998093E+01 0.  1.
       -5    1    3    3    0  502  0.45193987985E+03  0.28180744894E+03  0.98179310930E+03  0.11169623506E+04  0.46999998093E+01 0. -1.
</event>
<event>
 5   0  0.1081831E-05  0.1597942E+04  0.7818609E-02  0.8821813E-01
       -1   -1    0    0    0  501  0.00000000000E+00  0.00000000000E+00  0.68673256407E+03  0.68673256409E+03  0.50400001928E-02 0.  1.
        1   -1    0    0  501    0  0.00000000000E+00  0.00000000000E+00 -0.92955400483E+03  0.92955400485E+03  0.50400001928E-02 0. -1.
    10030    2    1    2    0    0  0.00000000000E+00  0.00000000000E+00 -0.24282144077E+03  0.16162865689E+04  0.15979424335E+04 0.  0.
        3    1    3    3  502    0 -0.13254058968E+03  0.50727891263E+03 -0.73120480994E+03  0.89975518191E+03  0.10100000352E+00 0. -1.
       -3    1    3    3    0  502  0.13254058968E+03 -0.50727891263E+03  0.48838336917E+03  0.71653138702E+03  0.10100000352E+00 0.  1.
</event>
<event>
 5   0  0.1090674E-05  0.1599919E+04  0.7818609E-02  0.8820598E-01
       -1   -1    0    0    0  501  0.00000000000E+00  0.00000000000E+00  0.70579864089E+03  0.70579864091E+03  0.50400001928E-02 0. -1.
        1   -1    0    0  501    0  0.00000000000E+00  0.00000000000E+00 -0.90668213853E+03  0.90668213855E+03  0.50400001928E-02 0.  1.
    10030    2    1    2    0    0  0.00000000000E+00  0.00000000000E+00 -0.20088349764E+03  0.16124807795E+04  0.15999187743E+04 0.  0.
        4    1    3    3  502    0 -0.95958661003E+02 -0.55529213405E+03  0.47179791380E+03  0.73495054468E+03  0.12699999809E+01 0. -1.
       -4    1    3    3    0  502  0.95958661003E+02  0.55529213405E+03 -0.67268141144E+03  0.87753023478E+03  0.12699999809E+01 0.  1.
</event>
<event>
 5   0  0.1990948E-05  0.1599642E+04  0.7818609E-02  0.8820768E-01
       -2   -1    0    0    0  501  0.00000000000E+00  0.00000000000E+00  0.76016764636E+03  0.76016764636E+03  0.25500000920E-02 0.  1.
        2   -1    0    0  501    0  0.00000000000E+00  0.00000000000E+00 -0.84154256429E+03  0.84154256429E+03  0.25500000920E-02 0. -1.
    10030    2    1    2    0    0  0.00000000000E+00  0.00000000000E+00 -0.81374917929E+02  0.16017102107E+04  0.15996417479E+04 0.  0.
        4    1    3    3  502    0  0.73744382333E+02  0.48829686330E+03 -0.67065898427E+03  0.83286082074E+03  0.12699999809E+01 0. -1.
       -4    1    3    3    0  502 -0.73744382333E+02 -0.48829686330E+03  0.58928406634E+03  0.76884938992E+03  0.12699999809E+01 0.  1.
</event>
<event>
 5   0  0.1081831E-05  0.1600346E+04  0.7818609E-02  0.8820335E-01
       -1   -1    0    0    0  501  0.00000000000E+00  0.00000000000E+00  0.55762628382E+03  0.55762628385E+03  0.50400001928E-02 0. -1.
        1   -1    0    0  501    0  0.00000000000E+00  0.00000000000E+00 -0.11482185817E+04  0.11482185818E+04  0.50400001928E-02 0.  1.
    10030    2    1    2    0    0  0.00000000000E+00  0.00000000000E+00 -0.59059229792E+03  0.17058448656E+04  0.16003460386E+04 0.  0.
        3    1    3    3  502    0  0.14807370281E+03 -0.36484897227E+03  0.44721376261E+03  0.59585296315E+03  0.10100000352E+00 0. -1.
       -3    1    3    3    0  502 -0.14807370281E+03  0.36484897227E+03 -0.10378060605E+04  0.11099919025E+04  0.10100000352E+00 0.  1.
</event>
<event>
 5   0  0.1126485E-05  0.1601457E+04  0.7818609E-02  0.8819653E-01
        1   -1    0    0  501    0  0.00000000000E+00  0.00000000000E+00  0.93554196382E+03  0.93554196383E+03  0.50400001928E-02 0. -1.
       -1   -1    0    0    0  501  0.00000000000E+00  0.00000000000E+00 -0.68534206052E+03  0.68534206054E+03  0.50400001928E-02 0.  1.
    10030    2    1    2    0    0  0.00000000000E+00  0.00000000000E+00  0.25019990330E+03  0.16208840244E+04  0.16014571580E+04 0.  0.
        2    1    3    3  502    0 -0.85040167926E+01 -0.79639975854E+03  0.41384051767E+02  0.79751961321E+03  0.25500000920E-02 0.  1.
       -2    1    3    3    0  502  0.85040167926E+01  0.79639975854E+03  0.20881585154E+03  0.82336441116E+03  0.25500000920E-02 0. -1.
</event>
<event>
 5   0  0.1081831E-05  0.1598737E+04  0.7818609E-02  0.8821324E-01
       -1   -1    0    0    0  501  0.00000000000E+00  0.00000000000E+00  0.70703509321E+03  0.70703509323E+03  0.50400001928E-02 0.  1.
        1   -1    0    0  501    0  0.00000000000E+00  0.00000000000E+00 -0.90375957909E+03  0.90375957911E+03  0.50400001928E-02 0. -1.
    10030    2    1    2    0    0  0.00000000000E+00  0.00000000000E+00 -0.19672448588E+03  0.16107946723E+04  0.15987366741E+04 0.  0.
        3    1    3    3  502    0 -0.33766486319E+03 -0.66523044446E+03  0.19092806393E+03  0.77006664637E+03  0.10100000352E+00 0.  1.
       -3    1    3    3    0  502  0.33766486319E+03  0.66523044446E+03 -0.38765254981E+03  0.84072802596E+03  0.10100000352E+00 0. -1.
</event>
<event>
 5   0  0.1081831E-05  0.1597045E+04  0.7818609E-02  0.8822366E-01
       -1   -1    0    0    0  501  0.00000000000E+00  0.00000000000E+00  0.38896231887E+03  0.38896231890E+03  0.50400001928E-02 0.  1.
        1   -1    0    0  501    0  0.00000000000E+00  0.00000000000E+00 -0.16393308698E+04  0.16393308698E+04  0.50400001928E-02 0. -1.
    10030    2    1    2    0    0  0.00000000000E+00  0.00000000000E+00 -0.12503685509E+04  0.20282931887E+04  0.15970446913E+04 0.  0.
        3    1    3    3  502    0 -0.11631619480E+02  0.56913391209E+03  0.86019783350E+02  0.57571530967E+03  0.10100000352E+00 0.  1.
       -3    1    3    3    0  502  0.11631619480E+02 -0.56913391209E+03 -0.13363883342E+04  0.14525778790E+04  0.10100000352E+00 0. -1.
</event>
<event>
 5   0  0.1057506E-05  0.1598561E+04  0.7818609E-02  0.8821432E-01
        1   -1    0    0  501    0  0.00000000000E+00  0.00000000000E+00  0.62526851553E+03  0.62526851555E+03  0.50400001928E-02 0.  1.
       -1   -1    0    0    0  501  0.00000000000E+00  0.00000000000E+00 -0.10217205766E+04  0.10217205766E+04  0.50400001928E-02 0. -1.
    10030    2    1    2    0    0  0.00000000000E+00  0.00000000000E+00 -0.39645206110E+03  0.16469890922E+04  0.15985614887E+04 0.  0.
        5    1    3    3  502    0  0.40508558267E+03 -0.55717217024E+03 -0.61583536288E+03  0.92401863658E+03  0.46999998093E+01 0. -1.
       -5    1    3    3    0  502 -0.40508558267E+03  0.55717217024E+03  0.21938330178E+03  0.72297045561E+03  0.46999998093E+01 0.  1.
</event>
<event>
 5   0  0.1126485E-05  0.1599954E+04  0.7818609E-02  0.8820576E-01
       -1   -1    0    0    0  501  0.00000000000E+00  0.00000000000E+00  0.32369603577E+03  0.32369603581E+03  0.50400001928E-02 0. -1.
        1   -1    0    0  501    0  0.00000000000E+00  0.00000000000E+00 -0.19770493596E+04  0.19770493596E+04  0.50400001928E-02 0.  1.
    10030    2    1    2    0    0  0.00000000000E+00  0.00000000000E+00 -0.16533533238E+04  0.23007453954E+04  0.15999537997E+04 0.  0.
        2    1    3    3  502    0 -0.33723817943E+03  0.53256406221E+03 -0.15349722663E+04  0.16593655198E+04  0.25500000920E-02 0.  1.
       -2    1    3    3    0  502  0.33723817943E+03 -0.53256406221E+03 -0.11838105750E+03  0.64137987558E+03  0.25500000920E-02 0. -1.
</event>
<event>
 5   0  0.7597000E-06  0.1600751E+04  0.7818609E-02  0.8820087E-01
        3   -1    0    0  501    0  0.00000000000E+00  0.00000000000E+00  0.11369286951E+04  0.11369286996E+04  0.10100000352E+00 0. -1.
       -3   -1    0    0    0  501  0.00000000000E+00  0.00000000000E+00 -0.56344832409E+03  0.56344833314E+03  0.10100000352E+00 0.  1.
    10030    2    1    2    0    0  0.00000000000E+00  0.00000000000E+00  0.57348037098E+03  0.17003770327E+04  0.16007505482E+04 0.  0.
        5    1    3    3  502    0  0.58944752981E+03 -0.47044738360E+03  0.57139077901E+03  0.94619165261E+03  0.46999998093E+01 0. -1.
       -5    1    3    3    0  502 -0.58944752981E+03  0.47044738360E+03  0.20895919757E+01  0.75418538008E+03  0.46999998093E+01 0.  1.
</event>
<event>
 5   0  0.1126485E-05  0.1600003E+04  0.7818609E-02  0.8820546E-01
       -1   -1    0    0    0  501  0.00000000000E+00  0.00000000000E+00  0.42596855754E+03  0.42596855757E+03  0.50400001928E-02 0.  1.
        1   -1    0    0  501    0  0.00000000000E+00  0.00000000000E+00 -0.15024643525E+04  0.15024643525E+04  0.50400001928E-02 0. -1.
    10030    2    1    2    0    0  0.00000000000E+00  0.00000000000E+00 -0.10764957949E+04  0.19284329100E+04  0.16000032163E+04 0.  0.
        2    1    3    3  502    0  0.47808289898E+03  0.10733014359E+03  0.22395395331E+03  0.53873777595E+03  0.25500000920E-02 0.  1.
       -2    1    3    3    0  502 -0.47808289898E+03 -0.10733014359E+03 -0.13004497482E+04  0.13896951341E+04  0.25500000920E-02 0. -1.
</event>
<event>
 5   0  0.1994525E-05  0.1600403E+04  0.7818609E-02  0.8820301E-01
       -2   -1    0    0    0  501  0.00000000000E+00  0.00000000000E+00  0.11145762091E+04  0.11145762091E+04  0.25500000920E-02 0. -1.
        2   -1    0    0  501    0  0.00000000000E+00  0.00000000000E+00 -0.57449829427E+03  0.57449829428E+03  0.25500000920E-02 0.  1.
    10030    2    1    2    0    0  0.00000000000E+00  0.00000000000E+00  0.54007791481E+03  0.16890745034E+04  0.16004026130E+04 0.  0.
        5    1    3    3  502    0  0.40759799003E+01  0.92328904083E+02 -0.56883208862E+03  0.57631005126E+03  0.46999998093E+01 0.  1.
       -5    1    3    3    0  502 -0.40759799003E+01 -0.92328904083E+02  0.11089100034E+04  0.11127644521E+04  0.46999998093E+01 0. -1.
</event>
<event>
 5   0  0.1081831E-05  0.1600013E+04  0.7818609E-02  0.8820540E-01
       -1   -1    0    0    0  501  0.00000000000E+00  0.00000000000E+00  0.49549351900E+03  0.49549351903E+03  0.50400001928E-02 0.  1.
        1   -1    0    0  501    0  0.00000000000E+00  0.00000000000E+00 -0.12916620745E+04  0.12916620745E+04  0.50400001928E-02 0. -1.
    10030    2    1    2    0    0  0.00000000000E+00  0.00000000000E+00 -0.79616855553E+03  0.17871555936E+04  0.16000127333E+04 0.  0.
        3    1    3    3  502    0 -0.70794434971E+02  0.71736250760E+02 -0.12845424807E+04  0.12884903324E+04  0.10100000352E+00 0. -1.
       -3    1    3    3    0  502  0.70794434971E+02 -0.71736250760E+02  0.48837392519E+03  0.49866526118E+03  0.10100000352E+00 0.  1.
</event>
<event>
 5   0  0.1994525E-05  0.1599920E+04  0.7818609E-02  0.8820597E-01
        2   -1    0    0  501    0  0.00000000000E+00  0.00000000000E+00  0.56024234059E+03  0.56024234060E+03  0.25500000920E-02 0. -1.
       -2   -1    0    0    0  501  0.00000000000E+00  0.00000000000E+00 -0.11422486570E+04  0.11422486570E+04  0.25500000920E-02 0.  1.
    10030    2    1    2    0    0  0.00000000000E+00  0.00000000000E+00 -0.58200631644E+03  0.17024909976E+04  0.15999200745E+04 0.  0.
        5    1    3    3  502    0  0.23052022051E+03 -0.56885358910E+03  0.25489668839E+03  0.66462650387E+03  0.46999998093E+01 0. -1.
       -5    1    3    3    0  502 -0.23052022051E+03  0.56885358910E+03 -0.83690300484E+03  0.10378644938E+04  0.46999998093E+01 0.  1.
</event>
<event>
 5   0  0.1081831E-05  0.1599652E+04  0.7818609E-02  0.8820762E-01
        1   -1    0    0  501    0  0.00000000000E+00  0.00000000000E+00  0.17104603459E+04  0.17104603459E+04  0.50400001928E-02 0.  1.
       -1   -1    0    0    0  501  0.00000000000E+00  0.00000000000E+00 -0.37400556716E+03  0.37400556719E+03  0.50400001928E-02 0. -1.
    10030    2    1    2    0    0  0.00000000000E+00  0.00000000000E+00  0.13364547788E+04  0.20844659131E+04  0.15996520769E+04 0.  0.
        3    1    3    3  502    0  0.62947049081E+03 -0.47155979197E+03  0.85759934279E+03  0.11636487353E+04  0.10100000352E+00 0. -1.
       -3    1    3    3    0  502 -0.62947049081E+03  0.47155979197E+03  0.47885543597E+03  0.92081717782E+03  0.10100000352E+00 0.  1.
</event>
<event>
 5   0  0.1990948E-05  0.1599160E+04  0.7818609E-02  0.8821064E-01
        2   -1    0    0  501    0  0.00000000000E+00  0.00000000000E+00  0.23096367023E+04  0.23096367023E+04  0.25500000920E-02 0.  1.
       -2   -1    0    0    0  501  0.00000000000E+00  0.00000000000E+00 -0.27680908072E+03  0.27680908073E+03  0.25500000920E-02 0. -1.
    10030    2    1    2    0    0  0.00000000000E+00  0.00000000000E+00  0.20328276216E+04  0.25864457830E+04  0.15991602951E+04 0.  0.
        4    1    3    3  502    0  0.57478110048E+03  0.22733739861E+03  0.18367785044E+04  0.19379918714E+04  0.12699999809E+01 0.  1.
       -4    1    3    3    0  502 -0.57478110048E+03 -0.22733739861E+03  0.19604911712E+03  0.64845391162E+03  0.12699999809E+01 0. -1.
</event>
<event>
 5   0  0.1090674E-05  0.1600331E+04  0.7818609E-02  0.8820345E-01
        1   -1    0    0  501    0  0.00000000000E+00  0.00000000000E+00  0.11765961340E+04  0.11765961340E+04  0.50400001928E-02 0.  1.
       -1   -1    0    0    0  501  0.00000000000E+00  0.00000000000E+00 -0.54416710843E+03  0.54416710846E+03  0.50400001928E-02 0. -1.
    10030    2    1    2    0    0  0.00000000000E+00  0.00000000000E+00  0.63242902559E+03  0.17207632425E+04  0.16003311108E+04 0.  0.
        4    1    3    3  502    0  0.54707607665E+02 -0.23038485230E+03 -0.50562973786E+03  0.55833067909E+03  0.12699999809E+01 0. -1.
       -4    1    3    3    0  502 -0.54707607665E+02  0.23038485230E+03  0.11380587634E+04  0.11624325634E+04  0.12699999809E+01 0.  1.
</event>
<event>
 5   0  0.1990948E-05  0.1599937E+04  0.7818609E-02  0.8820587E-01
        2   -1    0    0  501    0  0.00000000000E+00  0.00000000000E+00  0.10045066269E+04  0.10045066269E+04  0.25500000920E-02 0.  1.
       -2   -1    0    0    0  501  0.00000000000E+00  0.00000000000E+00 -0.63707859352E+03  0.63707859353E+03  0.25500000920E-02 0. -1.
    10030    2    1    2    0    0  0.00000000000E+00  0.00000000000E+00  0.36742803342E+03  0.16415852205E+04  0.15999370851E+04 0.  0.
        4    1    3    3  502    0  0.43097965315E+03 -0.67238566493E+03  0.23075631050E+03  0.83132185799E+03  0.12699999809E+01 0. -1.
       -4    1    3    3    0  502 -0.43097965315E+03  0.67238566493E+03  0.13667172292E+03  0.81026336248E+03  0.12699999809E+01 0.  1.
</event>
<event>
 5   0  0.2147844E-05  0.1597647E+04  0.7818609E-02  0.8821995E-01
       -2   -1    0    0    0  501  0.00000000000E+00  0.00000000000E+00  0.26624341592E+03  0.26624341593E+03  0.25500000920E-02 0.  1.
        2   -1    0    0  501    0  0.00000000000E+00  0.00000000000E+00 -0.23967508621E+04  0.23967508621E+04  0.25500000920E-02 0. -1.
    10030    2    1    2    0    0  0.00000000000E+00  0.00000000000E+00 -0.21305074462E+04  0.26629942780E+04  0.15976471909E+04 0.  0.
        2    1    3    3  502    0 -0.78776650760E+03 -0.13049859008E+03 -0.10274942471E+04  0.13012879698E+04  0.25500000920E-02 0. -1.
       -2    1    3    3    0  502  0.78776650760E+03  0.13049859008E+03 -0.11030131991E+04  0.13617063082E+04  0.25500000920E-02 0.  1.
</event>
<event>
 5   0  0.1060251E-05  0.1599888E+04  0.7818609E-02  0.8820617E-01
       -1   -1    0    0    0  501  0.00000000000E+00  0.00000000000E+00  0.89140170230E+03  0.89140170232E+03  0.50400001928E-02 0.  1.
        1   -1    0    0  501    0  0.00000000000E+00  0.00000000000E+00 -0.71786978093E+03  0.71786978095E+03  0.50400001928E-02 0. -1.
    10030    2    1    2    0    0  0.00000000000E+00  0.00000000000E+00  0.17353192137E+03  0.16092714833E+04  0.15998879271E+04 0.  0.
        1    1    3    3  502    0 -0.33505105430E+02  0.41524779365E+03 -0.60014273592E+03  0.73056459381E+03  0.50400001928E-02 0. -1.
       -1    1    3    3    0  502  0.33505105430E+02 -0.41524779365E+03  0.77367465729E+03  0.87870688946E+03  0.50400001928E-02 0.  1.
</event>
<event>
 5   0  0.7597000E-06  0.1599755E+04  0.7818609E-02  0.8820699E-01
        3   -1    0    0  501    0  0.00000000000E+00  0.00000000000E+00  0.15772998054E+04  0.15772998086E+04  0.10100000352E+00 0.  1.
       -3   -1    0    0    0  501  0.00000000000E+00  0.00000000000E+00 -0.40563230727E+03  0.40563231985E+03  0.10100000352E+00 0. -1.
    10030    2    1    2    0    0  0.00000000000E+00  0.00000000000E+00  0.11716674981E+04  0.19829321284E+04  0.15997546999E+04 0.  0.
        1    1    3    3  502    0  0.61890749896E+03  0.45148553418E+03  0.30069479250E+03  0.82298422714E+03  0.50400001928E-02 0. -1.
       -1    1    3    3    0  502 -0.61890749896E+03 -0.45148553418E+03  0.87097270558E+03  0.11599479013E+04  0.50400001928E-02 0.  1.
</event>
<event>
 5   0  0.1060251E-05  0.1599848E+04  0.7818609E-02  0.8820642E-01
        1   -1    0    0  501    0  0.00000000000E+00  0.00000000000E+00  0.16717255270E+04  0.16717255271E+04  0.50400001928E-02 0.  1.
       -1   -1    0    0    0  501  0.00000000000E+00  0.00000000000E+00 -0.38276507598E+03  0.38276507602E+03  0.50400001928E-02 0. -1.
    10030    2    1    2    0    0  0.00000000000E+00  0.00000000000E+00  0.12889604511E+04  0.20544906031E+04  0.15998476783E+04 0.  0.
        1    1    3    3  502    0 -0.33414597798E+03  0.40008971075E+03 -0.13470300952E+03  0.53839596214E+03  0.50400001928E-02 0. -1.
       -1    1    3    3    0  502  0.33414597798E+03 -0.40008971075E+03  0.14236634606E+04  0.15160946409E+04  0.50400001928E-02 0.  1.
</event>
<event>
 5   0  0.1994525E-05  0.1599714E+04  0.7818609E-02  0.8820724E-01
        2   -1    0    0  501    0  0.00000000000E+00  0.00000000000E+00  0.73041198272E+03  0.73041198272E+03  0.25500000920E-02 0.  1.
       -2   -1    0    0    0  501  0.00000000000E+00  0.00000000000E+00 -0.87590467305E+03  0.87590467306E+03  0.25500000920E-02 0. -1.
    10030    2    1    2    0    0  0.00000000000E+00  0.00000000000E+00 -0.14549269034E+03  0.16063166558E+04  0.15997140606E+04 0.  0.
        5    1    3    3  502    0  0.83863712677E+02  0.47555474571E+03 -0.71300155664E+03  0.86114966657E+03  0.46999998093E+01 0. -1.
       -5    1    3    3    0  502 -0.83863712677E+02 -0.47555474571E+03  0.56750886630E+03  0.74516698921E+03  0.46999998093E+01 0.  1.
</event>
<event>
 5   0  0.2125803E-05  0.1599978E+04  0.7818609E-02  0.8820561E-01
       -2   -1    0    0    0  501  0.00000000000E+00  0.00000000000E+00  0.71349918236E+03  0.71349918236E+03  0.25500000920E-02 0. -1.
        2   -1    0    0  501    0  0.00000000000E+00  0.00000000000E+00 -0.89696352753E+03  0.89696352753E+03  0.25500000920E-02 0.  1.
    10030    2    1    2    0    0  0.00000000000E+00  0.00000000000E+00 -0.18346434517E+03  0.16104627099E+04  0.15999784292E+04 0.  0.
        3    1    3    3  502    0  0.69140422388E+03 -0.60314708774E+02 -0.49221505269E+03  0.85085447239E+03  0.10100000352E+00 0.  1.
       -3    1    3    3    0  502 -0.69140422388E+03  0.60314708774E+02  0.30875070752E+03  0.75960823751E+03  0.10100000352E+00 0. -1.
</event>
<event>
 5   0  0.1994525E-05  0.1600139E+04  0.7818609E-02  0.8820463E-01
        2   -1    0    0  501    0  0.00000000000E+00  0.00000000000E+00  0.11291869678E+04  0.11291869678E+04  0.25500000920E-02 0.  1.
       -2   -1    0    0    0  501  0.00000000000E+00  0.00000000000E+00 -0.56687808641E+03  0.56687808641E+03  0.25500000920E-02 0. -1.
    10030    2    1    2    0    0  0.00000000000E+00  0.00000000000E+00  0.56230888135E+03  0.16960650542E+04  0.16001391783E+04 0.  0.
        5    1    3    3  502    0 -0.42601663261E+03  0.15406566409E+03 -0.41781937171E+03  0.61629661485E+03  0.46999998093E+01 0. -1.
       -5    1    3    3    0  502  0.42601663261E+03 -0.15406566409E+03  0.98012825305E+03  0.10797684393E+04  0.46999998093E+01 0.  1.
</event>
<event>
 5   0  0.1126485E-05  0.1600793E+04  0.7818609E-02  0.8820061E-01
        1   -1    0    0  501    0  0.00000000000E+00  0.00000000000E+00  0.10997518277E+04  0.10997518277E+04  0.50400001928E-02 0. -1.
       -1   -1    0    0    0  501  0.00000000000E+00  0.00000000000E+00 -0.58252664948E+03  0.58252664950E+03  0.50400001928E-02 0.  1.
    10030    2    1    2    0    0  0.00000000000E+00  0.00000000000E+00  0.51722517825E+03  0.16822784772E+04  0.16007932377E+04 0.  0.
        2    1    3    3  502    0 -0.86844448818E+02  0.48469737689E+03  0.92173260785E+03  0.10450189021E+04  0.25500000920E-02 0. -1.
       -2    1    3    3    0  502  0.86844448818E+02 -0.48469737689E+03 -0.40450742959E+03  0.63725957510E+03  0.25500000920E-02 0.  1.
</event>
<event>
 5   0  0.1990948E-05  0.1599746E+04  0.7818609E-02  0.8820704E-01
        2   -1    0    0  501    0  0.00000000000E+00  0.00000000000E+00  0.13323897547E+04  0.13323897547E+04  0.25500000920E-02 0. -1.
       -2   -1    0    0    0  501  0.00000000000E+00  0.00000000000E+00 -0.48018716152E+03  0.48018716153E+03  0.25500000920E-02 0.  1.
    10030    2    1    2    0    0  0.00000000000E+00  0.00000000000E+00  0.85220259318E+03  0.18125769162E+04  0.15997455477E+04 0.  0.
        4    1    3    3  502    0 -0.55486108895E+03  0.19597649264E+03 -0.18774880650E+03  0.61768020928E+03  0.12699999809E+01 0.  1.
       -4    1    3    3    0  502  0.55486108895E+03 -0.19597649264E+03  0.10399513997E+04  0.11948967070E+04  0.12699999809E+01 0. -1.
</event>
<event>
 5   0  0.1060251E-05  0.1602890E+04  0.7818609E-02  0.8818775E-01
       -1   -1    0    0    0  501  0.00000000000E+00  0.00000000000E+00  0.11427415211E+04  0.11427415211E+04  0.50400001928E-02 0.  1.
        1   -1    0    0  501    0  0.00000000000E+00  0.00000000000E+00 -0.56208168691E+03  0.56208168694E+03  0.50400001928E-02 0. -1.
    10030    2    1    2    0    0  0.00000000000E+00  0.00000000000E+00  0.58065983415E+03  0.17048232080E+04  0.16028899923E+04 0.  0.
        1    1    3    3  502    0  0.31106999970E+03 -0.29224183842E+03  0.10118071465E+04  0.10981454997E+04  0.50400001928E-02 0.  1.
       -1    1    3    3    0  502 -0.31106999970E+03  0.29224183842E+03 -0.43114731231E+03  0.60667770832E+03  0.50400001928E-02 0. -1.
</event>
<event>
 5   0  0.2125803E-05  0.1599402E+04  0.7818609E-02  0.8820915E-01
        2   -1    0    0  501    0  0.00000000000E+00  0.00000000000E+00  0.12287099300E+04  0.12287099300E+04  0.25500000920E-02 0.  1.
       -2   -1    0    0    0  501  0.00000000000E+00  0.00000000000E+00 -0.52048228247E+03  0.52048228248E+03  0.25500000920E-02 0. -1.
    10030    2    1    2    0    0  0.00000000000E+00  0.00000000000E+00  0.70822764749E+03  0.17491922124E+04  0.15994020743E+04 0.  0.
        3    1    3    3  502    0 -0.37440506805E+03 -0.44825011843E+03 -0.24331996240E+03  0.63270209258E+03  0.10100000352E+00 0. -1.
       -3    1    3    3    0  502  0.37440506805E+03  0.44825011843E+03  0.95154760989E+03  0.11164901199E+04  0.10100000352E+00 0.  1.
</event>
<event>
 5   0  0.1060251E-05  0.1599401E+04  0.7818609E-02  0.8820916E-01
        1   -1    0    0  501    0  0.00000000000E+00  0.00000000000E+00  0.11183718748E+04  0.11183718748E+04  0.50400001928E-02 0. -1.
       -1   -1    0    0    0  501  0.00000000000E+00  0.00000000000E+00 -0.57183236294E+03  0.57183236296E+03  0.50400001928E-02 0.  1.
    10030    2    1    2    0    0  0.00000000000E+00  0.00000000000E+00  0.54653951183E+03  0.16902042377E+04  0.15994014278E+04 0.  0.
        1    1    3    3  502    0  0.64442710464E+03  0.55087522265E+02  0.77029055827E+03  0.10058173157E+04  0.50400001928E-02 0. -1.
       -1    1    3    3    0  502 -0.64442710464E+03 -0.55087522265E+02 -0.22375104644E+03  0.68438692208E+03  0.50400001928E-02 0.  1.
</event>
<event>
 5   0  0.1994525E-05  0.1599835E+04  0.7818609E-02  0.8820649E-01
        2   -1    0    0  501    0  0.00000000000E+00  0.00000000000E+00  0.22386808962E+04  0.22386808962E+04  0.25500000920E-02 0. -1.
       -2   -1    0    0    0  501  0.00000000000E+00  0.00000000000E+00 -0.28582365788E+03  0.28582365789E+03  0.25500000920E-02 0.  1.
    10030    2    1    2    0    0  0.00000000000E+00  0.00000000000E+00  0.19528572384E+04  0.25245045541E+04  0.15998349447E+04 0.  0.
        5    1    3    3  502    0 -0.50244314144E+03 -0.19061871423E+03  0.41469895163E+02  0.53900505266E+03  0.46999998093E+01 0.  1.
       -5    1    3    3    0  502  0.50244314144E+03  0.19061871423E+03  0.19113873432E+04  0.19854995015E+04  0.46999998093E+01 0. -1.
</event>
<event>
 5   0  0.7597000E-06  0.1600617E+04  0.7818609E-02  0.8820169E-01
        3   -1    0    0  501    0  0.00000000000E+00  0.00000000000E+00  0.18036221609E+04  0.18036221637E+04  0.10100000352E+00 0. -1.
       -3   -1    0    0    0  501  0.00000000000E+00  0.00000000000E+00 -0.35511526554E+03  0.35511527990E+03  0.10100000352E+00 0.  1.
    10030    2    1    2    0    0  0.00000000000E+00  0.00000000000E+00  0.14485068953E+04  0.21587374436E+04  0.16006171074E+04 0.  0.
        3    1    3    3  502    0  0.31620765003E+03  0.11272278695E+03 -0.25556833555E+03  0.42191099651E+03  0.10100000352E+00 0.  1.
       -3    1    3    3    0  502 -0.31620765003E+03 -0.11272278695E+03  0.17040752309E+04  0.17368264471E+04  0.10100000352E+00 0. -1.
</event>
<event>
 5   0  0.1090674E-05  0.1601949E+04  0.7818609E-02  0.8819352E-01
        1   -1    0    0  501    0  0.00000000000E+00  0.00000000000E+00  0.86231050069E+03  0.86231050071E+03  0.50400001928E-02 0. -1.
       -1   -1    0    0    0  501  0.00000000000E+00  0.00000000000E+00 -0.74400129650E+03  0.74400129652E+03  0.50400001928E-02 0.  1.
    10030    2    1    2    0    0  0.00000000000E+00  0.00000000000E+00  0.11830920419E+03  0.16063117972E+04  0.16019489761E+04 0.  0.
        4    1    3    3  502    0 -0.27689844221E+03  0.74628103360E+03 -0.30253188907E+02  0.79657077322E+03  0.12699999809E+01 0.  1.
       -4    1    3    3    0  502  0.27689844221E+03 -0.74628103360E+03  0.14856239310E+03  0.80974102400E+03  0.12699999809E+01 0. -1.
</event>
<event>
 5   0  0.2147844E-05  0.1599823E+04  0.7818609E-02  0.8820657E-01
        2   -1    0    0  501    0  0.00000000000E+00  0.00000000000E+00  0.10612230342E+04  0.10612230342E+04  0.25500000920E-02 0.  1.
       -2   -1    0    0    0  501  0.00000000000E+00  0.00000000000E+00 -0.60294413189E+03  0.60294413189E+03  0.25500000920E-02 0. -1.
    10030    2    1    2    0    0  0.00000000000E+00  0.00000000000E+00  0.45827890236E+03  0.16641671661E+04  0.15998227416E+04 0.  0.
        2    1    3    3  502    0 -0.10375569688E+03 -0.67260680963E+03  0.66639446676E+03  0.95249501328E+03  0.25500000920E-02 0.  1.
       -2    1    3    3    0  502  0.10375569688E+03  0.67260680963E+03 -0.20811556441E+03  0.71167215285E+03  0.25500000920E-02 0. -1.
</event>
<event>
 5   0  0.2125803E-05  0.1600013E+04  0.7818609E-02  0.8820540E-01
       -2   -1    0    0    0  501  0.00000000000E+00  0.00000000000E+00  0.12517906736E+04  0.12517906736E+04  0.25500000920E-02 0. -1.
        2   -1    0    0  501    0  0.00000000000E+00  0.00000000000E+00 -0.51127602440E+03  0.51127602441E+03  0.25500000920E-02 0.  1.
    10030    2    1    2    0    0  0.00000000000E+00  0.00000000000E+00  0.74051464922E+03  0.17630666980E+04  0.16000131987E+04 0.  0.
        3    1    3    3  502    0 -0.43339071408E+03 -0.57091418116E+03  0.76176811046E+03  0.10459737939E+04  0.10100000352E+00 0. -1.
       -3    1    3    3    0  502  0.43339071408E+03  0.57091418116E+03 -0.21253461231E+02  0.71709290410E+03  0.10100000352E+00 0.  1.
</event>
<event>
 5   0  0.1057506E-05  0.1599561E+04  0.7818609E-02  0.8820818E-01
       -1   -1    0    0    0  501  0.00000000000E+00  0.00000000000E+00  0.10617819669E+04  0.10617819669E+04  0.50400001928E-02 0. -1.
        1   -1    0    0  501    0  0.00000000000E+00  0.00000000000E+00 -0.60242965212E+03  0.60242965214E+03  0.50400001928E-02 0.  1.
    10030    2    1    2    0    0  0.00000000000E+00  0.00000000000E+00  0.45935231480E+03  0.16642116191E+04  0.15995611160E+04 0.  0.
        5    1    3    3  502    0  0.47353944726E+02 -0.27371698487E+03  0.10099640556E+04  0.10474792922E+04  0.46999998093E+01 0. -1.
       -5    1    3    3    0  502 -0.47353944726E+02  0.27371698487E+03 -0.55061174084E+03  0.61673232689E+03  0.46999998093E+01 0.  1.
</event>
<event>
 5   0  0.7597000E-06  0.1599671E+04  0.7818609E-02  0.8820750E-01
       -4   -1    0    0    0  501  0.00000000000E+00  0.00000000000E+00  0.52849684843E+03  0.52849837436E+03  0.12699999809E+01 0.  1.
        4   -1    0    0  501    0  0.00000000000E+00  0.00000000000E+00 -0.12104807615E+04  0.12104814278E+04  0.12699999809E+01 0. -1.
    10030    2    1    2    0    0  0.00000000000E+00  0.00000000000E+00 -0.68198391311E+03  0.17389798021E+04  0.15996714333E+04 0.  0.
        1    1    3    3  502    0 -0.47485308609E+03 -0.60293494277E+02  0.35560552796E+03  0.59630197917E+03  0.50400001928E-02 0.  1.
       -1    1    3    3    0  502  0.47485308609E+03  0.60293494277E+02 -0.10375894411E+04  0.11426778229E+04  0.50400001928E-02 0. -1.
</event>
<event>
 5   0  0.1990948E-05  0.1599772E+04  0.7818609E-02  0.8820688E-01
        2   -1    0    0  501    0  0.00000000000E+00  0.00000000000E+00  0.14997752426E+04  0.14997752426E+04  0.25500000920E-02 0.  1.
       -2   -1    0    0    0  501  0.00000000000E+00  0.00000000000E+00 -0.42660924428E+03  0.42660924428E+03  0.25500000920E-02 0. -1.
    10030    2    1    2    0    0  0.00000000000E+00  0.00000000000E+00  0.10731659983E+04  0.19263844869E+04  0.15997724624E+04 0.  0.
        4    1    3    3  502    0  0.41706907061E+03 -0.17744998792E+03  0.13302170571E+04  0.14053163842E+04  0.12699999809E+01 0.  1.
       -4    1    3    3    0  502 -0.41706907061E+03  0.17744998792E+03 -0.25705105879E+03  0.52106810265E+03  0.12699999809E+01 0. -1.
</event>
<event>
 5   0  0.2147844E-05  0.1600427E+04  0.7818609E-02  0.8820285E-01
        2   -1    0    0  501    0  0.00000000000E+00  0.00000000000E+00  0.14067341465E+04  0.14067341465E+04  0.25500000920E-02 0. -1.
       -2   -1    0    0    0  501  0.00000000000E+00  0.00000000000E+00 -0.45519759857E+03  0.45519759858E+03  0.25500000920E-02 0.  1.
    10030    2    1    2    0    0  0.00000000000E+00  0.00000000000E+00  0.95153654798E+03  0.18619317451E+04  0.16004274496E+04 0.  0.
        2    1    3    3  502    0 -0.42180459487E+03 -0.59737656035E+03  0.85376319125E+03  0.11241394299E+04  0.25500000920E-02 0.  1.
       -2    1    3    3    0  502  0.42180459487E+03  0.59737656035E+03  0.97773356723E+02  0.73779231522E+03  0.25500000920E-02 0. -1.
</event>
<event>
 5   0  0.1126485E-05  0.1599479E+04  0.7818609E-02  0.8820868E-01
        1   -1    0    0  501    0  0.00000000000E+00  0.00000000000E+00  0.13969543625E+04  0.13969543625E+04  0.50400001928E-02 0. -1.
       -1   -1    0    0    0  501  0.00000000000E+00  0.00000000000E+00 -0.45784111660E+03  0.45784111663E+03  0.50400001928E-02 0.  1.
    10030    2    1    2    0    0  0.00000000000E+00  0.00000000000E+00  0.93911324589E+03  0.18547954791E+04  0.15994788466E+04 0.  0.
        2    1    3    3  502    0 -0.31354118153E+02 -0.60648549560E+03 -0.13386676289E+03  0.62187462346E+03  0.25500000920E-02 0.  1.
       -2    1    3    3    0  502  0.31354118153E+02  0.60648549560E+03  0.10729800088E+04  0.12329208557E+04  0.25500000920E-02 0. -1.
</event>
<event>
 5   0  0.1990948E-05  0.1601644E+04  0.7818609E-02  0.8819539E-01
       -2   -1    0    0    0  501  0.00000000000E+00  0.00000000000E+00  0.57517138909E+03  0.57517138909E+03  0.25500000920E-02 0.  1.
        2   -1    0    0  501    0  0.00000000000E+00  0.00000000000E+00 -0.11149992040E+04  0.11149992040E+04  0.25500000920E-02 0. -1.
    10030    2    1    2    0    0  0.00000000000E+00  0.00000000000E+00 -0.53982781491E+03  0.16901705931E+04  0.16016437069E+04 0.  0.
        4    1    3    3  502    0  0.35695577068E+03  0.27489774315E+03 -0.96857113411E+03  0.10682311764E+04  0.12699999809E+01 0. -1.
       -4    1    3    3    0  502 -0.35695577068E+03 -0.27489774315E+03  0.42874331921E+03  0.62193941673E+03  0.12699999809E+01 0.  1.
</event>
<event>
 5   0  0.1994525E-05  0.1600081E+04  0.7818609E-02  0.8820498E-01
       -2   -1    0    0    0  501  0.00000000000E+00  0.00000000000E+00  0.40711197917E+03  0.40711197917E+03  0.25500000920E-02 0.  1.
        2   -1    0    0  501    0  0.00000000000E+00  0.00000000000E+00 -0.15722084493E+04  0.15722084493E+04  0.25500000920E-02 0. -1.
    10030    2    1    2    0    0  0.00000000000E+00  0.00000000000E+00 -0.11650964701E+04  0.19793204285E+04  0.16000811148E+04 0.  0.
        5    1    3    3  502    0  0.53028108011E+03 -0.34066101852E+03 -0.11920764908E+04  0.13484496295E+04  0.46999998093E+01 0. -1.
       -5    1    3    3    0  502 -0.53028108011E+03  0.34066101852E+03  0.26980020653E+02  0.63087079896E+03  0.46999998093E+01 0.  1.
</event>
<event>
 5   0  0.1990948E-05  0.1600004E+04  0.7818609E-02  0.8820546E-01
        2   -1    0    0  501    0  0.00000000000E+00  0.00000000000E+00  0.67948359596E+03  0.67948359597E+03  0.25500000920E-02 0.  1.
       -2   -1    0    0    0  501  0.00000000000E+00  0.00000000000E+00 -0.94189641660E+03  0.94189641660E+03  0.25500000920E-02 0. -1.
    10030    2    1    2    0    0  0.00000000000E+00  0.00000000000E+00 -0.26241282063E+03  0.16213800126E+04  0.16000039552E+04 0.  0.
        4    1    3    3  502    0 -0.72600485033E+03  0.32862488522E+03 -0.60096307004E+02  0.79918116650E+03  0.12699999809E+01 0. -1.
       -4    1    3    3    0  502  0.72600485033E+03 -0.32862488522E+03 -0.20231651363E+03  0.82219884606E+03  0.12699999809E+01 0.  1.
</event>
<event>
 5   0  0.2147844E-05  0.1600230E+04  0.7818609E-02  0.8820407E-01
        2   -1    0    0  501    0  0.00000000000E+00  0.00000000000E+00  0.77428117904E+03  0.77428117904E+03  0.25500000920E-02 0.  1.
       -2   -1    0    0    0  501  0.00000000000E+00  0.00000000000E+00 -0.82681049601E+03  0.82681049602E+03  0.25500000920E-02 0. -1.
    10030    2    1    2    0    0  0.00000000000E+00  0.00000000000E+00 -0.52529316976E+02  0.16010916751E+04  0.16002297406E+04 0.  0.
        2    1    3    3  502    0  0.52193628006E+02  0.31518117136E+03 -0.76022672405E+03  0.82462598646E+03  0.25500000920E-02 0. -1.
       -2    1    3    3    0  502 -0.52193628006E+02 -0.31518117136E+03  0.70769740707E+03  0.77646568860E+03  0.25500000920E-02 0.  1.
</event>
<event>
 5   0  0.1994525E-05  0.1599128E+04  0.7818609E-02  0.8821084E-01
       -2   -1    0    0    0  501  0.00000000000E+00  0.00000000000E+00  0.79578012398E+03  0.79578012399E+03  0.25500000920E-02 0. -1.
        2   -1    0    0  501    0  0.00000000000E+00  0.00000000000E+00 -0.80336556060E+03  0.80336556060E+03  0.25500000920E-02 0.  1.
    10030    2    1    2    0    0  0.00000000000E+00  0.00000000000E+00 -0.75854366113E+01  0.15991456846E+04  0.15991276940E+04 0.  0.
        5    1    3    3  502    0  0.20492386283E+03  0.76165502383E+03 -0.13482125271E+03  0.80019436706E+03  0.46999998093E+01 0. -1.
       -5    1    3    3    0  502 -0.20492386283E+03 -0.76165502383E+03  0.12723581610E+03  0.79895131753E+03  0.46999998093E+01 0.  1.
</event>
<event>
 5   0  0.1060251E-05  0.1599555E+04  0.7818609E-02  0.8820821E-01
       -1   -1    0    0    0  501  0.00000000000E+00  0.00000000000E+00  0.76897623544E+03  0.76897623546E+03  0.50400001928E-02 0.  1.
        1   -1    0    0  501    0  0.00000000000E+00  0.00000000000E+00 -0.83181242549E+03  0.83181242550E+03  0.50400001928E-02 0. -1.
    10030    2    1    2    0    0  0.00000000000E+00  0.00000000000E+00 -0.62836190047E+02  0.16007886610E+04  0.15995549226E+04 0.  0.
        1    1    3    3  502    0  0.48611385824E+03  0.62020313742E+03 -0.16821797777E+03  0.80576417326E+03  0.50400001928E-02 0. -1.
       -1    1    3    3    0  502 -0.48611385824E+03 -0.62020313742E+03  0.10538178772E+03  0.79502448770E+03  0.50400001928E-02 0.  1.
</event>
<event>
 5   0  0.2125803E-05  0.1601246E+04  0.7818609E-02  0.8819783E-01
        2   -1    0    0  501    0  0.00000000000E+00  0.00000000000E+00  0.10596279722E+04  0.10596279722E+04  0.25500000920E-02 0.  1.
       -2   -1    0    0    0  501  0.00000000000E+00  0.00000000000E+00 -0.60492695347E+03  0.60492695347E+03  0.25500000920E-02 0. -1.
    10030    2    1    2    0    0  0.00000000000E+00  0.00000000000E+00  0.45470101871E+03  0.16645549257E+04  0.16012464158E+04 0.  0.
        3    1    3    3  502    0 -0.19591519921E+03 -0.22837772252E+03 -0.54391195566E+03  0.62159422064E+03  0.10100000352E+00 0. -1.
       -3    1    3    3    0  502  0.19591519921E+03  0.22837772252E+03  0.99861297437E+03  0.10429607050E+04  0.10100000352E+00 0.  1.
</event>
<event>
 5   0  0.1060251E-05  0.1600056E+04  0.7818609E-02  0.8820514E-01
       -1   -1    0    0    0  501  0.00000000000E+00  0.00000000000E+00  0.51368662810E+03  0.51368662813E+03  0.50400001928E-02 0.  1.
        1   -1    0    0  501    0  0.00000000000E+00  0.00000000000E+00 -0.12459831852E+04  0.12459831852E+04  0.50400001928E-02 0. -1.
    10030    2    1    2    0    0  0.00000000000E+00  0.00000000000E+00 -0.73229655709E+03  0.17596698133E+04  0.16000561254E+04 0.  0.
        1    1    3    3  502    0  0.67772043085E+03 -0.35604841980E+03 -0.62163593869E+03  0.98615754316E+03  0.50400001928E-02 0. -1.
       -1    1    3    3    0  502 -0.67772043085E+03  0.35604841980E+03 -0.11066061841E+03  0.77351227018E+03  0.50400001928E-02 0.  1.
</event>
<event>
 5   0  0.2147844E-05  0.1590567E+04  0.7818609E-02  0.8826364E-01
        2   -1    0    0  501    0  0.00000000000E+00  0.00000000000E+00  0.64725840082E+03  0.64725840083E+03  0.25500000920E-02 0.  1.
       -2   -1    0    0    0  501  0.00000000000E+00  0.00000000000E+00 -0.97716160527E+03  0.97716160527E+03  0.25500000920E-02 0. -1.
    10030    2    1    2    0    0  0.00000000000E+00  0.00000000000E+00 -0.32990320445E+03  0.16244200061E+04  0.15905672673E+04 0.  0.
        2    1    3    3  502    0 -0.21219190177E+03 -0.63668489313E+03 -0.60074534561E+03  0.90071528609E+03  0.25500000920E-02 0. -1.
       -2    1    3    3    0  502  0.21219190177E+03  0.63668489313E+03  0.27084214116E+03  0.72370472000E+03  0.25500000920E-02 0.  1.
</event>
<event>
 5   0  0.1994525E-05  0.1600679E+04  0.7818609E-02  0.8820131E-01
       -2   -1    0    0    0  501  0.00000000000E+00  0.00000000000E+00  0.45456171957E+03  0.45456171957E+03  0.25500000920E-02 0.  1.
        2   -1    0    0  501    0  0.00000000000E+00  0.00000000000E+00 -0.14091455037E+04  0.14091455037E+04  0.25500000920E-02 0. -1.
    10030    2    1    2    0    0  0.00000000000E+00  0.00000000000E+00 -0.95458378411E+03  0.18637072232E+04  0.16006793599E+04 0.  0.
        5    1    3    3  502    0  0.29319470555E+02 -0.40305765579E+03  0.32702367987E+03  0.51988622067E+03  0.46999998093E+01 0.  1.
       -5    1    3    3    0  502 -0.29319470555E+02  0.40305765579E+03 -0.12816074640E+04  0.13438210026E+04  0.46999998093E+01 0. -1.
</event>
<event>
 5   0  0.1081831E-05  0.1599608E+04  0.7818609E-02  0.8820789E-01
        1   -1    0    0  501    0  0.00000000000E+00  0.00000000000E+00  0.14415501805E+04  0.14415501805E+04  0.50400001928E-02 0. -1.
       -1   -1    0    0    0  501  0.00000000000E+00  0.00000000000E+00 -0.44374877635E+03  0.44374877638E+03  0.50400001928E-02 0.  1.
    10030    2    1    2    0    0  0.00000000000E+00  0.00000000000E+00  0.99780140415E+03  0.18852989569E+04  0.15996076127E+04 0.  0.
        3    1    3    3  502    0  0.61033624934E+03 -0.12655289263E+03  0.10895669145E+04  0.12552617429E+04  0.10100000352E+00 0. -1.
       -3    1    3    3    0  502 -0.61033624934E+03  0.12655289263E+03 -0.91765510343E+02  0.63003721397E+03  0.10100000352E+00 0.  1.
</event>
<event>
 5   0  0.1060251E-05  0.1600151E+04  0.7818609E-02  0.8820455E-01
        1   -1    0    0  501    0  0.00000000000E+00  0.00000000000E+00  0.10766915437E+04  0.10766915437E+04  0.50400001928E-02 0.  1.
       -1   -1    0    0    0  501  0.00000000000E+00  0.00000000000E+00 -0.59452543836E+03  0.59452543838E+03  0.50400001928E-02 0. -1.
    10030    2    1    2    0    0  0.00000000000E+00  0.00000000000E+00  0.48216610532E+03  0.16712169821E+04  0.16001506329E+04 0.  0.
        1    1    3    3  502    0  0.48953053200E+02 -0.79758496428E+03  0.28262828917E+03  0.84759478911E+03  0.50400001928E-02 0.  1.
       -1    1    3    3    0  502 -0.48953053200E+02  0.79758496428E+03  0.19953781615E+03  0.82362219297E+03  0.50400001928E-02 0. -1.
</event>
<event>
 5   0  0.1057506E-05  0.1600746E+04  0.7818609E-02  0.8820090E-01
        1   -1    0    0  501    0  0.00000000000E+00  0.00000000000E+00  0.92420147095E+03  0.92420147096E+03  0.50400001928E-02 0. -1.
       -1   -1    0    0    0  501  0.00000000000E+00  0.00000000000E+00 -0.69313602400E+03  0.69313602402E+03  0.50400001928E-02 0.  1.
    10030    2    1    2    0    0  0.00000000000E+00  0.00000000000E+00  0.23106544695E+03  0.16173374950E+04  0.16007464921E+04 0.  0.
        5    1    3    3  502    0 -0.25128543815E+03  0.57085728255E+03 -0.39121604728E+03  0.73627066634E+03  0.46999998093E+01 0.  1.
       -5    1    3    3    0  502  0.25128543815E+03 -0.57085728255E+03  0.62228149423E+03  0.88106682864E+03  0.46999998093E+01 0. -1.
</event>
<event>
 5   0  0.7597000E-06  0.1599971E+04  0.7818609E-02  0.8820566E-01
        3   -1    0    0  501    0  0.00000000000E+00  0.00000000000E+00  0.37092873258E+03  0.37092874633E+03  0.10100000352E+00 0.  1.
       -3   -1    0    0    0  501  0.00000000000E+00  0.00000000000E+00 -0.17253364182E+04  0.17253364212E+04  0.10100000352E+00 0. -1.
    10030    2    1    2    0    0  0.00000000000E+00  0.00000000000E+00 -0.13544076856E+04  0.20962651675E+04  0.15999710852E+04 0.  0.
        3    1    3    3  502    0 -0.23369354398E+03 -0.14158046884E+03 -0.16623052399E+04  0.16846116533E+04  0.10100000352E+00 0. -1.
       -3    1    3    3    0  502  0.23369354398E+03  0.14158046884E+03  0.30789755424E+03  0.41165351422E+03  0.10100000352E+00 0.  1.
</event>
<event>
 5   0  0.7597000E-06  0.1599892E+04  0.7818609E-02  0.8820614E-01
       -3   -1    0    0    0  501  0.00000000000E+00  0.00000000000E+00  0.91981355584E+03  0.91981356139E+03  0.10100000352E+00 0. -1.
        3   -1    0    0  501    0  0.00000000000E+00  0.00000000000E+00 -0.69569923950E+03  0.69569924684E+03  0.10100000352E+00 0.  1.
    10030    2    1    2    0    0  0.00000000000E+00  0.00000000000E+00  0.22411431634E+03  0.16155128082E+04  0.15998919985E+04 0.  0.
        4    1    3    3  502    0  0.38300864139E+03  0.31035832429E+03 -0.52408920654E+03  0.71950609319E+03  0.12699999809E+01 0.  1.
       -4    1    3    3    0  502 -0.38300864139E+03 -0.31035832429E+03  0.74820352288E+03  0.89600671503E+03  0.12699999809E+01 0. -1.
</event>
<event>
 5   0  0.1081831E-05  0.1601472E+04  0.7818609E-02  0.8819644E-01
        1   -1    0    0  501    0  0.00000000000E+00  0.00000000000E+00  0.14835110044E+04  0.14835110044E+04  0.50400001928E-02 0. -1.
       -1   -1    0    0    0  501  0.00000000000E+00  0.00000000000E+00 -0.43220338390E+03  0.43220338393E+03  0.50400001928E-02 0.  1.
    10030    2    1    2    0    0  0.00000000000E+00  0.00000000000E+00  0.10513076205E+04  0.19157143884E+04  0.16014724177E+04 0.  0.
        3    1    3    3  502    0 -0.51242899928E+03  0.42000949751E+03  0.10635369378E+04  0.12530372243E+04  0.10100000352E+00 0. -1.
       -3    1    3    3    0  502  0.51242899928E+03 -0.42000949751E+03 -0.12229317296E+02  0.66267716401E+03  0.10100000352E+00 0.  1.
</event>
<event>
 5   0  0.1994525E-05  0.1600218E+04  0.7818609E-02  0.8820414E-01
       -2   -1    0    0    0  501  0.00000000000E+00  0.00000000000E+00  0.47604999128E+03  0.47604999128E+03  0.25500000920E-02 0.  1.
        2   -1    0    0  501    0  0.00000000000E+00  0.00000000000E+00 -0.13447622682E+04  0.13447622682E+04  0.25500000920E-02 0. -1.
    10030    2    1    2    0    0  0.00000000000E+00  0.00000000000E+00 -0.86871227690E+03  0.18208122595E+04  0.16002175678E+04 0.  0.
        5    1    3    3  502    0  0.62657510159E+03 -0.46647161940E+03 -0.23740616521E+03  0.81644100027E+03  0.46999998093E+01 0.  1.
       -5    1    3    3    0  502 -0.62657510159E+03  0.46647161940E+03 -0.63130611169E+03  0.10043712592E+04  0.46999998093E+01 0. -1.
</event>
<event>
 5   0  0.7597000E-06  0.1599295E+04  0.7818609E-02  0.8820981E-01
       -3   -1    0    0    0  501  0.00000000000E+00  0.00000000000E+00  0.21416817910E+04  0.21416817934E+04  0.10100000352E+00 0.  1.
        3   -1    0    0  501    0  0.00000000000E+00  0.00000000000E+00 -0.29856724725E+03  0.29856726433E+03  0.10100000352E+00 0. -1.
    10030    2    1    2    0    0  0.00000000000E+00  0.00000000000E+00  0.18431145438E+04  0.24402490577E+04  0.15992949204E+04 0.  0.
        4    1    3    3  502    0 -0.66656129234E+03  0.64483897188E+02  0.15883499248E+04  0.17237514978E+04  0.12699999809E+01 0.  1.
       -4    1    3    3    0  502  0.66656129234E+03 -0.64483897188E+02  0.25476461891E+03  0.71649755994E+03  0.12699999809E+01 0. -1.
</event>
<event>
 5   0  0.1994525E-05  0.1599585E+04  0.7818609E-02  0.8820803E-01
        2   -1    0    0  501    0  0.00000000000E+00  0.00000000000E+00  0.28130963512E+04  0.28130963512E+04  0.25500000920E-02 0. -1.
       -2   -1    0    0    0  501  0.00000000000E+00  0.00000000000E+00 -0.22738935055E+03  0.22738935057E+03  0.25500000920E-02 0.  1.
    10030    2    1    2    0    0  0.00000000000E+00  0.00000000000E+00  0.25857070007E+04  0.30404857018E+04  0.15995851367E+04 0.  0.
        5    1    3    3  502    0 -0.40584583675E+02  0.64256769385E+02 -0.22048371332E+03  0.23326208154E+03  0.46999998093E+01 0.  1.
       -5    1    3    3    0  502  0.40584583675E+02 -0.64256769385E+02  0.28061907140E+04  0.28072236202E+04  0.46999998093E+01 0. -1.
</event>
<event>
 5   0  0.1060251E-05  0.1600214E+04  0.7818609E-02  0.8820417E-01
       -1   -1    0    0    0  501  0.00000000000E+00  0.00000000000E+00  0.77208181355E+03  0.77208181357E+03  0.50400001928E-02 0.  1.
        1   -1    0    0  501    0  0.00000000000E+00  0.00000000000E+00 -0.82914904937E+03  0.82914904938E+03  0.50400001928E-02 0. -1.
    10030    2    1    2    0    0  0.00000000000E+00  0.00000000000E+00 -0.57067235820E+02  0.16012308630E+04  0.16002136129E+04 0.  0.
        1    1    3    3  502    0  0.49966011663E+03  0.58739975305E+03  0.18484405456E+03  0.79301073547E+03  0.50400001928E-02 0.  1.
       -1    1    3    3    0  502 -0.49966011663E+03 -0.58739975305E+03 -0.24191129038E+03  0.80822012748E+03  0.50400001928E-02 0. -1.
</event>
<event>
 5   0  0.1057506E-05  0.1599710E+04  0.7818609E-02  0.8820726E-01
       -1   -1    0    0    0  501  0.00000000000E+00  0.00000000000E+00  0.87339434167E+03  0.87339434168E+03  0.50400001928E-02 0. -1.
        1   -1    0    0  501    0  0.00000000000E+00  0.00000000000E+00 -0.73250733798E+03  0.73250733800E+03  0.50400001928E-02 0.  1.
    10030    2    1    2    0    0  0.00000000000E+00  0.00000000000E+00  0.14088700369E+03  0.16059016797E+04  0.15997096790E+04 0.  0.
        5    1    3    3  502    0  0.56298733169E+03 -0.99003242167E+02 -0.49117644353E+03  0.75367948511E+03  0.46999998093E+01 0.  1.
       -5    1    3    3    0  502 -0.56298733169E+03  0.99003242167E+02  0.63206344722E+03  0.85222219457E+03  0.46999998093E+01 0. -1.
</event>
<event>
 5   0  0.2125803E-05  0.1599397E+04  0.7818609E-02  0.8820919E-01
        2   -1    0    0  501    0  0.00000000000E+00  0.00000000000E+00  0.68642075762E+03  0.68642075762E+03  0.25500000920E-02 0.  1.
       -2   -1    0    0    0  501  0.00000000000E+00  0.00000000000E+00 -0.93166961965E+03  0.93166961965E+03  0.25500000920E-02 0. -1.
    10030    2    1    2    0    0  0.00000000000E+00  0.00000000000E+00 -0.24524886203E+03  0.16180903773E+04  0.15993965939E+04 0.  0.
        3    1    3    3  502    0  0.67019986401E+03 -0.28497397769E+03  0.21159927505E+03  0.75838795420E+03  0.10100000352E+00 0.  1.
       -3    1    3    3    0  502 -0.67019986401E+03  0.28497397769E+03 -0.45684813708E+03  0.85970242307E+03  0.10100000352E+00 0. -1.
</event>
<event>
 5   0  0.1994525E-05  0.1600332E+04  0.7818609E-02  0.8820344E-01
       -2   -1    0    0    0  501  0.00000000000E+00  0.00000000000E+00  0.10725364015E+04  0.10725364015E+04  0.25500000920E-02 0.  1.
        2   -1    0    0  501    0  0.00000000000E+00  0.00000000000E+00 -0.59696397336E+03  0.59696397337E+03  0.25500000920E-02 0. -1.
    10030    2    1    2    0    0  0.00000000000E+00  0.00000000000E+00  0.47557242816E+03  0.16695003749E+04  0.16003319554E+04 0.  0.
        5    1    3    3  502    0  0.15948759099E+02 -0.26056193354E+03 -0.55127579459E+03  0.60997866833E+03  0.46999998093E+01 0. -1.
       -5    1    3    3    0  502 -0.15948759099E+02  0.26056193354E+03  0.10268482227E+04  0.10595217066E+04  0.46999998093E+01 0.  1.
</event>
<event>
 5   0  0.7597000E-06  0.1600747E+04  0.7818609E-02  0.8820089E-01
       -3   -1    0    0    0  501  0.00000000000E+00  0.00000000000E+00  0.45822190321E+03  0.45822191435E+03  0.10100000352E+00 0. -1.
        3   -1    0    0  501    0  0.00000000000E+00  0.00000000000E+00 -0.13980072574E+04  0.13980072611E+04  0.10100000352E+00 0.  1.
    10030    2    1    2    0    0  0.00000000000E+00  0.00000000000E+00 -0.93978535423E+03  0.18562291754E+04  0.16007467756E+04 0.  0.
        1    1    3    3  502    0 -0.23555291921E+03 -0.70251266321E+03 -0.82082959134E+03  0.11057895088E+04  0.50400001928E-02 0.  1.
       -1    1    3    3    0  502  0.23555291921E+03  0.70251266321E+03 -0.11895576289E+03  0.75043966664E+03  0.50400001928E-02 0. -1.
</event>
<event>
 5   0  0.1990948E-05  0.1597947E+04  0.7818609E-02  0.8821810E-01
        2   -1    0    0  501    0  0.00000000000E+00  0.00000000000E+00  0.13251941712E+04  0.13251941712E+04  0.25500000920E-02 0.  1.
       -2   -1    0    0    0  501  0.00000000000E+00  0.00000000000E+00 -0.48170943942E+03  0.48170943943E+03  0.25500000920E-02 0. -1.
    10030    2    1    2    0    0  0.00000000000E+00  0.00000000000E+00  0.84348473179E+03  0.18069036106E+04  0.15979468594E+04 0.  0.
        4    1    3    3  502    0  0.50549385285E+02 -0.10842663765E+03 -0.47152348151E+03  0.48646436932E+03  0.12699999809E+01 0. -1.
       -4    1    3    3    0  502 -0.50549385285E+02  0.10842663765E+03  0.13150082133E+04  0.13204392413E+04  0.12699999809E+01 0.  1.
</event>
<event>
 5   0  0.1060251E-05  0.1599912E+04  0.7818609E-02  0.8820602E-01
        1   -1    0    0  501    0  0.00000000000E+00  0.00000000000E+00  0.95537493401E+03  0.95537493402E+03  0.50400001928E-02 0. -1.
       -1   -1    0    0    0  501  0.00000000000E+00  0.00000000000E+00 -0.66982004707E+03  0.66982004709E+03  0.50400001928E-02 0.  1.
    10030    2    1    2    0    0  0.00000000000E+00  0.00000000000E+00  0.28555488693E+03  0.16251949811E+04  0.15999116017E+04 0.  0.
        1    1    3    3  502    0  0.47277600900E+03  0.12091038576E+03 -0.50111090110E+03  0.69946308787E+03  0.50400001928E-02 0.  1.
       -1    1    3    3    0  502 -0.47277600900E+03 -0.12091038576E+03  0.78666578803E+03  0.92573189324E+03  0.50400001928E-02 0. -1.
</event>
<event>
 5   0  0.1090674E-05  0.1594198E+04  0.7818609E-02  0.8824121E-01
        1   -1    0    0  501    0  0.00000000000E+00  0.00000000000E+00  0.10787942636E+04  0.10787942636E+04  0.50400001928E-02 0.  1.
       -1   -1    0    0    0  501  0.00000000000E+00  0.00000000000E+00 -0.58895988900E+03  0.58895988902E+03  0.50400001928E-02 0. -1.
    10030    2    1    2    0    0  0.00000000000E+00  0.00000000000E+00  0.48983437463E+03  0.16677541527E+04  0.15941976663E+04 0.  0.
        4    1    3    3  502    0 -0.68551765959E+03 -0.13001943767E+03  0.64808908968E+03  0.95229228541E+03  0.12699999809E+01 0.  1.
       -4    1    3    3    0  502  0.68551765959E+03  0.13001943767E+03 -0.15825471505E+03  0.71546186727E+03  0.12699999809E+01 0. -1.
</event>
<event>
 5   0  0.1090674E-05  0.1601718E+04  0.7818609E-02  0.8819494E-01
       -1   -1    0    0    0  501  0.00000000000E+00  0.00000000000E+00  0.74435568818E+03  0.74435568820E+03  0.50400001928E-02 0. -1.
        1   -1    0    0  501    0  0.00000000000E+00  0.00000000000E+00 -0.86165102020E+03  0.86165102021E+03  0.50400001928E-02 0.  1.
    10030    2    1    2    0    0  0.00000000000E+00  0.00000000000E+00 -0.11729533202E+03  0.16060067084E+04  0.16017176257E+04 0.  0.
        4    1    3    3  502    0 -0.20660204273E+03 -0.75818592918E+03  0.96177338957E+02  0.79169564903E+03  0.12699999809E+01 0. -1.
       -4    1    3    3    0  502  0.20660204273E+03  0.75818592918E+03 -0.21347267097E+03  0.81431105938E+03  0.12699999809E+01 0.  1.
</event>
<event>
 5   0  0.1090674E-05  0.1600099E+04  0.7818609E-02  0.8820487E-01
        1   -1    0    0  501    0  0.00000000000E+00  0.00000000000E+00  0.91459907206E+03  0.91459907208E+03  0.50400001928E-02 0.  1.
       -1   -1    0    0    0  501  0.00000000000E+00  0.00000000000E+00 -0.69984717417E+03  0.69984717418E+03  0.50400001928E-02 0. -1.
    10030    2    1    2    0    0  0.00000000000E+00  0.00000000000E+00  0.21475189789E+03  0.16144462463E+04  0.16000994670E+04 0.  0.
        4    1    3    3  502    0 -0.19453700834E+03  0.67054360523E+03 -0.28677303004E+03  0.75479385118E+03  0.12699999809E+01 0. -1.
       -4    1    3    3    0  502  0.19453700834E+03 -0.67054360523E+03  0.50152492793E+03  0.85965239508E+03  0.12699999809E+01 0.  1.
</event>
<event>
 5   0  0.1060251E-05  0.1600275E+04  0.7818609E-02  0.8820379E-01
       -1   -1    0    0    0  501  0.00000000000E+00  0.00000000000E+00  0.95459577815E+03  0.95459577816E+03  0.50400001928E-02 0. -1.
        1   -1    0    0  501    0  0.00000000000E+00  0.00000000000E+00 -0.67067103710E+03  0.67067103712E+03  0.50400001928E-02 0.  1.
    10030    2    1    2    0    0  0.00000000000E+00  0.00000000000E+00  0.28392474105E+03  0.16252668153E+04  0.16002746521E+04 0.  0.
        1    1    3    3  502    0  0.33943415816E+03  0.67122613722E+02 -0.59076090292E+03  0.68463087678E+03  0.50400001928E-02 0.  1.
       -1    1    3    3    0  502 -0.33943415816E+03 -0.67122613722E+02  0.87468564397E+03  0.94063593849E+03  0.50400001928E-02 0. -1.
</event>
<event>
 5   0  0.1057506E-05  0.1600055E+04  0.7818609E-02  0.8820514E-01
       -1   -1    0    0    0  501  0.00000000000E+00  0.00000000000E+00  0.95722039125E+03  0.95722039126E+03  0.50400001928E-02 0.  1.
        1   -1    0    0  501    0  0.00000000000E+00  0.00000000000E+00 -0.66864871373E+03  0.66864871375E+03  0.50400001928E-02 0. -1.
    10030    2    1    2    0    0  0.00000000000E+00  0.00000000000E+00  0.28857167752E+03  0.16258691050E+04  0.16000552283E+04 0.  0.
        5    1    3    3  502    0 -0.29779777980E+03 -0.61623831415E+03  0.56520163133E+03  0.88764190501E+03  0.46999998093E+01 0.  1.
       -5    1    3    3    0  502  0.29779777980E+03  0.61623831415E+03 -0.27662995380E+03  0.73822720000E+03  0.46999998093E+01 0. -1.
</event>
<event>
 5   0  0.1990948E-05  0.1600387E+04  0.7818609E-02  0.8820310E-01
        2   -1    0    0  501    0  0.00000000000E+00  0.00000000000E+00  0.14313129916E+04  0.14313129916E+04  0.25500000920E-02 0. -1.
       -2   -1    0    0    0  501  0.00000000000E+00  0.00000000000E+00 -0.44735821481E+03  0.44735821482E+03  0.25500000920E-02 0.  1.
    10030    2    1    2    0    0  0.00000000000E+00  0.00000000000E+00  0.98395477678E+03  0.18786712064E+04  0.16003869842E+04 0.  0.
        4    1    3    3  502    0 -0.64023969368E+03  0.12970019755E+03 -0.50529239342E+02  0.65519754543E+03  0.12699999809E+01 0.  1.
       -4    1    3    3    0  502  0.64023969368E+03 -0.12970019755E+03  0.10344840161E+04  0.12234736610E+04  0.12699999809E+01 0. -1.
</event>
<event>
 5   0  0.1057506E-05  0.1599956E+04  0.7818609E-02  0.8820575E-01
       -1   -1    0    0    0  501  0.00000000000E+00  0.00000000000E+00  0.43163200985E+03  0.43163200988E+03  0.50400001928E-02 0. -1.
        1   -1    0    0  501    0  0.00000000000E+00  0.00000000000E+00 -0.14826622769E+04  0.14826622769E+04  0.50400001928E-02 0.  1.
    10030    2    1    2    0    0  0.00000000000E+00  0.00000000000E+00 -0.10510302670E+04  0.19142942868E+04  0.15999556226E+04 0.  0.
        5    1    3    3  502    0 -0.42893561406E+02  0.10179995834E+03 -0.14734760504E+04  0.14776186417E+04  0.46999998093E+01 0.  1.
       -5    1    3    3    0  502  0.42893561406E+02 -0.10179995834E+03  0.42244578338E+03  0.43667564509E+03  0.46999998093E+01 0. -1.
</event>
<event>
 5   0  0.1990948E-05  0.1599905E+04  0.7818609E-02  0.8820606E-01
        2   -1    0    0  501    0  0.00000000000E+00  0.00000000000E+00  0.11469293342E+04  0.11469293342E+04  0.25500000920E-02 0.  1.
       -2   -1    0    0    0  501  0.00000000000E+00  0.00000000000E+00 -0.55794573573E+03  0.55794573574E+03  0.25500000920E-02 0. -1.
    10030    2    1    2    0    0  0.00000000000E+00  0.00000000000E+00  0.58898359845E+03  0.17048750699E+04  0.15999054112E+04 0.  0.
        4    1    3    3  502    0  0.60322019772E+03  0.14294959629E+03 -0.24426177828E+03  0.66631420760E+03  0.12699999809E+01 0. -1.
       -4    1    3    3    0  502 -0.60322019772E+03 -0.14294959629E+03  0.83324537673E+03  0.10385608623E+04  0.12699999809E+01 0.  1.
</event>
<event>
 5   0  0.1060251E-05  0.1599665E+04  0.7818609E-02  0.8820754E-01
        1   -1    0    0  501    0  0.00000000000E+00  0.00000000000E+00  0.55784979686E+03  0.55784979689E+03  0.50400001928E-02 0.  1.
       -1   -1    0    0    0  501  0.00000000000E+00  0.00000000000E+00 -0.11467824728E+04  0.11467824728E+04  0.50400001928E-02 0. -1.
    10030    2    1    2    0    0  0.00000000000E+00  0.00000000000E+00 -0.58893267596E+03  0.17046322697E+04  0.15996654269E+04 0.  0.
        1    1    3    3  502    0  0.15547739581E+03  0.29073940688E+03 -0.10710012246E+04  0.11206008417E+04  0.50400001928E-02 0. -1.
       -1    1    3    3    0  502 -0.15547739581E+03 -0.29073940688E+03  0.48206854862E+03  0.58403142802E+03  0.50400001928E-02 0.  1.
</event>
<event>
 5   0  0.2046108E-05  0.1603961E+04  0.7818609E-02  0.8818118E-01
       -2   -1    0    0    0  501  0.00000000000E+00  0.00000000000E+00  0.79422102432E+03  0.79422102432E+03  0.25500000920E-02 0. -1.
        2   -1    0    0  501    0  0.00000000000E+00  0.00000000000E+00 -0.80981582480E+03  0.80981582481E+03  0.25500000920E-02 0.  1.
    10030    2    1    2    0    0  0.00000000000E+00  0.00000000000E+00 -0.15594800487E+02  0.16040368491E+04  0.16039610393E+04 0.  0.
        1    1    3    3  502    0 -0.71200340499E+03  0.16274725601E+03  0.32348436703E+03  0.79879763006E+03  0.50400001928E-02 0. -1.
       -1    1    3    3    0  502  0.71200340499E+03 -0.16274725601E+03 -0.33907916752E+03  0.80523921907E+03  0.50400001928E-02 0.  1.
</event>
<event>
 5   0  0.1081831E-05  0.1602136E+04  0.7818609E-02  0.8819237E-01
        1   -1    0    0  501    0  0.00000000000E+00  0.00000000000E+00  0.91769583746E+03  0.91769583747E+03  0.50400001928E-02 0. -1.
       -1   -1    0    0    0  501  0.00000000000E+00  0.00000000000E+00 -0.69926177008E+03  0.69926177010E+03  0.50400001928E-02 0.  1.
    10030    2    1    2    0    0  0.00000000000E+00  0.00000000000E+00  0.21843406738E+03  0.16169576076E+04  0.16021355944E+04 0.  0.
        3    1    3    3  502    0 -0.70079197917E+02  0.72260480797E+03 -0.23250184655E+03  0.76231615576E+03  0.10100000352E+00 0. -1.
       -3    1    3    3    0  502  0.70079197917E+02 -0.72260480797E+03  0.45093591393E+03  0.85464145181E+03  0.10100000352E+00 0.  1.
</event>
<event>
 5   0  0.2147844E-05  0.1600138E+04  0.7818609E-02  0.8820463E-01
        2   -1    0    0  501    0  0.00000000000E+00  0.00000000000E+00  0.69245362665E+03  0.69245362665E+03  0.25500000920E-02 0.  1.
       -2   -1    0    0    0  501  0.00000000000E+00  0.00000000000E+00 -0.92440857346E+03  0.92440857346E+03  0.25500000920E-02 0. -1.
    10030    2    1    2    0    0  0.00000000000E+00  0.00000000000E+00 -0.23195494681E+03  0.16168622001E+04  0.16001375806E+04 0.  0.
        2    1    3    3  502    0  0.60939680993E+03 -0.33373779285E+03 -0.51681587192E+03  0.86593535082E+03  0.25500000920E-02 0. -1.
       -2    1    3    3    0  502 -0.60939680993E+03  0.33373779285E+03  0.28486092510E+03  0.75092684929E+03  0.25500000920E-02 0.  1.
</event>
<event>
 5   0  0.1060251E-05  0.1593966E+04  0.7818609E-02  0.8824264E-01
        1   -1    0    0  501    0  0.00000000000E+00  0.00000000000E+00  0.11782861784E+04  0.11782861784E+04  0.50400001928E-02 0.  1.
       -1   -1    0    0    0  501  0.00000000000E+00  0.00000000000E+00 -0.53907244089E+03  0.53907244091E+03  0.50400001928E-02 0. -1.
    10030    2    1    2    0    0  0.00000000000E+00  0.00000000000E+00  0.63921373750E+03  0.17173586193E+04  0.15939656286E+04 0.  0.
        1    1    3    3  502    0  0.65117550379E+03 -0.44000609863E+03  0.46232521363E+03  0.91180014628E+03  0.50400001928E-02 0. -1.
       -1    1    3    3    0  502 -0.65117550379E+03  0.44000609863E+03  0.17688852387E+03  0.80555847303E+03  0.50400001928E-02 0.  1.
</event>
<event>
 5   0  0.1081831E-05  0.1599706E+04  0.7818609E-02  0.8820729E-01
       -1   -1    0    0    0  501  0.00000000000E+00  0.00000000000E+00  0.30343874741E+03  0.30343874745E+03  0.50400001928E-02 0.  1.
        1   -1    0    0  501    0  0.00000000000E+00  0.00000000000E+00 -0.21083812465E+04  0.21083812465E+04  0.50400001928E-02 0. -1.
    10030    2    1    2    0    0  0.00000000000E+00  0.00000000000E+00 -0.18049424991E+04  0.24118199940E+04  0.15997056786E+04 0.  0.
        3    1    3    3  502    0 -0.29195411210E+03  0.49207320378E+03 -0.17451349358E+04  0.18365372841E+04  0.10100000352E+00 0. -1.
       -3    1    3    3    0  502  0.29195411210E+03 -0.49207320378E+03 -0.59807563278E+02  0.57528270987E+03  0.10100000352E+00 0.  1.
</event>
<event>
 5   0  0.1060251E-05  0.1599682E+04  0.7818609E-02  0.8820744E-01
       -1   -1    0    0    0  501  0.00000000000E+00  0.00000000000E+00  0.84966245695E+03  0.84966245696E+03  0.50400001928E-02 0.  1.
        1   -1    0    0  501    0  0.00000000000E+00  0.00000000000E+00 -0.75294073916E+03  0.75294073918E+03  0.50400001928E-02 0. -1.
    10030    2    1    2    0    0  0.00000000000E+00  0.00000000000E+00  0.96721717784E+02  0.16026031961E+04  0.15996818164E+04 0.  0.
        1    1    3    3  502    0  0.36853540685E+03 -0.67331229638E+03 -0.17694467812E+03  0.78770376012E+03  0.50400001928E-02 0. -1.
       -1    1    3    3    0  502 -0.36853540685E+03  0.67331229638E+03  0.27366639591E+03  0.81489943603E+03  0.50400001928E-02 0.  1.
</event>
<event>
 5   0  0.1994525E-05  0.1599871E+04  0.7818609E-02  0.8820627E-01
        2   -1    0    0  501    0  0.00000000000E+00  0.00000000000E+00  0.13337724894E+04  0.13337724894E+04  0.25500000920E-02 0.  1.
       -2   -1    0    0    0  501  0.00000000000E+00  0.00000000000E+00 -0.47976477835E+03  0.47976477836E+03  0.25500000920E-02 0. -1.
    10030    2    1    2    0    0  0.00000000000E+00  0.00000000000E+00  0.85400771103E+03  0.18135372677E+04  0.15998713233E+04 0.  0.
        5    1    3    3  502    0  0.16377393741E+03 -0.76122962315E+03  0.21927437125E+03  0.80894732932E+03  0.46999998093E+01 0. -1.
       -5    1    3    3    0  502 -0.16377393741E+03  0.76122962315E+03  0.63473333979E+03  0.10045899384E+04  0.46999998093E+01 0.  1.
</event>
<event>
 5   0  0.2125803E-05  0.1599314E+04  0.7818609E-02  0.8820970E-01
        2   -1    0    0  501    0  0.00000000000E+00  0.00000000000E+00  0.10886320276E+04  0.10886320276E+04  0.25500000920E-02 0.  1.
       -2   -1    0    0    0  501  0.00000000000E+00  0.00000000000E+00 -0.58738951770E+03  0.58738951771E+03  0.25500000920E-02 0. -1.
    10030    2    1    2    0    0  0.00000000000E+00  0.00000000000E+00  0.50124250985E+03  0.16760215453E+04  0.15993136548E+04 0.  0.
        3    1    3    3  502    0 -0.24015501693E+03  0.58474818506E+03 -0.26260910173E+03  0.68452057865E+03  0.10100000352E+00 0. -1.
       -3    1    3    3    0  502  0.24015501693E+03 -0.58474818506E+03  0.76385161158E+03  0.99150096661E+03  0.10100000352E+00 0.  1.
</event>
<event>
 5   0  0.2046108E-05  0.1600107E+04  0.7818609E-02  0.8820482E-01
       -2   -1    0    0    0  501  0.00000000000E+00  0.00000000000E+00  0.45595186152E+03  0.45595186153E+03  0.25500000920E-02 0.  1.
        2   -1    0    0  501    0  0.00000000000E+00  0.00000000000E+00 -0.14038455348E+04  0.14038455348E+04  0.25500000920E-02 0. -1.
    10030    2    1    2    0    0  0.00000000000E+00  0.00000000000E+00 -0.94789367323E+03  0.18597973963E+04  0.16001074775E+04 0.  0.
        1    1    3    3  502    0  0.66767040165E+03 -0.39538762431E+03 -0.70043297036E+03  0.10453331931E+04  0.50400001928E-02 0. -1.
       -1    1    3    3    0  502 -0.66767040165E+03  0.39538762431E+03 -0.24746070287E+03  0.81446420314E+03  0.50400001928E-02 0.  1.
</event>
<event>
 5   0  0.1126485E-05  0.1599736E+04  0.7818609E-02  0.8820710E-01
       -1   -1    0    0    0  501  0.00000000000E+00  0.00000000000E+00  0.83681459472E+03  0.83681459474E+03  0.50400001928E-02 0. -1.
        1   -1    0    0  501    0  0.00000000000E+00  0.00000000000E+00 -0.76455307901E+03  0.76455307902E+03  0.50400001928E-02 0.  1.
    10030    2    1    2    0    0  0.00000000000E+00  0.00000000000E+00  0.72261515716E+02  0.16013676738E+04  0.15997364470E+04 0.  0.
        2    1    3    3  502    0  0.43409765228E+03  0.13685949122E+03 -0.62227686694E+03  0.77097327527E+03  0.25500000920E-02 0.  1.
       -2    1    3    3    0  502 -0.43409765228E+03 -0.13685949122E+03  0.69453838265E+03  0.83039439849E+03  0.25500000920E-02 0. -1.
</event>
<event>
 5   0  0.1060251E-05  0.1600495E+04  0.7818609E-02  0.8820244E-01
       -1   -1    0    0    0  501  0.00000000000E+00  0.00000000000E+00  0.62541229818E+03  0.62541229820E+03  0.50400001928E-02 0. -1.
        1   -1    0    0  501    0  0.00000000000E+00  0.00000000000E+00 -0.10239581763E+04  0.10239581763E+04  0.50400001928E-02 0.  1.
    10030    2    1    2    0    0  0.00000000000E+00  0.00000000000E+00 -0.39854587810E+03  0.16493704745E+04  0.16004949688E+04 0.  0.
        1    1    3    3  502    0  0.13721290057E+03 -0.21507345780E+03 -0.98092889822E+03  0.10135607903E+04  0.50400001928E-02 0.  1.
       -1    1    3    3    0  502 -0.13721290057E+03  0.21507345780E+03  0.58238302011E+03  0.63580968416E+03  0.50400001928E-02 0. -1.
</event>
<event>
 5   0  0.1994525E-05  0.1599435E+04  0.7818609E-02  0.8820895E-01
        2   -1    0    0  501    0  0.00000000000E+00  0.00000000000E+00  0.63863905758E+03  0.63863905758E+03  0.25500000920E-02 0. -1.
       -2   -1    0    0    0  501  0.00000000000E+00  0.00000000000E+00 -0.10014229201E+04  0.10014229201E+04  0.25500000920E-02 0.  1.
    10030    2    1    2    0    0  0.00000000000E+00  0.00000000000E+00 -0.36278386250E+03  0.16400619777E+04  0.15994346375E+04 0.  0.
        5    1    3    3  502    0 -0.28593959248E+02  0.37447190393E+03 -0.90535621976E+03  0.98017283985E+03  0.46999998093E+01 0.  1.
       -5    1    3    3    0  502  0.28593959248E+02 -0.37447190393E+03  0.54257235726E+03  0.65988913781E+03  0.46999998093E+01 0. -1.
</event>
<event>
 5   0  0.1057506E-05  0.1606706E+04  0.7818609E-02  0.8816439E-01
        1   -1    0    0  501    0  0.00000000000E+00  0.00000000000E+00  0.96576471754E+03  0.96576471755E+03  0.50400001928E-02 0.  1.
       -1   -1    0    0    0  501  0.00000000000E+00  0.00000000000E+00 -0.66825377313E+03  0.66825377315E+03  0.50400001928E-02 0. -1.
    10030    2    1    2    0    0  0.00000000000E+00  0.00000000000E+00  0.29751094441E+03  0.16340184907E+04  0.16067058430E+04 0.  0.
        5    1    3    3  502    0  0.36752027501E+02 -0.19184768138E+03 -0.64371960061E+03  0.67272078798E+03  0.46999998093E+01 0. -1.
       -5    1    3    3    0  502 -0.36752027501E+02  0.19184768138E+03  0.94123054502E+03  0.96129770272E+03  0.46999998093E+01 0.  1.
</event>
<event>
 5   0  0.1090674E-05  0.1600200E+04  0.7818609E-02  0.8820425E-01
        1   -1    0    0  501    0  0.00000000000E+00  0.00000000000E+00  0.17440636545E+04  0.17440636545E+04  0.50400001928E-02 0. -1.
       -1   -1    0    0    0  501  0.00000000000E+00  0.00000000000E+00 -0.36705075414E+03  0.36705075417E+03  0.50400001928E-02 0.  1.
    10030    2    1    2    0    0  0.00000000000E+00  0.00000000000E+00  0.13770129003E+04  0.21111144087E+04  0.16001998371E+04 0.  0.
        4    1    3    3  502    0  0.42413981827E+02  0.33228721704E+03 -0.27008090036E+03  0.43030111097E+03  0.12699999809E+01 0.  1.
       -4    1    3    3    0  502 -0.42413981827E+02 -0.33228721704E+03  0.16470938007E+04  0.16808132977E+04  0.12699999809E+01 0. -1.
</event>
<event>
 5   0  0.1994525E-05  0.1601839E+04  0.7818609E-02  0.8819419E-01
       -2   -1    0    0    0  501  0.00000000000E+00  0.00000000000E+00  0.12146708142E+04  0.12146708142E+04  0.25500000920E-02 0.  1.
        2   -1    0    0  501    0  0.00000000000E+00  0.00000000000E+00 -0.52810384305E+03  0.52810384306E+03  0.25500000920E-02 0. -1.
    10030    2    1    2    0    0  0.00000000000E+00  0.00000000000E+00  0.68656697119E+03  0.17427746573E+04  0.16018393491E+04 0.  0.
        5    1    3    3  502    0  0.26498774063E+03  0.18759734480E+03 -0.45328011931E+03  0.55758068745E+03  0.46999998093E+01 0. -1.
       -5    1    3    3    0  502 -0.26498774063E+03 -0.18759734480E+03  0.11398470905E+04  0.11851939699E+04  0.46999998093E+01 0.  1.
</event>
<event>
 5   0  0.1057506E-05  0.1599889E+04  0.7818609E-02  0.8820616E-01
       -1   -1    0    0    0  501  0.00000000000E+00  0.00000000000E+00  0.12528377909E+04  0.12528377909E+04  0.50400001928E-02 0. -1.
        1   -1    0    0  501    0  0.00000000000E+00  0.00000000000E+00 -0.51076948908E+03  0.51076948911E+03  0.50400001928E-02 0.  1.
    10030    2    1    2    0    0  0.00000000000E+00  0.00000000000E+00  0.74206830184E+03  0.17636072800E+04  0.15998891442E+04 0.  0.
        5    1    3    3  502    0 -0.58674075684E+03 -0.22821080619E+03  0.91503679724E+03  0.11107021735E+04  0.46999998093E+01 0. -1.
       -5    1    3    3    0  502  0.58674075684E+03  0.22821080619E+03 -0.17296849540E+03  0.65290510659E+03  0.46999998093E+01 0.  1.
</event>
<event>
 5   0  0.1994525E-05  0.1600140E+04  0.7818609E-02  0.8820462E-01
       -2   -1    0    0    0  501  0.00000000000E+00  0.00000000000E+00  0.39831624047E+03  0.39831624048E+03  0.25500000920E-02 0. -1.
        2   -1    0    0  501    0  0.00000000000E+00  0.00000000000E+00 -0.16070452592E+04  0.16070452592E+04  0.25500000920E-02 0.  1.
    10030    2    1    2    0    0  0.00000000000E+00  0.00000000000E+00 -0.12087290188E+04  0.20053614997E+04  0.16001402763E+04 0.  0.
        5    1    3    3  502    0  0.78275865413E+03 -0.16188739012E+03 -0.64725938756E+03  0.10285355815E+04  0.46999998093E+01 0. -1.
       -5    1    3    3    0  502 -0.78275865413E+03  0.16188739012E+03 -0.56146963121E+03  0.97682591820E+03  0.46999998093E+01 0.  1.
</event>
<event>
 5   0  0.1990948E-05  0.1600212E+04  0.7818609E-02  0.8820418E-01
        2   -1    0    0  501    0  0.00000000000E+00  0.00000000000E+00  0.97724085371E+03  0.97724085371E+03  0.25500000920E-02 0.  1.
       -2   -1    0    0    0  501  0.00000000000E+00  0.00000000000E+00 -0.65507858237E+03  0.65507858238E+03  0.25500000920E-02 0. -1.
    10030    2    1    2    0    0  0.00000000000E+00  0.00000000000E+00  0.32216227133E+03  0.16323194361E+04  0.16002119273E+04 0.  0.
        4    1    3    3  502    0  0.47932165543E+03  0.61111505590E+03 -0.35018356725E+02  0.77745659629E+03  0.12699999809E+01 0. -1.
       -4    1    3    3    0  502 -0.47932165543E+03 -0.61111505590E+03  0.35718062806E+03  0.85486283980E+03  0.12699999809E+01 0.  1.
</event>
<event>
 5   0  0.2046108E-05  0.1599377E+04  0.7818609E-02  0.8820931E-01
       -2   -1    0    0    0  501  0.00000000000E+00  0.00000000000E+00  0.74533372808E+03  0.74533372808E+03  0.25500000920E-02 0. -1.
        2   -1    0    0  501    0  0.00000000000E+00  0.00000000000E+00 -0.85800756708E+03  0.85800756708E+03  0.25500000920E-02 0.  1.
    10030    2    1    2    0    0  0.00000000000E+00  0.00000000000E+00 -0.11267383900E+03  0.16033412952E+04  0.15993773522E+04 0.  0.
        1    1    3    3  502    0  0.43601496645E+03  0.22079054767E+03  0.57819665750E+03  0.75707918455E+03  0.50400001928E-02 0. -1.
       -1    1    3    3    0  502 -0.43601496645E+03 -0.22079054767E+03 -0.69087049649E+03  0.84626211062E+03  0.50400001928E-02 0.  1.
</event>
<event>
 5   0  0.2046108E-05  0.1601885E+04  0.7818609E-02  0.8819391E-01
        2   -1    0    0  501    0  0.00000000000E+00  0.00000000000E+00  0.43301447493E+03  0.43301447494E+03  0.25500000920E-02 0. -1.
       -2   -1    0    0    0  501  0.00000000000E+00  0.00000000000E+00 -0.14814954388E+04  0.14814954388E+04  0.25500000920E-02 0.  1.
    10030    2    1    2    0    0  0.00000000000E+00  0.00000000000E+00 -0.10484809639E+04  0.19145099137E+04  0.16018851014E+04 0.  0.
        1    1    3    3  502    0  0.55633711861E+03  0.49523731499E+03 -0.87623095888E+03  0.11500224698E+04  0.50400001928E-02 0.  1.
       -1    1    3    3    0  502 -0.55633711861E+03 -0.49523731499E+03 -0.17225000499E+03  0.76448744394E+03  0.50400001928E-02 0. -1.
</event>
<event>
 5   0  0.1126485E-05  0.1598626E+04  0.7818609E-02  0.8821393E-01
       -1   -1    0    0    0  501  0.00000000000E+00  0.00000000000E+00  0.85594522397E+03  0.85594522398E+03  0.50400001928E-02 0.  1.
        1   -1    0    0  501    0  0.00000000000E+00  0.00000000000E+00 -0.74642765411E+03  0.74642765412E+03  0.50400001928E-02 0. -1.
    10030    2    1    2    0    0  0.00000000000E+00  0.00000000000E+00  0.10951756986E+03  0.16023728781E+04  0.15986258919E+04 0.  0.
        2    1    3    3  502    0  0.68830098576E+03  0.15769890476E+03 -0.32065077181E+03  0.77552827739E+03  0.25500000920E-02 0. -1.
       -2    1    3    3    0  502 -0.68830098576E+03 -0.15769890476E+03  0.43016834167E+03  0.82684460072E+03  0.25500000920E-02 0.  1.
</event>
<event>
 5   0  0.2046108E-05  0.1600219E+04  0.7818609E-02  0.8820413E-01
        2   -1    0    0  501    0  0.00000000000E+00  0.00000000000E+00  0.18683117539E+04  0.18683117539E+04  0.25500000920E-02 0. -1.
       -2   -1    0    0    0  501  0.00000000000E+00  0.00000000000E+00 -0.34264914833E+03  0.34264914834E+03  0.25500000920E-02 0.  1.
    10030    2    1    2    0    0  0.00000000000E+00  0.00000000000E+00  0.15256626055E+04  0.22109609022E+04  0.16002192741E+04 0.  0.
        1    1    3    3  502    0  0.49407315711E+03  0.34606706363E+03  0.14890973287E+04  0.16066367205E+04  0.50400001928E-02 0. -1.
       -1    1    3    3    0  502 -0.49407315711E+03 -0.34606706363E+03  0.36565276782E+02  0.60432418171E+03  0.50400001928E-02 0.  1.
</event>
<event>
 5   0  0.1057506E-05  0.1600559E+04  0.7818609E-02  0.8820204E-01
       -1   -1    0    0    0  501  0.00000000000E+00  0.00000000000E+00  0.11144243875E+04  0.11144243876E+04  0.50400001928E-02 0. -1.
        1   -1    0    0  501    0  0.00000000000E+00  0.00000000000E+00 -0.57468921417E+03  0.57468921419E+03  0.50400001928E-02 0.  1.
    10030    2    1    2    0    0  0.00000000000E+00  0.00000000000E+00  0.53973517338E+03  0.16891136018E+04  0.16005594966E+04 0.  0.
        5    1    3    3  502    0 -0.52755806619E+03  0.17843237243E+03 -0.33661952199E+03  0.65076141351E+03  0.46999998093E+01 0.  1.
       -5    1    3    3    0  502  0.52755806619E+03 -0.17843237243E+03  0.87635469537E+03  0.10383521882E+04  0.46999998093E+01 0. -1.
</event>
<event>
 5   0  0.1081831E-05  0.1600068E+04  0.7818609E-02  0.8820506E-01
       -1   -1    0    0    0  501  0.00000000000E+00  0.00000000000E+00  0.98834258570E+03  0.98834258571E+03  0.50400001928E-02 0.  1.
        1   -1    0    0  501    0  0.00000000000E+00  0.00000000000E+00 -0.64760384286E+03  0.64760384288E+03  0.50400001928E-02 0. -1.
    10030    2    1    2    0    0  0.00000000000E+00  0.00000000000E+00  0.34073874284E+03  0.16359464286E+04  0.16000680693E+04 0.  0.
        3    1    3    3  502    0 -0.65996168047E+03  0.28439046662E+03 -0.18912114782E+03  0.74309768937E+03  0.10100000352E+00 0. -1.
       -3    1    3    3    0  502  0.65996168047E+03 -0.28439046662E+03  0.52985989066E+03  0.89284873922E+03  0.10100000352E+00 0.  1.
</event>
<event>
 5   0  0.1990948E-05  0.1600417E+04  0.7818609E-02  0.8820292E-01
        2   -1    0    0  501    0  0.00000000000E+00  0.00000000000E+00  0.11688744638E+04  0.11688744638E+04  0.25500000920E-02 0.  1.
       -2   -1    0    0    0  501  0.00000000000E+00  0.00000000000E+00 -0.54782052518E+03  0.54782052519E+03  0.25500000920E-02 0. -1.
    10030    2    1    2    0    0  0.00000000000E+00  0.00000000000E+00  0.62105393865E+03  0.17166949890E+04  0.16004167241E+04 0.  0.
        4    1    3    3  502    0 -0.16087525082E+00  0.73348133151E+03 -0.32616888758E+02  0.73420730307E+03  0.12699999809E+01 0.  1.
       -4    1    3    3    0  502  0.16087525082E+00 -0.73348133151E+03  0.65367082741E+03  0.98248768596E+03  0.12699999809E+01 0. -1.
</event>
<event>
 5   0  0.1060251E-05  0.1593567E+04  0.7818609E-02  0.8824510E-01
        1   -1    0    0  501    0  0.00000000000E+00  0.00000000000E+00  0.44595425264E+03  0.44595425267E+03  0.50400001928E-02 0. -1.
       -1   -1    0    0    0  501  0.00000000000E+00  0.00000000000E+00 -0.14236069752E+04  0.14236069752E+04  0.50400001928E-02 0.  1.
    10030    2    1    2    0    0  0.00000000000E+00  0.00000000000E+00 -0.97765272253E+03  0.18695612278E+04  0.15935665467E+04 0.  0.
        1    1    3    3  502    0  0.70608728855E+03  0.18218885696E+03 -0.86555023045E+03  0.11317814454E+04  0.50400001928E-02 0. -1.
       -1    1    3    3    0  502 -0.70608728855E+03 -0.18218885696E+03 -0.11210249208E+03  0.73777978246E+03  0.50400001928E-02 0.  1.
</event>
<event>
 5   0  0.2125803E-05  0.1599764E+04  0.7818609E-02  0.8820693E-01
        2   -1    0    0  501    0  0.00000000000E+00  0.00000000000E+00  0.16527554270E+04  0.16527554270E+04  0.25500000920E-02 0.  1.
       -2   -1    0    0    0  501  0.00000000000E+00  0.00000000000E+00 -0.38711795589E+03  0.38711795590E+03  0.25500000920E-02 0. -1.
    10030    2    1    2    0    0  0.00000000000E+00  0.00000000000E+00  0.12656374711E+04  0.20398733829E+04  0.15997641108E+04 0.  0.
        3    1    3    3  502    0  0.23372684791E+03  0.41424114423E+03  0.14528508734E+04  0.15287248398E+04  0.10100000352E+00 0.  1.
       -3    1    3    3    0  502 -0.23372684791E+03 -0.41424114423E+03 -0.18721340230E+03  0.51114854319E+03  0.10100000352E+00 0. -1.
</event>
<event>
 5   0  0.2125803E-05  0.1600412E+04  0.7818609E-02  0.8820295E-01
        2   -1    0    0  501    0  0.00000000000E+00  0.00000000000E+00  0.15222049348E+04  0.15222049348E+04  0.25500000920E-02 0.  1.
       -2   -1    0    0    0  501  0.00000000000E+00  0.00000000000E+00 -0.42065908898E+03  0.42065908899E+03  0.25500000920E-02 0. -1.
    10030    2    1    2    0    0  0.00000000000E+00  0.00000000000E+00  0.11015458458E+04  0.19428640238E+04  0.16004116235E+04 0.  0.
        3    1    3    3  502    0  0.22916191459E+03 -0.54783655067E+03 -0.10036431857E+03  0.60225665293E+03  0.10100000352E+00 0. -1.
       -3    1    3    3    0  502 -0.22916191459E+03  0.54783655067E+03  0.12019101644E+04  0.13406073709E+04  0.10100000352E+00 0.  1.
</event>
<event>
 5   0  0.2125803E-05  0.1602367E+04  0.7818609E-02  0.8819095E-01
       -2   -1    0    0    0  501  0.00000000000E+00  0.00000000000E+00  0.45510511001E+03  0.45510511002E+03  0.25500000920E-02 0.  1.
        2   -1    0    0  501    0  0.00000000000E+00  0.00000000000E+00 -0.14104332743E+04  0.14104332743E+04  0.25500000920E-02 0. -1.
    10030    2    1    2    0    0  0.00000000000E+00  0.00000000000E+00 -0.95532816431E+03  0.18655383843E+04  0.16023674865E+04 0.  0.
        3    1    3    3  502    0  0.39157673632E+03  0.69883788099E+03 -0.49365514435E+03  0.94095809475E+03  0.10100000352E+00 0.  1.
       -3    1    3    3    0  502 -0.39157673632E+03 -0.69883788099E+03 -0.46167301995E+03  0.92458028959E+03  0.10100000352E+00 0. -1.
</event>
<event>
 5   0  0.1126485E-05  0.1600404E+04  0.7818609E-02  0.8820300E-01
       -1   -1    0    0    0  501  0.00000000000E+00  0.00000000000E+00  0.82434248583E+03  0.82434248584E+03  0.50400001928E-02 0.  1.
        1   -1    0    0  501    0  0.00000000000E+00  0.00000000000E+00 -0.77676874869E+03  0.77676874870E+03  0.50400001928E-02 0. -1.
    10030    2    1    2    0    0  0.00000000000E+00  0.00000000000E+00  0.47573737140E+02  0.16011112345E+04  0.16004043005E+04 0.  0.
        2    1    3    3  502    0  0.71247209605E+02  0.56185353741E+03 -0.54176622503E+03  0.78375136681E+03  0.25500000920E-02 0. -1.
       -2    1    3    3    0  502 -0.71247209605E+02 -0.56185353741E+03  0.58933996217E+03  0.81735986774E+03  0.25500000920E-02 0.  1.
</event>
<event>
 5   0  0.1994525E-05  0.1600549E+04  0.7818609E-02  0.8820211E-01
        2   -1    0    0  501    0  0.00000000000E+00  0.00000000000E+00  0.11759626537E+04  0.11759626537E+04  0.25500000920E-02 0. -1.
       -2   -1    0    0    0  501  0.00000000000E+00  0.00000000000E+00 -0.54460878097E+03  0.54460878098E+03  0.25500000920E-02 0.  1.
    10030    2    1    2    0    0  0.00000000000E+00  0.00000000000E+00  0.63135387275E+03  0.17205714347E+04  0.16005493898E+04 0.  0.
        5    1    3    3  502    0  0.52664257838E+03  0.55655324499E+02 -0.32928683523E+03  0.62361994064E+03  0.46999998093E+01 0.  1.
       -5    1    3    3    0  502 -0.52664257838E+03 -0.55655324499E+02  0.96064070798E+03  0.10969514941E+04  0.46999998093E+01 0. -1.
</event>
<event>
 5   0  0.1994525E-05  0.1598095E+04  0.7818609E-02  0.8821719E-01
       -2   -1    0    0    0  501  0.00000000000E+00  0.00000000000E+00  0.49861482085E+03  0.49861482086E+03  0.25500000920E-02 0. -1.
        2   -1    0    0  501    0  0.00000000000E+00  0.00000000000E+00 -0.12805007609E+04  0.12805007609E+04  0.25500000920E-02 0.  1.
    10030    2    1    2    0    0  0.00000000000E+00  0.00000000000E+00 -0.78188594003E+03  0.17791155817E+04  0.15980946874E+04 0.  0.
        5    1    3    3  502    0  0.41540965912E+03 -0.30631530767E+03  0.28811731309E+03  0.59112429209E+03  0.46999998093E+01 0. -1.
       -5    1    3    3    0  502 -0.41540965912E+03  0.30631530767E+03 -0.10700032531E+04  0.11879912896E+04  0.46999998093E+01 0.  1.
</event>
<event>
 5   0  0.1990948E-05  0.1599766E+04  0.7818609E-02  0.8820692E-01
        2   -1    0    0  501    0  0.00000000000E+00  0.00000000000E+00  0.82413903953E+03  0.82413903953E+03  0.25500000920E-02 0. -1.
       -2   -1    0    0    0  501  0.00000000000E+00  0.00000000000E+00 -0.77634098387E+03  0.77634098387E+03  0.25500000920E-02 0.  1.
    10030    2    1    2    0    0  0.00000000000E+00  0.00000000000E+00  0.47798055657E+02  0.16004800234E+04  0.15997661239E+04 0.  0.
        4    1    3    3  502    0  0.69388335572E+02  0.64362135183E+03  0.49394708598E+03  0.81427791465E+03  0.12699999809E+01 0. -1.
       -4    1    3    3    0  502 -0.69388335572E+02 -0.64362135183E+03 -0.44614903032E+03  0.78620210875E+03  0.12699999809E+01 0.  1.
</event>
<event>
 5   0  0.1990948E-05  0.1600148E+04  0.7818609E-02  0.8820457E-01
       -2   -1    0    0    0  501  0.00000000000E+00  0.00000000000E+00  0.43132128360E+03  0.43132128361E+03  0.25500000920E-02 0.  1.
        2   -1    0    0  501    0  0.00000000000E+00  0.00000000000E+00 -0.14840863770E+04  0.14840863770E+04  0.25500000920E-02 0. -1.
    10030    2    1    2    0    0  0.00000000000E+00  0.00000000000E+00 -0.10527650934E+04  0.19154076606E+04  0.16001475446E+04 0.  0.
        4    1    3    3  502    0 -0.29122167022E+03 -0.71043550534E+03 -0.79561283382E+03  0.11056808141E+04  0.12699999809E+01 0. -1.
       -4    1    3    3    0  502  0.29122167022E+03  0.71043550534E+03 -0.25715225960E+03  0.80972684651E+03  0.12699999809E+01 0.  1.
</event>
<event>
 5   0  0.1126485E-05  0.1599605E+04  0.7818609E-02  0.8820791E-01
        1   -1    0    0  501    0  0.00000000000E+00  0.00000000000E+00  0.88494507360E+03  0.88494507361E+03  0.50400001928E-02 0. -1.
       -1   -1    0    0    0  501  0.00000000000E+00  0.00000000000E+00 -0.72285129241E+03  0.72285129243E+03  0.50400001928E-02 0.  1.
    10030    2    1    2    0    0  0.00000000000E+00  0.00000000000E+00  0.16209378119E+03  0.16077963660E+04  0.15996045639E+04 0.  0.
        2    1    3    3  502    0  0.55051885536E+02  0.47436195470E+03 -0.56382564022E+03  0.73888383847E+03  0.25500000920E-02 0.  1.
       -2    1    3    3    0  502 -0.55051885536E+02 -0.47436195470E+03  0.72591942142E+03  0.86891252757E+03  0.25500000920E-02 0. -1.
</event>
<event>
 5   0  0.2125803E-05  0.1599604E+04  0.7818609E-02  0.8820791E-01
        2   -1    0    0  501    0  0.00000000000E+00  0.00000000000E+00  0.37956892680E+03  0.37956892680E+03  0.25500000920E-02 0. -1.
       -2   -1    0    0    0  501  0.00000000000E+00  0.00000000000E+00 -0.16852892944E+04  0.16852892944E+04  0.25500000920E-02 0.  1.
    10030    2    1    2    0    0  0.00000000000E+00  0.00000000000E+00 -0.13057203676E+04  0.20648582212E+04  0.15996042621E+04 0.  0.
        3    1    3    3  502    0 -0.41404788670E+03 -0.68395359365E+03 -0.68040318088E+03  0.10498460218E+04  0.10100000352E+00 0. -1.
       -3    1    3    3    0  502  0.41404788670E+03  0.68395359365E+03 -0.62531718675E+03  0.10150121994E+04  0.10100000352E+00 0.  1.
</event>
<event>
 5   0  0.1090674E-05  0.1600689E+04  0.7818609E-02  0.8820125E-01
        1   -1    0    0  501    0  0.00000000000E+00  0.00000000000E+00  0.77815689586E+03  0.77815689587E+03  0.50400001928E-02 0.  1.
       -1   -1    0    0    0  501  0.00000000000E+00  0.00000000000E+00 -0.82316502357E+03  0.82316502358E+03  0.50400001928E-02 0. -1.
    10030    2    1    2    0    0  0.00000000000E+00  0.00000000000E+00 -0.45008127710E+02  0.16013219195E+04  0.16006892760E+04 0.  0.
        4    1    3    3  502    0 -0.27024460934E+03 -0.13816182044E+02 -0.77601281025E+03  0.82183972302E+03  0.12699999809E+01 0. -1.
       -4    1    3    3    0  502  0.27024460934E+03  0.13816182044E+02  0.73100468254E+03  0.77948219643E+03  0.12699999809E+01 0.  1.
</event>
<event>
 5   0  0.2046108E-05  0.1600031E+04  0.7818609E-02  0.8820529E-01
        2   -1    0    0  501    0  0.00000000000E+00  0.00000000000E+00  0.96092024927E+03  0.96092024927E+03  0.25500000920E-02 0. -1.
       -2   -1    0    0    0  501  0.00000000000E+00  0.00000000000E+00 -0.66605392690E+03  0.66605392691E+03  0.25500000920E-02 0.  1.
    10030    2    1    2    0    0  0.00000000000E+00  0.00000000000E+00  0.29486632236E+03  0.16269741762E+04  0.16000308815E+04 0.  0.
        1    1    3    3  502    0 -0.46028861261E+03 -0.23871949027E+03  0.76693123294E+03  0.92576245226E+03  0.50400001928E-02 0. -1.
       -1    1    3    3    0  502  0.46028861261E+03  0.23871949027E+03 -0.47206491057E+03  0.70121172391E+03  0.50400001928E-02 0.  1.
</event>
<event>
 5   0  0.2147844E-05  0.1600270E+04  0.7818609E-02  0.8820382E-01
       -2   -1    0    0    0  501  0.00000000000E+00  0.00000000000E+00  0.37468303371E+03  0.37468303372E+03  0.25500000920E-02 0. -1.
        2   -1    0    0  501    0  0.00000000000E+00  0.00000000000E+00 -0.17086880218E+04  0.17086880218E+04  0.25500000920E-02 0.  1.
    10030    2    1    2    0    0  0.00000000000E+00  0.00000000000E+00 -0.13340049881E+04  0.20833710555E+04  0.16002704917E+04 0.  0.
        2    1    3    3  502    0 -0.16243597143E+03 -0.77238681451E+03 -0.83798923577E+03  0.11511701852E+04  0.25500000920E-02 0.  1.
       -2    1    3    3    0  502  0.16243597143E+03  0.77238681451E+03 -0.49601575231E+03  0.93220087030E+03  0.25500000920E-02 0. -1.
</event>
<event>
 5   0  0.1090674E-05  0.1600087E+04  0.7818609E-02  0.8820494E-01
        1   -1    0    0  501    0  0.00000000000E+00  0.00000000000E+00  0.67865588110E+03  0.67865588112E+03  0.50400001928E-02 0. -1.
       -1   -1    0    0    0  501  0.00000000000E+00  0.00000000000E+00 -0.94314333667E+03  0.94314333668E+03  0.50400001928E-02 0.  1.
    10030    2    1    2    0    0  0.00000000000E+00  0.00000000000E+00 -0.26448745557E+03  0.16217992178E+04  0.16000872129E+04 0.  0.
        4    1    3    3  502    0 -0.49040022255E+03 -0.41568803447E+02  0.50706689542E+03  0.70663908258E+03  0.12699999809E+01 0. -1.
       -4    1    3    3    0  502  0.49040022255E+03  0.41568803447E+02 -0.77155435099E+03  0.91516013523E+03  0.12699999809E+01 0.  1.
</event>
<event>
 5   0  0.1126485E-05  0.1599582E+04  0.7818609E-02  0.8820805E-01
       -1   -1    0    0    0  501  0.00000000000E+00  0.00000000000E+00  0.63489781508E+03  0.63489781510E+03  0.50400001928E-02 0.  1.
        1   -1    0    0  501    0  0.00000000000E+00  0.00000000000E+00 -0.10075093767E+04  0.10075093767E+04  0.50400001928E-02 0. -1.
    10030    2    1    2    0    0  0.00000000000E+00  0.00000000000E+00 -0.37261156160E+03  0.16424071918E+04  0.15995818228E+04 0.  0.
        2    1    3    3  502    0 -0.16999748098E+03 -0.56620587417E+03 -0.73940885254E+03  0.94668563246E+03  0.25500000920E-02 0. -1.
       -2    1    3    3    0  502  0.16999748098E+03  0.56620587417E+03  0.36679729094E+03  0.69572155934E+03  0.25500000920E-02 0.  1.
</event>
<event>
 5   0  0.1990948E-05  0.1593643E+04  0.7818609E-02  0.8824463E-01
        2   -1    0    0  501    0  0.00000000000E+00  0.00000000000E+00  0.15934974644E+04  0.15934974644E+04  0.25500000920E-02 0. -1.
       -2   -1    0    0    0  501  0.00000000000E+00  0.00000000000E+00 -0.39844710850E+03  0.39844710851E+03  0.25500000920E-02 0.  1.
    10030    2    1    2    0    0  0.00000000000E+00  0.00000000000E+00  0.11950503558E+04  0.19919445729E+04  0.15936429426E+04 0.  0.
        4    1    3    3  502    0  0.38197363147E+03  0.12425267125E+02  0.14714629732E+04  0.15202839000E+04  0.12699999809E+01 0. -1.
       -4    1    3    3    0  502 -0.38197363147E+03 -0.12425267125E+02 -0.27641261730E+03  0.47166067285E+03  0.12699999809E+01 0.  1.
</event>
<event>
 5   0  0.1990948E-05  0.1600347E+04  0.7818609E-02  0.8820335E-01
        2   -1    0    0  501    0  0.00000000000E+00  0.00000000000E+00  0.46066177054E+03  0.46066177055E+03  0.25500000920E-02 0.  1.
       -2   -1    0    0    0  501  0.00000000000E+00  0.00000000000E+00 -0.13899088601E+04  0.13899088601E+04  0.25500000920E-02 0. -1.
    10030    2    1    2    0    0  0.00000000000E+00  0.00000000000E+00 -0.92924708959E+03  0.18505706307E+04  0.16003473078E+04 0.  0.
        4    1    3    3  502    0 -0.14137323838E+03 -0.17785343740E+03  0.42257936323E+03  0.47978450251E+03  0.12699999809E+01 0.  1.
       -4    1    3    3    0  502  0.14137323838E+03  0.17785343740E+03 -0.13518264528E+04  0.13707861282E+04  0.12699999809E+01 0. -1.
</event>
<event>
 5   0  0.1090674E-05  0.1591411E+04  0.7818609E-02  0.8825842E-01
       -1   -1    0    0    0  501  0.00000000000E+00  0.00000000000E+00  0.63334648393E+03  0.63334648395E+03  0.50400001928E-02 0.  1.
        1   -1    0    0  501    0  0.00000000000E+00  0.00000000000E+00 -0.99968488076E+03  0.99968488077E+03  0.50400001928E-02 0. -1.
    10030    2    1    2    0    0  0.00000000000E+00  0.00000000000E+00 -0.36633839683E+03  0.16330313647E+04  0.15914105747E+04 0.  0.
        4    1    3    3  502    0 -0.61548792074E+03 -0.48434179414E+03 -0.32731704341E+03  0.84885240999E+03  0.12699999809E+01 0. -1.
       -4    1    3    3    0  502  0.61548792074E+03  0.48434179414E+03 -0.39021353419E+02  0.78417895474E+03  0.12699999809E+01 0.  1.
</event>
<event>
 5   0  0.1126485E-05  0.1599914E+04  0.7818609E-02  0.8820601E-01
        1   -1    0    0  501    0  0.00000000000E+00  0.00000000000E+00  0.79777387129E+03  0.79777387131E+03  0.50400001928E-02 0.  1.
       -1   -1    0    0    0  501  0.00000000000E+00  0.00000000000E+00 -0.80214631153E+03  0.80214631154E+03  0.50400001928E-02 0. -1.
    10030    2    1    2    0    0  0.00000000000E+00  0.00000000000E+00 -0.43724402319E+01  0.15999201829E+04  0.15999142081E+04 0.  0.
        2    1    3    3  502    0  0.63132765554E+03  0.81281805936E+02 -0.48669811987E+03  0.80128421956E+03  0.25500000920E-02 0. -1.
       -2    1    3    3    0  502 -0.63132765554E+03 -0.81281805936E+02  0.48232567964E+03  0.79863596329E+03  0.25500000920E-02 0.  1.
</event>
<event>
 5   0  0.1994525E-05  0.1599811E+04  0.7818609E-02  0.8820664E-01
       -2   -1    0    0    0  501  0.00000000000E+00  0.00000000000E+00  0.36086843378E+03  0.36086843379E+03  0.25500000920E-02 0. -1.
        2   -1    0    0  501    0  0.00000000000E+00  0.00000000000E+00 -0.17730808163E+04  0.17730808163E+04  0.25500000920E-02 0.  1.
    10030    2    1    2    0    0  0.00000000000E+00  0.00000000000E+00 -0.14122123825E+04  0.21339492501E+04  0.15998111103E+04 0.  0.
        5    1    3    3  502    0  0.67838825643E+03  0.21184258564E+03 -0.11957292654E+04  0.13909990919E+04  0.46999998093E+01 0.  1.
       -5    1    3    3    0  502 -0.67838825643E+03 -0.21184258564E+03 -0.21648311711E+03  0.74295015818E+03  0.46999998093E+01 0. -1.
</event>
<event>
 5   0  0.1994525E-05  0.1600719E+04  0.7818609E-02  0.8820106E-01
       -2   -1    0    0    0  501  0.00000000000E+00  0.00000000000E+00  0.13076534111E+04  0.13076534111E+04  0.25500000920E-02 0.  1.
        2   -1    0    0  501    0  0.00000000000E+00  0.00000000000E+00 -0.48986624398E+03  0.48986624398E+03  0.25500000920E-02 0. -1.
    10030    2    1    2    0    0  0.00000000000E+00  0.00000000000E+00  0.81778716715E+03  0.17975196551E+04  0.16007189197E+04 0.  0.
        5    1    3    3  502    0 -0.18163175988E+03 -0.50911967522E+03 -0.25389170067E+03  0.59722359762E+03  0.46999998093E+01 0. -1.
       -5    1    3    3    0  502  0.18163175988E+03  0.50911967522E+03  0.10716788678E+04  0.12002960575E+04  0.46999998093E+01 0.  1.
</event>
<event>
 5   0  0.1057506E-05  0.1600356E+04  0.7818609E-02  0.8820329E-01
        1   -1    0    0  501    0  0.00000000000E+00  0.00000000000E+00  0.15393870221E+04  0.15393870221E+04  0.50400001928E-02 0. -1.
       -1   -1    0    0    0  501  0.00000000000E+00  0.00000000000E+00 -0.41593484704E+03  0.41593484707E+03  0.50400001928E-02 0.  1.
    10030    2    1    2    0    0  0.00000000000E+00  0.00000000000E+00  0.11234521750E+04  0.19553218691E+04  0.16003558424E+04 0.  0.
        5    1    3    3  502    0 -0.62561971492E+03 -0.32786997693E+03  0.10211048410E+04  0.12416021649E+04  0.46999998093E+01 0. -1.
       -5    1    3    3    0  502  0.62561971492E+03  0.32786997693E+03  0.10234733399E+03  0.71371970425E+03  0.46999998093E+01 0.  1.
</event>
<event>
 5   0  0.2147844E-05  0.1600094E+04  0.7818609E-02  0.8820491E-01
        2   -1    0    0  501    0  0.00000000000E+00  0.00000000000E+00  0.12197972285E+04  0.12197972285E+04  0.25500000920E-02 0.  1.
       -2   -1    0    0    0  501  0.00000000000E+00  0.00000000000E+00 -0.52473875372E+03  0.52473875373E+03  0.25500000920E-02 0. -1.
    10030    2    1    2    0    0  0.00000000000E+00  0.00000000000E+00  0.69505847473E+03  0.17445359822E+04  0.16000935941E+04 0.  0.
        2    1    3    3  502    0 -0.26281533039E+02  0.31826234360E+03 -0.45223745388E+03  0.55362474026E+03  0.25500000920E-02 0. -1.
       -2    1    3    3    0  502  0.26281533039E+02 -0.31826234360E+03  0.11472959286E+04  0.11909112419E+04  0.25500000920E-02 0.  1.
</event>
<event>
 5   0  0.1090674E-05  0.1599911E+04  0.7818609E-02  0.8820603E-01
        1   -1    0    0  501    0  0.00000000000E+00  0.00000000000E+00  0.11090694734E+04  0.11090694734E+04  0.50400001928E-02 0. -1.
       -1   -1    0    0    0  501  0.00000000000E+00  0.00000000000E+00 -0.57699587089E+03  0.57699587091E+03  0.50400001928E-02 0.  1.
    10030    2    1    2    0    0  0.00000000000E+00  0.00000000000E+00  0.53207360252E+03  0.16860653443E+04  0.15999106309E+04 0.  0.
        4    1    3    3  502    0  0.78260121129E+03  0.67565912345E+02  0.10657055191E+03  0.79270972232E+03  0.12699999809E+01 0.  1.
       -4    1    3    3    0  502 -0.78260121129E+03 -0.67565912345E+02  0.42550305061E+03  0.89335562202E+03  0.12699999809E+01 0. -1.
</event>
<event>
 5   0  0.2125803E-05  0.1599747E+04  0.7818609E-02  0.8820703E-01
        2   -1    0    0  501    0  0.00000000000E+00  0.00000000000E+00  0.20619844785E+04  0.20619844785E+04  0.25500000920E-02 0. -1.
       -2   -1    0    0    0  501  0.00000000000E+00  0.00000000000E+00 -0.31028260173E+03  0.31028260174E+03  0.25500000920E-02 0.  1.
    10030    2    1    2    0    0  0.00000000000E+00  0.00000000000E+00  0.17517018767E+04  0.23722670802E+04  0.15997473659E+04 0.  0.
        3    1    3    3  502    0 -0.48159031361E+02  0.62772506603E+03  0.14419312923E+03  0.64587128713E+03  0.10100000352E+00 0.  1.
       -3    1    3    3    0  502  0.48159031361E+02 -0.62772506603E+03  0.16075087475E+04  0.17263957931E+04  0.10100000352E+00 0. -1.
</event>
<event>
 5   0  0.7597000E-06  0.1599683E+04  0.7818609E-02  0.8820743E-01
        4   -1    0    0  501    0  0.00000000000E+00  0.00000000000E+00  0.10042088152E+04  0.10042096183E+04  0.12699999809E+01 0.  1.
       -4   -1    0    0    0  501  0.00000000000E+00  0.00000000000E+00 -0.63706322452E+03  0.63706449041E+03  0.12699999809E+01 0. -1.
    10030    2    1    2    0    0  0.00000000000E+00  0.00000000000E+00  0.36714559068E+03  0.16412741087E+04  0.15996827233E+04 0.  0.
        4    1    3    3  502    0 -0.56232731959E+02 -0.55756563707E+03 -0.40196935626E+03  0.68965392485E+03  0.12699999809E+01 0. -1.
       -4    1    3    3    0  502  0.56232731959E+02  0.55756563707E+03  0.76911494695E+03  0.95162018384E+03  0.12699999809E+01 0.  1.
</event>
<event>
 5   0  0.2147844E-05  0.1599849E+04  0.7818609E-02  0.8820641E-01
        2   -1    0    0  501    0  0.00000000000E+00  0.00000000000E+00  0.24272393937E+04  0.24272393937E+04  0.25500000920E-02 0.  1.
       -2   -1    0    0    0  501  0.00000000000E+00  0.00000000000E+00 -0.26362410305E+03  0.26362410306E+03  0.25500000920E-02 0. -1.
    10030    2    1    2    0    0  0.00000000000E+00  0.00000000000E+00  0.21636152906E+04  0.26908634967E+04  0.15998485029E+04 0.  0.
        2    1    3    3  502    0 -0.56895660620E+03  0.45881956429E+03  0.16285103841E+04  0.17850134687E+04  0.25500000920E-02 0.  1.
       -2    1    3    3    0  502  0.56895660620E+03 -0.45881956429E+03  0.53510490653E+03  0.90585002805E+03  0.25500000920E-02 0. -1.
</event>
<event>
 5   0  0.1081831E-05  0.1600787E+04  0.7818609E-02  0.8820064E-01
       -1   -1    0    0    0  501  0.00000000000E+00  0.00000000000E+00  0.93891190643E+03  0.93891190644E+03  0.50400001928E-02 0. -1.
        1   -1    0    0  501    0  0.00000000000E+00  0.00000000000E+00 -0.68231121275E+03  0.68231121277E+03  0.50400001928E-02 0.  1.
    10030    2    1    2    0    0  0.00000000000E+00  0.00000000000E+00  0.25660069368E+03  0.16212231192E+04  0.16007874582E+04 0.  0.
        3    1    3    3  502    0  0.76049004214E+03 -0.24884844092E+03  0.14750183009E+03  0.81365069337E+03  0.10100000352E+00 0. -1.
       -3    1    3    3    0  502 -0.76049004214E+03  0.24884844092E+03  0.10909886359E+03  0.80757242584E+03  0.10100000352E+00 0.  1.
</event>
<event>
 5   0  0.2147844E-05  0.1600312E+04  0.7818609E-02  0.8820356E-01
        2   -1    0    0  501    0  0.00000000000E+00  0.00000000000E+00  0.25896418267E+04  0.25896418267E+04  0.25500000920E-02 0.  1.
       -2   -1    0    0    0  501  0.00000000000E+00  0.00000000000E+00 -0.24723487785E+03  0.24723487786E+03  0.25500000920E-02 0. -1.
    10030    2    1    2    0    0  0.00000000000E+00  0.00000000000E+00  0.23424069489E+04  0.28368767046E+04  0.16003121955E+04 0.  0.
        2    1    3    3  502    0 -0.51210793338E+03 -0.47255831533E+03  0.47400202675E+03  0.84275964437E+03  0.25500000920E-02 0. -1.
       -2    1    3    3    0  502  0.51210793338E+03  0.47255831533E+03  0.18684049221E+04  0.19941170602E+04  0.25500000920E-02 0.  1.
</event>
<event>
 5   0  0.1057506E-05  0.1610874E+04  0.7818609E-02  0.8813895E-01
        1   -1    0    0  501    0  0.00000000000E+00  0.00000000000E+00  0.54664281953E+03  0.54664281955E+03  0.50400001928E-02 0.  1.
       -1   -1    0    0    0  501  0.00000000000E+00  0.00000000000E+00 -0.11867513685E+04  0.11867513685E+04  0.50400001928E-02 0. -1.
    10030    2    1    2    0    0  0.00000000000E+00  0.00000000000E+00 -0.64010854900E+03  0.17333941881E+04  0.16108744386E+04 0.  0.
        5    1    3    3  502    0 -0.37770248890E+03  0.64891285334E+03 -0.63370247691E+03  0.98252123671E+03  0.46999998093E+01 0. -1.
       -5    1    3    3    0  502  0.37770248890E+03 -0.64891285334E+03 -0.64060720856E+01  0.75087295138E+03  0.46999998093E+01 0.  1.
</event>
<event>
 5   0  0.1090674E-05  0.1600351E+04  0.7818609E-02  0.8820332E-01
        1   -1    0    0  501    0  0.00000000000E+00  0.00000000000E+00  0.93431717951E+03  0.93431717952E+03  0.50400001928E-02 0.  1.
       -1   -1    0    0    0  501  0.00000000000E+00  0.00000000000E+00 -0.68529289804E+03  0.68529289805E+03  0.50400001928E-02 0. -1.
    10030    2    1    2    0    0  0.00000000000E+00  0.00000000000E+00  0.24902428148E+03  0.16196100776E+04  0.16003511210E+04 0.  0.
        4    1    3    3  502    0 -0.19445095337E+01 -0.78014208988E+03 -0.55544226693E+02  0.78212034595E+03  0.12699999809E+01 0. -1.
       -4    1    3    3    0  502  0.19445095337E+01  0.78014208988E+03  0.30456850817E+03  0.83748973163E+03  0.12699999809E+01 0.  1.
</event>
<event>
 5   0  0.2125803E-05  0.1596981E+04  0.7818609E-02  0.8822405E-01
        2   -1    0    0  501    0  0.00000000000E+00  0.00000000000E+00  0.11002179857E+04  0.11002179857E+04  0.25500000920E-02 0. -1.
       -2   -1    0    0    0  501  0.00000000000E+00  0.00000000000E+00 -0.57950967570E+03  0.57950967571E+03  0.25500000920E-02 0.  1.
    10030    2    1    2    0    0  0.00000000000E+00  0.00000000000E+00  0.52070830996E+03  0.16797276614E+04  0.15969808616E+04 0.  0.
        3    1    3    3  502    0  0.29935470753E+03 -0.70538786763E+03  0.49648984900E+03  0.91306487451E+03  0.10100000352E+00 0. -1.
       -3    1    3    3    0  502 -0.29935470753E+03  0.70538786763E+03  0.24218460967E+02  0.76666278687E+03  0.10100000352E+00 0.  1.
</event>
<event>
 5   0  0.1081831E-05  0.1598604E+04  0.7818609E-02  0.8821406E-01
        1   -1    0    0  501    0  0.00000000000E+00  0.00000000000E+00  0.90209413462E+03  0.90209413463E+03  0.50400001928E-02 0.  1.
       -1   -1    0    0    0  501  0.00000000000E+00  0.00000000000E+00 -0.70822241730E+03  0.70822241732E+03  0.50400001928E-02 0. -1.
    10030    2    1    2    0    0  0.00000000000E+00  0.00000000000E+00  0.19387171732E+03  0.16103165519E+04  0.15986035014E+04 0.  0.
        3    1    3    3  502    0 -0.23556862386E+03  0.44898271713E+01 -0.67244742315E+03  0.71252949566E+03  0.10100000352E+00 0. -1.
       -3    1    3    3    0  502  0.23556862386E+03 -0.44898271713E+01  0.86631914047E+03  0.89778705628E+03  0.10100000352E+00 0.  1.
</event>
<event>
 5   0  0.1126485E-05  0.1599717E+04  0.7818609E-02  0.8820722E-01
        1   -1    0    0  501    0  0.00000000000E+00  0.00000000000E+00  0.29876930207E+04  0.29876930207E+04  0.50400001928E-02 0.  1.
       -1   -1    0    0    0  501  0.00000000000E+00  0.00000000000E+00 -0.21413622451E+03  0.21413622456E+03  0.50400001928E-02 0. -1.
    10030    2    1    2    0    0  0.00000000000E+00  0.00000000000E+00  0.27735567962E+04  0.32018292452E+04  0.15997166043E+04 0.  0.
        2    1    3    3  502    0  0.50457242586E+03  0.30010706315E+03  0.24740831531E+04  0.25427829303E+04  0.25500000920E-02 0.  1.
       -2    1    3    3    0  502 -0.50457242586E+03 -0.30010706315E+03  0.29947364305E+03  0.65904631489E+03  0.25500000920E-02 0. -1.
</event>
<event>
 5   0  0.1126485E-05  0.1600207E+04  0.7818609E-02  0.8820421E-01
       -1   -1    0    0    0  501  0.00000000000E+00  0.00000000000E+00  0.69772925613E+03  0.69772925615E+03  0.50400001928E-02 0.  1.
        1   -1    0    0  501    0  0.00000000000E+00  0.00000000000E+00 -0.91749836862E+03  0.91749836863E+03  0.50400001928E-02 0. -1.
    10030    2    1    2    0    0  0.00000000000E+00  0.00000000000E+00 -0.21976911249E+03  0.16152276248E+04  0.16002068045E+04 0.  0.
        2    1    3    3  502    0 -0.32618391043E+03  0.35973126890E+03  0.53197983876E+03  0.72028124931E+03  0.25500000920E-02 0.  1.
       -2    1    3    3    0  502  0.32618391043E+03 -0.35973126890E+03 -0.75174895125E+03  0.89494637547E+03  0.25500000920E-02 0. -1.
</event>
<event>
 5   0  0.1990948E-05  0.1600032E+04  0.7818609E-02  0.8820528E-01
        2   -1    0    0  501    0  0.00000000000E+00  0.00000000000E+00  0.98166162440E+03  0.98166162441E+03  0.25500000920E-02 0. -1.
       -2   -1    0    0    0  501  0.00000000000E+00  0.00000000000E+00 -0.65198207563E+03  0.65198207563E+03  0.25500000920E-02 0.  1.
    10030    2    1    2    0    0  0.00000000000E+00  0.00000000000E+00  0.32967954877E+03  0.16336437000E+04  0.16000322290E+04 0.  0.
        4    1    3    3  502    0 -0.67554885360E+03 -0.20789049337E+03  0.54746463703E+03  0.89403794804E+03  0.12699999809E+01 0.  1.
       -4    1    3    3    0  502  0.67554885360E+03  0.20789049337E+03 -0.21778508825E+03  0.73960575200E+03  0.12699999809E+01 0. -1.
</event>
<event>
 5   0  0.1060251E-05  0.1600560E+04  0.7818609E-02  0.8820204E-01
       -1   -1    0    0    0  501  0.00000000000E+00  0.00000000000E+00  0.12017841499E+04  0.12017841499E+04  0.50400001928E-02 0.  1.
        1   -1    0    0  501    0  0.00000000000E+00  0.00000000000E+00 -0.53291442314E+03  0.53291442316E+03  0.50400001928E-02 0. -1.
    10030    2    1    2    0    0  0.00000000000E+00  0.00000000000E+00  0.66886972676E+03  0.17346985731E+04  0.16005600357E+04 0.  0.
        1    1    3    3  502    0  0.60445237220E+03 -0.11892402538E+03 -0.21920132832E+03  0.65387675936E+03  0.50400001928E-02 0. -1.
       -1    1    3    3    0  502 -0.60445237220E+03  0.11892402538E+03  0.88807105508E+03  0.10808218137E+04  0.50400001928E-02 0.  1.
</event>
<event>
 5   0  0.1060251E-05  0.1600173E+04  0.7818609E-02  0.8820442E-01
        1   -1    0    0  501    0  0.00000000000E+00  0.00000000000E+00  0.99371998675E+03  0.99371998676E+03  0.50400001928E-02 0.  1.
       -1   -1    0    0    0  501  0.00000000000E+00  0.00000000000E+00 -0.64418403276E+03  0.64418403278E+03  0.50400001928E-02 0. -1.
    10030    2    1    2    0    0  0.00000000000E+00  0.00000000000E+00  0.34953595399E+03  0.16379040195E+04  0.16001731763E+04 0.  0.
        1    1    3    3  502    0 -0.37236991801E+03 -0.64721592474E+03 -0.11939440922E+03  0.75617645695E+03  0.50400001928E-02 0. -1.
       -1    1    3    3    0  502  0.37236991801E+03  0.64721592474E+03  0.46893036321E+03  0.88172756259E+03  0.50400001928E-02 0.  1.
</event>
<event>
 5   0  0.1994525E-05  0.1599826E+04  0.7818609E-02  0.8820655E-01
        2   -1    0    0  501    0  0.00000000000E+00  0.00000000000E+00  0.10669162295E+04  0.10669162295E+04  0.25500000920E-02 0.  1.
       -2   -1    0    0    0  501  0.00000000000E+00  0.00000000000E+00 -0.59972930878E+03  0.59972930878E+03  0.25500000920E-02 0. -1.
    10030    2    1    2    0    0  0.00000000000E+00  0.00000000000E+00  0.46718692073E+03  0.16666455383E+04  0.15998261566E+04 0.  0.
        5    1    3    3  502    0  0.13465772316E+03 -0.63277568883E+03 -0.25648115297E+03  0.69594715792E+03  0.46999998093E+01 0. -1.
       -5    1    3    3    0  502 -0.13465772316E+03  0.63277568883E+03  0.72366807370E+03  0.97069838038E+03  0.46999998093E+01 0.  1.
</event>
<event>
 5   0  0.2046108E-05  0.1599354E+04  0.7818609E-02  0.8820945E-01
       -2   -1    0    0    0  501  0.00000000000E+00  0.00000000000E+00  0.26411153771E+04  0.26411153771E+04  0.25500000920E-02 0.  1.
        2   -1    0    0  501    0  0.00000000000E+00  0.00000000000E+00 -0.24212629201E+03  0.24212629202E+03  0.25500000920E-02 0. -1.
    10030    2    1    2    0    0  0.00000000000E+00  0.00000000000E+00  0.23989890851E+04  0.28832416691E+04  0.15993542110E+04 0.  0.
        1    1    3    3  502    0 -0.57531187227E+03 -0.12055596625E+03  0.21769228794E+04  0.22548859648E+04  0.50400001928E-02 0.  1.
       -1    1    3    3    0  502  0.57531187227E+03  0.12055596625E+03  0.22206620564E+03  0.62835570427E+03  0.50400001928E-02 0. -1.
</event>
<event>
 5   0  0.2046108E-05  0.1599936E+04  0.7818609E-02  0.8820587E-01
        2   -1    0    0  501    0  0.00000000000E+00  0.00000000000E+00  0.60588653706E+03  0.60588653707E+03  0.25500000920E-02 0. -1.
       -2   -1    0    0    0  501  0.00000000000E+00  0.00000000000E+00 -0.10562191072E+04  0.10562191072E+04  0.25500000920E-02 0.  1.
    10030    2    1    2    0    0  0.00000000000E+00  0.00000000000E+00 -0.45033257016E+03  0.16621056443E+04  0.15999361703E+04 0.  0.
        1    1    3    3  502    0  0.67847704878E+03  0.12868137263E+03 -0.64466271524E+03  0.94471160564E+03  0.50400001928E-02 0.  1.
       -1    1    3    3    0  502 -0.67847704878E+03 -0.12868137263E+03  0.19433014508E+03  0.71739403865E+03  0.50400001928E-02 0. -1.
</event>
<event>
 5   0  0.1081831E-05  0.1599677E+04  0.7818609E-02  0.8820747E-01
       -1   -1    0    0    0  501  0.00000000000E+00  0.00000000000E+00  0.10866218544E+04  0.10866218544E+04  0.50400001928E-02 0.  1.
        1   -1    0    0  501    0  0.00000000000E+00  0.00000000000E+00 -0.58874344048E+03  0.58874344051E+03  0.50400001928E-02 0. -1.
    10030    2    1    2    0    0  0.00000000000E+00  0.00000000000E+00  0.49787841395E+03  0.16753652950E+04  0.15996768288E+04 0.  0.
        3    1    3    3  502    0  0.36891310334E+03 -0.70403340412E+03  0.34250591325E+03  0.86548843017E+03  0.10100000352E+00 0. -1.
       -3    1    3    3    0  502 -0.36891310334E+03  0.70403340412E+03  0.15537250070E+03  0.80987686478E+03  0.10100000352E+00 0.  1.
</event>
<event>
 5   0  0.1994525E-05  0.1600121E+04  0.7818609E-02  0.8820474E-01
        2   -1    0    0  501    0  0.00000000000E+00  0.00000000000E+00  0.16448730414E+04  0.16448730414E+04  0.25500000920E-02 0.  1.
       -2   -1    0    0    0  501  0.00000000000E+00  0.00000000000E+00 -0.38914675317E+03  0.38914675318E+03  0.25500000920E-02 0. -1.
    10030    2    1    2    0    0  0.00000000000E+00  0.00000000000E+00  0.12557262882E+04  0.20340197946E+04  0.16001212497E+04 0.  0.
        5    1    3    3  502    0 -0.15367321459E+03  0.35036493306E+03 -0.26530977783E+03  0.46559898133E+03  0.46999998093E+01 0. -1.
       -5    1    3    3    0  502  0.15367321459E+03 -0.35036493306E+03  0.15210360661E+04  0.15684208133E+04  0.46999998093E+01 0.  1.
</event>
<event>
 5   0  0.2147844E-05  0.1599859E+04  0.7818609E-02  0.8820634E-01
        2   -1    0    0  501    0  0.00000000000E+00  0.00000000000E+00  0.88499556989E+03  0.88499556989E+03  0.25500000920E-02 0.  1.
       -2   -1    0    0    0  501  0.00000000000E+00  0.00000000000E+00 -0.72304045069E+03  0.72304045069E+03  0.25500000920E-02 0. -1.
    10030    2    1    2    0    0  0.00000000000E+00  0.00000000000E+00  0.16195511920E+03  0.16080360206E+04  0.15998594885E+04 0.  0.
        2    1    3    3  502    0 -0.45562321525E+03 -0.55701707577E+03  0.43208659299E+03  0.83938034336E+03  0.25500000920E-02 0.  1.
       -2    1    3    3    0  502  0.45562321525E+03  0.55701707577E+03 -0.27013147378E+03  0.76865567722E+03  0.25500000920E-02 0. -1.
</event>
<event>
 5   0  0.1057506E-05  0.1600699E+04  0.7818609E-02  0.8820119E-01
       -1   -1    0    0    0  501  0.00000000000E+00  0.00000000000E+00  0.45610824281E+03  0.45610824284E+03  0.50400001928E-02 0. -1.
        1   -1    0    0  501    0  0.00000000000E+00  0.00000000000E+00 -0.14044016846E+04  0.14044016846E+04  0.50400001928E-02 0.  1.
    10030    2    1    2    0    0  0.00000000000E+00  0.00000000000E+00 -0.94829344180E+03  0.18605099275E+04  0.16006988281E+04 0.  0.
        5    1    3    3  502    0 -0.25664609154E+03 -0.18505349821E+03 -0.13286035259E+04  0.13657677081E+04  0.46999998093E+01 0.  1.
       -5    1    3    3    0  502  0.25664609154E+03  0.18505349821E+03  0.38031008412E+03  0.49474221932E+03  0.46999998093E+01 0. -1.
</event>
<event>
 5   0  0.2046108E-05  0.1599376E+04  0.7818609E-02  0.8820931E-01
        2   -1    0    0  501    0  0.00000000000E+00  0.00000000000E+00  0.62200253665E+03  0.62200253665E+03  0.25500000920E-02 0. -1.
       -2   -1    0    0    0  501  0.00000000000E+00  0.00000000000E+00 -0.10281322078E+04  0.10281322078E+04  0.25500000920E-02 0.  1.
    10030    2    1    2    0    0  0.00000000000E+00  0.00000000000E+00 -0.40612967115E+03  0.16501347445E+04  0.15993759299E+04 0.  0.
        1    1    3    3  502    0 -0.28299959929E+03 -0.10612179739E+02  0.56853308571E+03  0.63516238957E+03  0.50400001928E-02 0. -1.
       -1    1    3    3    0  502  0.28299959929E+03  0.10612179739E+02 -0.97466275685E+03  0.10149723549E+04  0.50400001928E-02 0.  1.
</event>
<event>
 5   0  0.1990948E-05  0.1600134E+04  0.7818609E-02  0.8820466E-01
       -2   -1    0    0    0  501  0.00000000000E+00  0.00000000000E+00  0.34832643357E+03  0.34832643358E+03  0.25500000920E-02 0.  1.
        2   -1    0    0  501    0  0.00000000000E+00  0.00000000000E+00 -0.18376643437E+04  0.18376643437E+04  0.25500000920E-02 0. -1.
    10030    2    1    2    0    0  0.00000000000E+00  0.00000000000E+00 -0.14893379101E+04  0.21859907773E+04  0.16001338281E+04 0.  0.
        4    1    3    3  502    0  0.53863477734E+03  0.47845706053E+03 -0.12199896709E+04  0.14168362616E+04  0.12699999809E+01 0. -1.
       -4    1    3    3    0  502 -0.53863477734E+03 -0.47845706053E+03 -0.26934823921E+03  0.76915451568E+03  0.12699999809E+01 0.  1.
</event>
<event>
 5   0  0.2046108E-05  0.1600101E+04  0.7818609E-02  0.8820486E-01
        2   -1    0    0  501    0  0.00000000000E+00  0.00000000000E+00  0.78745298236E+03  0.78745298236E+03  0.25500000920E-02 0. -1.
       -2   -1    0    0    0  501  0.00000000000E+00  0.00000000000E+00 -0.81284936144E+03  0.81284936144E+03  0.25500000920E-02 0.  1.
    10030    2    1    2    0    0  0.00000000000E+00  0.00000000000E+00 -0.25396379081E+02  0.16003023438E+04  0.16001008142E+04 0.  0.
        1    1    3    3  502    0 -0.76123099791E+03  0.11986321954E+03  0.20236570537E+03  0.79673816422E+03  0.50400001928E-02 0.  1.
       -1    1    3    3    0  502  0.76123099791E+03 -0.11986321954E+03 -0.22776208446E+03  0.80356417959E+03  0.50400001928E-02 0. -1.
</event>
<event>
 5   0  0.2147844E-05  0.1599630E+04  0.7818609E-02  0.8820775E-01
       -2   -1    0    0    0  501  0.00000000000E+00  0.00000000000E+00  0.27228736496E+03  0.27228736497E+03  0.25500000920E-02 0.  1.
        2   -1    0    0  501    0  0.00000000000E+00  0.00000000000E+00 -0.23493715881E+04  0.23493715881E+04  0.25500000920E-02 0. -1.
    10030    2    1    2    0    0  0.00000000000E+00  0.00000000000E+00 -0.20770842232E+04  0.26216589531E+04  0.15996302061E+04 0.  0.
        2    1    3    3  502    0  0.29766650318E+03 -0.49919503696E+03 -0.13802818741E+03  0.59737158667E+03  0.25500000920E-02 0.  1.
       -2    1    3    3    0  502 -0.29766650318E+03  0.49919503696E+03 -0.19390560357E+04  0.20242873664E+04  0.25500000920E-02 0. -1.
</event>
<event>
 5   0  0.1126485E-05  0.1600780E+04  0.7818609E-02  0.8820069E-01
        1   -1    0    0  501    0  0.00000000000E+00  0.00000000000E+00  0.13478954409E+04  0.13478954409E+04  0.50400001928E-02 0.  1.
       -1   -1    0    0    0  501  0.00000000000E+00  0.00000000000E+00 -0.47527711764E+03  0.47527711767E+03  0.50400001928E-02 0. -1.
    10030    2    1    2    0    0  0.00000000000E+00  0.00000000000E+00  0.87261832326E+03  0.18231725586E+04  0.16007796351E+04 0.  0.
        2    1    3    3  502    0  0.33977597678E+03 -0.25419757305E+03 -0.33661914082E+03  0.54164247111E+03  0.25500000920E-02 0. -1.
       -2    1    3    3    0  502 -0.33977597678E+03  0.25419757305E+03  0.12092374641E+04  0.12815300875E+04  0.25500000920E-02 0.  1.
</event>
<event>
 5   0  0.1126485E-05  0.1599997E+04  0.7818609E-02  0.8820550E-01
        1   -1    0    0  501    0  0.00000000000E+00  0.00000000000E+00  0.13102758835E+04  0.13102758835E+04  0.50400001928E-02 0.  1.
       -1   -1    0    0    0  501  0.00000000000E+00  0.00000000000E+00 -0.48844490641E+03  0.48844490644E+03  0.50400001928E-02 0. -1.
    10030    2    1    2    0    0  0.00000000000E+00  0.00000000000E+00  0.82183097706E+03  0.17987207899E+04  0.15999969766E+04 0.  0.
        2    1    3    3  502    0 -0.10705688991E+03  0.43021756647E+03 -0.33771335233E+03  0.55731377206E+03  0.25500000920E-02 0. -1.
       -2    1    3    3    0  502  0.10705688991E+03 -0.43021756647E+03  0.11595443294E+04  0.12414070179E+04  0.25500000920E-02 0.  1.
</event>
<event>
 5   0  0.2046108E-05  0.1600453E+04  0.7818609E-02  0.8820270E-01
        2   -1    0    0  501    0  0.00000000000E+00  0.00000000000E+00  0.12591162279E+04  0.12591162279E+04  0.25500000920E-02 0. -1.
       -2   -1    0    0    0  501  0.00000000000E+00  0.00000000000E+00 -0.50858067233E+03  0.50858067233E+03  0.25500000920E-02 0.  1.
    10030    2    1    2    0    0  0.00000000000E+00  0.00000000000E+00  0.75053555560E+03  0.17676969003E+04  0.16004526581E+04 0.  0.
        1    1    3    3  502    0  0.16865126746E+03  0.37543662414E+03 -0.38271592849E+03  0.56202080985E+03  0.50400001928E-02 0.  1.
       -1    1    3    3    0  502 -0.16865126746E+03 -0.37543662414E+03  0.11332514841E+04  0.12056760904E+04  0.50400001928E-02 0. -1.
</event>
<event>
 5   0  0.1060251E-05  0.1591727E+04  0.7818609E-02  0.8825646E-01
       -1   -1    0    0    0  501  0.00000000000E+00  0.00000000000E+00  0.47899739943E+03  0.47899739946E+03  0.50400001928E-02 0.  1.
        1   -1    0    0  501    0  0.00000000000E+00  0.00000000000E+00 -0.13223431142E+04  0.13223431142E+04  0.50400001928E-02 0. -1.
    10030    2    1    2    0    0  0.00000000000E+00  0.00000000000E+00 -0.84334571480E+03  0.18013405137E+04  0.15917272542E+04 0.  0.
        1    1    3    3  502    0 -0.45537125115E+03  0.24632707956E+03  0.26237582958E+03  0.58041457810E+03  0.50400001928E-02 0.  1.
       -1    1    3    3    0  502  0.45537125115E+03 -0.24632707956E+03 -0.11057215444E+04  0.12209259356E+04  0.50400001928E-02 0. -1.
</event>
<event>
 5   0  0.1057506E-05  0.1600654E+04  0.7818609E-02  0.8820146E-01
       -1   -1    0    0    0  501  0.00000000000E+00  0.00000000000E+00  0.88200305365E+03  0.88200305366E+03  0.50400001928E-02 0.  1.
        1   -1    0    0  501    0  0.00000000000E+00  0.00000000000E+00 -0.72621417509E+03  0.72621417511E+03  0.50400001928E-02 0. -1.
    10030    2    1    2    0    0  0.00000000000E+00  0.00000000000E+00  0.15578887855E+03  0.16082172288E+04  0.16006537665E+04 0.  0.
        5    1    3    3  502    0 -0.67320287905E+03  0.43275654933E+03  0.73325125098E+02  0.80366598243E+03  0.46999998093E+01 0.  1.
       -5    1    3    3    0  502  0.67320287905E+03 -0.43275654933E+03  0.82463753457E+02  0.80455124634E+03  0.46999998093E+01 0. -1.
</event>
<event>
 5   0  0.2125803E-05  0.1599607E+04  0.7818609E-02  0.8820789E-01
       -2   -1    0    0    0  501  0.00000000000E+00  0.00000000000E+00  0.11331898499E+04  0.11331898499E+04  0.25500000920E-02 0. -1.
        2   -1    0    0  501    0  0.00000000000E+00  0.00000000000E+00 -0.56450006495E+03  0.56450006495E+03  0.25500000920E-02 0.  1.
    10030    2    1    2    0    0  0.00000000000E+00  0.00000000000E+00  0.56868978491E+03  0.16976899148E+04  0.15996071316E+04 0.  0.
        3    1    3    3  502    0  0.49698013242E+03 -0.17418375676E+03  0.92321573148E+03  0.10628530144E+04  0.10100000352E+00 0. -1.
       -3    1    3    3    0  502 -0.49698013242E+03  0.17418375676E+03 -0.35452594658E+03  0.63483690042E+03  0.10100000352E+00 0.  1.
</event>
<event>
 5   0  0.1090674E-05  0.1600412E+04  0.7818609E-02  0.8820295E-01
       -1   -1    0    0    0  501  0.00000000000E+00  0.00000000000E+00  0.33617810131E+03  0.33617810135E+03  0.50400001928E-02 0. -1.
        1   -1    0    0  501    0  0.00000000000E+00  0.00000000000E+00 -0.19047322110E+04  0.19047322110E+04  0.50400001928E-02 0.  1.
    10030    2    1    2    0    0  0.00000000000E+00  0.00000000000E+00 -0.15685541097E+04  0.22409103124E+04  0.16004115199E+04 0.  0.
        4    1    3    3  502    0 -0.60464700803E+03 -0.18559861623E+03 -0.97913612633E+02  0.64002620189E+03  0.12699999809E+01 0. -1.
       -4    1    3    3    0  502  0.60464700803E+03  0.18559861623E+03 -0.14706404971E+04  0.16008841105E+04  0.12699999809E+01 0.  1.
</event>
<event>
 5   0  0.2147844E-05  0.1600040E+04  0.7818609E-02  0.8820523E-01
        2   -1    0    0  501    0  0.00000000000E+00  0.00000000000E+00  0.10293218824E+04  0.10293218824E+04  0.25500000920E-02 0.  1.
       -2   -1    0    0    0  501  0.00000000000E+00  0.00000000000E+00 -0.62179972468E+03  0.62179972469E+03  0.25500000920E-02 0. -1.
    10030    2    1    2    0    0  0.00000000000E+00  0.00000000000E+00  0.40752215775E+03  0.16511216071E+04  0.16000400784E+04 0.  0.
        2    1    3    3  502    0 -0.38574758929E+02  0.78850457886E+03  0.33753209725E+03  0.85857754431E+03  0.25500000920E-02 0.  1.
       -2    1    3    3    0  502  0.38574758929E+02 -0.78850457886E+03  0.69990060490E+02  0.79254406281E+03  0.25500000920E-02 0. -1.
</event>
<event>
 5   0  0.1090674E-05  0.1599819E+04  0.7818609E-02  0.8820659E-01
       -1   -1    0    0    0  501  0.00000000000E+00  0.00000000000E+00  0.13102012654E+04  0.13102012654E+04  0.50400001928E-02 0.  1.
        1   -1    0    0  501    0  0.00000000000E+00  0.00000000000E+00 -0.48836435279E+03  0.48836435282E+03  0.50400001928E-02 0. -1.
    10030    2    1    2    0    0  0.00000000000E+00  0.00000000000E+00  0.82183691262E+03  0.17985656182E+04  0.15998194811E+04 0.  0.
        4    1    3    3  502    0 -0.75820954849E+03 -0.24639183355E+03  0.48432411340E+03  0.93282480391E+03  0.12699999809E+01 0.  1.
       -4    1    3    3    0  502  0.75820954849E+03  0.24639183355E+03  0.33751279922E+03  0.86574081433E+03  0.12699999809E+01 0. -1.
</event>
<event>
 5   0  0.1060251E-05  0.1600224E+04  0.7818609E-02  0.8820410E-01
       -1   -1    0    0    0  501  0.00000000000E+00  0.00000000000E+00  0.42125965619E+03  0.42125965622E+03  0.50400001928E-02 0.  1.
        1   -1    0    0  501    0  0.00000000000E+00  0.00000000000E+00 -0.15196791079E+04  0.15196791079E+04  0.50400001928E-02 0. -1.
    10030    2    1    2    0    0  0.00000000000E+00  0.00000000000E+00 -0.10984194517E+04  0.19409387641E+04  0.16002243574E+04 0.  0.
        1    1    3    3  502    0 -0.15935561845E+03 -0.74702979573E+03 -0.26031200033E+03  0.80697587720E+03  0.50400001928E-02 0.  1.
       -1    1    3    3    0  502  0.15935561845E+03  0.74702979573E+03 -0.83810745134E+03  0.11339628869E+04  0.50400001928E-02 0. -1.
</event>
<event>
 5   0  0.1994525E-05  0.1600305E+04  0.7818609E-02  0.8820361E-01
        2   -1    0    0  501    0  0.00000000000E+00  0.00000000000E+00  0.10218523418E+04  0.10218523418E+04  0.25500000920E-02 0.  1.
       -2   -1    0    0    0  501  0.00000000000E+00  0.00000000000E+00 -0.62655205935E+03  0.62655205935E+03  0.25500000920E-02 0. -1.
    10030    2    1    2    0    0  0.00000000000E+00  0.00000000000E+00  0.39530028244E+03  0.16484044011E+04  0.16003045824E+04 0.  0.
        5    1    3    3  502    0 -0.24687148767E+03 -0.30976587675E+03 -0.51845868298E+03  0.65247369738E+03  0.46999998093E+01 0. -1.
       -5    1    3    3    0  502  0.24687148767E+03  0.30976587675E+03  0.91375896542E+03  0.99593070377E+03  0.46999998093E+01 0.  1.
</event>
<event>
 5   0  0.1081831E-05  0.1599634E+04  0.7818609E-02  0.8820773E-01
       -1   -1    0    0    0  501  0.00000000000E+00  0.00000000000E+00  0.94397643202E+03  0.94397643204E+03  0.50400001928E-02 0.  1.
        1   -1    0    0  501    0  0.00000000000E+00  0.00000000000E+00 -0.67767298795E+03  0.67767298797E+03  0.50400001928E-02 0. -1.
    10030    2    1    2    0    0  0.00000000000E+00  0.00000000000E+00  0.26630344407E+03  0.16216494200E+04  0.15996341198E+04 0.  0.
        3    1    3    3  502    0 -0.28374292291E+03 -0.45128376001E+03 -0.47132654781E+03  0.71155871383E+03  0.10100000352E+00 0. -1.
       -3    1    3    3    0  502  0.28374292291E+03  0.45128376001E+03  0.73762999188E+03  0.91009070618E+03  0.10100000352E+00 0.  1.
</event>
<event>
 5   0  0.1081831E-05  0.1600235E+04  0.7818609E-02  0.8820404E-01
        1   -1    0    0  501    0  0.00000000000E+00  0.00000000000E+00  0.11295954175E+04  0.11295954175E+04  0.50400001928E-02 0.  1.
       -1   -1    0    0    0  501  0.00000000000E+00  0.00000000000E+00 -0.56674111182E+03  0.56674111184E+03  0.50400001928E-02 0. -1.
    10030    2    1    2    0    0  0.00000000000E+00  0.00000000000E+00  0.56285430564E+03  0.16963365293E+04  0.16002351862E+04 0.  0.
        3    1    3    3  502    0  0.17974223679E+03 -0.33430993092E+03 -0.46522888613E+03  0.60042345748E+03  0.10100000352E+00 0. -1.
       -3    1    3    3    0  502 -0.17974223679E+03  0.33430993092E+03  0.10280831918E+04  0.10959130718E+04  0.10100000352E+00 0.  1.
</event>
<event>
 5   0  0.2147844E-05  0.1599133E+04  0.7818609E-02  0.8821081E-01
        2   -1    0    0  501    0  0.00000000000E+00  0.00000000000E+00  0.74887648176E+03  0.74887648176E+03  0.25500000920E-02 0.  1.
       -2   -1    0    0    0  501  0.00000000000E+00  0.00000000000E+00 -0.85368742242E+03  0.85368742243E+03  0.25500000920E-02 0. -1.
    10030    2    1    2    0    0  0.00000000000E+00  0.00000000000E+00 -0.10481094067E+03  0.16025639042E+04  0.15991328068E+04 0.  0.
        2    1    3    3  502    0 -0.32481513351E+03  0.23810562507E+03 -0.74461702164E+03  0.84655399625E+03  0.25500000920E-02 0. -1.
       -2    1    3    3    0  502  0.32481513351E+03 -0.23810562507E+03  0.63980608097E+03  0.75600990794E+03  0.25500000920E-02 0.  1.
</event>
<event>
 5   0  0.1990948E-05  0.1599350E+04  0.7818609E-02  0.8820947E-01
        2   -1    0    0  501    0  0.00000000000E+00  0.00000000000E+00  0.10267273669E+04  0.10267273669E+04  0.25500000920E-02 0. -1.
       -2   -1    0    0    0  501  0.00000000000E+00  0.00000000000E+00 -0.62283360717E+03  0.62283360717E+03  0.25500000920E-02 0.  1.
    10030    2    1    2    0    0  0.00000000000E+00  0.00000000000E+00  0.40389375971E+03  0.16495609741E+04  0.15993502549E+04 0.  0.
        4    1    3    3  502    0  0.45754150129E+03 -0.65145045901E+03  0.28013427101E+03  0.84392461075E+03  0.12699999809E+01 0.  1.
       -4    1    3    3    0  502 -0.45754150129E+03  0.65145045901E+03  0.12375948871E+03  0.80563636331E+03  0.12699999809E+01 0. -1.
</event>
<event>
 5   0  0.1081831E-05  0.1600232E+04  0.7818609E-02  0.8820406E-01
        1   -1    0    0  501    0  0.00000000000E+00  0.00000000000E+00  0.49263965202E+03  0.49263965204E+03  0.50400001928E-02 0.  1.
       -1   -1    0    0    0  501  0.00000000000E+00  0.00000000000E+00 -0.12995004539E+04  0.12995004539E+04  0.50400001928E-02 0. -1.
    10030    2    1    2    0    0  0.00000000000E+00  0.00000000000E+00 -0.80686080189E+03  0.17921401060E+04  0.16002317975E+04 0.  0.
        3    1    3    3  502    0  0.16185379202E+03  0.74164957315E+03 -0.68662916042E+03  0.10235723489E+04  0.10100000352E+00 0. -1.
       -3    1    3    3    0  502 -0.16185379202E+03 -0.74164957315E+03 -0.12023164147E+03  0.76856775704E+03  0.10100000352E+00 0.  1.
</event>
<event>
 5   0  0.2147844E-05  0.1600070E+04  0.7818609E-02  0.8820505E-01
       -2   -1    0    0    0  501  0.00000000000E+00  0.00000000000E+00  0.32967736949E+03  0.32967736950E+03  0.25500000920E-02 0.  1.
        2   -1    0    0  501    0  0.00000000000E+00  0.00000000000E+00 -0.19414627188E+04  0.19414627188E+04  0.25500000920E-02 0. -1.
    10030    2    1    2    0    0  0.00000000000E+00  0.00000000000E+00 -0.16117853493E+04  0.22711400883E+04  0.16000704011E+04 0.  0.
        2    1    3    3  502    0  0.18079139869E+02 -0.55586572373E+03 -0.16221930711E+04  0.17148830625E+04  0.25500000920E-02 0.  1.
       -2    1    3    3    0  502 -0.18079139869E+02  0.55586572373E+03  0.10407721755E+02  0.55625702583E+03  0.25500000920E-02 0. -1.
</event>
<event>
 5   0  0.1990948E-05  0.1598102E+04  0.7818609E-02  0.8821715E-01
       -2   -1    0    0    0  501  0.00000000000E+00  0.00000000000E+00  0.35954045163E+03  0.35954045164E+03  0.25500000920E-02 0.  1.
        2   -1    0    0  501    0  0.00000000000E+00  0.00000000000E+00 -0.17758300107E+04  0.17758300107E+04  0.25500000920E-02 0. -1.
    10030    2    1    2    0    0  0.00000000000E+00  0.00000000000E+00 -0.14162895591E+04  0.21353704624E+04  0.15981022797E+04 0.  0.
        4    1    3    3  502    0  0.46273892075E+03  0.22599735499E+03 -0.15245117737E+04  0.16091425898E+04  0.12699999809E+01 0. -1.
       -4    1    3    3    0  502 -0.46273892075E+03 -0.22599735499E+03  0.10822221460E+03  0.52622787258E+03  0.12699999809E+01 0.  1.
</event>
<event>
 5   0  0.2125803E-05  0.1600088E+04  0.7818609E-02  0.8820494E-01
        2   -1    0    0  501    0  0.00000000000E+00  0.00000000000E+00  0.11614011017E+04  0.11614011017E+04  0.25500000920E-02 0.  1.
       -2   -1    0    0    0  501  0.00000000000E+00  0.00000000000E+00 -0.55111915325E+03  0.55111915326E+03  0.25500000920E-02 0. -1.
    10030    2    1    2    0    0  0.00000000000E+00  0.00000000000E+00  0.61028194848E+03  0.17125202550E+04  0.16000879873E+04 0.  0.
        3    1    3    3  502    0  0.57650545158E+03  0.28769626143E+03  0.81274821767E+03  0.10371534843E+04  0.10100000352E+00 0.  1.
       -3    1    3    3    0  502 -0.57650545158E+03 -0.28769626143E+03 -0.20246626919E+03  0.67536677065E+03  0.10100000352E+00 0. -1.
</event>
<event>
 5   0  0.1081831E-05  0.1599877E+04  0.7818609E-02  0.8820624E-01
        1   -1    0    0  501    0  0.00000000000E+00  0.00000000000E+00  0.16138842755E+04  0.16138842755E+04  0.50400001928E-02 0. -1.
       -1   -1    0    0    0  501  0.00000000000E+00  0.00000000000E+00 -0.39649786191E+03  0.39649786194E+03  0.50400001928E-02 0.  1.
    10030    2    1    2    0    0  0.00000000000E+00  0.00000000000E+00  0.12173864135E+04  0.20103821374E+04  0.15998770761E+04 0.  0.
        3    1    3    3  502    0  0.73257808152E+03  0.19011490852E+03  0.93416417551E+03  0.12022799345E+04  0.10100000352E+00 0. -1.
       -3    1    3    3    0  502 -0.73257808152E+03 -0.19011490852E+03  0.28322223804E+03  0.80810220287E+03  0.10100000352E+00 0.  1.
</event>
<event>
 5   0  0.2147844E-05  0.1600710E+04  0.7818609E-02  0.8820112E-01
       -2   -1    0    0    0  501  0.00000000000E+00  0.00000000000E+00  0.54696476376E+03  0.54696476376E+03  0.25500000920E-02 0. -1.
        2   -1    0    0  501    0  0.00000000000E+00  0.00000000000E+00 -0.11711328256E+04  0.11711328256E+04  0.25500000920E-02 0.  1.
    10030    2    1    2    0    0  0.00000000000E+00  0.00000000000E+00 -0.62416806184E+03  0.17180975894E+04  0.16007103289E+04 0.  0.
        2    1    3    3  502    0  0.69619677651E+03  0.43384513275E+02  0.10911766764E+03  0.70603033434E+03  0.25500000920E-02 0. -1.
       -2    1    3    3    0  502 -0.69619677651E+03 -0.43384513275E+02 -0.73328572948E+03  0.10120672550E+04  0.25500000920E-02 0.  1.
</event>
<event>
 5   0  0.7597000E-06  0.1600035E+04  0.7818609E-02  0.8820527E-01
       -3   -1    0    0    0  501  0.00000000000E+00  0.00000000000E+00  0.93795184156E+03  0.93795184700E+03  0.10100000352E+00 0. -1.
        3   -1    0    0  501    0  0.00000000000E+00  0.00000000000E+00 -0.68236749891E+03  0.68236750638E+03  0.10100000352E+00 0.  1.
    10030    2    1    2    0    0  0.00000000000E+00  0.00000000000E+00  0.25558434265E+03  0.16203193534E+04  0.16000348280E+04 0.  0.
        2    1    3    3  502    0 -0.26719368797E+03 -0.67408906318E+03  0.47007018913E+03  0.86414959047E+03  0.25500000920E-02 0. -1.
       -2    1    3    3    0  502  0.26719368797E+03  0.67408906318E+03 -0.21448584648E+03  0.75616976291E+03  0.25500000920E-02 0.  1.
</event>
<event>
 5   0  0.1090674E-05  0.1600950E+04  0.7818609E-02  0.8819965E-01
       -1   -1    0    0    0  501  0.00000000000E+00  0.00000000000E+00  0.10125544995E+04  0.10125544995E+04  0.50400001928E-02 0.  1.
        1   -1    0    0  501    0  0.00000000000E+00  0.00000000000E+00 -0.63281555227E+03  0.63281555229E+03  0.50400001928E-02 0. -1.
    10030    2    1    2    0    0  0.00000000000E+00  0.00000000000E+00  0.37973894719E+03  0.16453700518E+04  0.16009500115E+04 0.  0.
        4    1    3    3  502    0  0.45708692620E+03  0.29978235965E+03 -0.41112975662E+03  0.68397895504E+03  0.12699999809E+01 0. -1.
       -4    1    3    3    0  502 -0.45708692620E+03 -0.29978235965E+03  0.79086870381E+03  0.96139109671E+03  0.12699999809E+01 0.  1.
</event>
<event>
 5   0  0.2147844E-05  0.1599677E+04  0.7818609E-02  0.8820747E-01
       -2   -1    0    0    0  501  0.00000000000E+00  0.00000000000E+00  0.96438539515E+03  0.96438539515E+03  0.25500000920E-02 0. -1.
        2   -1    0    0  501    0  0.00000000000E+00  0.00000000000E+00 -0.66336680560E+03  0.66336680561E+03  0.25500000920E-02 0.  1.
    10030    2    1    2    0    0  0.00000000000E+00  0.00000000000E+00  0.30101858955E+03  0.16277522008E+04  0.15996765410E+04 0.  0.
        2    1    3    3  502    0 -0.50633552123E+03 -0.17985438541E+03 -0.45235672843E+03  0.70238868853E+03  0.25500000920E-02 0.  1.
       -2    1    3    3    0  502  0.50633552123E+03  0.17985438541E+03  0.75337531798E+03  0.92536351223E+03  0.25500000920E-02 0. -1.
</event>
<event>
 5   0  0.1057506E-05  0.1600495E+04  0.7818609E-02  0.8820244E-01
       -1   -1    0    0    0  501  0.00000000000E+00  0.00000000000E+00  0.39570050528E+03  0.39570050531E+03  0.50400001928E-02 0. -1.
        1   -1    0    0  501    0  0.00000000000E+00  0.00000000000E+00 -0.16183850703E+04  0.16183850703E+04  0.50400001928E-02 0.  1.
    10030    2    1    2    0    0  0.00000000000E+00  0.00000000000E+00 -0.12226845650E+04  0.20140855756E+04  0.16004946612E+04 0.  0.
        5    1    3    3  502    0  0.47089448938E-01 -0.71925622711E+03 -0.10527645359E+04  0.12750156001E+04  0.46999998093E+01 0.  1.
       -5    1    3    3    0  502 -0.47089448938E-01  0.71925622711E+03 -0.16992002915E+03  0.73906997554E+03  0.46999998093E+01 0. -1.
</event>
<event>
 5   0  0.1057506E-05  0.1596158E+04  0.7818609E-02  0.8822912E-01
        1   -1    0    0  501    0  0.00000000000E+00  0.00000000000E+00  0.87584663136E+03  0.87584663138E+03  0.50400001928E-02 0.  1.
       -1   -1    0    0    0  501  0.00000000000E+00  0.00000000000E+00 -0.72721669087E+03  0.72721669088E+03  0.50400001928E-02 0. -1.
    10030    2    1    2    0    0  0.00000000000E+00  0.00000000000E+00  0.14862994049E+03  0.16030633223E+04  0.15961582490E+04 0.  0.
        5    1    3    3  502    0 -0.32199056238E+03  0.36198277234E+03 -0.56261999236E+03  0.74247747139E+03  0.46999998093E+01 0. -1.
       -5    1    3    3    0  502  0.32199056238E+03 -0.36198277234E+03  0.71124993285E+03  0.86058585087E+03  0.46999998093E+01 0.  1.
</event>
<event>
 5   0  0.1081831E-05  0.1599670E+04  0.7818609E-02  0.8820751E-01
        1   -1    0    0  501    0  0.00000000000E+00  0.00000000000E+00  0.69346376394E+03  0.69346376396E+03  0.50400001928E-02 0.  1.
       -1   -1    0    0    0  501  0.00000000000E+00  0.00000000000E+00 -0.92252224239E+03  0.92252224240E+03  0.50400001928E-02 0. -1.
    10030    2    1    2    0    0  0.00000000000E+00  0.00000000000E+00 -0.22905847844E+03  0.16159860064E+04  0.15996696491E+04 0.  0.
        3    1    3    3  502    0 -0.76665197745E+03  0.20965079216E+03 -0.20503675764E+03  0.82082202173E+03  0.10100000352E+00 0. -1.
       -3    1    3    3    0  502  0.76665197745E+03 -0.20965079216E+03 -0.24021720801E+02  0.79516398463E+03  0.10100000352E+00 0.  1.
</event>
<event>
 5   0  0.1126485E-05  0.1599853E+04  0.7818609E-02  0.8820638E-01
       -1   -1    0    0    0  501  0.00000000000E+00  0.00000000000E+00  0.57298417208E+03  0.57298417210E+03  0.50400001928E-02 0. -1.
        1   -1    0    0  501    0  0.00000000000E+00  0.00000000000E+00 -0.11167539578E+04  0.11167539578E+04  0.50400001928E-02 0.  1.
    10030    2    1    2    0    0  0.00000000000E+00  0.00000000000E+00 -0.54376978575E+03  0.16897381299E+04  0.15998529207E+04 0.  0.
        2    1    3    3  502    0  0.25107837483E+03 -0.72016710467E+03 -0.52668864071E+03  0.92686672894E+03  0.25500000920E-02 0. -1.
       -2    1    3    3    0  502 -0.25107837483E+03  0.72016710467E+03 -0.17081145039E+02  0.76287140101E+03  0.25500000920E-02 0.  1.
</event>
<event>
 5   0  0.1994525E-05  0.1599947E+04  0.7818609E-02  0.8820581E-01
       -2   -1    0    0    0  501  0.00000000000E+00  0.00000000000E+00  0.14141420914E+04  0.14141420914E+04  0.25500000920E-02 0. -1.
        2   -1    0    0  501    0  0.00000000000E+00  0.00000000000E+00 -0.45254101926E+03  0.45254101927E+03  0.25500000920E-02 0.  1.
    10030    2    1    2    0    0  0.00000000000E+00  0.00000000000E+00  0.96160107212E+03  0.18666831107E+04  0.15999466284E+04 0.  0.
        5    1    3    3  502    0 -0.17496192245E+03  0.22323132594E+03  0.13534941077E+04  0.13828999562E+04  0.46999998093E+01 0. -1.
       -5    1    3    3    0  502  0.17496192245E+03 -0.22323132594E+03 -0.39189303560E+03  0.48378315446E+03  0.46999998093E+01 0.  1.
</event>
<event>
 5   0  0.1090674E-05  0.1598462E+04  0.7818609E-02  0.8821494E-01
        1   -1    0    0  501    0  0.00000000000E+00  0.00000000000E+00  0.89580039557E+03  0.89580039558E+03  0.50400001928E-02 0.  1.
       -1   -1    0    0    0  501  0.00000000000E+00  0.00000000000E+00 -0.71307180745E+03  0.71307180747E+03  0.50400001928E-02 0. -1.
    10030    2    1    2    0    0  0.00000000000E+00  0.00000000000E+00  0.18272858812E+03  0.16088722030E+04  0.15984617696E+04 0.  0.
        4    1    3    3  502    0  0.47454868479E+03 -0.12798810626E+03  0.72569974862E+03  0.87648111653E+03  0.12699999809E+01 0.  1.
       -4    1    3    3    0  502 -0.47454868479E+03  0.12798810626E+03 -0.54297116050E+03  0.73239108652E+03  0.12699999809E+01 0. -1.
</event>
<event>
 5   0  0.1057506E-05  0.1600975E+04  0.7818609E-02  0.8819949E-01
       -1   -1    0    0    0  501  0.00000000000E+00  0.00000000000E+00  0.90750498222E+03  0.90750498223E+03  0.50400001928E-02 0.  1.
        1   -1    0    0  501    0  0.00000000000E+00  0.00000000000E+00 -0.70609043307E+03  0.70609043309E+03  0.50400001928E-02 0. -1.
    10030    2    1    2    0    0  0.00000000000E+00  0.00000000000E+00  0.20141454914E+03  0.16135954153E+04  0.16009754351E+04 0.  0.
        5    1    3    3  502    0  0.29877628853E+03 -0.73958434550E+03  0.16836482001E+03  0.81524295601E+03  0.46999998093E+01 0.  1.
       -5    1    3    3    0  502 -0.29877628853E+03  0.73958434550E+03  0.33049729131E+02  0.79835245931E+03  0.46999998093E+01 0. -1.
</event>
<event>
 5   0  0.2147844E-05  0.1600439E+04  0.7818609E-02  0.8820278E-01
       -2   -1    0    0    0  501  0.00000000000E+00  0.00000000000E+00  0.60490327075E+03  0.60490327076E+03  0.25500000920E-02 0. -1.
        2   -1    0    0  501    0  0.00000000000E+00  0.00000000000E+00 -0.10586012381E+04  0.10586012381E+04  0.25500000920E-02 0.  1.
    10030    2    1    2    0    0  0.00000000000E+00  0.00000000000E+00 -0.45369796730E+03  0.16635045088E+04  0.16004391289E+04 0.  0.
        2    1    3    3  502    0 -0.68747804393E+02  0.44034583288E+03 -0.91765906522E+03  0.10201611996E+04  0.25500000920E-02 0.  1.
       -2    1    3    3    0  502  0.68747804393E+02 -0.44034583288E+03  0.46396109792E+03  0.64334330923E+03  0.25500000920E-02 0. -1.
</event>
<event>
 5   0  0.1126485E-05  0.1599904E+04  0.7818609E-02  0.8820607E-01
        1   -1    0    0  501    0  0.00000000000E+00  0.00000000000E+00  0.15109433847E+04  0.15109433847E+04  0.50400001928E-02 0.  1.
       -1   -1    0    0    0  501  0.00000000000E+00  0.00000000000E+00 -0.42352565890E+03  0.42352565893E+03  0.50400001928E-02 0. -1.
    10030    2    1    2    0    0  0.00000000000E+00  0.00000000000E+00  0.10874177258E+04  0.19344690436E+04  0.15999041129E+04 0.  0.
        2    1    3    3  502    0 -0.41498607720E+03 -0.45973809387E+03  0.11558972846E+04  0.13113623038E+04  0.25500000920E-02 0.  1.
       -2    1    3    3    0  502  0.41498607720E+03  0.45973809387E+03 -0.68479558843E+02  0.62310673982E+03  0.25500000920E-02 0. -1.
</event>
<event>
 5   0  0.1994525E-05  0.1599693E+04  0.7818609E-02  0.8820736E-01
        2   -1    0    0  501    0  0.00000000000E+00  0.00000000000E+00  0.89836654440E+03  0.89836654440E+03  0.25500000920E-02 0.  1.
       -2   -1    0    0    0  501  0.00000000000E+00  0.00000000000E+00 -0.71213104995E+03  0.71213104995E+03  0.25500000920E-02 0. -1.
    10030    2    1    2    0    0  0.00000000000E+00  0.00000000000E+00  0.18623549445E+03  0.16104975944E+04  0.15996933587E+04 0.  0.
        5    1    3    3  502    0 -0.34726916724E+02  0.18572396007E+03  0.87556265697E+03  0.89572953751E+03  0.46999998093E+01 0.  1.
       -5    1    3    3    0  502  0.34726916724E+02 -0.18572396007E+03 -0.68932716252E+03  0.71476805684E+03  0.46999998093E+01 0. -1.
</event>
<event>
 5   0  0.1060251E-05  0.1600095E+04  0.7818609E-02  0.8820490E-01
       -1   -1    0    0    0  501  0.00000000000E+00  0.00000000000E+00  0.40485110670E+03  0.40485110673E+03  0.50400001928E-02 0.  1.
        1   -1    0    0  501    0  0.00000000000E+00  0.00000000000E+00 -0.15810149149E+04  0.15810149150E+04  0.50400001928E-02 0. -1.
    10030    2    1    2    0    0  0.00000000000E+00  0.00000000000E+00 -0.11761638082E+04  0.19858660217E+04  0.16000945448E+04 0.  0.
        1    1    3    3  502    0 -0.70124377466E+01 -0.57961421305E+03  0.96292598805E+02  0.58760026793E+03  0.50400001928E-02 0.  1.
       -1    1    3    3    0  502  0.70124377466E+01  0.57961421305E+03 -0.12724564070E+04  0.13982657538E+04  0.50400001928E-02 0. -1.
</event>
<event>
 5   0  0.2125803E-05  0.1600064E+04  0.7818609E-02  0.8820509E-01
        2   -1    0    0  501    0  0.00000000000E+00  0.00000000000E+00  0.18898291737E+04  0.18898291737E+04  0.25500000920E-02 0. -1.
       -2   -1    0    0    0  501  0.00000000000E+00  0.00000000000E+00 -0.33868184389E+03  0.33868184390E+03  0.25500000920E-02 0.  1.
    10030    2    1    2    0    0  0.00000000000E+00  0.00000000000E+00  0.15511473298E+04  0.22285110176E+04  0.16000635352E+04 0.  0.
        3    1    3    3  502    0 -0.37090892324E+03 -0.66133766855E+03  0.42018710644E+03  0.86688993292E+03  0.10100000352E+00 0.  1.
       -3    1    3    3    0  502  0.37090892324E+03  0.66133766855E+03  0.11309602234E+04  0.13616210847E+04  0.10100000352E+00 0. -1.
</event>
<event>
 5   0  0.1994525E-05  0.1599615E+04  0.7818609E-02  0.8820784E-01
        2   -1    0    0  501    0  0.00000000000E+00  0.00000000000E+00  0.23562246426E+04  0.23562246426E+04  0.25500000920E-02 0. -1.
       -2   -1    0    0    0  501  0.00000000000E+00  0.00000000000E+00 -0.27149031258E+03  0.27149031260E+03  0.25500000920E-02 0.  1.
    10030    2    1    2    0    0  0.00000000000E+00  0.00000000000E+00  0.20847343300E+04  0.26277149551E+04  0.15996151596E+04 0.  0.
        5    1    3    3  502    0 -0.73966256571E+03 -0.13080209205E+03  0.59111255738E+03  0.95584833728E+03  0.46999998093E+01 0.  1.
       -5    1    3    3    0  502  0.73966256571E+03  0.13080209205E+03  0.14936217726E+04  0.16718666179E+04  0.46999998093E+01 0. -1.
</event>
<event>
 5   0  0.1060251E-05  0.1600363E+04  0.7818609E-02  0.8820325E-01
        1   -1    0    0  501    0  0.00000000000E+00  0.00000000000E+00  0.69235329379E+03  0.69235329381E+03  0.50400001928E-02 0.  1.
       -1   -1    0    0    0  501  0.00000000000E+00  0.00000000000E+00 -0.92480246980E+03  0.92480246981E+03  0.50400001928E-02 0. -1.
    10030    2    1    2    0    0  0.00000000000E+00  0.00000000000E+00 -0.23244917601E+03  0.16171557636E+04  0.16003625041E+04 0.  0.
        1    1    3    3  502    0 -0.53952859542E+03 -0.14717137898E+03 -0.69454075987E+03  0.89170476460E+03  0.50400001928E-02 0. -1.
       -1    1    3    3    0  502  0.53952859542E+03  0.14717137898E+03  0.46209158387E+03  0.72545099902E+03  0.50400001928E-02 0.  1.
</event>
<event>
 5   0  0.2147844E-05  0.1600210E+04  0.7818609E-02  0.8820419E-01
       -2   -1    0    0    0  501  0.00000000000E+00  0.00000000000E+00  0.26630718726E+03  0.26630718727E+03  0.25500000920E-02 0.  1.
        2   -1    0    0  501    0  0.00000000000E+00  0.00000000000E+00 -0.24038700800E+04  0.24038700800E+04  0.25500000920E-02 0. -1.
    10030    2    1    2    0    0  0.00000000000E+00  0.00000000000E+00 -0.21375628927E+04  0.26701772672E+04  0.16002098357E+04 0.  0.
        2    1    3    3  502    0 -0.55233839157E+03 -0.38683733279E+03 -0.17873581505E+04  0.19103324263E+04  0.25500000920E-02 0. -1.
       -2    1    3    3    0  502  0.55233839157E+03  0.38683733279E+03 -0.35020474225E+03  0.75984484097E+03  0.25500000920E-02 0.  1.
</event>
<event>
 5   0  0.1994525E-05  0.1600541E+04  0.7818609E-02  0.8820216E-01
       -2   -1    0    0    0  501  0.00000000000E+00  0.00000000000E+00  0.63090491595E+03  0.63090491596E+03  0.25500000920E-02 0. -1.
        2   -1    0    0  501    0  0.00000000000E+00  0.00000000000E+00 -0.10151018048E+04  0.10151018048E+04  0.25500000920E-02 0.  1.
    10030    2    1    2    0    0  0.00000000000E+00  0.00000000000E+00 -0.38419688886E+03  0.16460067208E+04  0.16005408072E+04 0.  0.
        5    1    3    3  502    0 -0.10188445305E+03  0.75833676324E+03 -0.43318366924E+03  0.87927542304E+03  0.46999998093E+01 0.  1.
       -5    1    3    3    0  502  0.10188445305E+03 -0.75833676324E+03  0.48986780385E+02  0.76673129773E+03  0.46999998093E+01 0. -1.
</event>
<event>
 5   0  0.1126485E-05  0.1600685E+04  0.7818609E-02  0.8820128E-01
       -1   -1    0    0    0  501  0.00000000000E+00  0.00000000000E+00  0.51348999093E+03  0.51348999095E+03  0.50400001928E-02 0.  1.
        1   -1    0    0  501    0  0.00000000000E+00  0.00000000000E+00 -0.12474395853E+04  0.12474395853E+04  0.50400001928E-02 0. -1.
    10030    2    1    2    0    0  0.00000000000E+00  0.00000000000E+00 -0.73394959435E+03  0.17609295762E+04  0.16006845303E+04 0.  0.
        2    1    3    3  502    0 -0.23221332396E+03  0.27074844978E+01 -0.12095597599E+04  0.12316514000E+04  0.25500000920E-02 0. -1.
       -2    1    3    3    0  502  0.23221332396E+03 -0.27074844978E+01  0.47561016554E+03  0.52927817627E+03  0.25500000920E-02 0.  1.
</event>
<event>
 5   0  0.1994525E-05  0.1596366E+04  0.7818609E-02  0.8822784E-01
        2   -1    0    0  501    0  0.00000000000E+00  0.00000000000E+00  0.71336705266E+03  0.71336705267E+03  0.25500000920E-02 0. -1.
       -2   -1    0    0    0  501  0.00000000000E+00  0.00000000000E+00 -0.89308296096E+03  0.89308296096E+03  0.25500000920E-02 0.  1.
    10030    2    1    2    0    0  0.00000000000E+00  0.00000000000E+00 -0.17971590829E+03  0.16064500136E+04  0.15963658223E+04 0.  0.
        5    1    3    3  502    0 -0.71740997303E+03  0.34789626451E+03 -0.12703710215E+03  0.80738429238E+03  0.46999998093E+01 0.  1.
       -5    1    3    3    0  502  0.71740997303E+03 -0.34789626451E+03 -0.52678806141E+02  0.79906572125E+03  0.46999998093E+01 0. -1.
</event>
<event>
 5   0  0.1090674E-05  0.1610561E+04  0.7818609E-02  0.8814086E-01
       -1   -1    0    0    0  501  0.00000000000E+00  0.00000000000E+00  0.63159989245E+03  0.63159989247E+03  0.50400001928E-02 0.  1.
        1   -1    0    0  501    0  0.00000000000E+00  0.00000000000E+00 -0.10267210292E+04  0.10267210292E+04  0.50400001928E-02 0. -1.
    10030    2    1    2    0    0  0.00000000000E+00  0.00000000000E+00 -0.39512113671E+03  0.16583209216E+04  0.16105612582E+04 0.  0.
        4    1    3    3  502    0 -0.67640899479E+03 -0.43015714555E+03 -0.27672335978E+03  0.84802224549E+03  0.12699999809E+01 0. -1.
       -4    1    3    3    0  502  0.67640899479E+03  0.43015714555E+03 -0.11839777693E+03  0.81029867615E+03  0.12699999809E+01 0.  1.
</event>
<event>
 5   0  0.1057506E-05  0.1599775E+04  0.7818609E-02  0.8820686E-01
       -1   -1    0    0    0  501  0.00000000000E+00  0.00000000000E+00  0.53489712586E+03  0.53489712588E+03  0.50400001928E-02 0.  1.
        1   -1    0    0  501    0  0.00000000000E+00  0.00000000000E+00 -0.11961556264E+04  0.11961556264E+04  0.50400001928E-02 0. -1.
    10030    2    1    2    0    0  0.00000000000E+00  0.00000000000E+00 -0.66125850056E+03  0.17310527523E+04  0.15997752426E+04 0.  0.
        5    1    3    3  502    0 -0.23030074846E+03 -0.48031207862E+03  0.31504418443E+03  0.61888048584E+03  0.46999998093E+01 0.  1.
       -5    1    3    3    0  502  0.23030074846E+03  0.48031207862E+03 -0.97630268499E+03  0.11121722665E+04  0.46999998093E+01 0. -1.
</event>
<event>
 5   0  0.1057506E-05  0.1599988E+04  0.7818609E-02  0.8820555E-01
        1   -1    0    0  501    0  0.00000000000E+00  0.00000000000E+00  0.88007988540E+03  0.88007988542E+03  0.50400001928E-02 0.  1.
       -1   -1    0    0    0  501  0.00000000000E+00  0.00000000000E+00 -0.72719567882E+03  0.72719567884E+03  0.50400001928E-02 0. -1.
    10030    2    1    2    0    0  0.00000000000E+00  0.00000000000E+00  0.15288420659E+03  0.16072755643E+04  0.15999878621E+04 0.  0.
        5    1    3    3  502    0  0.67434208452E+03 -0.25874496810E+03 -0.26904590128E+03  0.77077492983E+03  0.46999998093E+01 0. -1.
       -5    1    3    3    0  502 -0.67434208452E+03  0.25874496810E+03  0.42193010787E+03  0.83650063442E+03  0.46999998093E+01 0.  1.
</event>
<event>
 5   0  0.7597000E-06  0.1600912E+04  0.7818609E-02  0.8819988E-01
        3   -1    0    0  501    0  0.00000000000E+00  0.00000000000E+00  0.61433768961E+03  0.61433769791E+03  0.10100000352E+00 0.  1.
       -3   -1    0    0    0  501  0.00000000000E+00  0.00000000000E+00 -0.10429596133E+04  0.10429596182E+04  0.10100000352E+00 0. -1.
    10030    2    1    2    0    0  0.00000000000E+00  0.00000000000E+00 -0.42862192367E+03  0.16572973161E+04  0.16009115030E+04 0.  0.
        4    1    3    3  502    0  0.41476913041E+03 -0.21691198903E+03 -0.88652230225E+03  0.10025006972E+04  0.12699999809E+01 0. -1.
       -4    1    3    3    0  502 -0.41476913041E+03  0.21691198903E+03  0.45790037858E+03  0.65479661891E+03  0.12699999809E+01 0.  1.
</event>
<event>
 5   0  0.2125803E-05  0.1600549E+04  0.7818609E-02  0.8820211E-01
        2   -1    0    0  501    0  0.00000000000E+00  0.00000000000E+00  0.16283199839E+04  0.16283199839E+04  0.25500000920E-02 0. -1.
       -2   -1    0    0    0  501  0.00000000000E+00  0.00000000000E+00 -0.39331299159E+03  0.39331299160E+03  0.25500000920E-02 0.  1.
    10030    2    1    2    0    0  0.00000000000E+00  0.00000000000E+00  0.12350069923E+04  0.20216329755E+04  0.16005491609E+04 0.  0.
        3    1    3    3  502    0 -0.18399520989E+03  0.76225297492E+03  0.41558505410E+03  0.88746536970E+03  0.10100000352E+00 0.  1.
       -3    1    3    3    0  502  0.18399520989E+03 -0.76225297492E+03  0.81942193821E+03  0.11341676058E+04  0.10100000352E+00 0. -1.
</event>
<event>
 5   0  0.1057506E-05  0.1598836E+04  0.7818609E-02  0.8821263E-01
        1   -1    0    0  501    0  0.00000000000E+00  0.00000000000E+00  0.89561557482E+03  0.89561557483E+03  0.50400001928E-02 0.  1.
       -1   -1    0    0    0  501  0.00000000000E+00  0.00000000000E+00 -0.71355301740E+03  0.71355301742E+03  0.50400001928E-02 0. -1.
    10030    2    1    2    0    0  0.00000000000E+00  0.00000000000E+00  0.18206255742E+03  0.16091685923E+04  0.15988360715E+04 0.  0.
        5    1    3    3  502    0 -0.47110130432E+03 -0.27647005975E+01 -0.55897758446E+03  0.73104179937E+03  0.46999998093E+01 0. -1.
       -5    1    3    3    0  502  0.47110130432E+03  0.27647005975E+01  0.74104014188E+03  0.87812679288E+03  0.46999998093E+01 0.  1.
</event>
<event>
 5   0  0.1057506E-05  0.1599838E+04  0.7818609E-02  0.8820648E-01
       -1   -1    0    0    0  501  0.00000000000E+00  0.00000000000E+00  0.40135763862E+03  0.40135763865E+03  0.50400001928E-02 0. -1.
        1   -1    0    0  501    0  0.00000000000E+00  0.00000000000E+00 -0.15942650271E+04  0.15942650272E+04  0.50400001928E-02 0.  1.
    10030    2    1    2    0    0  0.00000000000E+00  0.00000000000E+00 -0.11929073885E+04  0.19956226658E+04  0.15998380501E+04 0.  0.
        5    1    3    3  502    0 -0.76829736522E+03 -0.15027692933E+03 -0.39154590607E+03  0.87532524438E+03  0.46999998093E+01 0. -1.
       -5    1    3    3    0  502  0.76829736522E+03  0.15027692933E+03 -0.80136148246E+03  0.11202974214E+04  0.46999998093E+01 0.  1.
</event>
<event>
 5   0  0.2125803E-05  0.1600481E+04  0.7818609E-02  0.8820253E-01
        2   -1    0    0  501    0  0.00000000000E+00  0.00000000000E+00  0.81931372895E+03  0.81931372895E+03  0.25500000920E-02 0. -1.
       -2   -1    0    0    0  501  0.00000000000E+00  0.00000000000E+00 -0.78161083133E+03  0.78161083134E+03  0.25500000920E-02 0.  1.
    10030    2    1    2    0    0  0.00000000000E+00  0.00000000000E+00  0.37702897614E+02  0.16009245603E+04  0.16004805339E+04 0.  0.
        3    1    3    3  502    0  0.46096244865E+03 -0.18229434921E+03 -0.60954801296E+03  0.78566303154E+03  0.10100000352E+00 0.  1.
       -3    1    3    3    0  502 -0.46096244865E+03  0.18229434921E+03  0.64725091058E+03  0.81526152875E+03  0.10100000352E+00 0. -1.
</event>
<event>
 5   0  0.2046108E-05  0.1600400E+04  0.7818609E-02  0.8820302E-01
        2   -1    0    0  501    0  0.00000000000E+00  0.00000000000E+00  0.59518414933E+03  0.59518414934E+03  0.25500000920E-02 0.  1.
       -2   -1    0    0    0  501  0.00000000000E+00  0.00000000000E+00 -0.10758356497E+04  0.10758356497E+04  0.25500000920E-02 0. -1.
    10030    2    1    2    0    0  0.00000000000E+00  0.00000000000E+00 -0.48065150038E+03  0.16710197991E+04  0.16004003574E+04 0.  0.
        1    1    3    3  502    0 -0.50662638745E+03  0.61349008858E+03 -0.15123822847E+03  0.80988479861E+03  0.50400001928E-02 0. -1.
       -1    1    3    3    0  502  0.50662638745E+03 -0.61349008858E+03 -0.32941327191E+03  0.86113500044E+03  0.50400001928E-02 0.  1.
</event>
<event>
 5   0  0.1990948E-05  0.1600477E+04  0.7818609E-02  0.8820255E-01
        2   -1    0    0  501    0  0.00000000000E+00  0.00000000000E+00  0.63003654304E+03  0.63003654305E+03  0.25500000920E-02 0. -1.
       -2   -1    0    0    0  501  0.00000000000E+00  0.00000000000E+00 -0.10164202282E+04  0.10164202282E+04  0.25500000920E-02 0.  1.
    10030    2    1    2    0    0  0.00000000000E+00  0.00000000000E+00 -0.38638368519E+03  0.16464567713E+04  0.16004772874E+04 0.  0.
        4    1    3    3  502    0 -0.54510094249E+03 -0.26602810721E+03  0.34379491526E+03  0.69721054781E+03  0.12699999809E+01 0. -1.
       -4    1    3    3    0  502  0.54510094249E+03  0.26602810721E+03 -0.73017860044E+03  0.94924622347E+03  0.12699999809E+01 0.  1.
</event>
<event>
 5   0  0.1126485E-05  0.1599872E+04  0.7818609E-02  0.8820626E-01
       -1   -1    0    0    0  501  0.00000000000E+00  0.00000000000E+00  0.39256416057E+03  0.39256416060E+03  0.50400001928E-02 0. -1.
        1   -1    0    0  501    0  0.00000000000E+00  0.00000000000E+00 -0.16300465116E+04  0.16300465116E+04  0.50400001928E-02 0.  1.
    10030    2    1    2    0    0  0.00000000000E+00  0.00000000000E+00 -0.12374823510E+04  0.20226106722E+04  0.15998722956E+04 0.  0.
        2    1    3    3  502    0 -0.57644263061E+03 -0.19055386099E+03 -0.12772364185E+04  0.14141887247E+04  0.25500000920E-02 0.  1.
       -2    1    3    3    0  502  0.57644263061E+03  0.19055386099E+03  0.39754067472E+02  0.60842194750E+03  0.25500000920E-02 0. -1.
</event>
<event>
 5   0  0.1994525E-05  0.1600076E+04  0.7818609E-02  0.8820501E-01
       -2   -1    0    0    0  501  0.00000000000E+00  0.00000000000E+00  0.38899426269E+03  0.38899426270E+03  0.25500000920E-02 0. -1.
        2   -1    0    0  501    0  0.00000000000E+00  0.00000000000E+00 -0.16454246568E+04  0.16454246568E+04  0.25500000920E-02 0.  1.
    10030    2    1    2    0    0  0.00000000000E+00  0.00000000000E+00 -0.12564303941E+04  0.20344189195E+04  0.16000759372E+04 0.  0.
        5    1    3    3  502    0 -0.69826343681E+03 -0.29559987361E+03 -0.30383917035E+03  0.81687908769E+03  0.46999998093E+01 0. -1.
       -5    1    3    3    0  502  0.69826343681E+03  0.29559987361E+03 -0.95259122377E+03  0.12175398318E+04  0.46999998093E+01 0.  1.
</event>
<event>
 5   0  0.1090674E-05  0.1600260E+04  0.7818609E-02  0.8820388E-01
       -1   -1    0    0    0  501  0.00000000000E+00  0.00000000000E+00  0.93996014947E+03  0.93996014948E+03  0.50400001928E-02 0.  1.
        1   -1    0    0  501    0  0.00000000000E+00  0.00000000000E+00 -0.68110137066E+03  0.68110137068E+03  0.50400001928E-02 0. -1.
    10030    2    1    2    0    0  0.00000000000E+00  0.00000000000E+00  0.25885877881E+03  0.16210615202E+04  0.16002601616E+04 0.  0.
        4    1    3    3  502    0 -0.35004832494E+03  0.69267549659E+03  0.32656987450E+03  0.84201108615E+03  0.12699999809E+01 0.  1.
       -4    1    3    3    0  502  0.35004832494E+03 -0.69267549659E+03 -0.67711095687E+02  0.77905043402E+03  0.12699999809E+01 0. -1.
</event>
<event>
 5   0  0.2046108E-05  0.1599851E+04  0.7818609E-02  0.8820639E-01
       -2   -1    0    0    0  501  0.00000000000E+00  0.00000000000E+00  0.11469987595E+04  0.11469987595E+04  0.25500000920E-02 0.  1.
        2   -1    0    0  501    0  0.00000000000E+00  0.00000000000E+00 -0.55787433532E+03  0.55787433533E+03  0.25500000920E-02 0. -1.
    10030    2    1    2    0    0  0.00000000000E+00  0.00000000000E+00  0.58912442417E+03  0.17048730948E+04  0.15998514563E+04 0.  0.
        1    1    3    3  502    0  0.63279539939E+03  0.19699327526E+02  0.81559932656E+03  0.10324826112E+04  0.50400001928E-02 0.  1.
       -1    1    3    3    0  502 -0.63279539939E+03 -0.19699327526E+02 -0.22647490239E+03  0.67239048359E+03  0.50400001928E-02 0. -1.
</event>
<event>
 5   0  0.1994525E-05  0.1600117E+04  0.7818609E-02  0.8820476E-01
        2   -1    0    0  501    0  0.00000000000E+00  0.00000000000E+00  0.65662012347E+03  0.65662012347E+03  0.25500000920E-02 0. -1.
       -2   -1    0    0    0  501  0.00000000000E+00  0.00000000000E+00 -0.97483062362E+03  0.97483062363E+03  0.25500000920E-02 0.  1.
    10030    2    1    2    0    0  0.00000000000E+00  0.00000000000E+00 -0.31821050015E+03  0.16314507471E+04  0.16001167513E+04 0.  0.
        5    1    3    3  502    0  0.61427040930E+03 -0.25248198439E+03 -0.61393042730E+03  0.90443791813E+03  0.46999998093E+01 0.  1.
       -5    1    3    3    0  502 -0.61427040930E+03  0.25248198439E+03  0.29571992715E+03  0.72701282897E+03  0.46999998093E+01 0. -1.
</event>
<event>
 5   0  0.2147844E-05  0.1599391E+04  0.7818609E-02  0.8820922E-01
       -2   -1    0    0    0  501  0.00000000000E+00  0.00000000000E+00  0.80697372554E+03  0.80697372555E+03  0.25500000920E-02 0.  1.
        2   -1    0    0  501    0  0.00000000000E+00  0.00000000000E+00 -0.79248290628E+03  0.79248290629E+03  0.25500000920E-02 0. -1.
    10030    2    1    2    0    0  0.00000000000E+00  0.00000000000E+00  0.14490819260E+02  0.15994566318E+04  0.15993909882E+04 0.  0.
        2    1    3    3  502    0 -0.68585979479E+03 -0.23801013777E+03  0.34261033194E+03  0.80276666806E+03  0.25500000920E-02 0.  1.
       -2    1    3    3    0  502  0.68585979479E+03  0.23801013777E+03 -0.32811951268E+03  0.79668996378E+03  0.25500000920E-02 0. -1.
</event>
<event>
 5   0  0.1060251E-05  0.1599483E+04  0.7818609E-02  0.8820866E-01
        1   -1    0    0  501    0  0.00000000000E+00  0.00000000000E+00  0.21715805907E+04  0.21715805907E+04  0.50400001928E-02 0. -1.
       -1   -1    0    0    0  501  0.00000000000E+00  0.00000000000E+00 -0.29452560286E+03  0.29452560291E+03  0.50400001928E-02 0.  1.
    10030    2    1    2    0    0  0.00000000000E+00  0.00000000000E+00  0.18770549878E+04  0.24661061936E+04  0.15994825197E+04 0.  0.
        1    1    3    3  502    0  0.23280174195E+03  0.38080278850E+03 -0.84636886270E+02  0.45428054914E+03  0.50400001928E-02 0.  1.
       -1    1    3    3    0  502 -0.23280174195E+03 -0.38080278850E+03  0.19616918741E+04  0.20118256444E+04  0.50400001928E-02 0. -1.
</event>
<event>
 5   0  0.1090674E-05  0.1594268E+04  0.7818609E-02  0.8824077E-01
        1   -1    0    0  501    0  0.00000000000E+00  0.00000000000E+00  0.44182010702E+03  0.44182010705E+03  0.50400001928E-02 0. -1.
       -1   -1    0    0    0  501  0.00000000000E+00  0.00000000000E+00 -0.14381935964E+04  0.14381935964E+04  0.50400001928E-02 0.  1.
    10030    2    1    2    0    0  0.00000000000E+00  0.00000000000E+00 -0.99637348934E+03  0.18800137034E+04  0.15942682945E+04 0.  0.
        4    1    3    3  502    0 -0.15833318964E+02 -0.77658202945E+03 -0.70943372472E+03  0.10519639562E+04  0.12699999809E+01 0.  1.
       -4    1    3    3    0  502  0.15833318964E+02  0.77658202945E+03 -0.28693976462E+03  0.82804974722E+03  0.12699999809E+01 0. -1.
</event>
<event>
 5   0  0.2147844E-05  0.1603134E+04  0.7818609E-02  0.8818625E-01
       -2   -1    0    0    0  501  0.00000000000E+00  0.00000000000E+00  0.69828086729E+03  0.69828086729E+03  0.25500000920E-02 0. -1.
        2   -1    0    0  501    0  0.00000000000E+00  0.00000000000E+00 -0.92013071697E+03  0.92013071697E+03  0.25500000920E-02 0.  1.
    10030    2    1    2    0    0  0.00000000000E+00  0.00000000000E+00 -0.22184984968E+03  0.16184115843E+04  0.16031340244E+04 0.  0.
        2    1    3    3  502    0  0.63783351802E+03 -0.43338744286E+03  0.10991396699E+03  0.77893347115E+03  0.25500000920E-02 0.  1.
       -2    1    3    3    0  502 -0.63783351802E+03  0.43338744286E+03 -0.33176381667E+03  0.83947811311E+03  0.25500000920E-02 0. -1.
</event>
<event>
 5   0  0.1994525E-05  0.1599799E+04  0.7818609E-02  0.8820672E-01
       -2   -1    0    0    0  501  0.00000000000E+00  0.00000000000E+00  0.35644259570E+03  0.35644259570E+03  0.25500000920E-02 0. -1.
        2   -1    0    0  501    0  0.00000000000E+00  0.00000000000E+00 -0.17950689828E+04  0.17950689828E+04  0.25500000920E-02 0.  1.
    10030    2    1    2    0    0  0.00000000000E+00  0.00000000000E+00 -0.14386263871E+04  0.21515115785E+04  0.15997987970E+04 0.  0.
        5    1    3    3  502    0 -0.13913537960E+03 -0.69884419035E+03 -0.23056091146E+03  0.74894744818E+03  0.46999998093E+01 0. -1.
       -5    1    3    3    0  502  0.13913537960E+03  0.69884419035E+03 -0.12080654756E+04  0.14025641303E+04  0.46999998093E+01 0.  1.
</event>
<event>
 5   0  0.1090674E-05  0.1600096E+04  0.7818609E-02  0.8820489E-01
       -1   -1    0    0    0  501  0.00000000000E+00  0.00000000000E+00  0.46946446936E+03  0.46946446939E+03  0.50400001928E-02 0.  1.
        1   -1    0    0  501    0  0.00000000000E+00  0.00000000000E+00 -0.13634193948E+04  0.13634193948E+04  0.50400001928E-02 0. -1.
    10030    2    1    2    0    0  0.00000000000E+00  0.00000000000E+00 -0.89395492546E+03  0.18328838642E+04  0.16000962005E+04 0.  0.
        4    1    3    3  502    0 -0.12057124007E+03  0.68134055043E+03 -0.90704703522E+03  0.11408322868E+04  0.12699999809E+01 0. -1.
       -4    1    3    3    0  502  0.12057124007E+03 -0.68134055043E+03  0.13092109756E+02  0.69205157743E+03  0.12699999809E+01 0.  1.
</event>
<event>
 5   0  0.1126485E-05  0.1600287E+04  0.7818609E-02  0.8820372E-01
        1   -1    0    0  501    0  0.00000000000E+00  0.00000000000E+00  0.76364038197E+03  0.76364038198E+03  0.50400001928E-02 0.  1.
       -1   -1    0    0    0  501  0.00000000000E+00  0.00000000000E+00 -0.83839157173E+03  0.83839157174E+03  0.50400001928E-02 0. -1.
    10030    2    1    2    0    0  0.00000000000E+00  0.00000000000E+00 -0.74751189764E+02  0.16020319537E+04  0.16002870494E+04 0.  0.
        2    1    3    3  502    0 -0.42435336943E+03  0.24781536535E+02  0.64125717481E+03  0.76935081137E+03  0.25500000920E-02 0.  1.
       -2    1    3    3    0  502  0.42435336943E+03 -0.24781536535E+02 -0.71600836457E+03  0.83268114236E+03  0.25500000920E-02 0. -1.
</event>
<event>
 5   0  0.1990948E-05  0.1599925E+04  0.7818609E-02  0.8820594E-01
        2   -1    0    0  501    0  0.00000000000E+00  0.00000000000E+00  0.92714573677E+03  0.92714573677E+03  0.25500000920E-02 0.  1.
       -2   -1    0    0    0  501  0.00000000000E+00  0.00000000000E+00 -0.69022577935E+03  0.69022577936E+03  0.25500000920E-02 0. -1.
    10030    2    1    2    0    0  0.00000000000E+00  0.00000000000E+00  0.23691995741E+03  0.16173715161E+04  0.15999248592E+04 0.  0.
        4    1    3    3  502    0  0.23847901654E+03  0.50486119536E+03 -0.46065801437E+03  0.72385391276E+03  0.12699999809E+01 0. -1.
       -4    1    3    3    0  502 -0.23847901654E+03 -0.50486119536E+03  0.69757797178E+03  0.89351760337E+03  0.12699999809E+01 0.  1.
</event>
<event>
 5   0  0.1057506E-05  0.1600150E+04  0.7818609E-02  0.8820456E-01
        1   -1    0    0  501    0  0.00000000000E+00  0.00000000000E+00  0.67587029758E+03  0.67587029760E+03  0.50400001928E-02 0. -1.
       -1   -1    0    0    0  501  0.00000000000E+00  0.00000000000E+00 -0.94710455238E+03  0.94710455240E+03  0.50400001928E-02 0.  1.
    10030    2    1    2    0    0  0.00000000000E+00  0.00000000000E+00 -0.27123425480E+03  0.16229748500E+04  0.16001497876E+04 0.  0.
        5    1    3    3  502    0 -0.68188764173E+03  0.17822027947E+02 -0.55968317198E+03  0.88235804729E+03  0.46999998093E+01 0.  1.
       -5    1    3    3    0  502  0.68188764173E+03 -0.17822027947E+02  0.28844891718E+03  0.74061680270E+03  0.46999998093E+01 0. -1.
</event>
<event>
 5   0  0.1990948E-05  0.1600460E+04  0.7818609E-02  0.8820266E-01
        2   -1    0    0  501    0  0.00000000000E+00  0.00000000000E+00  0.23831666847E+04  0.23831666847E+04  0.25500000920E-02 0.  1.
       -2   -1    0    0    0  501  0.00000000000E+00  0.00000000000E+00 -0.26870452553E+03  0.26870452554E+03  0.25500000920E-02 0. -1.
    10030    2    1    2    0    0  0.00000000000E+00  0.00000000000E+00  0.21144621591E+04  0.26518712102E+04  0.16004595256E+04 0.  0.
        4    1    3    3  502    0 -0.66118190947E+02  0.29939277930E+03 -0.16751638375E+03  0.34938660992E+03  0.12699999809E+01 0. -1.
       -4    1    3    3    0  502  0.66118190947E+02 -0.29939277930E+03  0.22819785429E+04  0.23024846003E+04  0.12699999809E+01 0.  1.
</event>
<event>
 5   0  0.1990948E-05  0.1599045E+04  0.7818609E-02  0.8821135E-01
        2   -1    0    0  501    0  0.00000000000E+00  0.00000000000E+00  0.12262220771E+04  0.12262220771E+04  0.25500000920E-02 0. -1.
       -2   -1    0    0    0  501  0.00000000000E+00  0.00000000000E+00 -0.52130553510E+03  0.52130553510E+03  0.25500000920E-02 0.  1.
    10030    2    1    2    0    0  0.00000000000E+00  0.00000000000E+00  0.70491654201E+03  0.17475276122E+04  0.15990451602E+04 0.  0.
        4    1    3    3  502    0  0.70361932163E+03  0.60512729239E+02 -0.57170409023E+02  0.70852805783E+03  0.12699999809E+01 0.  1.
       -4    1    3    3    0  502 -0.70361932163E+03 -0.60512729239E+02  0.76208695103E+03  0.10389995544E+04  0.12699999809E+01 0. -1.
</event>
<event>
 5   0  0.1994525E-05  0.1600747E+04  0.7818609E-02  0.8820089E-01
       -2   -1    0    0    0  501  0.00000000000E+00  0.00000000000E+00  0.70581853522E+03  0.70581853522E+03  0.25500000920E-02 0.  1.
        2   -1    0    0  501    0  0.00000000000E+00  0.00000000000E+00 -0.90759512262E+03  0.90759512263E+03  0.25500000920E-02 0. -1.
    10030    2    1    2    0    0  0.00000000000E+00  0.00000000000E+00 -0.20177658741E+03  0.16134136578E+04  0.16007466508E+04 0.  0.
        5    1    3    3  502    0  0.21695971509E+03  0.42026896595E+03 -0.75165831225E+03  0.88809336789E+03  0.46999998093E+01 0. -1.
       -5    1    3    3    0  502 -0.21695971509E+03 -0.42026896595E+03  0.54988172484E+03  0.72532028996E+03  0.46999998093E+01 0.  1.
</event>
<event>
 5   0  0.1126485E-05  0.1599740E+04  0.7818609E-02  0.8820708E-01
        1   -1    0    0  501    0  0.00000000000E+00  0.00000000000E+00  0.64369368570E+03  0.64369368572E+03  0.50400001928E-02 0. -1.
       -1   -1    0    0    0  501  0.00000000000E+00  0.00000000000E+00 -0.99393839586E+03  0.99393839588E+03  0.50400001928E-02 0.  1.
    10030    2    1    2    0    0  0.00000000000E+00  0.00000000000E+00 -0.35024471016E+03  0.16376320816E+04  0.15997398156E+04 0.  0.
        2    1    3    3  502    0 -0.59244340323E+03 -0.52482368997E+03 -0.56786771320E+02  0.79350729612E+03  0.25500000920E-02 0.  1.
       -2    1    3    3    0  502  0.59244340323E+03  0.52482368997E+03 -0.29345793884E+03  0.84412478548E+03  0.25500000920E-02 0. -1.
</event>
<event>
 5   0  0.1060251E-05  0.1597279E+04  0.7818609E-02  0.8822221E-01
       -1   -1    0    0    0  501  0.00000000000E+00  0.00000000000E+00  0.64252022231E+03  0.64252022233E+03  0.50400001928E-02 0.  1.
        1   -1    0    0  501    0  0.00000000000E+00  0.00000000000E+00 -0.99269311375E+03  0.99269311376E+03  0.50400001928E-02 0. -1.
    10030    2    1    2    0    0  0.00000000000E+00  0.00000000000E+00 -0.35017289144E+03  0.16352133361E+04  0.15972794372E+04 0.  0.
        1    1    3    3  502    0 -0.18388162144E+03 -0.28627162749E+03  0.56461140196E+03  0.65920401293E+03  0.50400001928E-02 0.  1.
       -1    1    3    3    0  502  0.18388162144E+03  0.28627162749E+03 -0.91478429340E+03  0.97600932316E+03  0.50400001928E-02 0. -1.
</event>
<event>
 5   0  0.1057506E-05  0.1598136E+04  0.7818609E-02  0.8821694E-01
        1   -1    0    0  501    0  0.00000000000E+00  0.00000000000E+00  0.44566195574E+03  0.44566195577E+03  0.50400001928E-02 0. -1.
       -1   -1    0    0    0  501  0.00000000000E+00  0.00000000000E+00 -0.14327224929E+04  0.14327224929E+04  0.50400001928E-02 0.  1.
    10030    2    1    2    0    0  0.00000000000E+00  0.00000000000E+00 -0.98706053713E+03  0.18783844486E+04  0.15981362999E+04 0.  0.
        5    1    3    3  502    0  0.28811556175E+03 -0.16546368285E+03  0.36060832382E+03  0.49035625873E+03  0.46999998093E+01 0. -1.
       -5    1    3    3    0  502 -0.28811556175E+03  0.16546368285E+03 -0.13476688609E+04  0.13880281899E+04  0.46999998093E+01 0.  1.
</event>
<event>
 5   0  0.2046108E-05  0.1601985E+04  0.7818609E-02  0.8819330E-01
       -2   -1    0    0    0  501  0.00000000000E+00  0.00000000000E+00  0.57081964868E+03  0.57081964869E+03  0.25500000920E-02 0. -1.
        2   -1    0    0  501    0  0.00000000000E+00  0.00000000000E+00 -0.11239782370E+04  0.11239782370E+04  0.25500000920E-02 0.  1.
    10030    2    1    2    0    0  0.00000000000E+00  0.00000000000E+00 -0.55315858827E+03  0.16947978856E+04  0.16019848468E+04 0.  0.
        1    1    3    3  502    0 -0.30033753097E+03 -0.74581614306E+02  0.50502286260E+03  0.59229480960E+03  0.50400001928E-02 0. -1.
       -1    1    3    3    0  502  0.30033753097E+03  0.74581614306E+02 -0.10581814509E+04  0.11025030760E+04  0.50400001928E-02 0.  1.
</event>
<event>
 5   0  0.1994525E-05  0.1599952E+04  0.7818609E-02  0.8820578E-01
       -2   -1    0    0    0  501  0.00000000000E+00  0.00000000000E+00  0.25421139365E+03  0.25421139367E+03  0.25500000920E-02 0. -1.
        2   -1    0    0  501    0  0.00000000000E+00  0.00000000000E+00 -0.25174374894E+04  0.25174374894E+04  0.25500000920E-02 0.  1.
    10030    2    1    2    0    0  0.00000000000E+00  0.00000000000E+00 -0.22632260958E+04  0.27716488831E+04  0.15999516151E+04 0.  0.
        5    1    3    3  502    0 -0.72496883720E+03 -0.27612520744E+03 -0.79341188594E+03  0.11096618655E+04  0.46999998093E+01 0.  1.
       -5    1    3    3    0  502  0.72496883720E+03  0.27612520744E+03 -0.14698142098E+04  0.16619870176E+04  0.46999998093E+01 0. -1.
</event>
<event>
 5   0  0.1990948E-05  0.1599996E+04  0.7818609E-02  0.8820550E-01
       -2   -1    0    0    0  501  0.00000000000E+00  0.00000000000E+00  0.43447774663E+03  0.43447774664E+03  0.25500000920E-02 0. -1.
        2   -1    0    0  501    0  0.00000000000E+00  0.00000000000E+00 -0.14730262291E+04  0.14730262291E+04  0.25500000920E-02 0.  1.
    10030    2    1    2    0    0  0.00000000000E+00  0.00000000000E+00 -0.10385484825E+04  0.19075039757E+04  0.15999963959E+04 0.  0.
        4    1    3    3  502    0  0.54775963498E+03 -0.26912667310E+03 -0.11359107274E+04  0.12894822904E+04  0.12699999809E+01 0.  1.
       -4    1    3    3    0  502 -0.54775963498E+03  0.26912667310E+03  0.97362244892E+02  0.61802168532E+03  0.12699999809E+01 0. -1.
</event>
<event>
 5   0  0.1057506E-05  0.1599461E+04  0.7818609E-02  0.8820879E-01
       -1   -1    0    0    0  501  0.00000000000E+00  0.00000000000E+00  0.96740983977E+03  0.96740983978E+03  0.50400001928E-02 0. -1.
        1   -1    0    0  501    0  0.00000000000E+00  0.00000000000E+00 -0.66111472278E+03  0.66111472280E+03  0.50400001928E-02 0.  1.
    10030    2    1    2    0    0  0.00000000000E+00  0.00000000000E+00  0.30629511698E+03  0.16285245626E+04  0.15994610193E+04 0.  0.
        5    1    3    3  502    0 -0.39440837345E+03 -0.38952991031E+03 -0.43374229321E+03  0.70387923893E+03  0.46999998093E+01 0.  1.
       -5    1    3    3    0  502  0.39440837345E+03  0.38952991031E+03  0.74003741019E+03  0.92464532366E+03  0.46999998093E+01 0. -1.
</event>
<event>
 5   0  0.1060251E-05  0.1601948E+04  0.7818609E-02  0.8819352E-01
        1   -1    0    0  501    0  0.00000000000E+00  0.00000000000E+00  0.21446360656E+03  0.21446360662E+03  0.50400001928E-02 0. -1.
       -1   -1    0    0    0  501  0.00000000000E+00  0.00000000000E+00 -0.29914585511E+04  0.29914585511E+04  0.50400001928E-02 0.  1.
    10030    2    1    2    0    0  0.00000000000E+00  0.00000000000E+00 -0.27769949446E+04  0.32059221578E+04  0.16019475520E+04 0.  0.
        1    1    3    3  502    0 -0.22815510834E+03 -0.20332993759E+03 -0.28701924720E+04  0.28864169213E+04  0.50400001928E-02 0.  1.
       -1    1    3    3    0  502  0.22815510834E+03  0.20332993759E+03  0.93197527461E+02  0.31950523647E+03  0.50400001928E-02 0. -1.
</event>
<event>
 5   0  0.1126485E-05  0.1606056E+04  0.7818609E-02  0.8816836E-01
        1   -1    0    0  501    0  0.00000000000E+00  0.00000000000E+00  0.25179371779E+04  0.25179371779E+04  0.50400001928E-02 0.  1.
       -1   -1    0    0    0  501  0.00000000000E+00  0.00000000000E+00 -0.25610406632E+03  0.25610406637E+03  0.50400001928E-02 0. -1.
    10030    2    1    2    0    0  0.00000000000E+00  0.00000000000E+00  0.22618331116E+04  0.27740412443E+04  0.16060559767E+04 0.  0.
        2    1    3    3  502    0  0.32866555386E+03 -0.73243162343E+03  0.11644454829E+04  0.14143586575E+04  0.25500000920E-02 0. -1.
       -2    1    3    3    0  502 -0.32866555386E+03  0.73243162343E+03  0.10973876287E+04  0.13596825868E+04  0.25500000920E-02 0.  1.
</event>
<event>
 5   0  0.1126485E-05  0.1599684E+04  0.7818609E-02  0.8820742E-01
       -1   -1    0    0    0  501  0.00000000000E+00  0.00000000000E+00  0.68589156313E+03  0.68589156315E+03  0.50400001928E-02 0. -1.
        1   -1    0    0  501    0  0.00000000000E+00  0.00000000000E+00 -0.93272329841E+03  0.93272329842E+03  0.50400001928E-02 0.  1.
    10030    2    1    2    0    0  0.00000000000E+00  0.00000000000E+00 -0.24683173528E+03  0.16186148616E+04  0.15996837702E+04 0.  0.
        2    1    3    3  502    0 -0.43185633449E+03  0.30330464475E+03 -0.73157240652E+03  0.90204866119E+03  0.25500000920E-02 0.  1.
       -2    1    3    3    0  502  0.43185633449E+03 -0.30330464475E+03  0.48474067124E+03  0.71656620038E+03  0.25500000920E-02 0. -1.
</event>
<event>
 5   0  0.1057506E-05  0.1598736E+04  0.7818609E-02  0.8821325E-01
        1   -1    0    0  501    0  0.00000000000E+00  0.00000000000E+00  0.86291024479E+03  0.86291024480E+03  0.50400001928E-02 0.  1.
       -1   -1    0    0    0  501  0.00000000000E+00  0.00000000000E+00 -0.74050452651E+03  0.74050452653E+03  0.50400001928E-02 0. -1.
    10030    2    1    2    0    0  0.00000000000E+00  0.00000000000E+00  0.12240571828E+03  0.16034147713E+04  0.15987356783E+04 0.  0.
        5    1    3    3  502    0 -0.31087937783E+03  0.60822387996E+03 -0.35520451935E+03  0.76991857769E+03  0.46999998093E+01 0. -1.
       -5    1    3    3    0  502  0.31087937783E+03 -0.60822387996E+03  0.47761023763E+03  0.83349619363E+03  0.46999998093E+01 0.  1.
</event>
<event>
 5   0  0.2046108E-05  0.1600250E+04  0.7818609E-02  0.8820394E-01
        2   -1    0    0  501    0  0.00000000000E+00  0.00000000000E+00  0.80910627636E+03  0.80910627636E+03  0.25500000920E-02 0.  1.
       -2   -1    0    0    0  501  0.00000000000E+00  0.00000000000E+00 -0.79124373428E+03  0.79124373428E+03  0.25500000920E-02 0. -1.
    10030    2    1    2    0    0  0.00000000000E+00  0.00000000000E+00  0.17862542081E+02  0.16003500106E+04  0.16002503198E+04 0.  0.
        1    1    3    3  502    0  0.33598760388E+03 -0.36211289781E+03  0.63840423697E+03  0.80720096044E+03  0.50400001928E-02 0.  1.
       -1    1    3    3    0  502 -0.33598760388E+03  0.36211289781E+03 -0.62054169489E+03  0.79314905021E+03  0.50400001928E-02 0. -1.
</event>
<event>
 5   0  0.1090674E-05  0.1600518E+04  0.7818609E-02  0.8820230E-01
       -1   -1    0    0    0  501  0.00000000000E+00  0.00000000000E+00  0.85082583715E+03  0.85082583716E+03  0.50400001928E-02 0. -1.
        1   -1    0    0  501    0  0.00000000000E+00  0.00000000000E+00 -0.75269736750E+03  0.75269736752E+03  0.50400001928E-02 0.  1.
    10030    2    1    2    0    0  0.00000000000E+00  0.00000000000E+00  0.98128469649E+02  0.16035232047E+04  0.16005178760E+04 0.  0.
        4    1    3    3  502    0 -0.29947953525E+03 -0.14338188734E+03  0.77855671422E+03  0.84640328911E+03  0.12699999809E+01 0. -1.
       -4    1    3    3    0  502  0.29947953525E+03  0.14338188734E+03 -0.68042824457E+03  0.75711991558E+03  0.12699999809E+01 0.  1.
</event>
<event>
 5   0  0.1060251E-05  0.1600465E+04  0.7818609E-02  0.8820262E-01
       -1   -1    0    0    0  501  0.00000000000E+00  0.00000000000E+00  0.76588842432E+03  0.76588842433E+03  0.50400001928E-02 0.  1.
        1   -1    0    0  501    0  0.00000000000E+00  0.00000000000E+00 -0.83611686115E+03  0.83611686116E+03  0.50400001928E-02 0. -1.
    10030    2    1    2    0    0  0.00000000000E+00  0.00000000000E+00 -0.70228436828E+02  0.16020052855E+04  0.16004652141E+04 0.  0.
        1    1    3    3  502    0  0.76724187358E+03  0.22343217694E+03 -0.77465629262E+02  0.80285923674E+03  0.50400001928E-02 0. -1.
       -1    1    3    3    0  502 -0.76724187358E+03 -0.22343217694E+03  0.72371924334E+01  0.79914604876E+03  0.50400001928E-02 0.  1.
</event>
<event>
 5   0  0.1990948E-05  0.1598769E+04  0.7818609E-02  0.8821305E-01
       -2   -1    0    0    0  501  0.00000000000E+00  0.00000000000E+00  0.13330659610E+04  0.13330659610E+04  0.25500000920E-02 0. -1.
        2   -1    0    0  501    0  0.00000000000E+00  0.00000000000E+00 -0.47935782949E+03  0.47935782950E+03  0.25500000920E-02 0.  1.
    10030    2    1    2    0    0  0.00000000000E+00  0.00000000000E+00  0.85370813150E+03  0.18124237905E+04  0.15987690335E+04 0.  0.
        4    1    3    3  502    0  0.42270871382E+02  0.55606550241E+03 -0.22241255865E+03  0.60038706572E+03  0.12699999809E+01 0.  1.
       -4    1    3    3    0  502 -0.42270871382E+02 -0.55606550241E+03  0.10761206902E+04  0.12120367248E+04  0.12699999809E+01 0. -1.
</event>
<event>
 5   0  0.1057506E-05  0.1599245E+04  0.7818609E-02  0.8821012E-01
       -1   -1    0    0    0  501  0.00000000000E+00  0.00000000000E+00  0.65877437388E+03  0.65877437390E+03  0.50400001928E-02 0. -1.
        1   -1    0    0  501    0  0.00000000000E+00  0.00000000000E+00 -0.97058390368E+03  0.97058390369E+03  0.50400001928E-02 0.  1.
    10030    2    1    2    0    0  0.00000000000E+00  0.00000000000E+00 -0.31180952980E+03  0.16293582776E+04  0.15992445760E+04 0.  0.
        5    1    3    3  502    0 -0.32679626451E+03 -0.72498479694E+03 -0.70815937231E+02  0.79839572973E+03  0.46999998093E+01 0. -1.
       -5    1    3    3    0  502  0.32679626451E+03  0.72498479694E+03 -0.24099359256E+03  0.83096254786E+03  0.46999998093E+01 0.  1.
</event>
<event>
 5   0  0.1057506E-05  0.1599164E+04  0.7818609E-02  0.8821062E-01
       -1   -1    0    0    0  501  0.00000000000E+00  0.00000000000E+00  0.50266595038E+03  0.50266595041E+03  0.50400001928E-02 0. -1.
        1   -1    0    0  501    0  0.00000000000E+00  0.00000000000E+00 -0.12718809624E+04  0.12718809624E+04  0.50400001928E-02 0.  1.
    10030    2    1    2    0    0  0.00000000000E+00  0.00000000000E+00 -0.76921501203E+03  0.17745469128E+04  0.15991638475E+04 0.  0.
        5    1    3    3  502    0 -0.35968875800E+03 -0.71144440003E+03 -0.31638276357E+03  0.85769999420E+03  0.46999998093E+01 0. -1.
       -5    1    3    3    0  502  0.35968875800E+03  0.71144440003E+03 -0.45283224847E+03  0.91684691864E+03  0.46999998093E+01 0.  1.
</event>
<event>
 5   0  0.1126485E-05  0.1599551E+04  0.7818609E-02  0.8820824E-01
       -1   -1    0    0    0  501  0.00000000000E+00  0.00000000000E+00  0.10713806602E+04  0.10713806602E+04  0.50400001928E-02 0. -1.
        1   -1    0    0  501    0  0.00000000000E+00  0.00000000000E+00 -0.59702449114E+03  0.59702449117E+03  0.50400001928E-02 0.  1.
    10030    2    1    2    0    0  0.00000000000E+00  0.00000000000E+00  0.47435616903E+03  0.16684051514E+04  0.15995505537E+04 0.  0.
        2    1    3    3  502    0  0.75462794759E+03 -0.17695509122E+03  0.31552296767E+02  0.77573964127E+03  0.25500000920E-02 0. -1.
       -2    1    3    3    0  502 -0.75462794759E+03  0.17695509122E+03  0.44280387227E+03  0.89266551009E+03  0.25500000920E-02 0.  1.
</event>
<event>
 5   0  0.2046108E-05  0.1599401E+04  0.7818609E-02  0.8820916E-01
        2   -1    0    0  501    0  0.00000000000E+00  0.00000000000E+00  0.14535276833E+04  0.14535276833E+04  0.25500000920E-02 0. -1.
       -2   -1    0    0    0  501  0.00000000000E+00  0.00000000000E+00 -0.43997864588E+03  0.43997864588E+03  0.25500000920E-02 0.  1.
    10030    2    1    2    0    0  0.00000000000E+00  0.00000000000E+00  0.10135490375E+04  0.18935063292E+04  0.15994013153E+04 0.  0.
        1    1    3    3  502    0 -0.23141064613E+03 -0.55894665998E+03 -0.11241954994E+03  0.61531326255E+03  0.50400001928E-02 0.  1.
       -1    1    3    3    0  502  0.23141064613E+03  0.55894665998E+03  0.11259685874E+04  0.12781930667E+04  0.50400001928E-02 0. -1.
</event>
<event>
 5   0  0.1090674E-05  0.1600151E+04  0.7818609E-02  0.8820455E-01
       -1   -1    0    0    0  501  0.00000000000E+00  0.00000000000E+00  0.19646512018E+04  0.19646512018E+04  0.50400001928E-02 0. -1.
        1   -1    0    0  501    0  0.00000000000E+00  0.00000000000E+00 -0.32581889783E+03  0.32581889787E+03  0.50400001928E-02 0.  1.
    10030    2    1    2    0    0  0.00000000000E+00  0.00000000000E+00  0.16388323039E+04  0.22904700996E+04  0.16001506045E+04 0.  0.
        4    1    3    3  502    0 -0.52068445888E+03  0.30155305090E+02 -0.49034289833E+02  0.52385839940E+03  0.12699999809E+01 0.  1.
       -4    1    3    3    0  502  0.52068445888E+03 -0.30155305090E+02  0.16878665938E+04  0.17666117002E+04  0.12699999809E+01 0. -1.
</event>
<event>
 5   0  0.2046108E-05  0.1600474E+04  0.7818609E-02  0.8820257E-01
       -2   -1    0    0    0  501  0.00000000000E+00  0.00000000000E+00  0.12630889386E+04  0.12630889386E+04  0.25500000920E-02 0.  1.
        2   -1    0    0  501    0  0.00000000000E+00  0.00000000000E+00 -0.50699449358E+03  0.50699449359E+03  0.25500000920E-02 0. -1.
    10030    2    1    2    0    0  0.00000000000E+00  0.00000000000E+00  0.75609444505E+03  0.17700834322E+04  0.16004738508E+04 0.  0.
        1    1    3    3  502    0  0.39517819995E+03 -0.17241071692E+03 -0.36755347124E+03  0.56655698679E+03  0.50400001928E-02 0. -1.
       -1    1    3    3    0  502 -0.39517819995E+03  0.17241071692E+03  0.11236479163E+04  0.12035264454E+04  0.50400001928E-02 0.  1.
</event>
<event>
 5   0  0.2125803E-05  0.1600179E+04  0.7818609E-02  0.8820438E-01
        2   -1    0    0  501    0  0.00000000000E+00  0.00000000000E+00  0.47134857558E+03  0.47134857559E+03  0.25500000920E-02 0. -1.
       -2   -1    0    0    0  501  0.00000000000E+00  0.00000000000E+00 -0.13581096812E+04  0.13581096812E+04  0.25500000920E-02 0.  1.
    10030    2    1    2    0    0  0.00000000000E+00  0.00000000000E+00 -0.88676110562E+03  0.18294582568E+04  0.16001788197E+04 0.  0.
        3    1    3    3  502    0  0.46438553047E+03  0.39330793117E+03  0.15046478733E+03  0.62688492729E+03  0.10100000352E+00 0. -1.
       -3    1    3    3    0  502 -0.46438553047E+03 -0.39330793117E+03 -0.10372258930E+04  0.12025733295E+04  0.10100000352E+00 0.  1.
</event>
<event>
 5   0  0.2125803E-05  0.1597562E+04  0.7818609E-02  0.8822047E-01
        2   -1    0    0  501    0  0.00000000000E+00  0.00000000000E+00  0.23247183759E+04  0.23247183759E+04  0.25500000920E-02 0. -1.
       -2   -1    0    0    0  501  0.00000000000E+00  0.00000000000E+00 -0.27446395179E+03  0.27446395180E+03  0.25500000920E-02 0.  1.
    10030    2    1    2    0    0  0.00000000000E+00  0.00000000000E+00  0.20502544242E+04  0.25991823277E+04  0.15975623835E+04 0.  0.
        3    1    3    3  502    0  0.72829946012E+02  0.78222373556E+02 -0.26277820784E+03  0.28368175386E+03  0.10100000352E+00 0.  1.
       -3    1    3    3    0  502 -0.72829946012E+02 -0.78222373556E+02  0.23130326320E+04  0.23155005739E+04  0.10100000352E+00 0. -1.
</event>
<event>
 5   0  0.1060251E-05  0.1599294E+04  0.7818609E-02  0.8820982E-01
        1   -1    0    0  501    0  0.00000000000E+00  0.00000000000E+00  0.93293757975E+03  0.93293757976E+03  0.50400001928E-02 0. -1.
       -1   -1    0    0    0  501  0.00000000000E+00  0.00000000000E+00 -0.68539992575E+03  0.68539992577E+03  0.50400001928E-02 0.  1.
    10030    2    1    2    0    0  0.00000000000E+00  0.00000000000E+00  0.24753765400E+03  0.16183375055E+04  0.15992940291E+04 0.  0.
        1    1    3    3  502    0  0.77111481855E+03 -0.15969792897E+03  0.26439795302E+03  0.83067910139E+03  0.50400001928E-02 0.  1.
       -1    1    3    3    0  502 -0.77111481855E+03  0.15969792897E+03 -0.16860299012E+02  0.78765840414E+03  0.50400001928E-02 0. -1.
</event>
<event>
 5   0  0.1057506E-05  0.1600795E+04  0.7818609E-02  0.8820060E-01
        1   -1    0    0  501    0  0.00000000000E+00  0.00000000000E+00  0.16821231588E+04  0.16821231588E+04  0.50400001928E-02 0.  1.
       -1   -1    0    0    0  501  0.00000000000E+00  0.00000000000E+00 -0.38084962025E+03  0.38084962028E+03  0.50400001928E-02 0. -1.
    10030    2    1    2    0    0  0.00000000000E+00  0.00000000000E+00  0.13012735385E+04  0.20629727791E+04  0.16007947604E+04 0.  0.
        5    1    3    3  502    0 -0.21719504046E+03  0.77014873649E+03  0.62790580449E+03  0.10171482445E+04  0.46999998093E+01 0. -1.
       -5    1    3    3    0  502  0.21719504046E+03 -0.77014873649E+03  0.67336773404E+03  0.10458245346E+04  0.46999998093E+01 0.  1.
</event>
<event>
 5   0  0.2125803E-05  0.1600903E+04  0.7818609E-02  0.8819994E-01
       -2   -1    0    0    0  501  0.00000000000E+00  0.00000000000E+00  0.87604564068E+03  0.87604564068E+03  0.25500000920E-02 0.  1.
        2   -1    0    0  501    0  0.00000000000E+00  0.00000000000E+00 -0.73138006823E+03  0.73138006824E+03  0.25500000920E-02 0. -1.
    10030    2    1    2    0    0  0.00000000000E+00  0.00000000000E+00  0.14466557245E+03  0.16074257089E+04  0.16009026460E+04 0.  0.
        3    1    3    3  502    0 -0.66174501597E+03 -0.20780082802E+03  0.47350383462E+03  0.83981756465E+03  0.10100000352E+00 0.  1.
       -3    1    3    3    0  502  0.66174501597E+03  0.20780082802E+03 -0.32883826217E+03  0.76760814428E+03  0.10100000352E+00 0. -1.
</event>
<event>
 5   0  0.1057506E-05  0.1600815E+04  0.7818609E-02  0.8820047E-01
        1   -1    0    0  501    0  0.00000000000E+00  0.00000000000E+00  0.89489289202E+03  0.89489289203E+03  0.50400001928E-02 0.  1.
       -1   -1    0    0    0  501  0.00000000000E+00  0.00000000000E+00 -0.71589852653E+03  0.71589852655E+03  0.50400001928E-02 0. -1.
    10030    2    1    2    0    0  0.00000000000E+00  0.00000000000E+00  0.17899436549E+03  0.16107914186E+04  0.16008154207E+04 0.  0.
        5    1    3    3  502    0 -0.51042903906E+03 -0.41895748213E+03  0.54460687838E+03  0.85596840930E+03  0.46999998093E+01 0.  1.
       -5    1    3    3    0  502  0.51042903906E+03  0.41895748213E+03 -0.36561251289E+03  0.75482300928E+03  0.46999998093E+01 0. -1.
</event>
<event>
 5   0  0.2147844E-05  0.1600270E+04  0.7818609E-02  0.8820382E-01
       -2   -1    0    0    0  501  0.00000000000E+00  0.00000000000E+00  0.58139450758E+03  0.58139450759E+03  0.25500000920E-02 0. -1.
        2   -1    0    0  501    0  0.00000000000E+00  0.00000000000E+00 -0.11011726772E+04  0.11011726772E+04  0.25500000920E-02 0.  1.
    10030    2    1    2    0    0  0.00000000000E+00  0.00000000000E+00 -0.51977816960E+03  0.16825671848E+04  0.16002696603E+04 0.  0.
        2    1    3    3  502    0  0.48247980662E+03 -0.43490110688E+03  0.23135368719E+03  0.68952901690E+03  0.25500000920E-02 0. -1.
       -2    1    3    3    0  502 -0.48247980662E+03  0.43490110688E+03 -0.75113185679E+03  0.99303816787E+03  0.25500000920E-02 0.  1.
</event>
<event>
 5   0  0.1081831E-05  0.1599662E+04  0.7818609E-02  0.8820756E-01
       -1   -1    0    0    0  501  0.00000000000E+00  0.00000000000E+00  0.99391599102E+03  0.99391599103E+03  0.50400001928E-02 0. -1.
        1   -1    0    0  501    0  0.00000000000E+00  0.00000000000E+00 -0.64364562308E+03  0.64364562310E+03  0.50400001928E-02 0.  1.
    10030    2    1    2    0    0  0.00000000000E+00  0.00000000000E+00  0.35027036794E+03  0.16375616141E+04  0.15996620610E+04 0.  0.
        3    1    3    3  502    0  0.19705344993E+03  0.76920291862E+03  0.76804896313E+02  0.79774820240E+03  0.10100000352E+00 0.  1.
       -3    1    3    3    0  502 -0.19705344993E+03 -0.76920291862E+03  0.27346547163E+03  0.83981341173E+03  0.10100000352E+00 0. -1.
</event>
<event>
 5   0  0.1060251E-05  0.1606547E+04  0.7818609E-02  0.8816536E-01
        1   -1    0    0  501    0  0.00000000000E+00  0.00000000000E+00  0.65598582781E+03  0.65598582783E+03  0.50400001928E-02 0.  1.
       -1   -1    0    0    0  501  0.00000000000E+00  0.00000000000E+00 -0.98363093346E+03  0.98363093347E+03  0.50400001928E-02 0. -1.
    10030    2    1    2    0    0  0.00000000000E+00  0.00000000000E+00 -0.32764510564E+03  0.16396167613E+04  0.16065465473E+04 0.  0.
        1    1    3    3  502    0 -0.70223329048E+03  0.14510735056E+03  0.20565195030E+03  0.74597618067E+03  0.50400001928E-02 0.  1.
       -1    1    3    3    0  502  0.70223329048E+03 -0.14510735056E+03 -0.53329705595E+03  0.89364058063E+03  0.50400001928E-02 0. -1.
</event>
<event>
 5   0  0.1090674E-05  0.1600551E+04  0.7818609E-02  0.8820210E-01
        1   -1    0    0  501    0  0.00000000000E+00  0.00000000000E+00  0.18660045496E+04  0.18660045496E+04  0.50400001928E-02 0.  1.
       -1   -1    0    0    0  501  0.00000000000E+00  0.00000000000E+00 -0.34321502078E+03  0.34321502082E+03  0.50400001928E-02 0. -1.
    10030    2    1    2    0    0  0.00000000000E+00  0.00000000000E+00  0.15227895288E+04  0.22092195704E+04  0.16005508930E+04 0.  0.
        4    1    3    3  502    0 -0.68230884837E+03 -0.38612630650E+03  0.53968660685E+03  0.95178891339E+03  0.12699999809E+01 0.  1.
       -4    1    3    3    0  502  0.68230884837E+03  0.38612630650E+03  0.98310292192E+03  0.12574306570E+04  0.12699999809E+01 0. -1.
</event>
<event>
 5   0  0.1990948E-05  0.1601038E+04  0.7818609E-02  0.8819910E-01
       -2   -1    0    0    0  501  0.00000000000E+00  0.00000000000E+00  0.15399159360E+04  0.15399159360E+04  0.25500000920E-02 0.  1.
        2   -1    0    0  501    0  0.00000000000E+00  0.00000000000E+00 -0.41614662356E+03  0.41614662357E+03  0.25500000920E-02 0. -1.
    10030    2    1    2    0    0  0.00000000000E+00  0.00000000000E+00  0.11237693124E+04  0.19560625596E+04  0.16010381849E+04 0.  0.
        4    1    3    3  502    0 -0.56583027941E+03 -0.32806506824E+03  0.11257951945E+04  0.13020011625E+04  0.12699999809E+01 0.  1.
       -4    1    3    3    0  502  0.56583027941E+03  0.32806506824E+03 -0.20258821080E+01  0.65406139711E+03  0.12699999809E+01 0. -1.
</event>
<event>
 5   0  0.1081831E-05  0.1600268E+04  0.7818609E-02  0.8820383E-01
       -1   -1    0    0    0  501  0.00000000000E+00  0.00000000000E+00  0.40452337394E+03  0.40452337398E+03  0.50400001928E-02 0. -1.
        1   -1    0    0  501    0  0.00000000000E+00  0.00000000000E+00 -0.15826390319E+04  0.15826390319E+04  0.50400001928E-02 0.  1.
    10030    2    1    2    0    0  0.00000000000E+00  0.00000000000E+00 -0.11781156580E+04  0.19871624059E+04  0.16002680787E+04 0.  0.
        3    1    3    3  502    0 -0.29713537589E+03  0.64572677832E+03 -0.13286724223E+03  0.72312254709E+03  0.10100000352E+00 0. -1.
       -3    1    3    3    0  502  0.29713537589E+03 -0.64572677832E+03 -0.10452484157E+04  0.12640398588E+04  0.10100000352E+00 0.  1.
</event>
<event>
 5   0  0.1057506E-05  0.1599190E+04  0.7818609E-02  0.8821046E-01
       -1   -1    0    0    0  501  0.00000000000E+00  0.00000000000E+00  0.29618102907E+03  0.29618102912E+03  0.50400001928E-02 0.  1.
        1   -1    0    0  501    0  0.00000000000E+00  0.00000000000E+00 -0.21586525033E+04  0.21586525033E+04  0.50400001928E-02 0. -1.
    10030    2    1    2    0    0  0.00000000000E+00  0.00000000000E+00 -0.18624714742E+04  0.24548335324E+04  0.15991896947E+04 0.  0.
        5    1    3    3  502    0 -0.52182825662E+03  0.52034989955E+03 -0.45497208800E+03  0.86607761674E+03  0.46999998093E+01 0.  1.
       -5    1    3    3    0  502  0.52182825662E+03 -0.52034989955E+03 -0.14074993862E+04  0.15887559157E+04  0.46999998093E+01 0. -1.
</event>
<event>
 5   0  0.1090674E-05  0.1600089E+04  0.7818609E-02  0.8820493E-01
       -1   -1    0    0    0  501  0.00000000000E+00  0.00000000000E+00  0.44823408183E+03  0.44823408186E+03  0.50400001928E-02 0.  1.
        1   -1    0    0  501    0  0.00000000000E+00  0.00000000000E+00 -0.14279840608E+04  0.14279840608E+04  0.50400001928E-02 0. -1.
    10030    2    1    2    0    0  0.00000000000E+00  0.00000000000E+00 -0.97974997899E+03  0.18762181427E+04  0.16000889030E+04 0.  0.
        4    1    3    3  502    0  0.23682140986E+03  0.48955816082E+03  0.19817349505E+03  0.57881423620E+03  0.12699999809E+01 0.  1.
       -4    1    3    3    0  502 -0.23682140986E+03 -0.48955816082E+03 -0.11779234740E+04  0.12974039065E+04  0.12699999809E+01 0. -1.
</event>
<event>
 5   0  0.2147844E-05  0.1601196E+04  0.7818609E-02  0.8819814E-01
       -2   -1    0    0    0  501  0.00000000000E+00  0.00000000000E+00  0.31318189909E+03  0.31318189910E+03  0.25500000920E-02 0.  1.
        2   -1    0    0  501    0  0.00000000000E+00  0.00000000000E+00 -0.20465974401E+04  0.20465974401E+04  0.25500000920E-02 0. -1.
    10030    2    1    2    0    0  0.00000000000E+00  0.00000000000E+00 -0.17334155410E+04  0.23597793392E+04  0.16011961441E+04 0.  0.
        2    1    3    3  502    0 -0.17946302884E+03 -0.76275929364E+03 -0.62477505836E+03  0.10021739332E+04  0.25500000920E-02 0. -1.
       -2    1    3    3    0  502  0.17946302884E+03  0.76275929364E+03 -0.11086404827E+04  0.13576054061E+04  0.25500000920E-02 0.  1.
</event>
<event>
 5   0  0.1990948E-05  0.1599931E+04  0.7818609E-02  0.8820590E-01
       -2   -1    0    0    0  501  0.00000000000E+00  0.00000000000E+00  0.71103732171E+03  0.71103732172E+03  0.25500000920E-02 0. -1.
        2   -1    0    0  501    0  0.00000000000E+00  0.00000000000E+00 -0.90001589044E+03  0.90001589044E+03  0.25500000920E-02 0.  1.
    10030    2    1    2    0    0  0.00000000000E+00  0.00000000000E+00 -0.18897856872E+03  0.16110532122E+04  0.15999311088E+04 0.  0.
        4    1    3    3  502    0  0.53513336716E+03  0.90980316272E+02  0.49721637043E+03  0.73611878832E+03  0.12699999809E+01 0. -1.
       -4    1    3    3    0  502 -0.53513336716E+03 -0.90980316272E+02 -0.68619493915E+03  0.87493442384E+03  0.12699999809E+01 0.  1.
</event>
<event>
 5   0  0.1990948E-05  0.1599813E+04  0.7818609E-02  0.8820663E-01
        2   -1    0    0  501    0  0.00000000000E+00  0.00000000000E+00  0.18088912020E+04  0.18088912020E+04  0.25500000920E-02 0.  1.
       -2   -1    0    0    0  501  0.00000000000E+00  0.00000000000E+00 -0.35372530454E+03  0.35372530455E+03  0.25500000920E-02 0. -1.
    10030    2    1    2    0    0  0.00000000000E+00  0.00000000000E+00  0.14551658974E+04  0.21626165065E+04  0.15998132282E+04 0.  0.
        4    1    3    3  502    0 -0.27944793494E+03 -0.72904610530E+03  0.96269240339E+03  0.12395070183E+04  0.12699999809E+01 0.  1.
       -4    1    3    3    0  502  0.27944793494E+03  0.72904610530E+03  0.49247349403E+03  0.92310948820E+03  0.12699999809E+01 0. -1.
</event>
<event>
 5   0  0.1090674E-05  0.1597579E+04  0.7818609E-02  0.8822037E-01
        1   -1    0    0  501    0  0.00000000000E+00  0.00000000000E+00  0.15743005043E+04  0.15743005043E+04  0.50400001928E-02 0. -1.
       -1   -1    0    0    0  501  0.00000000000E+00  0.00000000000E+00 -0.40530058365E+03  0.40530058368E+03  0.50400001928E-02 0.  1.
    10030    2    1    2    0    0  0.00000000000E+00  0.00000000000E+00  0.11689999206E+04  0.19796010879E+04  0.15975793104E+04 0.  0.
        4    1    3    3  502    0 -0.19188119150E+03 -0.72698974369E+03  0.91867537996E+03  0.11871388064E+04  0.12699999809E+01 0. -1.
       -4    1    3    3    0  502  0.19188119150E+03  0.72698974369E+03  0.25032454065E+03  0.79246228152E+03  0.12699999809E+01 0.  1.
</event>
<event>
 5   0  0.2147844E-05  0.1601646E+04  0.7818609E-02  0.8819537E-01
        2   -1    0    0  501    0  0.00000000000E+00  0.00000000000E+00  0.20209646322E+04  0.20209646322E+04  0.25500000920E-02 0. -1.
       -2   -1    0    0    0  501  0.00000000000E+00  0.00000000000E+00 -0.31733242772E+03  0.31733242773E+03  0.25500000920E-02 0.  1.
    10030    2    1    2    0    0  0.00000000000E+00  0.00000000000E+00  0.17036322045E+04  0.23382970600E+04  0.16016461695E+04 0.  0.
        2    1    3    3  502    0 -0.12360741522E+03 -0.61783130788E+03  0.15734477023E+04  0.16949135641E+04  0.25500000920E-02 0. -1.
       -2    1    3    3    0  502  0.12360741522E+03  0.61783130788E+03  0.13018450226E+03  0.64338349584E+03  0.25500000920E-02 0.  1.
</event>
<event>
 5   0  0.1990948E-05  0.1599908E+04  0.7818609E-02  0.8820604E-01
       -2   -1    0    0    0  501  0.00000000000E+00  0.00000000000E+00  0.59561125190E+03  0.59561125190E+03  0.25500000920E-02 0.  1.
        2   -1    0    0  501    0  0.00000000000E+00  0.00000000000E+00 -0.10744032077E+04  0.10744032077E+04  0.25500000920E-02 0. -1.
    10030    2    1    2    0    0  0.00000000000E+00  0.00000000000E+00 -0.47879195580E+03  0.16700144596E+04  0.15999082969E+04 0.  0.
        4    1    3    3  502    0 -0.16401815490E+03  0.75904975908E+03 -0.43981608976E+03  0.89246753309E+03  0.12699999809E+01 0. -1.
       -4    1    3    3    0  502  0.16401815490E+03 -0.75904975908E+03 -0.38975866037E+02  0.77754692652E+03  0.12699999809E+01 0.  1.
</event>
<event>
 5   0  0.1994525E-05  0.1599975E+04  0.7818609E-02  0.8820564E-01
       -2   -1    0    0    0  501  0.00000000000E+00  0.00000000000E+00  0.46023006957E+03  0.46023006957E+03  0.25500000920E-02 0. -1.
        2   -1    0    0  501    0  0.00000000000E+00  0.00000000000E+00 -0.13905645508E+04  0.13905645508E+04  0.25500000920E-02 0.  1.
    10030    2    1    2    0    0  0.00000000000E+00  0.00000000000E+00 -0.93033448120E+03  0.18507946203E+04  0.15999745247E+04 0.  0.
        5    1    3    3  502    0 -0.23401500516E+02 -0.33466230193E+03 -0.13052455478E+04  0.13476774527E+04  0.46999998093E+01 0.  1.
       -5    1    3    3    0  502  0.23401500516E+02  0.33466230193E+03  0.37491106656E+03  0.50311716765E+03  0.46999998093E+01 0. -1.
</event>
<event>
 5   0  0.7597000E-06  0.1600237E+04  0.7818609E-02  0.8820403E-01
        4   -1    0    0  501    0  0.00000000000E+00  0.00000000000E+00  0.11599552481E+04  0.11599559434E+04  0.12699999809E+01 0.  1.
       -4   -1    0    0    0  501  0.00000000000E+00  0.00000000000E+00 -0.55190701619E+03  0.55190847739E+03  0.12699999809E+01 0. -1.
    10030    2    1    2    0    0  0.00000000000E+00  0.00000000000E+00  0.60804823196E+03  0.17118644208E+04  0.16002365896E+04 0.  0.
        5    1    3    3  502    0 -0.18923683190E+03  0.67153432979E+03 -0.11495790525E+03  0.70711126749E+03  0.46999998093E+01 0. -1.
       -5    1    3    3    0  502  0.18923683190E+03 -0.67153432979E+03  0.72300613721E+03  0.10047531533E+04  0.46999998093E+01 0.  1.
</event>
<event>
 5   0  0.1994525E-05  0.1600974E+04  0.7818609E-02  0.8819950E-01
       -2   -1    0    0    0  501  0.00000000000E+00  0.00000000000E+00  0.66359520125E+03  0.66359520126E+03  0.25500000920E-02 0.  1.
        2   -1    0    0  501    0  0.00000000000E+00  0.00000000000E+00 -0.96561785279E+03  0.96561785280E+03  0.25500000920E-02 0. -1.
    10030    2    1    2    0    0  0.00000000000E+00  0.00000000000E+00 -0.30202265154E+03  0.16292130541E+04  0.16009739203E+04 0.  0.
        5    1    3    3  502    0 -0.23991645019E+02 -0.15544477152E+03 -0.94972393218E+03  0.96267144623E+03  0.46999998093E+01 0. -1.
       -5    1    3    3    0  502  0.23991645019E+02  0.15544477152E+03  0.64770128064E+03  0.66654160783E+03  0.46999998093E+01 0.  1.
</event>
<event>
 5   0  0.1057506E-05  0.1599654E+04  0.7818609E-02  0.8820760E-01
        1   -1    0    0  501    0  0.00000000000E+00  0.00000000000E+00  0.11295813201E+04  0.11295813202E+04  0.50400001928E-02 0. -1.
       -1   -1    0    0    0  501  0.00000000000E+00  0.00000000000E+00 -0.56633678948E+03  0.56633678951E+03  0.50400001928E-02 0.  1.
    10030    2    1    2    0    0  0.00000000000E+00  0.00000000000E+00  0.56324453066E+03  0.16959181097E+04  0.15996542856E+04 0.  0.
        5    1    3    3  502    0 -0.58769657942E+03 -0.23229432331E+03 -0.23813901155E+03  0.67533710169E+03  0.46999998093E+01 0.  1.
       -5    1    3    3    0  502  0.58769657942E+03  0.23229432331E+03  0.80138354221E+03  0.10205810080E+04  0.46999998093E+01 0. -1.
</event>
<event>
 5   0  0.1126485E-05  0.1599981E+04  0.7818609E-02  0.8820559E-01
        1   -1    0    0  501    0  0.00000000000E+00  0.00000000000E+00  0.16046909102E+04  0.16046909102E+04  0.50400001928E-02 0. -1.
       -1   -1    0    0    0  501  0.00000000000E+00  0.00000000000E+00 -0.39882140243E+03  0.39882140246E+03  0.50400001928E-02 0.  1.
    10030    2    1    2    0    0  0.00000000000E+00  0.00000000000E+00  0.12058695077E+04  0.20035123126E+04  0.15999813490E+04 0.  0.
        2    1    3    3  502    0 -0.36963955589E+02 -0.49541902888E+03 -0.18225044440E+03  0.52917064609E+03  0.25500000920E-02 0.  1.
       -2    1    3    3    0  502  0.36963955589E+02  0.49541902888E+03  0.13881199521E+04  0.14743416665E+04  0.25500000920E-02 0. -1.
</event>
<event>
 5   0  0.2046108E-05  0.1600083E+04  0.7818609E-02  0.8820497E-01
       -2   -1    0    0    0  501  0.00000000000E+00  0.00000000000E+00  0.91495926141E+03  0.91495926141E+03  0.25500000920E-02 0.  1.
        2   -1    0    0  501    0  0.00000000000E+00  0.00000000000E+00 -0.69955699265E+03  0.69955699265E+03  0.25500000920E-02 0. -1.
    10030    2    1    2    0    0  0.00000000000E+00  0.00000000000E+00  0.21540226876E+03  0.16145162541E+04  0.16000826845E+04 0.  0.
        1    1    3    3  502    0 -0.41840367961E+03  0.65702942419E+03 -0.76474399034E+02  0.78268616769E+03  0.50400001928E-02 0. -1.
       -1    1    3    3    0  502  0.41840367961E+03 -0.65702942419E+03  0.29187666779E+03  0.83183008637E+03  0.50400001928E-02 0.  1.
</event>
<event>
 5   0  0.1090674E-05  0.1599673E+04  0.7818609E-02  0.8820749E-01
        1   -1    0    0  501    0  0.00000000000E+00  0.00000000000E+00  0.86428688805E+03  0.86428688806E+03  0.50400001928E-02 0. -1.
       -1   -1    0    0    0  501  0.00000000000E+00  0.00000000000E+00 -0.74019184779E+03  0.74019184781E+03  0.50400001928E-02 0.  1.
    10030    2    1    2    0    0  0.00000000000E+00  0.00000000000E+00  0.12409504026E+03  0.16044787359E+04  0.15996726024E+04 0.  0.
        4    1    3    3  502    0  0.76821086419E+03  0.21501287390E+03  0.39249225235E+01  0.79774399761E+03  0.12699999809E+01 0.  1.
       -4    1    3    3    0  502 -0.76821086419E+03 -0.21501287390E+03  0.12017011774E+03  0.80673473826E+03  0.12699999809E+01 0. -1.
</event>
<event>
 5   0  0.2125803E-05  0.1599958E+04  0.7818609E-02  0.8820574E-01
        2   -1    0    0  501    0  0.00000000000E+00  0.00000000000E+00  0.54343060291E+03  0.54343060291E+03  0.25500000920E-02 0. -1.
       -2   -1    0    0    0  501  0.00000000000E+00  0.00000000000E+00 -0.11776420915E+04  0.11776420915E+04  0.25500000920E-02 0.  1.
    10030    2    1    2    0    0  0.00000000000E+00  0.00000000000E+00 -0.63421148855E+03  0.17210726944E+04  0.15999584392E+04 0.  0.
        3    1    3    3  502    0 -0.46455516918E+03  0.58768033648E+03 -0.61904387083E+03  0.97179988028E+03  0.10100000352E+00 0.  1.
       -3    1    3    3    0  502  0.46455516918E+03 -0.58768033648E+03 -0.15167617715E+02  0.74927281409E+03  0.10100000352E+00 0. -1.
</event>
<event>
 5   0  0.1057506E-05  0.1600372E+04  0.7818609E-02  0.8820320E-01
       -1   -1    0    0    0  501  0.00000000000E+00  0.00000000000E+00  0.72624655483E+03  0.72624655485E+03  0.50400001928E-02 0.  1.
        1   -1    0    0  501    0  0.00000000000E+00  0.00000000000E+00 -0.88165316827E+03  0.88165316828E+03  0.50400001928E-02 0. -1.
    10030    2    1    2    0    0  0.00000000000E+00  0.00000000000E+00 -0.15540661344E+03  0.16078997231E+04  0.16003719268E+04 0.  0.
        5    1    3    3  502    0 -0.63864145915E+03 -0.48131700350E+03 -0.50252364442E+02  0.80129667498E+03  0.46999998093E+01 0. -1.
       -5    1    3    3    0  502  0.63864145915E+03  0.48131700350E+03 -0.10515424900E+03  0.80660304815E+03  0.46999998093E+01 0.  1.
</event>
<event>
 5   0  0.1081831E-05  0.1600077E+04  0.7818609E-02  0.8820501E-01
       -1   -1    0    0    0  501  0.00000000000E+00  0.00000000000E+00  0.72597658460E+03  0.72597658462E+03  0.50400001928E-02 0.  1.
        1   -1    0    0  501    0  0.00000000000E+00  0.00000000000E+00 -0.88165569139E+03  0.88165569140E+03  0.50400001928E-02 0. -1.
    10030    2    1    2    0    0  0.00000000000E+00  0.00000000000E+00 -0.15567910679E+03  0.16076322760E+04  0.16000767327E+04 0.  0.
        3    1    3    3  502    0  0.60699244500E+03  0.14715905057E+03  0.42448704082E+03  0.75517208136E+03  0.10100000352E+00 0.  1.
       -3    1    3    3    0  502 -0.60699244500E+03 -0.14715905057E+03 -0.58016614761E+03  0.85246019466E+03  0.10100000352E+00 0. -1.
</event>
<event>
 5   0  0.7597000E-06  0.1598680E+04  0.7818609E-02  0.8821359E-01
       -3   -1    0    0    0  501  0.00000000000E+00  0.00000000000E+00  0.71503254523E+03  0.71503255236E+03  0.10100000352E+00 0. -1.
        3   -1    0    0  501    0  0.00000000000E+00  0.00000000000E+00 -0.89358796320E+03  0.89358796890E+03  0.10100000352E+00 0.  1.
    10030    2    1    2    0    0  0.00000000000E+00  0.00000000000E+00 -0.17855541797E+03  0.16086205213E+04  0.15986800631E+04 0.  0.
        4    1    3    3  502    0 -0.73971919903E+03 -0.65912437233E+02  0.20821913959E+03  0.77128838043E+03  0.12699999809E+01 0. -1.
       -4    1    3    3    0  502  0.73971919903E+03  0.65912437233E+02 -0.38677455756E+03  0.83733214083E+03  0.12699999809E+01 0.  1.
</event>
<event>
 5   0  0.2147844E-05  0.1600799E+04  0.7818609E-02  0.8820058E-01
        2   -1    0    0  501    0  0.00000000000E+00  0.00000000000E+00  0.13608847717E+04  0.13608847717E+04  0.25500000920E-02 0. -1.
       -2   -1    0    0    0  501  0.00000000000E+00  0.00000000000E+00 -0.47075183579E+03  0.47075183580E+03  0.25500000920E-02 0.  1.
    10030    2    1    2    0    0  0.00000000000E+00  0.00000000000E+00  0.89013293594E+03  0.18316366075E+04  0.16007985565E+04 0.  0.
        2    1    3    3  502    0  0.60909221950E+03 -0.50188949526E+03  0.59751867074E+03  0.98990654064E+03  0.25500000920E-02 0.  1.
       -2    1    3    3    0  502 -0.60909221950E+03  0.50188949526E+03  0.29261426520E+03  0.84173006689E+03  0.25500000920E-02 0. -1.
</event>
<event>
 5   0  0.1994525E-05  0.1600248E+04  0.7818609E-02  0.8820396E-01
        2   -1    0    0  501    0  0.00000000000E+00  0.00000000000E+00  0.13649067124E+04  0.13649067124E+04  0.25500000920E-02 0.  1.
       -2   -1    0    0    0  501  0.00000000000E+00  0.00000000000E+00 -0.46904175681E+03  0.46904175682E+03  0.25500000920E-02 0. -1.
    10030    2    1    2    0    0  0.00000000000E+00  0.00000000000E+00  0.89586495556E+03  0.18339484692E+04  0.16002477836E+04 0.  0.
        5    1    3    3  502    0 -0.64345124098E+03  0.11338691703E+03  0.97721213493E+03  0.11755219007E+04  0.46999998093E+01 0.  1.
       -5    1    3    3    0  502  0.64345124098E+03 -0.11338691703E+03 -0.81347179362E+02  0.65842656846E+03  0.46999998093E+01 0. -1.
</event>
<event>
 5   0  0.1090674E-05  0.1599946E+04  0.7818609E-02  0.8820581E-01
       -1   -1    0    0    0  501  0.00000000000E+00  0.00000000000E+00  0.47599548017E+03  0.47599548020E+03  0.50400001928E-02 0.  1.
        1   -1    0    0  501    0  0.00000000000E+00  0.00000000000E+00 -0.13444605612E+04  0.13444605612E+04  0.50400001928E-02 0. -1.
    10030    2    1    2    0    0  0.00000000000E+00  0.00000000000E+00 -0.86846508104E+03  0.18204560414E+04  0.15999464371E+04 0.  0.
        4    1    3    3  502    0 -0.53542047092E+03 -0.25276901180E+03 -0.10463224566E+04  0.12022310719E+04  0.12699999809E+01 0. -1.
       -4    1    3    3    0  502  0.53542047092E+03  0.25276901180E+03  0.17785737561E+03  0.61822496954E+03  0.12699999809E+01 0.  1.
</event>
<event>
 5   0  0.1990948E-05  0.1600562E+04  0.7818609E-02  0.8820203E-01
       -2   -1    0    0    0  501  0.00000000000E+00  0.00000000000E+00  0.69624276382E+03  0.69624276382E+03  0.25500000920E-02 0.  1.
        2   -1    0    0  501    0  0.00000000000E+00  0.00000000000E+00 -0.91986515301E+03  0.91986515301E+03  0.25500000920E-02 0. -1.
    10030    2    1    2    0    0  0.00000000000E+00  0.00000000000E+00 -0.22362238919E+03  0.16161079168E+04  0.16005617220E+04 0.  0.
        4    1    3    3  502    0  0.32081790244E+03 -0.12892922213E+03 -0.84055607304E+03  0.90889108020E+03  0.12699999809E+01 0. -1.
       -4    1    3    3    0  502 -0.32081790244E+03  0.12892922213E+03  0.61693368385E+03  0.70721683663E+03  0.12699999809E+01 0.  1.
</event>
<event>
 5   0  0.1057506E-05  0.1600173E+04  0.7818609E-02  0.8820441E-01
        1   -1    0    0  501    0  0.00000000000E+00  0.00000000000E+00  0.67608526556E+03  0.67608526558E+03  0.50400001928E-02 0.  1.
       -1   -1    0    0    0  501  0.00000000000E+00  0.00000000000E+00 -0.94683135679E+03  0.94683135680E+03  0.50400001928E-02 0. -1.
    10030    2    1    2    0    0  0.00000000000E+00  0.00000000000E+00 -0.27074609123E+03  0.16229166224E+04  0.16001734023E+04 0.  0.
        5    1    3    3  502    0 -0.65935933698E+03  0.90252984082E+02  0.31502922124E+03  0.73631911331E+03  0.46999998093E+01 0.  1.
       -5    1    3    3    0  502  0.65935933698E+03 -0.90252984082E+02 -0.58577531247E+03  0.88659750907E+03  0.46999998093E+01 0. -1.
</event>
<event>
 5   0  0.2147844E-05  0.1600737E+04  0.7818609E-02  0.8820095E-01
       -2   -1    0    0    0  501  0.00000000000E+00  0.00000000000E+00  0.53099094968E+03  0.53099094969E+03  0.25500000920E-02 0.  1.
        2   -1    0    0  501    0  0.00000000000E+00  0.00000000000E+00 -0.12064046760E+04  0.12064046760E+04  0.25500000920E-02 0. -1.
    10030    2    1    2    0    0  0.00000000000E+00  0.00000000000E+00 -0.67541372633E+03  0.17373956257E+04  0.16007372859E+04 0.  0.
        2    1    3    3  502    0 -0.13177813461E+03  0.51828846263E+02  0.51728689455E+03  0.53631841041E+03  0.25500000920E-02 0.  1.
       -2    1    3    3    0  502  0.13177813461E+03 -0.51828846263E+02 -0.11927006209E+04  0.12010772153E+04  0.25500000920E-02 0. -1.
</event>
<event>
 5   0  0.2125803E-05  0.1599899E+04  0.7818609E-02  0.8820610E-01
        2   -1    0    0  501    0  0.00000000000E+00  0.00000000000E+00  0.90156647648E+03  0.90156647649E+03  0.25500000920E-02 0.  1.
       -2   -1    0    0    0  501  0.00000000000E+00  0.00000000000E+00 -0.70978573916E+03  0.70978573916E+03  0.25500000920E-02 0. -1.
    10030    2    1    2    0    0  0.00000000000E+00  0.00000000000E+00  0.19178073732E+03  0.16113522157E+04  0.15998987817E+04 0.  0.
        3    1    3    3  502    0 -0.56788417327E+03  0.12698426893E+03 -0.45694863632E+03  0.73987803403E+03  0.10100000352E+00 0. -1.
       -3    1    3    3    0  502  0.56788417327E+03 -0.12698426893E+03  0.64872937365E+03  0.87147418162E+03  0.10100000352E+00 0.  1.
</event>
<event>
 5   0  0.1126485E-05  0.1600517E+04  0.7818609E-02  0.8820230E-01
       -1   -1    0    0    0  501  0.00000000000E+00  0.00000000000E+00  0.51782526657E+03  0.51782526660E+03  0.50400001928E-02 0.  1.
        1   -1    0    0  501    0  0.00000000000E+00  0.00000000000E+00 -0.12367373215E+04  0.12367373216E+04  0.50400001928E-02 0. -1.
    10030    2    1    2    0    0  0.00000000000E+00  0.00000000000E+00 -0.71891205497E+03  0.17545625882E+04  0.16005172080E+04 0.  0.
        2    1    3    3  502    0 -0.77365243813E+03  0.12915658481E+03 -0.18545180276E+03  0.80598504303E+03  0.25500000920E-02 0. -1.
       -2    1    3    3    0  502  0.77365243813E+03 -0.12915658481E+03 -0.53346025221E+03  0.94857754513E+03  0.25500000920E-02 0.  1.
</event>
<event>
 5   0  0.1057506E-05  0.1600056E+04  0.7818609E-02  0.8820514E-01
       -1   -1    0    0    0  501  0.00000000000E+00  0.00000000000E+00  0.39426616868E+03  0.39426616872E+03  0.50400001928E-02 0.  1.
        1   -1    0    0  501    0  0.00000000000E+00  0.00000000000E+00 -0.16233815368E+04  0.16233815369E+04  0.50400001928E-02 0. -1.
    10030    2    1    2    0    0  0.00000000000E+00  0.00000000000E+00 -0.12291153682E+04  0.20176477056E+04  0.16000555226E+04 0.  0.
        5    1    3    3  502    0 -0.61874837702E+03  0.10059951399E+03 -0.12413229523E+04  0.13906381910E+04  0.46999998093E+01 0.  1.
       -5    1    3    3    0  502  0.61874837702E+03 -0.10059951399E+03  0.12207584146E+02  0.62700951459E+03  0.46999998093E+01 0. -1.
</event>
<event>
 5   0  0.2125803E-05  0.1600934E+04  0.7818609E-02  0.8819975E-01
       -2   -1    0    0    0  501  0.00000000000E+00  0.00000000000E+00  0.26306278032E+03  0.26306278033E+03  0.25500000920E-02 0.  1.
        2   -1    0    0  501    0  0.00000000000E+00  0.00000000000E+00 -0.24357198479E+04  0.24357198479E+04  0.25500000920E-02 0. -1.
    10030    2    1    2    0    0  0.00000000000E+00  0.00000000000E+00 -0.21726570675E+04  0.26987826282E+04  0.16009337716E+04 0.  0.
        3    1    3    3  502    0 -0.35911100259E+03  0.11110081845E+03 -0.22776735648E+04  0.23084845640E+04  0.10100000352E+00 0. -1.
       -3    1    3    3    0  502  0.35911100259E+03 -0.11110081845E+03  0.10501649727E+03  0.39029806423E+03  0.10100000352E+00 0.  1.
</event>
<event>
 5   0  0.2125803E-05  0.1607926E+04  0.7818609E-02  0.8815694E-01
        2   -1    0    0  501    0  0.00000000000E+00  0.00000000000E+00  0.19340618390E+04  0.19340618390E+04  0.25500000920E-02 0. -1.
       -2   -1    0    0    0  501  0.00000000000E+00  0.00000000000E+00 -0.33419636255E+03  0.33419636256E+03  0.25500000920E-02 0.  1.
    10030    2    1    2    0    0  0.00000000000E+00  0.00000000000E+00  0.15998654765E+04  0.22682582016E+04  0.16079259082E+04 0.  0.
        3    1    3    3  502    0 -0.72072234274E+03 -0.17740848436E+03  0.12357416651E+04  0.14415172350E+04  0.10100000352E+00 0. -1.
       -3    1    3    3    0  502  0.72072234274E+03  0.17740848436E+03  0.36412381138E+03  0.82674096661E+03  0.10100000352E+00 0.  1.
</event>
<event>
 5   0  0.2147844E-05  0.1601460E+04  0.7818609E-02  0.8819652E-01
        2   -1    0    0  501    0  0.00000000000E+00  0.00000000000E+00  0.15243162188E+04  0.15243162188E+04  0.25500000920E-02 0.  1.
       -2   -1    0    0    0  501  0.00000000000E+00  0.00000000000E+00 -0.42062700603E+03  0.42062700604E+03  0.25500000920E-02 0. -1.
    10030    2    1    2    0    0  0.00000000000E+00  0.00000000000E+00  0.11036892127E+04  0.19449432248E+04  0.16014600430E+04 0.  0.
        2    1    3    3  502    0 -0.28630931825E+03 -0.74772170886E+03  0.56445345628E+03  0.97962670642E+03  0.25500000920E-02 0. -1.
       -2    1    3    3    0  502  0.28630931825E+03  0.74772170886E+03  0.53923575645E+03  0.96531651838E+03  0.25500000920E-02 0.  1.
</event>
<event>
 5   0  0.1060251E-05  0.1600161E+04  0.7818609E-02  0.8820449E-01
        1   -1    0    0  501    0  0.00000000000E+00  0.00000000000E+00  0.21269998010E+04  0.21269998010E+04  0.50400001928E-02 0.  1.
       -1   -1    0    0    0  501  0.00000000000E+00  0.00000000000E+00 -0.30095372897E+03  0.30095372901E+03  0.50400001928E-02 0. -1.
    10030    2    1    2    0    0  0.00000000000E+00  0.00000000000E+00  0.18260460720E+04  0.24279535300E+04  0.16001606440E+04 0.  0.
        1    1    3    3  502    0  0.50525539663E+03 -0.42459539264E+03  0.22675833105E+03  0.69784210535E+03  0.50400001928E-02 0. -1.
       -1    1    3    3    0  502 -0.50525539663E+03  0.42459539264E+03  0.15992877410E+04  0.17301114246E+04  0.50400001928E-02 0.  1.
</event>
<event>
 5   0  0.1990948E-05  0.1599935E+04  0.7818609E-02  0.8820588E-01
        2   -1    0    0  501    0  0.00000000000E+00  0.00000000000E+00  0.38532442499E+03  0.38532442500E+03  0.25500000920E-02 0. -1.
       -2   -1    0    0    0  501  0.00000000000E+00  0.00000000000E+00 -0.16608035622E+04  0.16608035622E+04  0.25500000920E-02 0.  1.
    10030    2    1    2    0    0  0.00000000000E+00  0.00000000000E+00 -0.12754791372E+04  0.20461279872E+04  0.15999352208E+04 0.  0.
        4    1    3    3  502    0  0.10360171733E+03  0.21754185989E+03 -0.16132914962E+04  0.16311863294E+04  0.12699999809E+01 0.  1.
       -4    1    3    3    0  502 -0.10360171733E+03 -0.21754185989E+03  0.33781235896E+03  0.41494165783E+03  0.12699999809E+01 0. -1.
</event>
<event>
 5   0  0.2125803E-05  0.1602088E+04  0.7818609E-02  0.8819267E-01
       -2   -1    0    0    0  501  0.00000000000E+00  0.00000000000E+00  0.42877419755E+03  0.42877419756E+03  0.25500000920E-02 0.  1.
        2   -1    0    0  501    0  0.00000000000E+00  0.00000000000E+00 -0.14965244989E+04  0.14965244989E+04  0.25500000920E-02 0. -1.
    10030    2    1    2    0    0  0.00000000000E+00  0.00000000000E+00 -0.10677503013E+04  0.19252986964E+04  0.16020875021E+04 0.  0.
        3    1    3    3  502    0 -0.63169496505E+02 -0.38178064197E+03  0.30899562221E+03  0.49520212905E+03  0.10100000352E+00 0.  1.
       -3    1    3    3    0  502  0.63169496505E+02  0.38178064197E+03 -0.13767459235E+04  0.14300965674E+04  0.10100000352E+00 0. -1.
</event>
<event>
 5   0  0.1126485E-05  0.1601128E+04  0.7818609E-02  0.8819855E-01
       -1   -1    0    0    0  501  0.00000000000E+00  0.00000000000E+00  0.31289523283E+03  0.31289523287E+03  0.50400001928E-02 0.  1.
        1   -1    0    0  501    0  0.00000000000E+00  0.00000000000E+00 -0.20482979013E+04  0.20482979013E+04  0.50400001928E-02 0. -1.
    10030    2    1    2    0    0  0.00000000000E+00  0.00000000000E+00 -0.17354026685E+04  0.23611931342E+04  0.16011279134E+04 0.  0.
        2    1    3    3  502    0 -0.47846220023E+03 -0.14362370619E+03 -0.17902461817E+04  0.18586380059E+04  0.25500000920E-02 0. -1.
       -2    1    3    3    0  502  0.47846220023E+03  0.14362370619E+03  0.54843513177E+02  0.50255512829E+03  0.25500000920E-02 0.  1.
</event>
<event>
 5   0  0.1060251E-05  0.1600092E+04  0.7818609E-02  0.8820491E-01
       -1   -1    0    0    0  501  0.00000000000E+00  0.00000000000E+00  0.42120902908E+03  0.42120902911E+03  0.50400001928E-02 0.  1.
        1   -1    0    0  501    0  0.00000000000E+00  0.00000000000E+00 -0.15196106529E+04  0.15196106529E+04  0.50400001928E-02 0. -1.
    10030    2    1    2    0    0  0.00000000000E+00  0.00000000000E+00 -0.10984016238E+04  0.19408196820E+04  0.16000921570E+04 0.  0.
        1    1    3    3  502    0 -0.18202936636E+03  0.54012107874E+03 -0.12301880678E+04  0.13558127275E+04  0.50400001928E-02 0. -1.
       -1    1    3    3    0  502  0.18202936636E+03 -0.54012107874E+03  0.13178644403E+03  0.58500695446E+03  0.50400001928E-02 0.  1.
</event>
<event>
 5   0  0.2046108E-05  0.1599115E+04  0.7818609E-02  0.8821092E-01
       -2   -1    0    0    0  501  0.00000000000E+00  0.00000000000E+00  0.51871641027E+03  0.51871641027E+03  0.25500000920E-02 0.  1.
        2   -1    0    0  501    0  0.00000000000E+00  0.00000000000E+00 -0.12324498548E+04  0.12324498548E+04  0.25500000920E-02 0. -1.
    10030    2    1    2    0    0  0.00000000000E+00  0.00000000000E+00 -0.71373344457E+03  0.17511662651E+04  0.15991147108E+04 0.  0.
        1    1    3    3  502    0  0.36966009994E+03  0.44012256648E+03  0.25180296392E+03  0.62750394077E+03  0.50400001928E-02 0.  1.
       -1    1    3    3    0  502 -0.36966009994E+03 -0.44012256648E+03 -0.96553640849E+03  0.11236623243E+04  0.50400001928E-02 0. -1.
</event>
<event>
 5   0  0.1057506E-05  0.1600034E+04  0.7818609E-02  0.8820527E-01
        1   -1    0    0  501    0  0.00000000000E+00  0.00000000000E+00  0.18217984886E+04  0.18217984886E+04  0.50400001928E-02 0.  1.
       -1   -1    0    0    0  501  0.00000000000E+00  0.00000000000E+00 -0.35131620993E+03  0.35131620997E+03  0.50400001928E-02 0. -1.
    10030    2    1    2    0    0  0.00000000000E+00  0.00000000000E+00  0.14704822786E+04  0.21731146985E+04  0.16000341750E+04 0.  0.
        5    1    3    3  502    0 -0.30671062123E+03 -0.13745842229E+03  0.17212362887E+04  0.17537510299E+04  0.46999998093E+01 0.  1.
       -5    1    3    3    0  502  0.30671062123E+03  0.13745842229E+03 -0.25075401011E+03  0.41936366869E+03  0.46999998093E+01 0. -1.
</event>
<event>
 5   0  0.1060251E-05  0.1599484E+04  0.7818609E-02  0.8820865E-01
        1   -1    0    0  501    0  0.00000000000E+00  0.00000000000E+00  0.11960331623E+04  0.11960331623E+04  0.50400001928E-02 0.  1.
       -1   -1    0    0    0  501  0.00000000000E+00  0.00000000000E+00 -0.53475698768E+03  0.53475698770E+03  0.50400001928E-02 0. -1.
    10030    2    1    2    0    0  0.00000000000E+00  0.00000000000E+00  0.66127617463E+03  0.17307901500E+04  0.15994837806E+04 0.  0.
        1    1    3    3  502    0  0.11513740404E+03  0.52351947404E+03 -0.31159829115E+03  0.62001835181E+03  0.50400001928E-02 0. -1.
       -1    1    3    3    0  502 -0.11513740404E+03 -0.52351947404E+03  0.97287446579E+03  0.11107717982E+04  0.50400001928E-02 0.  1.
</event>
<event>
 5   0  0.2125803E-05  0.1599862E+04  0.7818609E-02  0.8820633E-01
        2   -1    0    0  501    0  0.00000000000E+00  0.00000000000E+00  0.22159159889E+04  0.22159159889E+04  0.25500000920E-02 0. -1.
       -2   -1    0    0    0  501  0.00000000000E+00  0.00000000000E+00 -0.28876975130E+03  0.28876975132E+03  0.25500000920E-02 0.  1.
    10030    2    1    2    0    0  0.00000000000E+00  0.00000000000E+00  0.19271462376E+04  0.25046857402E+04  0.15998618803E+04 0.  0.
        3    1    3    3  502    0  0.58806461339E+03  0.40270492219E+02  0.11694063123E+03  0.60092996555E+03  0.10100000352E+00 0.  1.
       -3    1    3    3    0  502 -0.58806461339E+03 -0.40270492219E+02  0.18102056063E+04  0.19037557747E+04  0.10100000352E+00 0. -1.
</event>
<event>
 5   0  0.1060251E-05  0.1597082E+04  0.7818609E-02  0.8822343E-01
        1   -1    0    0  501    0  0.00000000000E+00  0.00000000000E+00  0.15869771582E+04  0.15869771582E+04  0.50400001928E-02 0. -1.
       -1   -1    0    0    0  501  0.00000000000E+00  0.00000000000E+00 -0.40181271378E+03  0.40181271381E+03  0.50400001928E-02 0.  1.
    10030    2    1    2    0    0  0.00000000000E+00  0.00000000000E+00  0.11851644445E+04  0.19887898721E+04  0.15970818372E+04 0.  0.
        1    1    3    3  502    0  0.13661546867E+03 -0.32929254091E+03 -0.29721178276E+03  0.46414675224E+03  0.50400001928E-02 0.  1.
       -1    1    3    3    0  502 -0.13661546867E+03  0.32929254091E+03  0.14823762272E+04  0.15246431198E+04  0.50400001928E-02 0. -1.
</event>
<event>
 5   0  0.1060251E-05  0.1600383E+04  0.7818609E-02  0.8820313E-01
       -1   -1    0    0    0  501  0.00000000000E+00  0.00000000000E+00  0.27166999961E+03  0.27166999966E+03  0.50400001928E-02 0.  1.
        1   -1    0    0  501    0  0.00000000000E+00  0.00000000000E+00 -0.23569272218E+04  0.23569272218E+04  0.50400001928E-02 0. -1.
    10030    2    1    2    0    0  0.00000000000E+00  0.00000000000E+00 -0.20852572221E+04  0.26285972214E+04  0.16003829760E+04 0.  0.
        1    1    3    3  502    0  0.30594072734E+02 -0.73366752438E+03 -0.52037576018E+03  0.89999720301E+03  0.50400001928E-02 0.  1.
       -1    1    3    3    0  502 -0.30594072734E+02  0.73366752438E+03 -0.15648814620E+04  0.17286000184E+04  0.50400001928E-02 0. -1.
</event>
<event>
 5   0  0.1126485E-05  0.1597807E+04  0.7818609E-02  0.8821896E-01
       -1   -1    0    0    0  501  0.00000000000E+00  0.00000000000E+00  0.69707631490E+03  0.69707631492E+03  0.50400001928E-02 0.  1.
        1   -1    0    0  501    0  0.00000000000E+00  0.00000000000E+00 -0.91560551097E+03  0.91560551098E+03  0.50400001928E-02 0. -1.
    10030    2    1    2    0    0  0.00000000000E+00  0.00000000000E+00 -0.21852919606E+03  0.16126818259E+04  0.15978071417E+04 0.  0.
        2    1    3    3  502    0  0.56693638461E+03 -0.30236025019E+03  0.36992713256E+03  0.74140722178E+03  0.25500000920E-02 0.  1.
       -2    1    3    3    0  502 -0.56693638461E+03  0.30236025019E+03 -0.58845632862E+03  0.87127460412E+03  0.25500000920E-02 0. -1.
</event>
<event>
 5   0  0.2046108E-05  0.1594165E+04  0.7818609E-02  0.8824141E-01
        2   -1    0    0  501    0  0.00000000000E+00  0.00000000000E+00  0.12435105584E+04  0.12435105584E+04  0.25500000920E-02 0.  1.
       -2   -1    0    0    0  501  0.00000000000E+00  0.00000000000E+00 -0.51092466799E+03  0.51092466799E+03  0.25500000920E-02 0. -1.
    10030    2    1    2    0    0  0.00000000000E+00  0.00000000000E+00  0.73258589043E+03  0.17544352264E+04  0.15941646329E+04 0.  0.
        1    1    3    3  502    0 -0.84955637121E+02 -0.10415370523E+03 -0.49836319534E+03  0.51616986456E+03  0.50400001928E-02 0. -1.
       -1    1    3    3    0  502  0.84955637121E+02  0.10415370523E+03  0.12309490858E+04  0.12382653619E+04  0.50400001928E-02 0.  1.
</event>
<event>
 5   0  0.7597000E-06  0.1599697E+04  0.7818609E-02  0.8820734E-01
        3   -1    0    0  501    0  0.00000000000E+00  0.00000000000E+00  0.16727257220E+04  0.16727257250E+04  0.10100000352E+00 0. -1.
       -3   -1    0    0    0  501  0.00000000000E+00  0.00000000000E+00 -0.38246399122E+03  0.38246400456E+03  0.10100000352E+00 0.  1.
    10030    2    1    2    0    0  0.00000000000E+00  0.00000000000E+00  0.12902617307E+04  0.20551897296E+04  0.15996966871E+04 0.  0.
        4    1    3    3  502    0  0.50138782638E+03 -0.39048212440E+03  0.12691081517E+04  0.14193319399E+04  0.12699999809E+01 0. -1.
       -4    1    3    3    0  502 -0.50138782638E+03  0.39048212440E+03  0.21153579048E+02  0.63585778970E+03  0.12699999809E+01 0.  1.
</event>
<event>
 5   0  0.2125803E-05  0.1599872E+04  0.7818609E-02  0.8820626E-01
       -2   -1    0    0    0  501  0.00000000000E+00  0.00000000000E+00  0.38412896267E+03  0.38412896267E+03  0.25500000920E-02 0.  1.
        2   -1    0    0  501    0  0.00000000000E+00  0.00000000000E+00 -0.16658415936E+04  0.16658415936E+04  0.25500000920E-02 0. -1.
    10030    2    1    2    0    0  0.00000000000E+00  0.00000000000E+00 -0.12817126309E+04  0.20499705563E+04  0.15998724991E+04 0.  0.
        3    1    3    3  502    0  0.16297352532E+02 -0.78695768488E+03 -0.82355307741E+03  0.11392136248E+04  0.10100000352E+00 0. -1.
       -3    1    3    3    0  502 -0.16297352532E+02  0.78695768488E+03 -0.45815955354E+03  0.91075693145E+03  0.10100000352E+00 0.  1.
</event>
<event>
 5   0  0.2147844E-05  0.1598752E+04  0.7818609E-02  0.8821315E-01
        2   -1    0    0  501    0  0.00000000000E+00  0.00000000000E+00  0.11220938268E+04  0.11220938268E+04  0.25500000920E-02 0. -1.
       -2   -1    0    0    0  501  0.00000000000E+00  0.00000000000E+00 -0.56947276880E+03  0.56947276880E+03  0.25500000920E-02 0.  1.
    10030    2    1    2    0    0  0.00000000000E+00  0.00000000000E+00  0.55262105800E+03  0.16915665956E+04  0.15987518612E+04 0.  0.
        2    1    3    3  502    0  0.77541471625E+03 -0.14214405796E+03  0.13622729821E+03  0.80001924488E+03  0.25500000920E-02 0.  1.
       -2    1    3    3    0  502 -0.77541471625E+03  0.14214405796E+03  0.41639375979E+03  0.89154735073E+03  0.25500000920E-02 0. -1.
</event>
<event>
 5   0  0.2046108E-05  0.1600063E+04  0.7818609E-02  0.8820510E-01
        2   -1    0    0  501    0  0.00000000000E+00  0.00000000000E+00  0.88680744914E+03  0.88680744914E+03  0.25500000920E-02 0.  1.
       -2   -1    0    0    0  501  0.00000000000E+00  0.00000000000E+00 -0.72174640198E+03  0.72174640198E+03  0.25500000920E-02 0. -1.
    10030    2    1    2    0    0  0.00000000000E+00  0.00000000000E+00  0.16506104716E+03  0.16085538511E+04  0.16000626059E+04 0.  0.
        1    1    3    3  502    0 -0.25729203811E+02 -0.66252265934E+03  0.53262494532E+03  0.85046316702E+03  0.50400001928E-02 0.  1.
       -1    1    3    3    0  502  0.25729203811E+02  0.66252265934E+03 -0.36756389816E+03  0.75809068410E+03  0.50400001928E-02 0. -1.
</event>
<event>
 5   0  0.2125803E-05  0.1598882E+04  0.7818609E-02  0.8821235E-01
       -2   -1    0    0    0  501  0.00000000000E+00  0.00000000000E+00  0.11784305944E+04  0.11784305944E+04  0.25500000920E-02 0.  1.
        2   -1    0    0  501    0  0.00000000000E+00  0.00000000000E+00 -0.54233615899E+03  0.54233615900E+03  0.25500000920E-02 0. -1.
    10030    2    1    2    0    0  0.00000000000E+00  0.00000000000E+00  0.63609443537E+03  0.17207667534E+04  0.15988815118E+04 0.  0.
        3    1    3    3  502    0  0.38658367735E+03  0.26247348482E+03 -0.38006649787E+03  0.60232036561E+03  0.10100000352E+00 0. -1.
       -3    1    3    3    0  502 -0.38658367735E+03 -0.26247348482E+03  0.10161609332E+04  0.11184463878E+04  0.10100000352E+00 0.  1.
</event>
<event>
 5   0  0.1060251E-05  0.1600866E+04  0.7818609E-02  0.8820016E-01
       -1   -1    0    0    0  501  0.00000000000E+00  0.00000000000E+00  0.54460091883E+03  0.54460091885E+03  0.50400001928E-02 0. -1.
        1   -1    0    0  501    0  0.00000000000E+00  0.00000000000E+00 -0.11764449083E+04  0.11764449084E+04  0.50400001928E-02 0.  1.
    10030    2    1    2    0    0  0.00000000000E+00  0.00000000000E+00 -0.63184398951E+03  0.17210458272E+04  0.16008659882E+04 0.  0.
        1    1    3    3  502    0 -0.69605400760E+03  0.26912093519E+03 -0.62709114816E+03  0.97476180033E+03  0.50400001928E-02 0.  1.
       -1    1    3    3    0  502  0.69605400760E+03 -0.26912093519E+03 -0.47528413504E+01  0.74628402688E+03  0.50400001928E-02 0. -1.
</event>
<event>
 5   0  0.7597000E-06  0.1588393E+04  0.7818609E-02  0.8827710E-01
       -3   -1    0    0    0  501  0.00000000000E+00  0.00000000000E+00  0.11854365213E+04  0.11854365256E+04  0.10100000352E+00 0.  1.
        3   -1    0    0  501    0  0.00000000000E+00  0.00000000000E+00 -0.53208100780E+03  0.53208101739E+03  0.10100000352E+00 0. -1.
    10030    2    1    2    0    0  0.00000000000E+00  0.00000000000E+00  0.65335551348E+03  0.17175175430E+04  0.15883932395E+04 0.  0.
        2    1    3    3  502    0  0.68858270746E+03 -0.38500935163E+03  0.42560227284E+03  0.89639033937E+03  0.25500000920E-02 0.  1.
       -2    1    3    3    0  502 -0.68858270746E+03  0.38500935163E+03  0.22775324064E+03  0.82112720360E+03  0.25500000920E-02 0. -1.
</event>
<event>
 5   0  0.7597000E-06  0.1599812E+04  0.7818609E-02  0.8820664E-01
        3   -1    0    0  501    0  0.00000000000E+00  0.00000000000E+00  0.39044276857E+03  0.39044278163E+03  0.10100000352E+00 0.  1.
       -3   -1    0    0    0  501  0.00000000000E+00  0.00000000000E+00 -0.16387794035E+04  0.16387794066E+04  0.10100000352E+00 0. -1.
    10030    2    1    2    0    0  0.00000000000E+00  0.00000000000E+00 -0.12483366349E+04  0.20292221882E+04  0.15998119687E+04 0.  0.
        3    1    3    3  502    0 -0.59037685580E+00 -0.79986103434E+03 -0.61343910588E+03  0.10080106992E+04  0.10100000352E+00 0. -1.
       -3    1    3    3    0  502  0.59037685580E+00  0.79986103434E+03 -0.63489752901E+03  0.10212114890E+04  0.10100000352E+00 0.  1.
</event>
<event>
 5   0  0.1990948E-05  0.1600606E+04  0.7818609E-02  0.8820176E-01
       -2   -1    0    0    0  501  0.00000000000E+00  0.00000000000E+00  0.85983803540E+03  0.85983803540E+03  0.25500000920E-02 0. -1.
        2   -1    0    0  501    0  0.00000000000E+00  0.00000000000E+00 -0.74488990644E+03  0.74488990644E+03  0.25500000920E-02 0.  1.
    10030    2    1    2    0    0  0.00000000000E+00  0.00000000000E+00  0.11494812896E+03  0.16047279418E+04  0.16006057275E+04 0.  0.
        4    1    3    3  502    0 -0.31980951965E+03 -0.65793717139E+03 -0.26789774103E+03  0.77905729115E+03  0.12699999809E+01 0.  1.
       -4    1    3    3    0  502  0.31980951965E+03  0.65793717139E+03  0.38284586999E+03  0.82567065070E+03  0.12699999809E+01 0. -1.
</event>
<event>
 5   0  0.2147844E-05  0.1599703E+04  0.7818609E-02  0.8820731E-01
       -2   -1    0    0    0  501  0.00000000000E+00  0.00000000000E+00  0.34188461866E+03  0.34188461867E+03  0.25500000920E-02 0. -1.
        2   -1    0    0  501    0  0.00000000000E+00  0.00000000000E+00 -0.18712812969E+04  0.18712812969E+04  0.25500000920E-02 0.  1.
    10030    2    1    2    0    0  0.00000000000E+00  0.00000000000E+00 -0.15293966783E+04  0.22131659156E+04  0.15997028382E+04 0.  0.
        2    1    3    3  502    0  0.76919827595E+03  0.14323182663E+03 -0.99446089746E+03  0.12653591666E+04  0.25500000920E-02 0.  1.
       -2    1    3    3    0  502 -0.76919827595E+03 -0.14323182663E+03 -0.53493578081E+03  0.94780674902E+03  0.25500000920E-02 0. -1.
</event>
<event>
 5   0  0.1126485E-05  0.1598155E+04  0.7818609E-02  0.8821682E-01
       -1   -1    0    0    0  501  0.00000000000E+00  0.00000000000E+00  0.46161600977E+03  0.46161600980E+03  0.50400001928E-02 0. -1.
        1   -1    0    0  501    0  0.00000000000E+00  0.00000000000E+00 -0.13832376014E+04  0.13832376014E+04  0.50400001928E-02 0.  1.
    10030    2    1    2    0    0  0.00000000000E+00  0.00000000000E+00 -0.92162159160E+03  0.18448536112E+04  0.15981547136E+04 0.  0.
        2    1    3    3  502    0  0.19974772501E+03 -0.66716190275E+03 -0.91311042093E+03  0.11483792052E+04  0.25500000920E-02 0.  1.
       -2    1    3    3    0  502 -0.19974772501E+03  0.66716190275E+03 -0.85111706664E+01  0.69647440597E+03  0.25500000920E-02 0. -1.
</event>
<event>
 5   0  0.7597000E-06  0.1599966E+04  0.7818609E-02  0.8820569E-01
        4   -1    0    0  501    0  0.00000000000E+00  0.00000000000E+00  0.53767161604E+03  0.53767311593E+03  0.12699999809E+01 0.  1.
       -4   -1    0    0    0  501  0.00000000000E+00  0.00000000000E+00 -0.11902634260E+04  0.11902641036E+04  0.12699999809E+01 0. -1.
    10030    2    1    2    0    0  0.00000000000E+00  0.00000000000E+00 -0.65259180997E+03  0.17279372195E+04  0.15999659259E+04 0.  0.
        5    1    3    3  502    0  0.70688601300E+03 -0.30722155831E+03 -0.94973241047E+02  0.77660474360E+03  0.46999998093E+01 0. -1.
       -5    1    3    3    0  502 -0.70688601300E+03  0.30722155831E+03 -0.55761856893E+03  0.95133247589E+03  0.46999998093E+01 0.  1.
</event>
<event>
 5   0  0.2046108E-05  0.1600630E+04  0.7818609E-02  0.8820161E-01
        2   -1    0    0  501    0  0.00000000000E+00  0.00000000000E+00  0.57417436698E+03  0.57417436699E+03  0.25500000920E-02 0. -1.
       -2   -1    0    0    0  501  0.00000000000E+00  0.00000000000E+00 -0.11155216950E+04  0.11155216950E+04  0.25500000920E-02 0.  1.
    10030    2    1    2    0    0  0.00000000000E+00  0.00000000000E+00 -0.54134732806E+03  0.16896960620E+04  0.16006298299E+04 0.  0.
        1    1    3    3  502    0  0.46271748847E+02  0.72398743381E+03  0.86073397403E+02  0.73055287887E+03  0.50400001928E-02 0. -1.
       -1    1    3    3    0  502 -0.46271748847E+02 -0.72398743381E+03 -0.62742072547E+03  0.95914318317E+03  0.50400001928E-02 0.  1.
</event>
<event>
 5   0  0.1060251E-05  0.1600864E+04  0.7818609E-02  0.8820017E-01
       -1   -1    0    0    0  501  0.00000000000E+00  0.00000000000E+00  0.64325203149E+03  0.64325203151E+03  0.50400001928E-02 0.  1.
        1   -1    0    0  501    0  0.00000000000E+00  0.00000000000E+00 -0.99601957140E+03  0.99601957141E+03  0.50400001928E-02 0. -1.
    10030    2    1    2    0    0  0.00000000000E+00  0.00000000000E+00 -0.35276753991E+03  0.16392716029E+04  0.16008642825E+04 0.  0.
        1    1    3    3  502    0 -0.24817589007E+03  0.61437908688E+03 -0.63619896754E+03  0.91858699160E+03  0.50400001928E-02 0.  1.
       -1    1    3    3    0  502  0.24817589007E+03 -0.61437908688E+03  0.28343142764E+03  0.72068461132E+03  0.50400001928E-02 0. -1.
</event>
<event>
 5   0  0.1057506E-05  0.1599849E+04  0.7818609E-02  0.8820641E-01
        1   -1    0    0  501    0  0.00000000000E+00  0.00000000000E+00  0.18362846861E+04  0.18362846861E+04  0.50400001928E-02 0. -1.
       -1   -1    0    0    0  501  0.00000000000E+00  0.00000000000E+00 -0.34846406881E+03  0.34846406885E+03  0.50400001928E-02 0.  1.
    10030    2    1    2    0    0  0.00000000000E+00  0.00000000000E+00  0.14878206173E+04  0.21847487550E+04  0.15998490345E+04 0.  0.
        5    1    3    3  502    0  0.58353757870E+03 -0.49341134975E+03  0.42107941504E+03  0.87252554666E+03  0.46999998093E+01 0. -1.
       -5    1    3    3    0  502 -0.58353757870E+03  0.49341134975E+03  0.10667412023E+04  0.13122232083E+04  0.46999998093E+01 0.  1.
</event>
<event>
 5   0  0.1060251E-05  0.1600487E+04  0.7818609E-02  0.8820249E-01
       -1   -1    0    0    0  501  0.00000000000E+00  0.00000000000E+00  0.69074684809E+03  0.69074684811E+03  0.50400001928E-02 0. -1.
        1   -1    0    0  501    0  0.00000000000E+00  0.00000000000E+00 -0.92709764015E+03  0.92709764017E+03  0.50400001928E-02 0.  1.
    10030    2    1    2    0    0  0.00000000000E+00  0.00000000000E+00 -0.23635079206E+03  0.16178444883E+04  0.16004871419E+04 0.  0.
        1    1    3    3  502    0  0.35794124615E+03  0.40659265490E+03  0.47723743134E+03  0.72193842439E+03  0.50400001928E-02 0. -1.
       -1    1    3    3    0  502 -0.35794124615E+03 -0.40659265490E+03 -0.71358822340E+03  0.89590606389E+03  0.50400001928E-02 0.  1.
</event>
<event>
 5   0  0.1081831E-05  0.1599596E+04  0.7818609E-02  0.8820796E-01
       -1   -1    0    0    0  501  0.00000000000E+00  0.00000000000E+00  0.65019475794E+03  0.65019475795E+03  0.50400001928E-02 0.  1.
        1   -1    0    0  501    0  0.00000000000E+00  0.00000000000E+00 -0.98382350631E+03  0.98382350632E+03  0.50400001928E-02 0. -1.
    10030    2    1    2    0    0  0.00000000000E+00  0.00000000000E+00 -0.33362874837E+03  0.16340182643E+04  0.15995960572E+04 0.  0.
        3    1    3    3  502    0 -0.37053178629E+03  0.67936660742E+03 -0.37326260442E+03  0.85916108733E+03  0.10100000352E+00 0. -1.
       -3    1    3    3    0  502  0.37053178629E+03 -0.67936660742E+03  0.39633856046E+02  0.77485717695E+03  0.10100000352E+00 0.  1.
</event>
<event>
 5   0  0.2125803E-05  0.1600031E+04  0.7818609E-02  0.8820529E-01
        2   -1    0    0  501    0  0.00000000000E+00  0.00000000000E+00  0.89054820546E+03  0.89054820546E+03  0.25500000920E-02 0. -1.
       -2   -1    0    0    0  501  0.00000000000E+00  0.00000000000E+00 -0.71868623724E+03  0.71868623724E+03  0.25500000920E-02 0.  1.
    10030    2    1    2    0    0  0.00000000000E+00  0.00000000000E+00  0.17186196822E+03  0.16092344427E+04  0.16000309233E+04 0.  0.
        3    1    3    3  502    0 -0.39030862812E+03 -0.43094738891E+03 -0.46674626234E+03  0.74559275802E+03  0.10100000352E+00 0.  1.
       -3    1    3    3    0  502  0.39030862812E+03  0.43094738891E+03  0.63860823056E+03  0.86364168469E+03  0.10100000352E+00 0. -1.
</event>
<event>
 5   0  0.2046108E-05  0.1601526E+04  0.7818609E-02  0.8819611E-01
        2   -1    0    0  501    0  0.00000000000E+00  0.00000000000E+00  0.11523941704E+04  0.11523941704E+04  0.25500000920E-02 0.  1.
       -2   -1    0    0    0  501  0.00000000000E+00  0.00000000000E+00 -0.55642568526E+03  0.55642568526E+03  0.25500000920E-02 0. -1.
    10030    2    1    2    0    0  0.00000000000E+00  0.00000000000E+00  0.59596848515E+03  0.17088198557E+04  0.16015264168E+04 0.  0.
        1    1    3    3  502    0  0.34217144651E+03  0.48420160837E+03  0.87227039171E+03  0.10546981239E+04  0.50400001928E-02 0.  1.
       -1    1    3    3    0  502 -0.34217144651E+03 -0.48420160837E+03 -0.27630190655E+03  0.65412173175E+03  0.50400001928E-02 0. -1.
</event>
<event>
 5   0  0.7597000E-06  0.1599763E+04  0.7818609E-02  0.8820694E-01
       -3   -1    0    0    0  501  0.00000000000E+00  0.00000000000E+00  0.22779265920E+03  0.22779268159E+03  0.10100000352E+00 0.  1.
        3   -1    0    0  501    0  0.00000000000E+00  0.00000000000E+00 -0.28087387680E+04  0.28087387698E+04  0.10100000352E+00 0. -1.
    10030    2    1    2    0    0  0.00000000000E+00  0.00000000000E+00 -0.25809461088E+04  0.30365314514E+04  0.15997626195E+04 0.  0.
        1    1    3    3  502    0  0.23896321440E+03 -0.63668576799E+03 -0.49114869201E+03  0.83886782194E+03  0.50400001928E-02 0.  1.
       -1    1    3    3    0  502 -0.23896321440E+03  0.63668576799E+03 -0.20897974168E+04  0.21976636295E+04  0.50400001928E-02 0. -1.
</event>
<event>
 5   0  0.1990948E-05  0.1599946E+04  0.7818609E-02  0.8820581E-01
        2   -1    0    0  501    0  0.00000000000E+00  0.00000000000E+00  0.17727604115E+04  0.17727604115E+04  0.25500000920E-02 0. -1.
       -2   -1    0    0    0  501  0.00000000000E+00  0.00000000000E+00 -0.36099432596E+03  0.36099432597E+03  0.25500000920E-02 0.  1.
    10030    2    1    2    0    0  0.00000000000E+00  0.00000000000E+00  0.14117660855E+04  0.21337547374E+04  0.15999455614E+04 0.  0.
        4    1    3    3  502    0 -0.82152948371E+01 -0.34691773634E+03  0.16671563378E+04  0.17028890963E+04  0.12699999809E+01 0. -1.
       -4    1    3    3    0  502  0.82152948371E+01  0.34691773634E+03 -0.25539025226E+03  0.43086564113E+03  0.12699999809E+01 0.  1.
</event>
<event>
 5   0  0.1126485E-05  0.1600775E+04  0.7818609E-02  0.8820072E-01
        1   -1    0    0  501    0  0.00000000000E+00  0.00000000000E+00  0.16580730923E+04  0.16580730923E+04  0.50400001928E-02 0. -1.
       -1   -1    0    0    0  501  0.00000000000E+00  0.00000000000E+00 -0.38636436519E+03  0.38636436522E+03  0.50400001928E-02 0.  1.
    10030    2    1    2    0    0  0.00000000000E+00  0.00000000000E+00  0.12717087271E+04  0.20444374575E+04  0.16007752594E+04 0.  0.
        2    1    3    3  502    0  0.31252812832E+03  0.13088029257E+03 -0.29025169656E+03  0.44614967146E+03  0.25500000920E-02 0.  1.
       -2    1    3    3    0  502 -0.31252812832E+03 -0.13088029257E+03  0.15619604236E+04  0.15982877860E+04  0.25500000920E-02 0. -1.
</event>
<event>
 5   0  0.1994525E-05  0.1600430E+04  0.7818609E-02  0.8820284E-01
       -2   -1    0    0    0  501  0.00000000000E+00  0.00000000000E+00  0.94941957091E+03  0.94941957091E+03  0.25500000920E-02 0. -1.
        2   -1    0    0  501    0  0.00000000000E+00  0.00000000000E+00 -0.67445881966E+03  0.67445881967E+03  0.25500000920E-02 0.  1.
    10030    2    1    2    0    0  0.00000000000E+00  0.00000000000E+00  0.27496075125E+03  0.16238783906E+04  0.16004304461E+04 0.  0.
        5    1    3    3  502    0  0.64292475154E+03 -0.31013992551E+03 -0.22945775973E+03  0.74980795077E+03  0.46999998093E+01 0.  1.
       -5    1    3    3    0  502 -0.64292475154E+03  0.31013992551E+03  0.50441851097E+03  0.87407043981E+03  0.46999998093E+01 0. -1.
</event>
<event>
 5   0  0.1994525E-05  0.1600057E+04  0.7818609E-02  0.8820513E-01
       -2   -1    0    0    0  501  0.00000000000E+00  0.00000000000E+00  0.56356284432E+03  0.56356284433E+03  0.25500000920E-02 0. -1.
        2   -1    0    0  501    0  0.00000000000E+00  0.00000000000E+00 -0.11357123987E+04  0.11357123987E+04  0.25500000920E-02 0.  1.
    10030    2    1    2    0    0  0.00000000000E+00  0.00000000000E+00 -0.57214955439E+03  0.16992752430E+04  0.16000566362E+04 0.  0.
        5    1    3    3  502    0  0.39202599806E+03  0.69574859455E+03 -0.33670411851E+03  0.86668462741E+03  0.46999998093E+01 0.  1.
       -5    1    3    3    0  502 -0.39202599806E+03 -0.69574859455E+03 -0.23544543587E+03  0.83259061563E+03  0.46999998093E+01 0. -1.
</event>
<event>
 5   0  0.2125803E-05  0.1599932E+04  0.7818609E-02  0.8820590E-01
        2   -1    0    0  501    0  0.00000000000E+00  0.00000000000E+00  0.10755708233E+04  0.10755708233E+04  0.25500000920E-02 0.  1.
       -2   -1    0    0    0  501  0.00000000000E+00  0.00000000000E+00 -0.59498257227E+03  0.59498257228E+03  0.25500000920E-02 0. -1.
    10030    2    1    2    0    0  0.00000000000E+00  0.00000000000E+00  0.48058825102E+03  0.16705533956E+04  0.15999323675E+04 0.  0.
        3    1    3    3  502    0 -0.54802081961E+03  0.17624583654E+03 -0.33970330101E+03  0.66842184026E+03  0.10100000352E+00 0. -1.
       -3    1    3    3    0  502  0.54802081961E+03 -0.17624583654E+03  0.82029155203E+03  0.10021315553E+04  0.10100000352E+00 0.  1.
</event>
<event>
 5   0  0.1994525E-05  0.1600281E+04  0.7818609E-02  0.8820375E-01
        2   -1    0    0  501    0  0.00000000000E+00  0.00000000000E+00  0.18944517325E+04  0.18944517325E+04  0.25500000920E-02 0.  1.
       -2   -1    0    0    0  501  0.00000000000E+00  0.00000000000E+00 -0.33794739523E+03  0.33794739524E+03  0.25500000920E-02 0. -1.
    10030    2    1    2    0    0  0.00000000000E+00  0.00000000000E+00  0.15565043373E+04  0.22323991277E+04  0.16002812608E+04 0.  0.
        5    1    3    3  502    0 -0.38637409518E+03  0.66808645091E+03  0.10727880479E+04  0.13215599620E+04  0.46999998093E+01 0.  1.
       -5    1    3    3    0  502  0.38637409518E+03 -0.66808645091E+03  0.48371628933E+03  0.91083916576E+03  0.46999998093E+01 0. -1.
</event>
<event>
 5   0  0.2147844E-05  0.1599732E+04  0.7818609E-02  0.8820712E-01
       -2   -1    0    0    0  501  0.00000000000E+00  0.00000000000E+00  0.83262801303E+03  0.83262801303E+03  0.25500000920E-02 0.  1.
        2   -1    0    0  501    0  0.00000000000E+00  0.00000000000E+00 -0.76839336166E+03  0.76839336166E+03  0.25500000920E-02 0. -1.
    10030    2    1    2    0    0  0.00000000000E+00  0.00000000000E+00  0.64234651372E+02  0.16010213747E+04  0.15997322750E+04 0.  0.
        2    1    3    3  502    0  0.54448904103E+03 -0.46782543097E+03  0.38518608574E+03  0.81467617512E+03  0.25500000920E-02 0.  1.
       -2    1    3    3    0  502 -0.54448904103E+03  0.46782543097E+03 -0.32095143437E+03  0.78634519957E+03  0.25500000920E-02 0. -1.
</event>
<event>
 5   0  0.1994525E-05  0.1599654E+04  0.7818609E-02  0.8820760E-01
       -2   -1    0    0    0  501  0.00000000000E+00  0.00000000000E+00  0.66459274148E+03  0.66459274148E+03  0.25500000920E-02 0. -1.
        2   -1    0    0  501    0  0.00000000000E+00  0.00000000000E+00 -0.96257959339E+03  0.96257959340E+03  0.25500000920E-02 0.  1.
    10030    2    1    2    0    0  0.00000000000E+00  0.00000000000E+00 -0.29798685192E+03  0.16271723349E+04  0.15996542262E+04 0.  0.
        5    1    3    3  502    0  0.19678788493E+03 -0.67458315167E+03 -0.53755070882E+03  0.88474332703E+03  0.46999998093E+01 0.  1.
       -5    1    3    3    0  502 -0.19678788493E+03  0.67458315167E+03  0.23956385690E+03  0.74242900785E+03  0.46999998093E+01 0. -1.
</event>
<event>
 5   0  0.2147844E-05  0.1600377E+04  0.7818609E-02  0.8820316E-01
        2   -1    0    0  501    0  0.00000000000E+00  0.00000000000E+00  0.13316628682E+04  0.13316628682E+04  0.25500000920E-02 0. -1.
       -2   -1    0    0    0  501  0.00000000000E+00  0.00000000000E+00 -0.48082870330E+03  0.48082870330E+03  0.25500000920E-02 0.  1.
    10030    2    1    2    0    0  0.00000000000E+00  0.00000000000E+00  0.85083416494E+03  0.18124915715E+04  0.16003771183E+04 0.  0.
        2    1    3    3  502    0 -0.56164430216E+03  0.32286424384E+02  0.10698862431E+04  0.12087776092E+04  0.25500000920E-02 0. -1.
       -2    1    3    3    0  502  0.56164430216E+03 -0.32286424384E+02 -0.21905207817E+03  0.60371396232E+03  0.25500000920E-02 0.  1.
</event>
<event>
 5   0  0.1990948E-05  0.1599388E+04  0.7818609E-02  0.8820924E-01
       -2   -1    0    0    0  501  0.00000000000E+00  0.00000000000E+00  0.45325462953E+03  0.45325462954E+03  0.25500000920E-02 0. -1.
        2   -1    0    0  501    0  0.00000000000E+00  0.00000000000E+00 -0.14109291666E+04  0.14109291666E+04  0.25500000920E-02 0.  1.
    10030    2    1    2    0    0  0.00000000000E+00  0.00000000000E+00 -0.95767453711E+03  0.18641837962E+04  0.15993876037E+04 0.  0.
        4    1    3    3  502    0 -0.46622700555E+03 -0.23945614034E+03 -0.11828223078E+04  0.12937453724E+04  0.12699999809E+01 0.  1.
       -4    1    3    3    0  502  0.46622700555E+03  0.23945614034E+03  0.22514777065E+03  0.57043842383E+03  0.12699999809E+01 0. -1.
</event>
<event>
 5   0  0.2046108E-05  0.1600613E+04  0.7818609E-02  0.8820172E-01
       -2   -1    0    0    0  501  0.00000000000E+00  0.00000000000E+00  0.29838934073E+03  0.29838934074E+03  0.25500000920E-02 0.  1.
        2   -1    0    0  501    0  0.00000000000E+00  0.00000000000E+00 -0.21464912694E+04  0.21464912694E+04  0.25500000920E-02 0. -1.
    10030    2    1    2    0    0  0.00000000000E+00  0.00000000000E+00 -0.18481019287E+04  0.24448806102E+04  0.16006125262E+04 0.  0.
        1    1    3    3  502    0 -0.67189937633E+03  0.37273746110E+02 -0.26237089085E+03  0.72227182449E+03  0.50400001928E-02 0.  1.
       -1    1    3    3    0  502  0.67189937633E+03 -0.37273746110E+02 -0.15857310379E+04  0.17226087857E+04  0.50400001928E-02 0. -1.
</event>
<event>
 5   0  0.1060251E-05  0.1599731E+04  0.7818609E-02  0.8820714E-01
        1   -1    0    0  501    0  0.00000000000E+00  0.00000000000E+00  0.10739168350E+04  0.10739168351E+04  0.50400001928E-02 0.  1.
       -1   -1    0    0    0  501  0.00000000000E+00  0.00000000000E+00 -0.59574863243E+03  0.59574863245E+03  0.50400001928E-02 0. -1.
    10030    2    1    2    0    0  0.00000000000E+00  0.00000000000E+00  0.47816820261E+03  0.16696654675E+04  0.15997305846E+04 0.  0.
        1    1    3    3  502    0  0.53367747727E+03  0.14453650927E+03 -0.36418235449E+03  0.66206588766E+03  0.50400001928E-02 0. -1.
       -1    1    3    3    0  502 -0.53367747727E+03 -0.14453650927E+03  0.84235055709E+03  0.10075995799E+04  0.50400001928E-02 0.  1.
</event>
<event>
 5   0  0.1057506E-05  0.1599791E+04  0.7818609E-02  0.8820676E-01
        1   -1    0    0  501    0  0.00000000000E+00  0.00000000000E+00  0.11228666566E+04  0.11228666566E+04  0.50400001928E-02 0.  1.
       -1   -1    0    0    0  501  0.00000000000E+00  0.00000000000E+00 -0.56982108005E+03  0.56982108007E+03  0.50400001928E-02 0. -1.
    10030    2    1    2    0    0  0.00000000000E+00  0.00000000000E+00  0.55304557652E+03  0.16926877367E+04  0.15997913502E+04 0.  0.
        5    1    3    3  502    0 -0.44899073962E+03  0.34355151608E+03 -0.32218904478E+03  0.65072897510E+03  0.46999998093E+01 0. -1.
       -5    1    3    3    0  502  0.44899073962E+03 -0.34355151608E+03  0.87523462130E+03  0.10419587616E+04  0.46999998093E+01 0.  1.
</event>
<event>
 5   0  0.1126485E-05  0.1599695E+04  0.7818609E-02  0.8820736E-01
        1   -1    0    0  501    0  0.00000000000E+00  0.00000000000E+00  0.10534965051E+04  0.10534965051E+04  0.50400001928E-02 0. -1.
       -1   -1    0    0    0  501  0.00000000000E+00  0.00000000000E+00 -0.60726896740E+03  0.60726896742E+03  0.50400001928E-02 0.  1.
    10030    2    1    2    0    0  0.00000000000E+00  0.00000000000E+00  0.44622753770E+03  0.16607654725E+04  0.15996946394E+04 0.  0.
        2    1    3    3  502    0  0.39289366779E+03 -0.68450349961E+03  0.88369571163E+02  0.79417860477E+03  0.25500000920E-02 0.  1.
       -2    1    3    3    0  502 -0.39289366779E+03  0.68450349961E+03  0.35785796654E+03  0.86658686777E+03  0.25500000920E-02 0. -1.
</event>
<event>
 5   0  0.1057506E-05  0.1599293E+04  0.7818609E-02  0.8820982E-01
       -1   -1    0    0    0  501  0.00000000000E+00  0.00000000000E+00  0.95844072611E+03  0.95844072613E+03  0.50400001928E-02 0. -1.
        1   -1    0    0  501    0  0.00000000000E+00  0.00000000000E+00 -0.66716167478E+03  0.66716167480E+03  0.50400001928E-02 0.  1.
    10030    2    1    2    0    0  0.00000000000E+00  0.00000000000E+00  0.29127905133E+03  0.16256024009E+04  0.15992934941E+04 0.  0.
        5    1    3    3  502    0  0.62716663694E+03  0.49580929863E+03  0.16164592213E+03  0.81566926216E+03  0.46999998093E+01 0.  1.
       -5    1    3    3    0  502 -0.62716663694E+03 -0.49580929863E+03  0.12963312920E+03  0.80993313877E+03  0.46999998093E+01 0. -1.
</event>
<event>
 5   0  0.2046108E-05  0.1600596E+04  0.7818609E-02  0.8820182E-01
       -2   -1    0    0    0  501  0.00000000000E+00  0.00000000000E+00  0.51365324807E+03  0.51365324808E+03  0.25500000920E-02 0. -1.
        2   -1    0    0  501    0  0.00000000000E+00  0.00000000000E+00 -0.12469048515E+04  0.12469048515E+04  0.25500000920E-02 0.  1.
    10030    2    1    2    0    0  0.00000000000E+00  0.00000000000E+00 -0.73325160341E+03  0.17605580996E+04  0.16005957978E+04 0.  0.
        1    1    3    3  502    0 -0.38089149828E+03 -0.56343035492E+03  0.97366880149E+02  0.68703159147E+03  0.50400001928E-02 0. -1.
       -1    1    3    3    0  502  0.38089149828E+03  0.56343035492E+03 -0.83061848356E+03  0.10735265081E+04  0.50400001928E-02 0.  1.
</event>
<event>
 5   0  0.1990948E-05  0.1598331E+04  0.7818609E-02  0.8821574E-01
       -2   -1    0    0    0  501  0.00000000000E+00  0.00000000000E+00  0.68283737509E+03  0.68283737509E+03  0.25500000920E-02 0. -1.
        2   -1    0    0  501    0  0.00000000000E+00  0.00000000000E+00 -0.93531146657E+03  0.93531146657E+03  0.25500000920E-02 0.  1.
    10030    2    1    2    0    0  0.00000000000E+00  0.00000000000E+00 -0.25247409148E+03  0.16181488417E+04  0.15983311631E+04 0.  0.
        4    1    3    3  502    0 -0.77128945585E+03  0.15251881693E+03  0.18768035877E+02  0.78644978625E+03  0.12699999809E+01 0. -1.
       -4    1    3    3    0  502  0.77128945585E+03 -0.15251881693E+03 -0.27124212736E+03  0.83169905541E+03  0.12699999809E+01 0.  1.
</event>
<event>
 5   0  0.1090674E-05  0.1599855E+04  0.7818609E-02  0.8820637E-01
        1   -1    0    0  501    0  0.00000000000E+00  0.00000000000E+00  0.10490634409E+04  0.10490634409E+04  0.50400001928E-02 0.  1.
       -1   -1    0    0    0  501  0.00000000000E+00  0.00000000000E+00 -0.60995711692E+03  0.60995711694E+03  0.50400001928E-02 0. -1.
    10030    2    1    2    0    0  0.00000000000E+00  0.00000000000E+00  0.43910632397E+03  0.16590205578E+04  0.15998546333E+04 0.  0.
        4    1    3    3  502    0  0.78094560702E+03  0.10017872761E+03  0.73010753280E+02  0.79072372013E+03  0.12699999809E+01 0.  1.
       -4    1    3    3    0  502 -0.78094560702E+03 -0.10017872761E+03  0.36609557069E+03  0.86829683770E+03  0.12699999809E+01 0. -1.
</event>
<event>
 5   0  0.1126485E-05  0.1600308E+04  0.7818609E-02  0.8820359E-01
       -1   -1    0    0    0  501  0.00000000000E+00  0.00000000000E+00  0.51298302491E+03  0.51298302494E+03  0.50400001928E-02 0. -1.
        1   -1    0    0  501    0  0.00000000000E+00  0.00000000000E+00 -0.12480843450E+04  0.12480843450E+04  0.50400001928E-02 0.  1.
    10030    2    1    2    0    0  0.00000000000E+00  0.00000000000E+00 -0.73510132012E+03  0.17610673700E+04  0.16003075738E+04 0.  0.
        2    1    3    3  502    0 -0.79379215063E+03  0.14672390164E+02 -0.47718180357E+03  0.92629570392E+03  0.25500000920E-02 0. -1.
       -2    1    3    3    0  502  0.79379215063E+03 -0.14672390164E+02 -0.25791951655E+03  0.83477166606E+03  0.25500000920E-02 0.  1.
</event>
<event>
 5   0  0.1126485E-05  0.1601395E+04  0.7818609E-02  0.8819692E-01
        1   -1    0    0  501    0  0.00000000000E+00  0.00000000000E+00  0.26401840058E+04  0.26401840058E+04  0.50400001928E-02 0. -1.
       -1   -1    0    0    0  501  0.00000000000E+00  0.00000000000E+00 -0.24283015984E+03  0.24283015989E+03  0.50400001928E-02 0.  1.
    10030    2    1    2    0    0  0.00000000000E+00  0.00000000000E+00  0.23973538459E+04  0.28830141657E+04  0.16013947723E+04 0.  0.
        2    1    3    3  502    0 -0.91875485234E+02 -0.42356386785E+03 -0.13389182106E+02  0.43362048515E+03  0.25500000920E-02 0.  1.
       -2    1    3    3    0  502  0.91875485234E+02  0.42356386785E+03  0.24107430280E+04  0.24493936805E+04  0.25500000920E-02 0. -1.
</event>
<event>
 5   0  0.2147844E-05  0.1601672E+04  0.7818609E-02  0.8819521E-01
       -2   -1    0    0    0  501  0.00000000000E+00  0.00000000000E+00  0.65455588629E+03  0.65455588629E+03  0.25500000920E-02 0.  1.
        2   -1    0    0  501    0  0.00000000000E+00  0.00000000000E+00 -0.97980690552E+03  0.97980690552E+03  0.25500000920E-02 0. -1.
    10030    2    1    2    0    0  0.00000000000E+00  0.00000000000E+00 -0.32525101923E+03  0.16343627918E+04  0.16016720981E+04 0.  0.
        2    1    3    3  502    0  0.27045949070E+02 -0.19006653376E+02  0.65385941743E+03  0.65469448906E+03  0.25500000920E-02 0.  1.
       -2    1    3    3    0  502 -0.27045949070E+02  0.19006653376E+02 -0.97911043667E+03  0.97966830276E+03  0.25500000920E-02 0. -1.
</event>
<event>
 5   0  0.1060251E-05  0.1600421E+04  0.7818609E-02  0.8820289E-01
        1   -1    0    0  501    0  0.00000000000E+00  0.00000000000E+00  0.66759292262E+03  0.66759292263E+03  0.50400001928E-02 0.  1.
       -1   -1    0    0    0  501  0.00000000000E+00  0.00000000000E+00 -0.95917250989E+03  0.95917250990E+03  0.50400001928E-02 0. -1.
    10030    2    1    2    0    0  0.00000000000E+00  0.00000000000E+00 -0.29157958727E+03  0.16267654325E+04  0.16004209186E+04 0.  0.
        1    1    3    3  502    0 -0.54217224533E+03 -0.51960685968E+03  0.13515595489E+03  0.76302631960E+03  0.50400001928E-02 0. -1.
       -1    1    3    3    0  502  0.54217224533E+03  0.51960685968E+03 -0.42673554216E+03  0.86373911293E+03  0.50400001928E-02 0.  1.
</event>
<event>
 5   0  0.1090674E-05  0.1595096E+04  0.7818609E-02  0.8823566E-01
        1   -1    0    0  501    0  0.00000000000E+00  0.00000000000E+00  0.11324965375E+04  0.11324965375E+04  0.50400001928E-02 0. -1.
       -1   -1    0    0    0  501  0.00000000000E+00  0.00000000000E+00 -0.56166440319E+03  0.56166440322E+03  0.50400001928E-02 0.  1.
    10030    2    1    2    0    0  0.00000000000E+00  0.00000000000E+00  0.57083213427E+03  0.16941609407E+04  0.15950962251E+04 0.  0.
        4    1    3    3  502    0 -0.58949486177E+03 -0.50486490748E+03  0.48035982664E+03  0.91276499867E+03  0.12699999809E+01 0. -1.
       -4    1    3    3    0  502  0.58949486177E+03  0.50486490748E+03  0.90472307636E+02  0.78139594202E+03  0.12699999809E+01 0.  1.
</event>
<event>
 5   0  0.1081831E-05  0.1600264E+04  0.7818609E-02  0.8820386E-01
       -1   -1    0    0    0  501  0.00000000000E+00  0.00000000000E+00  0.29391546244E+03  0.29391546248E+03  0.50400001928E-02 0.  1.
        1   -1    0    0  501    0  0.00000000000E+00  0.00000000000E+00 -0.21782160090E+04  0.21782160090E+04  0.50400001928E-02 0. -1.
    10030    2    1    2    0    0  0.00000000000E+00  0.00000000000E+00 -0.18843005465E+04  0.24721314715E+04  0.16002641852E+04 0.  0.
        3    1    3    3  502    0 -0.13579050222E+03  0.67700471390E+03 -0.31761790448E+03  0.76003656924E+03  0.10100000352E+00 0.  1.
       -3    1    3    3    0  502  0.13579050222E+03 -0.67700471390E+03 -0.15666826421E+04  0.17120949022E+04  0.10100000352E+00 0. -1.
</event>
<event>
 5   0  0.1090674E-05  0.1600852E+04  0.7818609E-02  0.8820024E-01
       -1   -1    0    0    0  501  0.00000000000E+00  0.00000000000E+00  0.86597706546E+03  0.86597706548E+03  0.50400001928E-02 0. -1.
        1   -1    0    0  501    0  0.00000000000E+00  0.00000000000E+00 -0.73983731356E+03  0.73983731358E+03  0.50400001928E-02 0.  1.
    10030    2    1    2    0    0  0.00000000000E+00  0.00000000000E+00  0.12613975190E+03  0.16058143791E+04  0.16008524551E+04 0.  0.
        4    1    3    3  502    0  0.33882708814E+03 -0.48825922179E+02  0.78884048776E+03  0.85991784163E+03  0.12699999809E+01 0. -1.
       -4    1    3    3    0  502 -0.33882708814E+03  0.48825922179E+02 -0.66270073586E+03  0.74589653742E+03  0.12699999809E+01 0.  1.
</event>
<event>
 5   0  0.1990948E-05  0.1598271E+04  0.7818609E-02  0.8821611E-01
        2   -1    0    0  501    0  0.00000000000E+00  0.00000000000E+00  0.15214483757E+04  0.15214483757E+04  0.25500000920E-02 0.  1.
       -2   -1    0    0    0  501  0.00000000000E+00  0.00000000000E+00 -0.41974314270E+03  0.41974314270E+03  0.25500000920E-02 0. -1.
    10030    2    1    2    0    0  0.00000000000E+00  0.00000000000E+00  0.11017052330E+04  0.19411915184E+04  0.15982709691E+04 0.  0.
        4    1    3    3  502    0 -0.46423868095E+03 -0.54796005419E+03  0.97653392672E+03  0.12121872367E+04  0.12699999809E+01 0.  1.
       -4    1    3    3    0  502  0.46423868095E+03  0.54796005419E+03  0.12517130624E+03  0.72900428167E+03  0.12699999809E+01 0. -1.
</event>
<event>
 5   0  0.2147844E-05  0.1601392E+04  0.7818609E-02  0.8819694E-01
       -2   -1    0    0    0  501  0.00000000000E+00  0.00000000000E+00  0.50915107338E+03  0.50915107339E+03  0.25500000920E-02 0.  1.
        2   -1    0    0  501    0  0.00000000000E+00  0.00000000000E+00 -0.12591818509E+04  0.12591818509E+04  0.25500000920E-02 0. -1.
    10030    2    1    2    0    0  0.00000000000E+00  0.00000000000E+00 -0.75003077753E+03  0.17683329243E+04  0.16013916335E+04 0.  0.
        2    1    3    3  502    0  0.17361246481E+03 -0.53014308522E+03  0.25925046914E+03  0.61514533608E+03  0.25500000920E-02 0.  1.
       -2    1    3    3    0  502 -0.17361246481E+03  0.53014308522E+03 -0.10092812467E+04  0.11531875882E+04  0.25500000920E-02 0. -1.
</event>
<event>
 5   0  0.1994525E-05  0.1599911E+04  0.7818609E-02  0.8820603E-01
       -2   -1    0    0    0  501  0.00000000000E+00  0.00000000000E+00  0.31849745568E+03  0.31849745569E+03  0.25500000920E-02 0.  1.
        2   -1    0    0  501    0  0.00000000000E+00  0.00000000000E+00 -0.20092104954E+04  0.20092104954E+04  0.25500000920E-02 0. -1.
    10030    2    1    2    0    0  0.00000000000E+00  0.00000000000E+00 -0.16907130397E+04  0.23277079511E+04  0.15999105359E+04 0.  0.
        5    1    3    3  502    0  0.90323167904E+02 -0.68203803550E+03 -0.25156494400E+03  0.73255796192E+03  0.46999998093E+01 0.  1.
       -5    1    3    3    0  502 -0.90323167904E+02  0.68203803550E+03 -0.14391480957E+04  0.15951499892E+04  0.46999998093E+01 0. -1.
</event>
<event>
 5   0  0.2125803E-05  0.1598619E+04  0.7818609E-02  0.8821397E-01
        2   -1    0    0  501    0  0.00000000000E+00  0.00000000000E+00  0.22827591900E+04  0.22827591900E+04  0.25500000920E-02 0. -1.
       -2   -1    0    0    0  501  0.00000000000E+00  0.00000000000E+00 -0.27987871796E+03  0.27987871797E+03  0.25500000920E-02 0.  1.
    10030    2    1    2    0    0  0.00000000000E+00  0.00000000000E+00  0.20028804721E+04  0.25626379080E+04  0.15986190485E+04 0.  0.
        3    1    3    3  502    0  0.40635364212E+03 -0.54576615764E+03  0.32909914410E+03  0.75583744161E+03  0.10100000352E+00 0.  1.
       -3    1    3    3    0  502 -0.40635364212E+03  0.54576615764E+03  0.16737813280E+04  0.18068004664E+04  0.10100000352E+00 0. -1.
</event>
<event>
 5   0  0.2046108E-05  0.1596905E+04  0.7818609E-02  0.8822452E-01
        2   -1    0    0  501    0  0.00000000000E+00  0.00000000000E+00  0.11471078195E+04  0.11471078195E+04  0.25500000920E-02 0. -1.
       -2   -1    0    0    0  501  0.00000000000E+00  0.00000000000E+00 -0.55576859035E+03  0.55576859036E+03  0.25500000920E-02 0.  1.
    10030    2    1    2    0    0  0.00000000000E+00  0.00000000000E+00  0.59133922916E+03  0.17028764099E+04  0.15969051266E+04 0.  0.
        1    1    3    3  502    0  0.12734076884E+02 -0.79600261455E+03  0.23041936404E+03  0.82877946550E+03  0.50400001928E-02 0.  1.
       -1    1    3    3    0  502 -0.12734076884E+02  0.79600261455E+03  0.36091986512E+03  0.87409694437E+03  0.50400001928E-02 0. -1.
</event>
<event>
 5   0  0.1081831E-05  0.1599652E+04  0.7818609E-02  0.8820762E-01
        1   -1    0    0  501    0  0.00000000000E+00  0.00000000000E+00  0.17455815426E+04  0.17455815426E+04  0.50400001928E-02 0.  1.
       -1   -1    0    0    0  501  0.00000000000E+00  0.00000000000E+00 -0.36648073383E+03  0.36648073386E+03  0.50400001928E-02 0. -1.
    10030    2    1    2    0    0  0.00000000000E+00  0.00000000000E+00  0.13791008087E+04  0.21120622764E+04  0.15996524682E+04 0.  0.
        3    1    3    3  502    0  0.15385778131E+03 -0.45917045195E+03  0.15300207117E+04  0.16048280622E+04  0.10100000352E+00 0.  1.
       -3    1    3    3    0  502 -0.15385778131E+03  0.45917045195E+03 -0.15091990293E+03  0.50723421426E+03  0.10100000352E+00 0. -1.
</event>
<event>
 5   0  0.1081831E-05  0.1600878E+04  0.7818609E-02  0.8820009E-01
        1   -1    0    0  501    0  0.00000000000E+00  0.00000000000E+00  0.57524763369E+03  0.57524763371E+03  0.50400001928E-02 0. -1.
       -1   -1    0    0    0  501  0.00000000000E+00  0.00000000000E+00 -0.11137851176E+04  0.11137851176E+04  0.50400001928E-02 0.  1.
    10030    2    1    2    0    0  0.00000000000E+00  0.00000000000E+00 -0.53853748388E+03  0.16890327513E+04  0.16008775760E+04 0.  0.
        3    1    3    3  502    0 -0.44076593573E+02  0.49533711149E+03  0.39248664030E+03  0.63351982853E+03  0.10100000352E+00 0. -1.
       -3    1    3    3    0  502  0.44076593573E+02 -0.49533711149E+03 -0.93102412418E+03  0.10555129228E+04  0.10100000352E+00 0.  1.
</event>
<event>
 5   0  0.1994525E-05  0.1599907E+04  0.7818609E-02  0.8820605E-01
        2   -1    0    0  501    0  0.00000000000E+00  0.00000000000E+00  0.21722684266E+04  0.21722684266E+04  0.25500000920E-02 0.  1.
       -2   -1    0    0    0  501  0.00000000000E+00  0.00000000000E+00 -0.29458853640E+03  0.29458853642E+03  0.25500000920E-02 0. -1.
    10030    2    1    2    0    0  0.00000000000E+00  0.00000000000E+00  0.18776798902E+04  0.24668569630E+04  0.15999067179E+04 0.  0.
        5    1    3    3  502    0  0.14047829162E+03 -0.72088991230E+03  0.45007059225E+03  0.86139540519E+03  0.46999998093E+01 0. -1.
       -5    1    3    3    0  502 -0.14047829162E+03  0.72088991230E+03  0.14276092979E+04  0.16054615578E+04  0.46999998093E+01 0.  1.
</event>
<event>
 5   0  0.1090674E-05  0.1599934E+04  0.7818609E-02  0.8820589E-01
       -1   -1    0    0    0  501  0.00000000000E+00  0.00000000000E+00  0.65932406004E+03  0.65932406006E+03  0.50400001928E-02 0. -1.
        1   -1    0    0  501    0  0.00000000000E+00  0.00000000000E+00 -0.97061086683E+03  0.97061086684E+03  0.50400001928E-02 0.  1.
    10030    2    1    2    0    0  0.00000000000E+00  0.00000000000E+00 -0.31128680679E+03  0.16299349269E+04  0.15999338705E+04 0.  0.
        4    1    3    3  502    0  0.50951234867E+03  0.25635175604E+03 -0.72707708310E+03  0.92410051073E+03  0.12699999809E+01 0.  1.
       -4    1    3    3    0  502 -0.50951234867E+03 -0.25635175604E+03  0.41579027630E+03  0.70583441617E+03  0.12699999809E+01 0. -1.
</event>
<event>
 5   0  0.2046108E-05  0.1599989E+04  0.7818609E-02  0.8820555E-01
        2   -1    0    0  501    0  0.00000000000E+00  0.00000000000E+00  0.15531808973E+04  0.15531808973E+04  0.25500000920E-02 0. -1.
       -2   -1    0    0    0  501  0.00000000000E+00  0.00000000000E+00 -0.41205210954E+03  0.41205210955E+03  0.25500000920E-02 0.  1.
    10030    2    1    2    0    0  0.00000000000E+00  0.00000000000E+00  0.11411287877E+04  0.19652330068E+04  0.15999893315E+04 0.  0.
        1    1    3    3  502    0  0.79738601203E+03  0.41025924613E+02  0.50934869117E+03  0.94707109970E+03  0.50400001928E-02 0.  1.
       -1    1    3    3    0  502 -0.79738601203E+03 -0.41025924613E+02  0.63178009658E+03  0.10181619071E+04  0.50400001928E-02 0. -1.
</event>
<event>
 5   0  0.2125803E-05  0.1599670E+04  0.7818609E-02  0.8820751E-01
        2   -1    0    0  501    0  0.00000000000E+00  0.00000000000E+00  0.12284984956E+04  0.12284984956E+04  0.25500000920E-02 0. -1.
       -2   -1    0    0    0  501  0.00000000000E+00  0.00000000000E+00 -0.52074633448E+03  0.52074633449E+03  0.25500000920E-02 0.  1.
    10030    2    1    2    0    0  0.00000000000E+00  0.00000000000E+00  0.70775216108E+03  0.17492448300E+04  0.15996700766E+04 0.  0.
        3    1    3    3  502    0  0.57633517093E+03  0.12970928194E+03  0.94350605766E+03  0.11131893002E+04  0.10100000352E+00 0. -1.
       -3    1    3    3    0  502 -0.57633517093E+03 -0.12970928194E+03 -0.23575389659E+03  0.63605552983E+03  0.10100000352E+00 0.  1.
</event>
<event>
 5   0  0.1081831E-05  0.1599919E+04  0.7818609E-02  0.8820598E-01
        1   -1    0    0  501    0  0.00000000000E+00  0.00000000000E+00  0.20490930121E+04  0.20490930121E+04  0.50400001928E-02 0.  1.
       -1   -1    0    0    0  501  0.00000000000E+00  0.00000000000E+00 -0.31230170656E+03  0.31230170660E+03  0.50400001928E-02 0. -1.
    10030    2    1    2    0    0  0.00000000000E+00  0.00000000000E+00  0.17367913055E+04  0.23613947187E+04  0.15999190538E+04 0.  0.
        3    1    3    3  502    0 -0.39921926960E+03  0.35073543048E+02 -0.15345506639E+03  0.42913243439E+03  0.10100000352E+00 0. -1.
       -3    1    3    3    0  502  0.39921926960E+03 -0.35073543048E+02  0.18902463719E+04  0.19322622843E+04  0.10100000352E+00 0.  1.
</event>
<event>
 5   0  0.2125803E-05  0.1601217E+04  0.7818609E-02  0.8819801E-01
        2   -1    0    0  501    0  0.00000000000E+00  0.00000000000E+00  0.50743073136E+03  0.50743073137E+03  0.25500000920E-02 0. -1.
       -2   -1    0    0    0  501  0.00000000000E+00  0.00000000000E+00 -0.12631757246E+04  0.12631757246E+04  0.25500000920E-02 0.  1.
    10030    2    1    2    0    0  0.00000000000E+00  0.00000000000E+00 -0.75574499325E+03  0.17706064560E+04  0.16012172642E+04 0.  0.
        3    1    3    3  502    0 -0.52321821303E+03 -0.34802016821E+03 -0.92643555646E+03  0.11194454817E+04  0.10100000352E+00 0.  1.
       -3    1    3    3    0  502  0.52321821303E+03  0.34802016821E+03  0.17069056321E+03  0.65116097433E+03  0.10100000352E+00 0. -1.
</event>
<event>
 5   0  0.2046108E-05  0.1600338E+04  0.7818609E-02  0.8820340E-01
        2   -1    0    0  501    0  0.00000000000E+00  0.00000000000E+00  0.17847583496E+04  0.17847583496E+04  0.25500000920E-02 0.  1.
       -2   -1    0    0    0  501  0.00000000000E+00  0.00000000000E+00 -0.35874360203E+03  0.35874360204E+03  0.25500000920E-02 0. -1.
    10030    2    1    2    0    0  0.00000000000E+00  0.00000000000E+00  0.14260147475E+04  0.21435019516E+04  0.16003382631E+04 0.  0.
        1    1    3    3  502    0 -0.12352162130E+03 -0.52754520831E+03  0.15016762737E+04  0.15964313855E+04  0.50400001928E-02 0.  1.
       -1    1    3    3    0  502  0.12352162130E+03  0.52754520831E+03 -0.75661526119E+02  0.54707056610E+03  0.50400001928E-02 0. -1.
</event>
<event>
 5   0  0.1126485E-05  0.1598775E+04  0.7818609E-02  0.8821301E-01
        1   -1    0    0  501    0  0.00000000000E+00  0.00000000000E+00  0.87556804446E+03  0.87556804447E+03  0.50400001928E-02 0.  1.
       -1   -1    0    0    0  501  0.00000000000E+00  0.00000000000E+00 -0.72983525978E+03  0.72983525980E+03  0.50400001928E-02 0. -1.
    10030    2    1    2    0    0  0.00000000000E+00  0.00000000000E+00  0.14573278468E+03  0.16054033043E+04  0.15987750701E+04 0.  0.
        2    1    3    3  502    0 -0.70439875861E+02  0.12605064228E+03 -0.71663101630E+03  0.73103389392E+03  0.25500000920E-02 0. -1.
       -2    1    3    3    0  502  0.70439875861E+02 -0.12605064228E+03  0.86236380097E+03  0.87436941036E+03  0.25500000920E-02 0.  1.
</event>
<event>
 5   0  0.1990948E-05  0.1600517E+04  0.7818609E-02  0.8820231E-01
        2   -1    0    0  501    0  0.00000000000E+00  0.00000000000E+00  0.21880132866E+04  0.21880132866E+04  0.25500000920E-02 0. -1.
       -2   -1    0    0    0  501  0.00000000000E+00  0.00000000000E+00 -0.29269175917E+03  0.29269175918E+03  0.25500000920E-02 0.  1.
    10030    2    1    2    0    0  0.00000000000E+00  0.00000000000E+00  0.18953215274E+04  0.24807050458E+04  0.16005167390E+04 0.  0.
        4    1    3    3  502    0  0.27034814940E+03 -0.45665733390E+03  0.19263729211E+02  0.53103365868E+03  0.12699999809E+01 0.  1.
       -4    1    3    3    0  502 -0.27034814940E+03  0.45665733390E+03  0.18760577982E+04  0.19496713871E+04  0.12699999809E+01 0. -1.
</event>
<event>
 5   0  0.2147844E-05  0.1601493E+04  0.7818609E-02  0.8819631E-01
        2   -1    0    0  501    0  0.00000000000E+00  0.00000000000E+00  0.13771637376E+04  0.13771637376E+04  0.25500000920E-02 0.  1.
       -2   -1    0    0    0  501  0.00000000000E+00  0.00000000000E+00 -0.46559077579E+03  0.46559077579E+03  0.25500000920E-02 0. -1.
    10030    2    1    2    0    0  0.00000000000E+00  0.00000000000E+00  0.91157296178E+03  0.18427545134E+04  0.16014927199E+04 0.  0.
        2    1    3    3  502    0 -0.32797959715E+03  0.19391179088E+02  0.12960338721E+04  0.13370304527E+04  0.25500000920E-02 0.  1.
       -2    1    3    3    0  502  0.32797959715E+03 -0.19391179088E+02 -0.38446091028E+03  0.50572406064E+03  0.25500000920E-02 0. -1.
</event>
<event>
 5   0  0.1081831E-05  0.1604390E+04  0.7818609E-02  0.8817856E-01
        1   -1    0    0  501    0  0.00000000000E+00  0.00000000000E+00  0.10349667068E+04  0.10349667068E+04  0.50400001928E-02 0.  1.
       -1   -1    0    0    0  501  0.00000000000E+00  0.00000000000E+00 -0.62177518811E+03  0.62177518813E+03  0.50400001928E-02 0. -1.
    10030    2    1    2    0    0  0.00000000000E+00  0.00000000000E+00  0.41319151865E+03  0.16567418949E+04  0.16043897517E+04 0.  0.
        3    1    3    3  502    0  0.34722786539E+03  0.48038620115E+03 -0.35157761322E+03  0.68916247799E+03  0.10100000352E+00 0. -1.
       -3    1    3    3    0  502 -0.34722786539E+03 -0.48038620115E+03  0.76476913187E+03  0.96757941691E+03  0.10100000352E+00 0.  1.
</event>
<event>
 5   0  0.1090674E-05  0.1600086E+04  0.7818609E-02  0.8820495E-01
        1   -1    0    0  501    0  0.00000000000E+00  0.00000000000E+00  0.96877539546E+03  0.96877539547E+03  0.50400001928E-02 0.  1.
       -1   -1    0    0    0  501  0.00000000000E+00  0.00000000000E+00 -0.66069892234E+03  0.66069892236E+03  0.50400001928E-02 0. -1.
    10030    2    1    2    0    0  0.00000000000E+00  0.00000000000E+00  0.30807647312E+03  0.16294743178E+04  0.16000860724E+04 0.  0.
        4    1    3    3  502    0 -0.20336777687E+03 -0.52930494632E+01 -0.63391751883E+03  0.66576234695E+03  0.12699999809E+01 0. -1.
       -4    1    3    3    0  502  0.20336777687E+03  0.52930494632E+01  0.94199399195E+03  0.96371197088E+03  0.12699999809E+01 0.  1.
</event>
<event>
 5   0  0.1057506E-05  0.1601442E+04  0.7818609E-02  0.8819663E-01
       -1   -1    0    0    0  501  0.00000000000E+00  0.00000000000E+00  0.41075317820E+03  0.41075317823E+03  0.50400001928E-02 0.  1.
        1   -1    0    0  501    0  0.00000000000E+00  0.00000000000E+00 -0.15609222996E+04  0.15609222997E+04  0.50400001928E-02 0. -1.
    10030    2    1    2    0    0  0.00000000000E+00  0.00000000000E+00 -0.11501691214E+04  0.19716754779E+04  0.16014415950E+04 0.  0.
        5    1    3    3  502    0  0.44736817086E+03  0.28354046967E+03 -0.13144108075E+04  0.14171207920E+04  0.46999998093E+01 0. -1.
       -5    1    3    3    0  502 -0.44736817086E+03 -0.28354046967E+03  0.16424168603E+03  0.55455468591E+03  0.46999998093E+01 0.  1.
</event>
<event>
 5   0  0.1090674E-05  0.1599867E+04  0.7818609E-02  0.8820630E-01
        1   -1    0    0  501    0  0.00000000000E+00  0.00000000000E+00  0.10133822633E+04  0.10133822634E+04  0.50400001928E-02 0. -1.
       -1   -1    0    0    0  501  0.00000000000E+00  0.00000000000E+00 -0.63144366995E+03  0.63144366997E+03  0.50400001928E-02 0.  1.
    10030    2    1    2    0    0  0.00000000000E+00  0.00000000000E+00  0.38193859339E+03  0.16448259333E+04  0.15998672638E+04 0.  0.
        4    1    3    3  502    0 -0.57677516745E+02  0.45588590057E+03  0.86414700899E+03  0.97872892893E+03  0.12699999809E+01 0. -1.
       -4    1    3    3    0  502  0.57677516745E+02 -0.45588590057E+03 -0.48220841560E+03  0.66609700439E+03  0.12699999809E+01 0.  1.
</event>
<event>
 5   0  0.1060251E-05  0.1599979E+04  0.7818609E-02  0.8820561E-01
       -1   -1    0    0    0  501  0.00000000000E+00  0.00000000000E+00  0.45842511962E+03  0.45842511965E+03  0.50400001928E-02 0. -1.
        1   -1    0    0  501    0  0.00000000000E+00  0.00000000000E+00 -0.13960480800E+04  0.13960480800E+04  0.50400001928E-02 0.  1.
    10030    2    1    2    0    0  0.00000000000E+00  0.00000000000E+00 -0.93762296037E+03  0.18544731997E+04  0.15999793850E+04 0.  0.
        1    1    3    3  502    0 -0.37273195986E+03 -0.55461852613E+03  0.40981152490E+02  0.66948508446E+03  0.50400001928E-02 0. -1.
       -1    1    3    3    0  502  0.37273195986E+03  0.55461852613E+03 -0.97860411286E+03  0.11849881152E+04  0.50400001928E-02 0.  1.
</event>
<event>
 5   0  0.1994525E-05  0.1599635E+04  0.7818609E-02  0.8820772E-01
       -2   -1    0    0    0  501  0.00000000000E+00  0.00000000000E+00  0.94400580828E+03  0.94400580829E+03  0.25500000920E-02 0. -1.
        2   -1    0    0  501    0  0.00000000000E+00  0.00000000000E+00 -0.67765261104E+03  0.67765261105E+03  0.25500000920E-02 0.  1.
    10030    2    1    2    0    0  0.00000000000E+00  0.00000000000E+00  0.26635319724E+03  0.16216584193E+04  0.15996349594E+04 0.  0.
        5    1    3    3  502    0 -0.31189974315E+03 -0.70439576775E+03  0.35115097106E+03  0.84663093605E+03  0.46999998093E+01 0. -1.
       -5    1    3    3    0  502  0.31189974315E+03  0.70439576775E+03 -0.84797773818E+02  0.77502748329E+03  0.46999998093E+01 0.  1.
</event>
<event>
 5   0  0.1090674E-05  0.1599825E+04  0.7818609E-02  0.8820656E-01
       -1   -1    0    0    0  501  0.00000000000E+00  0.00000000000E+00  0.88913514462E+03  0.88913514463E+03  0.50400001928E-02 0.  1.
        1   -1    0    0  501    0  0.00000000000E+00  0.00000000000E+00 -0.71964312549E+03  0.71964312551E+03  0.50400001928E-02 0. -1.
    10030    2    1    2    0    0  0.00000000000E+00  0.00000000000E+00  0.16949201913E+03  0.16087782701E+04  0.15998249835E+04 0.  0.
        4    1    3    3  502    0 -0.65792766273E+03 -0.19308326031E+03 -0.32951629869E+03  0.76074473958E+03  0.12699999809E+01 0. -1.
       -4    1    3    3    0  502  0.65792766273E+03  0.19308326031E+03  0.49900831782E+03  0.84803353056E+03  0.12699999809E+01 0.  1.
</event>
<event>
 5   0  0.7597000E-06  0.1599494E+04  0.7818609E-02  0.8820859E-01
        4   -1    0    0  501    0  0.00000000000E+00  0.00000000000E+00  0.10669951102E+04  0.10669958660E+04  0.12699999809E+01 0. -1.
       -4   -1    0    0    0  501  0.00000000000E+00  0.00000000000E+00 -0.59943447896E+03  0.59943582431E+03  0.12699999809E+01 0.  1.
    10030    2    1    2    0    0  0.00000000000E+00  0.00000000000E+00  0.46756063121E+03  0.16664316903E+04  0.15994941808E+04 0.  0.
        4    1    3    3  502    0 -0.38643819031E+03 -0.71508649199E+02  0.95945338248E+03  0.10368222451E+04  0.12699999809E+01 0. -1.
       -4    1    3    3    0  502  0.38643819031E+03  0.71508649199E+02 -0.49189275127E+03  0.62960944521E+03  0.12699999809E+01 0.  1.
</event>
<event>
 5   0  0.2125803E-05  0.1600074E+04  0.7818609E-02  0.8820503E-01
        2   -1    0    0  501    0  0.00000000000E+00  0.00000000000E+00  0.41225517739E+03  0.41225517740E+03  0.25500000920E-02 0. -1.
       -2   -1    0    0    0  501  0.00000000000E+00  0.00000000000E+00 -0.15525794302E+04  0.15525794302E+04  0.25500000920E-02 0.  1.
    10030    2    1    2    0    0  0.00000000000E+00  0.00000000000E+00 -0.11403242528E+04  0.19648346076E+04  0.16000736338E+04 0.  0.
        3    1    3    3  502    0  0.38137032996E+03 -0.65887920505E+03 -0.26813821367E+03  0.80713273212E+03  0.10100000352E+00 0.  1.
       -3    1    3    3    0  502 -0.38137032996E+03  0.65887920505E+03 -0.87218603915E+03  0.11577018755E+04  0.10100000352E+00 0. -1.
</event>
<event>
 5   0  0.2125803E-05  0.1599991E+04  0.7818609E-02  0.8820553E-01
        2   -1    0    0  501    0  0.00000000000E+00  0.00000000000E+00  0.11836278946E+04  0.11836278946E+04  0.25500000920E-02 0. -1.
       -2   -1    0    0    0  501  0.00000000000E+00  0.00000000000E+00 -0.54070449374E+03  0.54070449375E+03  0.25500000920E-02 0.  1.
    10030    2    1    2    0    0  0.00000000000E+00  0.00000000000E+00  0.64292340084E+03  0.17243323883E+04  0.15999911519E+04 0.  0.
        3    1    3    3  502    0  0.10665143352E+03  0.48050317566E+03  0.10011352264E+04  0.11155848608E+04  0.10100000352E+00 0. -1.
       -3    1    3    3    0  502 -0.10665143352E+03 -0.48050317566E+03 -0.35821182551E+03  0.60874752749E+03  0.10100000352E+00 0.  1.
</event>
<event>
 5   0  0.1057506E-05  0.1600039E+04  0.7818609E-02  0.8820524E-01
       -1   -1    0    0    0  501  0.00000000000E+00  0.00000000000E+00  0.11268249004E+04  0.11268249004E+04  0.50400001928E-02 0.  1.
        1   -1    0    0  501    0  0.00000000000E+00  0.00000000000E+00 -0.56799512580E+03  0.56799512582E+03  0.50400001928E-02 0. -1.
    10030    2    1    2    0    0  0.00000000000E+00  0.00000000000E+00  0.55882977461E+03  0.16948200262E+04  0.16000388134E+04 0.  0.
        5    1    3    3  502    0 -0.30916816120E+03 -0.15693281906E+03  0.10430916524E+04  0.10992156963E+04  0.46999998093E+01 0.  1.
       -5    1    3    3    0  502  0.30916816120E+03  0.15693281906E+03 -0.48426187779E+03  0.59560432997E+03  0.46999998093E+01 0. -1.
</event>
<event>
 5   0  0.1994525E-05  0.1602450E+04  0.7818609E-02  0.8819044E-01
        2   -1    0    0  501    0  0.00000000000E+00  0.00000000000E+00  0.18148882496E+04  0.18148882496E+04  0.25500000920E-02 0.  1.
       -2   -1    0    0    0  501  0.00000000000E+00  0.00000000000E+00 -0.35371977864E+03  0.35371977865E+03  0.25500000920E-02 0. -1.
    10030    2    1    2    0    0  0.00000000000E+00  0.00000000000E+00  0.14611684710E+04  0.21686080283E+04  0.16024504609E+04 0.  0.
        5    1    3    3  502    0 -0.26820691251E+03 -0.73053594883E+03  0.47266621826E+03  0.91052356605E+03  0.46999998093E+01 0.  1.
       -5    1    3    3    0  502  0.26820691251E+03  0.73053594883E+03  0.98850225273E+03  0.12580844622E+04  0.46999998093E+01 0. -1.
</event>
<event>
 5   0  0.2125803E-05  0.1598037E+04  0.7818609E-02  0.8821755E-01
        2   -1    0    0  501    0  0.00000000000E+00  0.00000000000E+00  0.54250800398E+03  0.54250800398E+03  0.25500000920E-02 0.  1.
       -2   -1    0    0    0  501  0.00000000000E+00  0.00000000000E+00 -0.11768135492E+04  0.11768135492E+04  0.25500000920E-02 0. -1.
    10030    2    1    2    0    0  0.00000000000E+00  0.00000000000E+00 -0.63430554526E+03  0.17193215532E+04  0.15980372582E+04 0.  0.
        3    1    3    3  502    0  0.21312335383E+03  0.28752115519E+03  0.45144716289E+03  0.57610288119E+03  0.10100000352E+00 0.  1.
       -3    1    3    3    0  502 -0.21312335383E+03 -0.28752115519E+03 -0.10857527081E+04  0.11432186720E+04  0.10100000352E+00 0. -1.
</event>
<event>
 5   0  0.1081831E-05  0.1600192E+04  0.7818609E-02  0.8820430E-01
       -1   -1    0    0    0  501  0.00000000000E+00  0.00000000000E+00  0.30503152724E+03  0.30503152728E+03  0.50400001928E-02 0. -1.
        1   -1    0    0  501    0  0.00000000000E+00  0.00000000000E+00 -0.20986481526E+04  0.20986481526E+04  0.50400001928E-02 0.  1.
    10030    2    1    2    0    0  0.00000000000E+00  0.00000000000E+00 -0.17936166254E+04  0.24036796799E+04  0.16001923024E+04 0.  0.
        3    1    3    3  502    0  0.63587297849E+02 -0.76390200382E+03 -0.55241909305E+03  0.94485791549E+03  0.10100000352E+00 0. -1.
       -3    1    3    3    0  502 -0.63587297849E+02  0.76390200382E+03 -0.12411975323E+04  0.14588217644E+04  0.10100000352E+00 0.  1.
</event>
<event>
 5   0  0.1081831E-05  0.1599987E+04  0.7818609E-02  0.8820556E-01
       -1   -1    0    0    0  501  0.00000000000E+00  0.00000000000E+00  0.55829054347E+03  0.55829054349E+03  0.50400001928E-02 0. -1.
        1   -1    0    0  501    0  0.00000000000E+00  0.00000000000E+00 -0.11463374808E+04  0.11463374808E+04  0.50400001928E-02 0.  1.
    10030    2    1    2    0    0  0.00000000000E+00  0.00000000000E+00 -0.58804693736E+03  0.17046280243E+04  0.15999867190E+04 0.  0.
        3    1    3    3  502    0  0.23355354592E+03  0.54886088358E+03 -0.86198716102E+03  0.10482449162E+04  0.10100000352E+00 0.  1.
       -3    1    3    3    0  502 -0.23355354592E+03 -0.54886088358E+03  0.27394022366E+03  0.65638310816E+03  0.10100000352E+00 0. -1.
</event>
<event>
 5   0  0.1090674E-05  0.1599636E+04  0.7818609E-02  0.8820771E-01
        1   -1    0    0  501    0  0.00000000000E+00  0.00000000000E+00  0.19015237974E+04  0.19015237974E+04  0.50400001928E-02 0.  1.
       -1   -1    0    0    0  501  0.00000000000E+00  0.00000000000E+00 -0.33641918561E+03  0.33641918565E+03  0.50400001928E-02 0. -1.
    10030    2    1    2    0    0  0.00000000000E+00  0.00000000000E+00  0.15651046118E+04  0.22379429830E+04  0.15996363179E+04 0.  0.
        4    1    3    3  502    0  0.26619838542E+02  0.75250781946E+03  0.40525208051E+03  0.85510671604E+03  0.12699999809E+01 0. -1.
       -4    1    3    3    0  502 -0.26619838542E+02 -0.75250781946E+03  0.11598525313E+04  0.13828362670E+04  0.12699999809E+01 0.  1.
</event>
<event>
 5   0  0.2046108E-05  0.1600281E+04  0.7818609E-02  0.8820376E-01
        2   -1    0    0  501    0  0.00000000000E+00  0.00000000000E+00  0.25736670398E+04  0.25736670398E+04  0.25500000920E-02 0. -1.
       -2   -1    0    0    0  501  0.00000000000E+00  0.00000000000E+00 -0.24875965274E+03  0.24875965276E+03  0.25500000920E-02 0.  1.
    10030    2    1    2    0    0  0.00000000000E+00  0.00000000000E+00  0.23249073871E+04  0.28224266926E+04  0.16002806243E+04 0.  0.
        1    1    3    3  502    0 -0.77370410079E+03  0.19347150317E+03  0.10484895221E+04  0.13173380493E+04  0.50400001928E-02 0.  1.
       -1    1    3    3    0  502  0.77370410079E+03 -0.19347150317E+03  0.12764178650E+04  0.15050886433E+04  0.50400001928E-02 0. -1.
</event>
<event>
 5   0  0.7597000E-06  0.1599765E+04  0.7818609E-02  0.8820693E-01
       -4   -1    0    0    0  501  0.00000000000E+00  0.00000000000E+00  0.70437466931E+03  0.70437581422E+03  0.12699999809E+01 0. -1.
        4   -1    0    0  501    0  0.00000000000E+00  0.00000000000E+00 -0.90833781356E+03  0.90833870139E+03  0.12699999809E+01 0.  1.
    10030    2    1    2    0    0  0.00000000000E+00  0.00000000000E+00 -0.20396314425E+03  0.16127145156E+04  0.15997647154E+04 0.  0.
        4    1    3    3  502    0  0.64565622615E+01  0.55041093625E+02 -0.90640015467E+03  0.90809364190E+03  0.12699999809E+01 0.  1.
       -4    1    3    3    0  502 -0.64565622615E+01 -0.55041093625E+02  0.70243701041E+03  0.70462087372E+03  0.12699999809E+01 0. -1.
</event>
<event>
 5   0  0.2147844E-05  0.1594155E+04  0.7818609E-02  0.8824147E-01
        2   -1    0    0  501    0  0.00000000000E+00  0.00000000000E+00  0.21702031765E+04  0.21702031765E+04  0.25500000920E-02 0. -1.
       -2   -1    0    0    0  501  0.00000000000E+00  0.00000000000E+00 -0.29275242376E+03  0.29275242377E+03  0.25500000920E-02 0.  1.
    10030    2    1    2    0    0  0.00000000000E+00  0.00000000000E+00  0.18774507528E+04  0.24629556003E+04  0.15941546223E+04 0.  0.
        2    1    3    3  502    0 -0.21875148364E+03 -0.64430138174E+03  0.15801402675E+04  0.17204126677E+04  0.25500000920E-02 0. -1.
       -2    1    3    3    0  502  0.21875148364E+03  0.64430138174E+03  0.29731048524E+03  0.74254293260E+03  0.25500000920E-02 0.  1.
</event>
<event>
 5   0  0.2125803E-05  0.1600639E+04  0.7818609E-02  0.8820156E-01
       -2   -1    0    0    0  501  0.00000000000E+00  0.00000000000E+00  0.76511433090E+03  0.76511433091E+03  0.25500000920E-02 0.  1.
        2   -1    0    0  501    0  0.00000000000E+00  0.00000000000E+00 -0.83714415970E+03  0.83714415970E+03  0.25500000920E-02 0. -1.
    10030    2    1    2    0    0  0.00000000000E+00  0.00000000000E+00 -0.72029828792E+02  0.16022584906E+04  0.16006386146E+04 0.  0.
        3    1    3    3  502    0 -0.30622057049E+03  0.34443356578E+03  0.61894493493E+03  0.77168540332E+03  0.10100000352E+00 0.  1.
       -3    1    3    3    0  502  0.30622057049E+03 -0.34443356578E+03 -0.69097476372E+03  0.83057308729E+03  0.10100000352E+00 0. -1.
</event>
<event>
 5   0  0.1126485E-05  0.1605709E+04  0.7818609E-02  0.8817049E-01
        1   -1    0    0  501    0  0.00000000000E+00  0.00000000000E+00  0.14449245868E+04  0.14449245868E+04  0.50400001928E-02 0. -1.
       -1   -1    0    0    0  501  0.00000000000E+00  0.00000000000E+00 -0.44609609232E+03  0.44609609235E+03  0.50400001928E-02 0.  1.
    10030    2    1    2    0    0  0.00000000000E+00  0.00000000000E+00  0.99882849449E+03  0.18910206792E+04  0.16057088303E+04 0.  0.
        2    1    3    3  502    0 -0.16420102594E+03  0.46650895260E+03 -0.24540355671E+03  0.55210097394E+03  0.25500000920E-02 0.  1.
       -2    1    3    3    0  502  0.16420102594E+03 -0.46650895260E+03  0.12442320512E+04  0.13389197052E+04  0.25500000920E-02 0. -1.
</event>
<event>
 5   0  0.1060251E-05  0.1602330E+04  0.7818609E-02  0.8819118E-01
        1   -1    0    0  501    0  0.00000000000E+00  0.00000000000E+00  0.21256920124E+04  0.21256920124E+04  0.50400001928E-02 0. -1.
       -1   -1    0    0    0  501  0.00000000000E+00  0.00000000000E+00 -0.30195586843E+03  0.30195586848E+03  0.50400001928E-02 0.  1.
    10030    2    1    2    0    0  0.00000000000E+00  0.00000000000E+00  0.18237361440E+04  0.24276478809E+04  0.16023297759E+04 0.  0.
        1    1    3    3  502    0  0.61306856215E+03  0.11729954041E+01  0.16932860106E+04  0.18008531177E+04  0.50400001928E-02 0. -1.
       -1    1    3    3    0  502 -0.61306856215E+03 -0.11729954041E+01  0.13045013335E+03  0.62679476316E+03  0.50400001928E-02 0.  1.
</event>
<event>
 5   0  0.2125803E-05  0.1600618E+04  0.7818609E-02  0.8820169E-01
        2   -1    0    0  501    0  0.00000000000E+00  0.00000000000E+00  0.88233879551E+03  0.88233879552E+03  0.25500000920E-02 0.  1.
       -2   -1    0    0    0  501  0.00000000000E+00  0.00000000000E+00 -0.72590528312E+03  0.72590528312E+03  0.25500000920E-02 0. -1.
    10030    2    1    2    0    0  0.00000000000E+00  0.00000000000E+00  0.15643351239E+03  0.16082440786E+04  0.16006178722E+04 0.  0.
        3    1    3    3  502    0  0.11775471206E+03 -0.21820864574E+03 -0.68633788791E+03  0.72975399408E+03  0.10100000352E+00 0. -1.
       -3    1    3    3    0  502 -0.11775471206E+03  0.21820864574E+03  0.84277140031E+03  0.87849008456E+03  0.10100000352E+00 0.  1.
</event>
<event>
 5   0  0.1994525E-05  0.1600136E+04  0.7818609E-02  0.8820465E-01
       -2   -1    0    0    0  501  0.00000000000E+00  0.00000000000E+00  0.56908523660E+03  0.56908523660E+03  0.25500000920E-02 0. -1.
        2   -1    0    0  501    0  0.00000000000E+00  0.00000000000E+00 -0.11248027789E+04  0.11248027789E+04  0.25500000920E-02 0.  1.
    10030    2    1    2    0    0  0.00000000000E+00  0.00000000000E+00 -0.55571754227E+03  0.16938880155E+04  0.16001358137E+04 0.  0.
        5    1    3    3  502    0  0.40544611224E+03 -0.55137893902E+03  0.16076212981E+03  0.70304469040E+03  0.46999998093E+01 0. -1.
       -5    1    3    3    0  502 -0.40544611224E+03  0.55137893902E+03 -0.71647967208E+03  0.99084332507E+03  0.46999998093E+01 0.  1.
</event>
<event>
 5   0  0.1081831E-05  0.1600072E+04  0.7818609E-02  0.8820504E-01
        1   -1    0    0  501    0  0.00000000000E+00  0.00000000000E+00  0.59607615517E+03  0.59607615519E+03  0.50400001928E-02 0.  1.
       -1   -1    0    0    0  501  0.00000000000E+00  0.00000000000E+00 -0.10737850479E+04  0.10737850479E+04  0.50400001928E-02 0. -1.
    10030    2    1    2    0    0  0.00000000000E+00  0.00000000000E+00 -0.47770889271E+03  0.16698612031E+04  0.16000720769E+04 0.  0.
        3    1    3    3  502    0 -0.39013914742E+03  0.52438938777E+03  0.24264170869E+03  0.69718562331E+03  0.10100000352E+00 0.  1.
       -3    1    3    3    0  502  0.39013914742E+03 -0.52438938777E+03 -0.72035060140E+03  0.97267557977E+03  0.10100000352E+00 0. -1.
</event>
<event>
 5   0  0.1090674E-05  0.1600052E+04  0.7818609E-02  0.8820516E-01
        1   -1    0    0  501    0  0.00000000000E+00  0.00000000000E+00  0.70349540718E+03  0.70349540719E+03  0.50400001928E-02 0.  1.
       -1   -1    0    0    0  501  0.00000000000E+00  0.00000000000E+00 -0.90980257220E+03  0.90980257221E+03  0.50400001928E-02 0. -1.
    10030    2    1    2    0    0  0.00000000000E+00  0.00000000000E+00 -0.20630716503E+03  0.16132979794E+04  0.16000524129E+04 0.  0.
        4    1    3    3  502    0  0.96751488041E+02 -0.14771555548E+03  0.68360040642E+03  0.70603956286E+03  0.12699999809E+01 0.  1.
       -4    1    3    3    0  502 -0.96751488041E+02  0.14771555548E+03 -0.88990757145E+03  0.90725841654E+03  0.12699999809E+01 0. -1.
</event>
<event>
 5   0  0.1126485E-05  0.1599931E+04  0.7818609E-02  0.8820590E-01
       -1   -1    0    0    0  501  0.00000000000E+00  0.00000000000E+00  0.76744182661E+03  0.76744182662E+03  0.50400001928E-02 0.  1.
        1   -1    0    0  501    0  0.00000000000E+00  0.00000000000E+00 -0.83386746253E+03  0.83386746255E+03  0.50400001928E-02 0. -1.
    10030    2    1    2    0    0  0.00000000000E+00  0.00000000000E+00 -0.66425635928E+02  0.16013092892E+04  0.15999309593E+04 0.  0.
        2    1    3    3  502    0 -0.76400919256E+02  0.93991581894E+02  0.75821061626E+03  0.76782475640E+03  0.25500000920E-02 0.  1.
       -2    1    3    3    0  502  0.76400919256E+02 -0.93991581894E+02 -0.82463625219E+03  0.83348453277E+03  0.25500000920E-02 0. -1.
</event>
<event>
 5   0  0.1990948E-05  0.1600666E+04  0.7818609E-02  0.8820139E-01
        2   -1    0    0  501    0  0.00000000000E+00  0.00000000000E+00  0.23567769440E+04  0.23567769440E+04  0.25500000920E-02 0.  1.
       -2   -1    0    0    0  501  0.00000000000E+00  0.00000000000E+00 -0.27178344376E+03  0.27178344378E+03  0.25500000920E-02 0. -1.
    10030    2    1    2    0    0  0.00000000000E+00  0.00000000000E+00  0.20849935002E+04  0.26285603878E+04  0.16006660539E+04 0.  0.
        4    1    3    3  502    0 -0.76326649433E+03  0.80639618891E+02  0.14149930377E+04  0.16097469985E+04  0.12699999809E+01 0.  1.
       -4    1    3    3    0  502  0.76326649433E+03 -0.80639618891E+02  0.67000046255E+03  0.10188133893E+04  0.12699999809E+01 0. -1.
</event>
<event>
 5   0  0.1057506E-05  0.1599595E+04  0.7818609E-02  0.8820797E-01
        1   -1    0    0  501    0  0.00000000000E+00  0.00000000000E+00  0.34183476585E+03  0.34183476589E+03  0.50400001928E-02 0. -1.
       -1   -1    0    0    0  501  0.00000000000E+00  0.00000000000E+00 -0.18713019286E+04  0.18713019286E+04  0.50400001928E-02 0.  1.
    10030    2    1    2    0    0  0.00000000000E+00  0.00000000000E+00 -0.15294671627E+04  0.22131366945E+04  0.15995950195E+04 0.  0.
        5    1    3    3  502    0 -0.47396280661E+03 -0.64764967136E+02 -0.16515287333E+04  0.17194198120E+04  0.46999998093E+01 0.  1.
       -5    1    3    3    0  502  0.47396280661E+03  0.64764967136E+02  0.12206157058E+03  0.49371688246E+03  0.46999998093E+01 0. -1.
</event>
<event>
 5   0  0.1994525E-05  0.1602693E+04  0.7818609E-02  0.8818895E-01
        2   -1    0    0  501    0  0.00000000000E+00  0.00000000000E+00  0.19957319052E+04  0.19957319052E+04  0.25500000920E-02 0.  1.
       -2   -1    0    0    0  501  0.00000000000E+00  0.00000000000E+00 -0.32176482215E+03  0.32176482216E+03  0.25500000920E-02 0. -1.
    10030    2    1    2    0    0  0.00000000000E+00  0.00000000000E+00  0.16739670831E+04  0.23174967274E+04  0.16026931354E+04 0.  0.
        5    1    3    3  502    0  0.30851669727E+03  0.18715169883E+03 -0.19761607422E+03  0.41143956258E+03  0.46999998093E+01 0. -1.
       -5    1    3    3    0  502 -0.30851669727E+03 -0.18715169883E+03  0.18715831573E+04  0.19060571648E+04  0.46999998093E+01 0.  1.
</event>
<event>
 5   0  0.1126485E-05  0.1600473E+04  0.7818609E-02  0.8820257E-01
       -1   -1    0    0    0  501  0.00000000000E+00  0.00000000000E+00  0.67404489643E+03  0.67404489645E+03  0.50400001928E-02 0. -1.
        1   -1    0    0  501    0  0.00000000000E+00  0.00000000000E+00 -0.95005334833E+03  0.95005334834E+03  0.50400001928E-02 0.  1.
    10030    2    1    2    0    0  0.00000000000E+00  0.00000000000E+00 -0.27600845189E+03  0.16240982448E+04  0.16004731935E+04 0.  0.
        2    1    3    3  502    0  0.46509426464E+02  0.25768070005E+03 -0.90535175255E+03  0.94245650604E+03  0.25500000920E-02 0.  1.
       -2    1    3    3    0  502 -0.46509426464E+02 -0.25768070005E+03  0.62934330065E+03  0.68164173875E+03  0.25500000920E-02 0. -1.
</event>
<event>
 5   0  0.2046108E-05  0.1599335E+04  0.7818609E-02  0.8820957E-01
       -2   -1    0    0    0  501  0.00000000000E+00  0.00000000000E+00  0.42276750915E+03  0.42276750915E+03  0.25500000920E-02 0.  1.
        2   -1    0    0  501    0  0.00000000000E+00  0.00000000000E+00 -0.15125760203E+04  0.15125760203E+04  0.25500000920E-02 0. -1.
    10030    2    1    2    0    0  0.00000000000E+00  0.00000000000E+00 -0.10898085112E+04  0.19353435295E+04  0.15993348574E+04 0.  0.
        1    1    3    3  502    0 -0.70187125011E+03  0.32562320241E+02 -0.10069385887E+04  0.12278472535E+04  0.50400001928E-02 0. -1.
       -1    1    3    3    0  502  0.70187125011E+03 -0.32562320241E+02 -0.82869922428E+02  0.70749627596E+03  0.50400001928E-02 0.  1.
</event>
<event>
 5   0  0.1057506E-05  0.1602829E+04  0.7818609E-02  0.8818812E-01
        1   -1    0    0  501    0  0.00000000000E+00  0.00000000000E+00  0.19861445208E+04  0.19861445208E+04  0.50400001928E-02 0.  1.
       -1   -1    0    0    0  501  0.00000000000E+00  0.00000000000E+00 -0.32337290489E+03  0.32337290493E+03  0.50400001928E-02 0. -1.
    10030    2    1    2    0    0  0.00000000000E+00  0.00000000000E+00  0.16627716160E+04  0.23095174258E+04  0.16028291528E+04 0.  0.
        5    1    3    3  502    0 -0.22959441310E+03 -0.21940351565E+03  0.18915907435E+04  0.19180691146E+04  0.46999998093E+01 0.  1.
       -5    1    3    3    0  502  0.22959441310E+03  0.21940351565E+03 -0.22881912758E+03  0.39144831121E+03  0.46999998093E+01 0. -1.
</event>
<event>
 5   0  0.1126485E-05  0.1602118E+04  0.7818609E-02  0.8819248E-01
        1   -1    0    0  501    0  0.00000000000E+00  0.00000000000E+00  0.77622768137E+03  0.77622768139E+03  0.50400001928E-02 0. -1.
       -1   -1    0    0    0  501  0.00000000000E+00  0.00000000000E+00 -0.82668458690E+03  0.82668458691E+03  0.50400001928E-02 0.  1.
    10030    2    1    2    0    0  0.00000000000E+00  0.00000000000E+00 -0.50456905531E+02  0.16029122683E+04  0.16021179234E+04 0.  0.
        2    1    3    3  502    0 -0.61785708269E+03  0.26405687824E+03  0.41113232116E+03  0.78772025179E+03  0.25500000920E-02 0. -1.
       -2    1    3    3    0  502  0.61785708269E+03 -0.26405687824E+03 -0.46158922669E+03  0.81519201651E+03  0.25500000920E-02 0.  1.
</event>
<event>
 5   0  0.2147844E-05  0.1599033E+04  0.7818609E-02  0.8821143E-01
       -2   -1    0    0    0  501  0.00000000000E+00  0.00000000000E+00  0.56673110138E+03  0.56673110139E+03  0.25500000920E-02 0. -1.
        2   -1    0    0  501    0  0.00000000000E+00  0.00000000000E+00 -0.11279180547E+04  0.11279180547E+04  0.25500000920E-02 0.  1.
    10030    2    1    2    0    0  0.00000000000E+00  0.00000000000E+00 -0.56118695332E+03  0.16946491561E+04  0.15990325093E+04 0.  0.
        2    1    3    3  502    0 -0.68184361828E+02 -0.79653598465E+03 -0.29158471552E+03  0.85096435199E+03  0.25500000920E-02 0.  1.
       -2    1    3    3    0  502  0.68184361828E+02  0.79653598465E+03 -0.26960223781E+03  0.84368480410E+03  0.25500000920E-02 0. -1.
</event>
<event>
 5   0  0.2147844E-05  0.1600267E+04  0.7818609E-02  0.8820384E-01
       -2   -1    0    0    0  501  0.00000000000E+00  0.00000000000E+00  0.28090462812E+03  0.28090462814E+03  0.25500000920E-02 0. -1.
        2   -1    0    0  501    0  0.00000000000E+00  0.00000000000E+00 -0.22791143381E+04  0.22791143381E+04  0.25500000920E-02 0.  1.
    10030    2    1    2    0    0  0.00000000000E+00  0.00000000000E+00 -0.19982097100E+04  0.25600189662E+04  0.16002671847E+04 0.  0.
        2    1    3    3  502    0 -0.77426712992E+03  0.18234762852E+03 -0.86080769264E+03  0.11720623404E+04  0.25500000920E-02 0. -1.
       -2    1    3    3    0  502  0.77426712992E+03 -0.18234762852E+03 -0.11374020173E+04  0.13879566258E+04  0.25500000920E-02 0.  1.
</event>
<event>
 5   0  0.1990948E-05  0.1600264E+04  0.7818609E-02  0.8820386E-01
        2   -1    0    0  501    0  0.00000000000E+00  0.00000000000E+00  0.19671771588E+04  0.19671771588E+04  0.25500000920E-02 0. -1.
       -2   -1    0    0    0  501  0.00000000000E+00  0.00000000000E+00 -0.32544664505E+03  0.32544664506E+03  0.25500000920E-02 0.  1.
    10030    2    1    2    0    0  0.00000000000E+00  0.00000000000E+00  0.16417305137E+04  0.22926238038E+04  0.16002639864E+04 0.  0.
        4    1    3    3  502    0  0.20353678185E+03 -0.61678937294E+03  0.14903196369E+04  0.16257031049E+04  0.12699999809E+01 0. -1.
       -4    1    3    3    0  502 -0.20353678185E+03  0.61678937294E+03  0.15141087678E+03  0.66692069892E+03  0.12699999809E+01 0.  1.
</event>
<event>
 5   0  0.2147844E-05  0.1600424E+04  0.7818609E-02  0.8820288E-01
       -2   -1    0    0    0  501  0.00000000000E+00  0.00000000000E+00  0.43701364710E+03  0.43701364710E+03  0.25500000920E-02 0. -1.
        2   -1    0    0  501    0  0.00000000000E+00  0.00000000000E+00 -0.14652612038E+04  0.14652612038E+04  0.25500000920E-02 0.  1.
    10030    2    1    2    0    0  0.00000000000E+00  0.00000000000E+00 -0.10282475567E+04  0.19022748509E+04  0.16004238721E+04 0.  0.
        2    1    3    3  502    0  0.22495703411E+03  0.67126792560E+03 -0.70767275967E+02  0.71148738744E+03  0.25500000920E-02 0. -1.
       -2    1    3    3    0  502 -0.22495703411E+03 -0.67126792560E+03 -0.95748028073E+03  0.11907874635E+04  0.25500000920E-02 0.  1.
</event>
<event>
 5   0  0.2147844E-05  0.1597327E+04  0.7818609E-02  0.8822192E-01
       -2   -1    0    0    0  501  0.00000000000E+00  0.00000000000E+00  0.58119216743E+03  0.58119216743E+03  0.25500000920E-02 0.  1.
        2   -1    0    0  501    0  0.00000000000E+00  0.00000000000E+00 -0.10975080839E+04  0.10975080839E+04  0.25500000920E-02 0. -1.
    10030    2    1    2    0    0  0.00000000000E+00  0.00000000000E+00 -0.51631591650E+03  0.16787002514E+04  0.15973266442E+04 0.  0.
        2    1    3    3  502    0 -0.61359851810E+03  0.62610081104E+02 -0.79139140308E+03  0.10033561265E+04  0.25500000920E-02 0. -1.
       -2    1    3    3    0  502  0.61359851810E+03 -0.62610081104E+02  0.27507548659E+03  0.67534412487E+03  0.25500000920E-02 0.  1.
</event>
<event>
 5   0  0.2125803E-05  0.1600545E+04  0.7818609E-02  0.8820213E-01
       -2   -1    0    0    0  501  0.00000000000E+00  0.00000000000E+00  0.45316526946E+03  0.45316526947E+03  0.25500000920E-02 0.  1.
        2   -1    0    0  501    0  0.00000000000E+00  0.00000000000E+00 -0.14132506588E+04  0.14132506588E+04  0.25500000920E-02 0. -1.
    10030    2    1    2    0    0  0.00000000000E+00  0.00000000000E+00 -0.96008538934E+03  0.18664159283E+04  0.16005450517E+04 0.  0.
        3    1    3    3  502    0 -0.72622023784E+03  0.28253673421E+03 -0.69256098675E+03  0.10425274915E+04  0.10100000352E+00 0. -1.
       -3    1    3    3    0  502  0.72622023784E+03 -0.28253673421E+03 -0.26752440259E+03  0.82388843675E+03  0.10100000352E+00 0.  1.
</event>
<event>
 5   0  0.1090674E-05  0.1603326E+04  0.7818609E-02  0.8818507E-01
       -1   -1    0    0    0  501  0.00000000000E+00  0.00000000000E+00  0.62964755329E+03  0.62964755331E+03  0.50400001928E-02 0. -1.
        1   -1    0    0  501    0  0.00000000000E+00  0.00000000000E+00 -0.10206720290E+04  0.10206720290E+04  0.50400001928E-02 0.  1.
    10030    2    1    2    0    0  0.00000000000E+00  0.00000000000E+00 -0.39102447572E+03  0.16503195823E+04  0.16033261001E+04 0.  0.
        4    1    3    3  502    0 -0.12608368246E+03  0.77886246231E+03 -0.34158072960E+03  0.85976906080E+03  0.12699999809E+01 0.  1.
       -4    1    3    3    0  502  0.12608368246E+03 -0.77886246231E+03 -0.49443746120E+02  0.79055052154E+03  0.12699999809E+01 0. -1.
</event>
<event>
 5   0  0.1060251E-05  0.1600576E+04  0.7818609E-02  0.8820194E-01
       -1   -1    0    0    0  501  0.00000000000E+00  0.00000000000E+00  0.10148213825E+04  0.10148213825E+04  0.50400001928E-02 0. -1.
        1   -1    0    0  501    0  0.00000000000E+00  0.00000000000E+00 -0.63110720315E+03  0.63110720317E+03  0.50400001928E-02 0.  1.
    10030    2    1    2    0    0  0.00000000000E+00  0.00000000000E+00  0.38371417933E+03  0.16459285857E+04  0.16005762518E+04 0.  0.
        1    1    3    3  502    0 -0.49397147478E+02  0.47497864756E+03  0.85225018657E+03  0.97692127336E+03  0.50400001928E-02 0. -1.
       -1    1    3    3    0  502  0.49397147478E+02 -0.47497864756E+03 -0.46853600723E+03  0.66900731230E+03  0.50400001928E-02 0.  1.
</event>
<event>
 5   0  0.1081831E-05  0.1599997E+04  0.7818609E-02  0.8820550E-01
        1   -1    0    0  501    0  0.00000000000E+00  0.00000000000E+00  0.16085584560E+04  0.16085584560E+04  0.50400001928E-02 0. -1.
       -1   -1    0    0    0  501  0.00000000000E+00  0.00000000000E+00 -0.39787029986E+03  0.39787029990E+03  0.50400001928E-02 0.  1.
    10030    2    1    2    0    0  0.00000000000E+00  0.00000000000E+00  0.12106881562E+04  0.20064287559E+04  0.15999970441E+04 0.  0.
        3    1    3    3  502    0 -0.53326952045E+03  0.58042718165E+03  0.43374236159E+03  0.89966912867E+03  0.10100000352E+00 0.  1.
       -3    1    3    3    0  502  0.53326952045E+03 -0.58042718165E+03  0.77694579458E+03  0.11067596273E+04  0.10100000352E+00 0. -1.
</event>
<event>
 5   0  0.1126485E-05  0.1599057E+04  0.7818609E-02  0.8821127E-01
        1   -1    0    0  501    0  0.00000000000E+00  0.00000000000E+00  0.94961526086E+03  0.94961526087E+03  0.50400001928E-02 0.  1.
       -1   -1    0    0    0  501  0.00000000000E+00  0.00000000000E+00 -0.67316315583E+03  0.67316315585E+03  0.50400001928E-02 0. -1.
    10030    2    1    2    0    0  0.00000000000E+00  0.00000000000E+00  0.27645210503E+03  0.16227784167E+04  0.15990572296E+04 0.  0.
        2    1    3    3  502    0  0.22222644595E+03 -0.26754268909E+03  0.86882394244E+03  0.93585187222E+03  0.25500000920E-02 0.  1.
       -2    1    3    3    0  502 -0.22222644595E+03  0.26754268909E+03 -0.59237183742E+03  0.68692654450E+03  0.25500000920E-02 0. -1.
</event>
<event>
 5   0  0.1081831E-05  0.1599715E+04  0.7818609E-02  0.8820723E-01
       -1   -1    0    0    0  501  0.00000000000E+00  0.00000000000E+00  0.47150355819E+03  0.47150355821E+03  0.50400001928E-02 0. -1.
        1   -1    0    0  501    0  0.00000000000E+00  0.00000000000E+00 -0.13568762123E+04  0.13568762123E+04  0.50400001928E-02 0.  1.
    10030    2    1    2    0    0  0.00000000000E+00  0.00000000000E+00 -0.88537265408E+03  0.18283797705E+04  0.15997149273E+04 0.  0.
        3    1    3    3  502    0 -0.39571831988E+03  0.23069941004E+03  0.30675250743E+03  0.55128242988E+03  0.10100000352E+00 0. -1.
       -3    1    3    3    0  502  0.39571831988E+03 -0.23069941004E+03 -0.11921251615E+04  0.12770973406E+04  0.10100000352E+00 0.  1.
</event>
<event>
 5   0  0.1990948E-05  0.1599084E+04  0.7818609E-02  0.8821111E-01
       -2   -1    0    0    0  501  0.00000000000E+00  0.00000000000E+00  0.62194800904E+03  0.62194800904E+03  0.25500000920E-02 0.  1.
        2   -1    0    0  501    0  0.00000000000E+00  0.00000000000E+00 -0.10278475807E+04  0.10278475807E+04  0.25500000920E-02 0. -1.
    10030    2    1    2    0    0  0.00000000000E+00  0.00000000000E+00 -0.40589957164E+03  0.16497955897E+04  0.15990844335E+04 0.  0.
        4    1    3    3  502    0  0.56220862240E+02  0.31634402448E+03 -0.95830986177E+03  0.10107392004E+04  0.12699999809E+01 0. -1.
       -4    1    3    3    0  502 -0.56220862240E+02 -0.31634402448E+03  0.55241029013E+03  0.63905638931E+03  0.12699999809E+01 0.  1.
</event>
<event>
 5   0  0.1990948E-05  0.1600073E+04  0.7818609E-02  0.8820503E-01
        2   -1    0    0  501    0  0.00000000000E+00  0.00000000000E+00  0.15005862148E+04  0.15005862148E+04  0.25500000920E-02 0.  1.
       -2   -1    0    0    0  501  0.00000000000E+00  0.00000000000E+00 -0.42653866698E+03  0.42653866699E+03  0.25500000920E-02 0. -1.
    10030    2    1    2    0    0  0.00000000000E+00  0.00000000000E+00  0.10740475478E+04  0.19271248818E+04  0.16000725530E+04 0.  0.
        4    1    3    3  502    0  0.26696639629E+02 -0.31124298853E+03  0.14240953331E+04  0.14579554311E+04  0.12699999809E+01 0.  1.
       -4    1    3    3    0  502 -0.26696639629E+02  0.31124298853E+03 -0.35004778534E+03  0.46916945062E+03  0.12699999809E+01 0. -1.
</event>
<event>
 5   0  0.2147844E-05  0.1599025E+04  0.7818609E-02  0.8821147E-01
        2   -1    0    0  501    0  0.00000000000E+00  0.00000000000E+00  0.97543007427E+03  0.97543007427E+03  0.25500000920E-02 0.  1.
       -2   -1    0    0    0  501  0.00000000000E+00  0.00000000000E+00 -0.65532112055E+03  0.65532112055E+03  0.25500000920E-02 0. -1.
    10030    2    1    2    0    0  0.00000000000E+00  0.00000000000E+00  0.32010895372E+03  0.16307511948E+04  0.15990246143E+04 0.  0.
        2    1    3    3  502    0  0.18351828862E+03 -0.17776418787E+02  0.95345224363E+03  0.97111592728E+03  0.25500000920E-02 0.  1.
       -2    1    3    3    0  502 -0.18351828862E+03  0.17776418787E+02 -0.63334328991E+03  0.65963526755E+03  0.25500000920E-02 0. -1.
</event>
<event>
 5   0  0.7597000E-06  0.1600244E+04  0.7818609E-02  0.8820398E-01
       -3   -1    0    0    0  501  0.00000000000E+00  0.00000000000E+00  0.31936630226E+03  0.31936631824E+03  0.10100000352E+00 0.  1.
        3   -1    0    0  501    0  0.00000000000E+00  0.00000000000E+00 -0.20045789495E+04  0.20045789520E+04  0.10100000352E+00 0. -1.
    10030    2    1    2    0    0  0.00000000000E+00  0.00000000000E+00 -0.16852126472E+04  0.23239452703E+04  0.16002437167E+04 0.  0.
        2    1    3    3  502    0  0.73275957671E+02  0.58032117056E+03 -0.16354480270E+04  0.17369030704E+04  0.25500000920E-02 0. -1.
       -2    1    3    3    0  502 -0.73275957671E+02 -0.58032117056E+03 -0.49764620206E+02  0.58704219984E+03  0.25500000920E-02 0.  1.
</event>
<event>
 5   0  0.1090674E-05  0.1599930E+04  0.7818609E-02  0.8820591E-01
       -1   -1    0    0    0  501  0.00000000000E+00  0.00000000000E+00  0.51907231790E+03  0.51907231792E+03  0.50400001928E-02 0.  1.
        1   -1    0    0  501    0  0.00000000000E+00  0.00000000000E+00 -0.12328609531E+04  0.12328609531E+04  0.50400001928E-02 0. -1.
    10030    2    1    2    0    0  0.00000000000E+00  0.00000000000E+00 -0.71378863520E+03  0.17519332710E+04  0.15999299892E+04 0.  0.
        4    1    3    3  502    0 -0.37078037772E+03  0.70799629356E+03 -0.39491389676E+03  0.89145691929E+03  0.12699999809E+01 0. -1.
       -4    1    3    3    0  502  0.37078037772E+03 -0.70799629356E+03 -0.31887473844E+03  0.86047635174E+03  0.12699999809E+01 0.  1.
</event>
<event>
 5   0  0.1081831E-05  0.1599849E+04  0.7818609E-02  0.8820641E-01
        1   -1    0    0  501    0  0.00000000000E+00  0.00000000000E+00  0.12941323238E+04  0.12941323239E+04  0.50400001928E-02 0.  1.
       -1   -1    0    0    0  501  0.00000000000E+00  0.00000000000E+00 -0.49444630091E+03  0.49444630093E+03  0.50400001928E-02 0. -1.
    10030    2    1    2    0    0  0.00000000000E+00  0.00000000000E+00  0.79968602294E+03  0.17885786248E+04  0.15998486684E+04 0.  0.
        3    1    3    3  502    0  0.10953745740E+03  0.71391554588E+03  0.15475048147E+02  0.72243570547E+03  0.10100000352E+00 0. -1.
       -3    1    3    3    0  502 -0.10953745740E+03 -0.71391554588E+03  0.78421097480E+03  0.10661429193E+04  0.10100000352E+00 0.  1.
</event>
<event>
 5   0  0.1090674E-05  0.1599751E+04  0.7818609E-02  0.8820701E-01
       -1   -1    0    0    0  501  0.00000000000E+00  0.00000000000E+00  0.41973306448E+03  0.41973306451E+03  0.50400001928E-02 0.  1.
        1   -1    0    0  501    0  0.00000000000E+00  0.00000000000E+00 -0.15243033897E+04  0.15243033898E+04  0.50400001928E-02 0. -1.
    10030    2    1    2    0    0  0.00000000000E+00  0.00000000000E+00 -0.11045703253E+04  0.19440364543E+04  0.15997506468E+04 0.  0.
        4    1    3    3  502    0  0.13167334880E+03  0.50557256437E+03  0.18375374240E+03  0.55381272951E+03  0.12699999809E+01 0.  1.
       -4    1    3    3    0  502 -0.13167334880E+03 -0.50557256437E+03 -0.12883240677E+04  0.13902237247E+04  0.12699999809E+01 0. -1.
</event>
<event>
 5   0  0.1090674E-05  0.1601329E+04  0.7818609E-02  0.8819732E-01
        1   -1    0    0  501    0  0.00000000000E+00  0.00000000000E+00  0.82769398920E+03  0.82769398922E+03  0.50400001928E-02 0.  1.
       -1   -1    0    0    0  501  0.00000000000E+00  0.00000000000E+00 -0.77451795351E+03  0.77451795353E+03  0.50400001928E-02 0. -1.
    10030    2    1    2    0    0  0.00000000000E+00  0.00000000000E+00  0.53176035692E+02  0.16022119427E+04  0.16013292662E+04 0.  0.
        4    1    3    3  502    0  0.72937603747E+03 -0.20556291904E+03  0.28521981232E+03  0.80968973808E+03  0.12699999809E+01 0.  1.
       -4    1    3    3    0  502 -0.72937603747E+03  0.20556291904E+03 -0.23204377663E+03  0.79252220467E+03  0.12699999809E+01 0. -1.
</event>
<event>
 5   0  0.2046108E-05  0.1600735E+04  0.7818609E-02  0.8820097E-01
        2   -1    0    0  501    0  0.00000000000E+00  0.00000000000E+00  0.10330920766E+04  0.10330920766E+04  0.25500000920E-02 0.  1.
       -2   -1    0    0    0  501  0.00000000000E+00  0.00000000000E+00 -0.62006875045E+03  0.62006875046E+03  0.25500000920E-02 0. -1.
    10030    2    1    2    0    0  0.00000000000E+00  0.00000000000E+00  0.41302332612E+03  0.16531608270E+04  0.16007349725E+04 0.  0.
        1    1    3    3  502    0  0.30352544539E+03 -0.72319073571E+03  0.41738247824E+02  0.78541366017E+03  0.50400001928E-02 0. -1.
       -1    1    3    3    0  502 -0.30352544539E+03  0.72319073571E+03  0.37128507830E+03  0.86774716687E+03  0.50400001928E-02 0.  1.
</event>
<event>
 5   0  0.2147844E-05  0.1600732E+04  0.7818609E-02  0.8820098E-01
        2   -1    0    0  501    0  0.00000000000E+00  0.00000000000E+00  0.12062759832E+04  0.12062759832E+04  0.25500000920E-02 0. -1.
       -2   -1    0    0    0  501  0.00000000000E+00  0.00000000000E+00 -0.53104422600E+03  0.53104422600E+03  0.25500000920E-02 0.  1.
    10030    2    1    2    0    0  0.00000000000E+00  0.00000000000E+00  0.67523175717E+03  0.17373202092E+04  0.16007322022E+04 0.  0.
        2    1    3    3  502    0 -0.58461622064E+03 -0.55850531165E+02 -0.25255784194E+03  0.63928152703E+03  0.25500000920E-02 0.  1.
       -2    1    3    3    0  502  0.58461622064E+03  0.55850531165E+02  0.92778959912E+03  0.10980386821E+04  0.25500000920E-02 0. -1.
</event>
<event>
 5   0  0.2125803E-05  0.1600472E+04  0.7818609E-02  0.8820258E-01
        2   -1    0    0  501    0  0.00000000000E+00  0.00000000000E+00  0.12712999292E+04  0.12712999292E+04  0.25500000920E-02 0. -1.
       -2   -1    0    0    0  501  0.00000000000E+00  0.00000000000E+00 -0.50371887719E+03  0.50371887719E+03  0.25500000920E-02 0.  1.
    10030    2    1    2    0    0  0.00000000000E+00  0.00000000000E+00  0.76758105202E+03  0.17750188064E+04  0.16004721465E+04 0.  0.
        3    1    3    3  502    0 -0.23897801956E+03  0.60985432939E+03 -0.12606929849E+03  0.66702794179E+03  0.10100000352E+00 0.  1.
       -3    1    3    3    0  502  0.23897801956E+03 -0.60985432939E+03  0.89365035050E+03  0.11079908646E+04  0.10100000352E+00 0. -1.
</event>
<event>
 5   0  0.1994525E-05  0.1599575E+04  0.7818609E-02  0.8820809E-01
       -2   -1    0    0    0  501  0.00000000000E+00  0.00000000000E+00  0.50716036712E+03  0.50716036712E+03  0.25500000920E-02 0.  1.
        2   -1    0    0  501    0  0.00000000000E+00  0.00000000000E+00 -0.12612572954E+04  0.12612572954E+04  0.25500000920E-02 0. -1.
    10030    2    1    2    0    0  0.00000000000E+00  0.00000000000E+00 -0.75409692829E+03  0.17684176625E+04  0.15995745847E+04 0.  0.
        5    1    3    3  502    0 -0.60815559777E+03  0.25031840683E+03 -0.88019756485E+03  0.10987640234E+04  0.46999998093E+01 0. -1.
       -5    1    3    3    0  502  0.60815559777E+03 -0.25031840683E+03  0.12610063657E+03  0.66965363916E+03  0.46999998093E+01 0.  1.
</event>
<event>
 5   0  0.1057506E-05  0.1600186E+04  0.7818609E-02  0.8820434E-01
       -1   -1    0    0    0  501  0.00000000000E+00  0.00000000000E+00  0.98705128937E+03  0.98705128938E+03  0.50400001928E-02 0. -1.
        1   -1    0    0  501    0  0.00000000000E+00  0.00000000000E+00 -0.64854664500E+03  0.64854664502E+03  0.50400001928E-02 0.  1.
    10030    2    1    2    0    0  0.00000000000E+00  0.00000000000E+00  0.33850464437E+03  0.16355979344E+04  0.16001859919E+04 0.  0.
        5    1    3    3  502    0  0.22537196224E+03 -0.21957971205E+03 -0.58263447193E+03  0.66218788058E+03  0.46999998093E+01 0.  1.
       -5    1    3    3    0  502 -0.22537196224E+03  0.21957971205E+03  0.92113911630E+03  0.97341005382E+03  0.46999998093E+01 0. -1.
</event>
<event>
 5   0  0.1126485E-05  0.1600061E+04  0.7818609E-02  0.8820510E-01
       -1   -1    0    0    0  501  0.00000000000E+00  0.00000000000E+00  0.30113387960E+03  0.30113387964E+03  0.50400001928E-02 0. -1.
        1   -1    0    0  501    0  0.00000000000E+00  0.00000000000E+00 -0.21254627977E+04  0.21254627977E+04  0.50400001928E-02 0.  1.
    10030    2    1    2    0    0  0.00000000000E+00  0.00000000000E+00 -0.18243289181E+04  0.24265966774E+04  0.16000610717E+04 0.  0.
        2    1    3    3  502    0  0.22956092459E+03  0.16340375845E+02 -0.20741775630E+04  0.20869062722E+04  0.25500000920E-02 0.  1.
       -2    1    3    3    0  502 -0.22956092459E+03 -0.16340375845E+02  0.24984864492E+03  0.33969040516E+03  0.25500000920E-02 0. -1.
</event>
<event>
 5   0  0.1057506E-05  0.1600159E+04  0.7818609E-02  0.8820451E-01
        1   -1    0    0  501    0  0.00000000000E+00  0.00000000000E+00  0.15407630718E+04  0.15407630718E+04  0.50400001928E-02 0. -1.
       -1   -1    0    0    0  501  0.00000000000E+00  0.00000000000E+00 -0.41546094292E+03  0.41546094295E+03  0.50400001928E-02 0.  1.
    10030    2    1    2    0    0  0.00000000000E+00  0.00000000000E+00  0.11253021289E+04  0.19562240148E+04  0.16001585905E+04 0.  0.
        5    1    3    3  502    0  0.40437159630E+03  0.27632220178E+03 -0.21076428666E+03  0.53321104792E+03  0.46999998093E+01 0.  1.
       -5    1    3    3    0  502 -0.40437159630E+03 -0.27632220178E+03  0.13360664155E+04  0.14230129668E+04  0.46999998093E+01 0. -1.
</event>
<event>
 5   0  0.2147844E-05  0.1599666E+04  0.7818609E-02  0.8820753E-01
        2   -1    0    0  501    0  0.00000000000E+00  0.00000000000E+00  0.59486473329E+03  0.59486473330E+03  0.25500000920E-02 0. -1.
       -2   -1    0    0    0  501  0.00000000000E+00  0.00000000000E+00 -0.10754263006E+04  0.10754263006E+04  0.25500000920E-02 0.  1.
    10030    2    1    2    0    0  0.00000000000E+00  0.00000000000E+00 -0.48056156730E+03  0.16702910339E+04  0.15996664396E+04 0.  0.
        2    1    3    3  502    0  0.35849115662E+03  0.67775104901E+03 -0.47808750718E+03  0.90356519319E+03  0.25500000920E-02 0.  1.
       -2    1    3    3    0  502 -0.35849115662E+03 -0.67775104901E+03 -0.24740601215E+01  0.76672584070E+03  0.25500000920E-02 0. -1.
</event>
<event>
 5   0  0.2046108E-05  0.1600879E+04  0.7818609E-02  0.8820008E-01
        2   -1    0    0  501    0  0.00000000000E+00  0.00000000000E+00  0.14172294839E+04  0.14172294839E+04  0.25500000920E-02 0. -1.
       -2   -1    0    0    0  501  0.00000000000E+00  0.00000000000E+00 -0.45208138075E+03  0.45208138076E+03  0.25500000920E-02 0.  1.
    10030    2    1    2    0    0  0.00000000000E+00  0.00000000000E+00  0.96514810316E+03  0.18693108647E+04  0.16008785862E+04 0.  0.
        1    1    3    3  502    0 -0.73246603192E+03 -0.31694064322E+03  0.55403368715E+03  0.97155091774E+03  0.50400001928E-02 0. -1.
       -1    1    3    3    0  502  0.73246603192E+03  0.31694064322E+03  0.41111441601E+03  0.89775994693E+03  0.50400001928E-02 0.  1.
</event>
<event>
 5   0  0.2046108E-05  0.1600736E+04  0.7818609E-02  0.8820096E-01
       -2   -1    0    0    0  501  0.00000000000E+00  0.00000000000E+00  0.47820710260E+03  0.47820710260E+03  0.25500000920E-02 0. -1.
        2   -1    0    0  501    0  0.00000000000E+00  0.00000000000E+00 -0.13395637613E+04  0.13395637614E+04  0.25500000920E-02 0.  1.
    10030    2    1    2    0    0  0.00000000000E+00  0.00000000000E+00 -0.86135665875E+03  0.18177708640E+04  0.16007359621E+04 0.  0.
        1    1    3    3  502    0 -0.56031813439E+03  0.16198702116E+03 -0.10530705019E+04  0.12038079950E+04  0.50400001928E-02 0.  1.
       -1    1    3    3    0  502  0.56031813439E+03 -0.16198702116E+03  0.19171384319E+03  0.61396286895E+03  0.50400001928E-02 0. -1.
</event>
<event>
 5   0  0.2125803E-05  0.1599937E+04  0.7818609E-02  0.8820587E-01
        2   -1    0    0  501    0  0.00000000000E+00  0.00000000000E+00  0.92209304915E+03  0.92209304915E+03  0.25500000920E-02 0. -1.
       -2   -1    0    0    0  501  0.00000000000E+00  0.00000000000E+00 -0.69401825944E+03  0.69401825945E+03  0.25500000920E-02 0.  1.
    10030    2    1    2    0    0  0.00000000000E+00  0.00000000000E+00  0.22807478971E+03  0.16161113086E+04  0.15999367650E+04 0.  0.
        3    1    3    3  502    0  0.20791291861E+03 -0.36392400549E+03 -0.57423266552E+03  0.71092308153E+03  0.10100000352E+00 0.  1.
       -3    1    3    3    0  502 -0.20791291861E+03  0.36392400549E+03  0.80230745523E+03  0.90518822707E+03  0.10100000352E+00 0. -1.
</event>
<event>
 5   0  0.1090674E-05  0.1600040E+04  0.7818609E-02  0.8820524E-01
       -1   -1    0    0    0  501  0.00000000000E+00  0.00000000000E+00  0.65740249353E+03  0.65740249355E+03  0.50400001928E-02 0.  1.
        1   -1    0    0  501    0  0.00000000000E+00  0.00000000000E+00 -0.97357692782E+03  0.97357692784E+03  0.50400001928E-02 0. -1.
    10030    2    1    2    0    0  0.00000000000E+00  0.00000000000E+00 -0.31617443429E+03  0.16309794214E+04  0.16000398745E+04 0.  0.
        4    1    3    3  502    0 -0.52781892250E+03  0.33752507159E+03 -0.66521548775E+03  0.91379934720E+03  0.12699999809E+01 0. -1.
       -4    1    3    3    0  502  0.52781892250E+03 -0.33752507159E+03  0.34904105346E+03  0.71718007418E+03  0.12699999809E+01 0.  1.
</event>
<event>
 5   0  0.2125803E-05  0.1600217E+04  0.7818609E-02  0.8820415E-01
       -2   -1    0    0    0  501  0.00000000000E+00  0.00000000000E+00  0.56707599982E+03  0.56707599983E+03  0.25500000920E-02 0. -1.
        2   -1    0    0  501    0  0.00000000000E+00  0.00000000000E+00 -0.11289019959E+04  0.11289019959E+04  0.25500000920E-02 0.  1.
    10030    2    1    2    0    0  0.00000000000E+00  0.00000000000E+00 -0.56182599604E+03  0.16959779957E+04  0.16002165204E+04 0.  0.
        3    1    3    3  502    0 -0.11302082589E+03 -0.76276300332E+03 -0.54612079551E+02  0.77302237726E+03  0.10100000352E+00 0.  1.
       -3    1    3    3    0  502  0.11302082589E+03  0.76276300332E+03 -0.50721391649E+03  0.92295561843E+03  0.10100000352E+00 0. -1.
</event>
<event>
 5   0  0.1126485E-05  0.1600069E+04  0.7818609E-02  0.8820506E-01
       -1   -1    0    0    0  501  0.00000000000E+00  0.00000000000E+00  0.72274208018E+03  0.72274208020E+03  0.50400001928E-02 0. -1.
        1   -1    0    0  501    0  0.00000000000E+00  0.00000000000E+00 -0.88559253537E+03  0.88559253539E+03  0.50400001928E-02 0.  1.
    10030    2    1    2    0    0  0.00000000000E+00  0.00000000000E+00 -0.16285045519E+03  0.16083346156E+04  0.16000687376E+04 0.  0.
        2    1    3    3  502    0  0.57348120111E+03  0.16811759173E+03  0.45321608723E+03  0.75003268889E+03  0.25500000920E-02 0. -1.
       -2    1    3    3    0  502 -0.57348120111E+03 -0.16811759173E+03 -0.61606654242E+03  0.85830192670E+03  0.25500000920E-02 0.  1.
</event>
<event>
 5   0  0.7597000E-06  0.1600600E+04  0.7818609E-02  0.8820180E-01
        4   -1    0    0  501    0  0.00000000000E+00  0.00000000000E+00  0.79927347496E+03  0.79927448394E+03  0.12699999809E+01 0.  1.
       -4   -1    0    0    0  501  0.00000000000E+00  0.00000000000E+00 -0.80132547626E+03  0.80132648266E+03  0.12699999809E+01 0. -1.
    10030    2    1    2    0    0  0.00000000000E+00  0.00000000000E+00 -0.20520013013E+01  0.16006009666E+04  0.16005996512E+04 0.  0.
        2    1    3    3  502    0  0.20178578430E+03  0.73772169730E+03 -0.23667212672E+03  0.80060258618E+03  0.25500000920E-02 0. -1.
       -2    1    3    3    0  502 -0.20178578430E+03 -0.73772169730E+03  0.23462012542E+03  0.79999838042E+03  0.25500000920E-02 0.  1.
</event>
<event>
 5   0  0.2125803E-05  0.1601312E+04  0.7818609E-02  0.8819742E-01
        2   -1    0    0  501    0  0.00000000000E+00  0.00000000000E+00  0.70616141210E+03  0.70616141210E+03  0.25500000920E-02 0.  1.
       -2   -1    0    0    0  501  0.00000000000E+00  0.00000000000E+00 -0.90779578751E+03  0.90779578751E+03  0.25500000920E-02 0. -1.
    10030    2    1    2    0    0  0.00000000000E+00  0.00000000000E+00 -0.20163437541E+03  0.16139571996E+04  0.16013124058E+04 0.  0.
        3    1    3    3  502    0  0.25601227788E+03 -0.36462334493E+03 -0.77132058364E+03  0.89074571177E+03  0.10100000352E+00 0. -1.
       -3    1    3    3    0  502 -0.25601227788E+03  0.36462334493E+03  0.56968620824E+03  0.72321148784E+03  0.10100000352E+00 0.  1.
</event>
<event>
 5   0  0.1126485E-05  0.1599608E+04  0.7818609E-02  0.8820789E-01
       -1   -1    0    0    0  501  0.00000000000E+00  0.00000000000E+00  0.53256363979E+03  0.53256363981E+03  0.50400001928E-02 0.  1.
        1   -1    0    0  501    0  0.00000000000E+00  0.00000000000E+00 -0.12011458571E+04  0.12011458571E+04  0.50400001928E-02 0. -1.
    10030    2    1    2    0    0  0.00000000000E+00  0.00000000000E+00 -0.66858221729E+03  0.17337094969E+04  0.15996082140E+04 0.  0.
        2    1    3    3  502    0  0.34130802438E+02 -0.22742233798E+03  0.49595728329E+03  0.54668039872E+03  0.25500000920E-02 0.  1.
       -2    1    3    3    0  502 -0.34130802438E+02  0.22742233798E+03 -0.11645395006E+04  0.11870290982E+04  0.25500000920E-02 0. -1.
</event>
<event>
 5   0  0.1126485E-05  0.1600486E+04  0.7818609E-02  0.8820250E-01
       -1   -1    0    0    0  501  0.00000000000E+00  0.00000000000E+00  0.81372181515E+03  0.81372181516E+03  0.50400001928E-02 0.  1.
        1   -1    0    0  501    0  0.00000000000E+00  0.00000000000E+00 -0.78698698069E+03  0.78698698071E+03  0.50400001928E-02 0. -1.
    10030    2    1    2    0    0  0.00000000000E+00  0.00000000000E+00  0.26734834452E+02  0.16007087959E+04  0.16004855194E+04 0.  0.
        2    1    3    3  502    0  0.54363263240E+03  0.49678243984E+03 -0.29982039290E+03  0.79512357502E+03  0.25500000920E-02 0. -1.
       -2    1    3    3    0  502 -0.54363263240E+03 -0.49678243984E+03  0.32655522735E+03  0.80558522085E+03  0.25500000920E-02 0.  1.
</event>
<event>
 5   0  0.1057506E-05  0.1600224E+04  0.7818609E-02  0.8820411E-01
        1   -1    0    0  501    0  0.00000000000E+00  0.00000000000E+00  0.20441136836E+04  0.20441136836E+04  0.50400001928E-02 0.  1.
       -1   -1    0    0    0  501  0.00000000000E+00  0.00000000000E+00 -0.31318174422E+03  0.31318174426E+03  0.50400001928E-02 0. -1.
    10030    2    1    2    0    0  0.00000000000E+00  0.00000000000E+00  0.17309319394E+04  0.23572954278E+04  0.16002238454E+04 0.  0.
        5    1    3    3  502    0 -0.28895729118E+03  0.49865410174E+03  0.16830115914E+04  0.17789610271E+04  0.46999998093E+01 0.  1.
       -5    1    3    3    0  502  0.28895729118E+03 -0.49865410174E+03  0.47920347975E+02  0.57833440072E+03  0.46999998093E+01 0. -1.
</event>
<event>
 5   0  0.2147844E-05  0.1598986E+04  0.7818609E-02  0.8821171E-01
       -2   -1    0    0    0  501  0.00000000000E+00  0.00000000000E+00  0.47325743236E+03  0.47325743237E+03  0.25500000920E-02 0.  1.
        2   -1    0    0  501    0  0.00000000000E+00  0.00000000000E+00 -0.13506164829E+04  0.13506164829E+04  0.25500000920E-02 0. -1.
    10030    2    1    2    0    0  0.00000000000E+00  0.00000000000E+00 -0.87735905054E+03  0.18238739153E+04  0.15989862899E+04 0.  0.
        2    1    3    3  502    0 -0.25386647865E+03 -0.38190295954E+03  0.30832572588E+03  0.55259642845E+03  0.25500000920E-02 0.  1.
       -2    1    3    3    0  502  0.25386647865E+03  0.38190295954E+03 -0.11856847764E+04  0.12712774868E+04  0.25500000920E-02 0. -1.
</event>
<event>
 5   0  0.2147844E-05  0.1599827E+04  0.7818609E-02  0.8820654E-01
       -2   -1    0    0    0  501  0.00000000000E+00  0.00000000000E+00  0.62528790396E+03  0.62528790396E+03  0.25500000920E-02 0. -1.
        2   -1    0    0  501    0  0.00000000000E+00  0.00000000000E+00 -0.10233074786E+04  0.10233074786E+04  0.25500000920E-02 0.  1.
    10030    2    1    2    0    0  0.00000000000E+00  0.00000000000E+00 -0.39801957460E+03  0.16485953825E+04  0.15998272261E+04 0.  0.
        2    1    3    3  502    0  0.40685208127E+03  0.61618841447E+03 -0.51603211976E+03  0.90083623749E+03  0.25500000920E-02 0.  1.
       -2    1    3    3    0  502 -0.40685208127E+03 -0.61618841447E+03  0.11801254516E+03  0.74775914503E+03  0.25500000920E-02 0. -1.
</event>
<event>
 5   0  0.1081831E-05  0.1600265E+04  0.7818609E-02  0.8820385E-01
        1   -1    0    0  501    0  0.00000000000E+00  0.00000000000E+00  0.18915319664E+04  0.18915319664E+04  0.50400001928E-02 0. -1.
       -1   -1    0    0    0  501  0.00000000000E+00  0.00000000000E+00 -0.33846223058E+03  0.33846223062E+03  0.50400001928E-02 0.  1.
    10030    2    1    2    0    0  0.00000000000E+00  0.00000000000E+00  0.15530697358E+04  0.22299941970E+04  0.16002651388E+04 0.  0.
        3    1    3    3  502    0  0.68893448528E+03  0.22176110786E+03  0.12519736773E+04  0.14461143844E+04  0.10100000352E+00 0. -1.
       -3    1    3    3    0  502 -0.68893448528E+03 -0.22176110786E+03  0.30109605855E+03  0.78387981263E+03  0.10100000352E+00 0.  1.
</event>
<event>
 5   0  0.1990948E-05  0.1600180E+04  0.7818609E-02  0.8820438E-01
        2   -1    0    0  501    0  0.00000000000E+00  0.00000000000E+00  0.10005192267E+04  0.10005192267E+04  0.25500000920E-02 0. -1.
       -2   -1    0    0    0  501  0.00000000000E+00  0.00000000000E+00 -0.63981152923E+03  0.63981152924E+03  0.25500000920E-02 0.  1.
    10030    2    1    2    0    0  0.00000000000E+00  0.00000000000E+00  0.36070769750E+03  0.16403307560E+04  0.16001796605E+04 0.  0.
        4    1    3    3  502    0 -0.30811763244E+03 -0.73630052417E+03  0.12358203645E+03  0.80768129231E+03  0.12699999809E+01 0.  1.
       -4    1    3    3    0  502  0.30811763244E+03  0.73630052417E+03  0.23712566105E+03  0.83264946367E+03  0.12699999809E+01 0. -1.
</event>
<event>
 5   0  0.1060251E-05  0.1600045E+04  0.7818609E-02  0.8820521E-01
        1   -1    0    0  501    0  0.00000000000E+00  0.00000000000E+00  0.46295599003E+03  0.46295599006E+03  0.50400001928E-02 0.  1.
       -1   -1    0    0    0  501  0.00000000000E+00  0.00000000000E+00 -0.13824981588E+04  0.13824981588E+04  0.50400001928E-02 0. -1.
    10030    2    1    2    0    0  0.00000000000E+00  0.00000000000E+00 -0.91954216877E+03  0.18454541489E+04  0.16000447542E+04 0.  0.
        1    1    3    3  502    0  0.70220021392E+03 -0.48637159617E+02 -0.21207180473E+02  0.70420200103E+03  0.50400001928E-02 0.  1.
       -1    1    3    3    0  502 -0.70220021392E+03  0.48637159617E+02 -0.89833498830E+03  0.11412521478E+04  0.50400001928E-02 0. -1.
</event>
<event>
 5   0  0.2147844E-05  0.1600094E+04  0.7818609E-02  0.8820490E-01
       -2   -1    0    0    0  501  0.00000000000E+00  0.00000000000E+00  0.54137890317E+03  0.54137890317E+03  0.25500000920E-02 0. -1.
        2   -1    0    0  501    0  0.00000000000E+00  0.00000000000E+00 -0.11823048940E+04  0.11823048940E+04  0.25500000920E-02 0.  1.
    10030    2    1    2    0    0  0.00000000000E+00  0.00000000000E+00 -0.64092599081E+03  0.17236837971E+04  0.16000936557E+04 0.  0.
        2    1    3    3  502    0 -0.12217420430E+03  0.63570023895E+03  0.18599256229E+03  0.67352398861E+03  0.25500000920E-02 0. -1.
       -2    1    3    3    0  502  0.12217420430E+03 -0.63570023895E+03 -0.82691855310E+03  0.10501598085E+04  0.25500000920E-02 0.  1.
</event>
<event>
 5   0  0.1081831E-05  0.1600330E+04  0.7818609E-02  0.8820345E-01
       -1   -1    0    0    0  501  0.00000000000E+00  0.00000000000E+00  0.36381716671E+03  0.36381716674E+03  0.50400001928E-02 0.  1.
        1   -1    0    0  501    0  0.00000000000E+00  0.00000000000E+00 -0.17598508504E+04  0.17598508504E+04  0.50400001928E-02 0. -1.
    10030    2    1    2    0    0  0.00000000000E+00  0.00000000000E+00 -0.13960336837E+04  0.21236680172E+04  0.16003299038E+04 0.  0.
        3    1    3    3  502    0  0.53920065834E+03 -0.30909096130E+03 -0.29234381778E+02  0.62219710028E+03  0.10100000352E+00 0.  1.
       -3    1    3    3    0  502 -0.53920065834E+03  0.30909096130E+03 -0.13667993019E+04  0.15014709169E+04  0.10100000352E+00 0. -1.
</event>
<event>
 5   0  0.2046108E-05  0.1600205E+04  0.7818609E-02  0.8820422E-01
        2   -1    0    0  501    0  0.00000000000E+00  0.00000000000E+00  0.10945940585E+04  0.10945940585E+04  0.25500000920E-02 0. -1.
       -2   -1    0    0    0  501  0.00000000000E+00  0.00000000000E+00 -0.58484141834E+03  0.58484141834E+03  0.25500000920E-02 0.  1.
    10030    2    1    2    0    0  0.00000000000E+00  0.00000000000E+00  0.50975264020E+03  0.16794354769E+04  0.16002049140E+04 0.  0.
        1    1    3    3  502    0 -0.33392053446E+03  0.28850166801E+03  0.95532510398E+03  0.10523222843E+04  0.50400001928E-02 0. -1.
       -1    1    3    3    0  502  0.33392053446E+03 -0.28850166801E+03 -0.44557246377E+03  0.62711319256E+03  0.50400001928E-02 0.  1.
</event>
<event>
 5   0  0.7597000E-06  0.1599332E+04  0.7818609E-02  0.8820959E-01
       -4   -1    0    0    0  501  0.00000000000E+00  0.00000000000E+00  0.94497378023E+03  0.94497463364E+03  0.12699999809E+01 0.  1.
        4   -1    0    0  501    0  0.00000000000E+00  0.00000000000E+00 -0.67670007175E+03  0.67670126349E+03  0.12699999809E+01 0. -1.
    10030    2    1    2    0    0  0.00000000000E+00  0.00000000000E+00  0.26827370848E+03  0.16216758971E+04  0.15993317144E+04 0.  0.
        2    1    3    3  502    0 -0.37239824071E+03 -0.23541252888E+03 -0.54254421962E+03  0.69889465492E+03  0.25500000920E-02 0. -1.
       -2    1    3    3    0  502  0.37239824071E+03  0.23541252888E+03  0.81081792810E+03  0.92278124220E+03  0.25500000920E-02 0.  1.
</event>
<event>
 5   0  0.1060251E-05  0.1599849E+04  0.7818609E-02  0.8820641E-01
       -1   -1    0    0    0  501  0.00000000000E+00  0.00000000000E+00  0.11167707605E+04  0.11167707605E+04  0.50400001928E-02 0.  1.
        1   -1    0    0  501    0  0.00000000000E+00  0.00000000000E+00 -0.57297264226E+03  0.57297264228E+03  0.50400001928E-02 0. -1.
    10030    2    1    2    0    0  0.00000000000E+00  0.00000000000E+00  0.54379811827E+03  0.16897434028E+04  0.15998488597E+04 0.  0.
        1    1    3    3  502    0  0.28466601788E+03  0.11835526790E+03  0.10515044862E+04  0.10957665790E+04  0.50400001928E-02 0.  1.
       -1    1    3    3    0  502 -0.28466601788E+03 -0.11835526790E+03 -0.50770636792E+03  0.59397682381E+03  0.50400001928E-02 0. -1.
</event>
<event>
 5   0  0.1090674E-05  0.1599931E+04  0.7818609E-02  0.8820590E-01
        1   -1    0    0  501    0  0.00000000000E+00  0.00000000000E+00  0.16480085379E+04  0.16480085379E+04  0.50400001928E-02 0. -1.
       -1   -1    0    0    0  501  0.00000000000E+00  0.00000000000E+00 -0.38831408189E+03  0.38831408193E+03  0.50400001928E-02 0.  1.
    10030    2    1    2    0    0  0.00000000000E+00  0.00000000000E+00  0.12596944560E+04  0.20363226198E+04  0.15999311515E+04 0.  0.
        4    1    3    3  502    0 -0.22355914345E+03 -0.52474330572E+03 -0.84042147839E+02  0.57654047823E+03  0.12699999809E+01 0.  1.
       -4    1    3    3    0  502  0.22355914345E+03  0.52474330572E+03  0.13437366038E+04  0.14597821416E+04  0.12699999809E+01 0. -1.
</event>
<event>
 5   0  0.1090674E-05  0.1601916E+04  0.7818609E-02  0.8819372E-01
       -1   -1    0    0    0  501  0.00000000000E+00  0.00000000000E+00  0.12802308504E+04  0.12802308504E+04  0.50400001928E-02 0. -1.
        1   -1    0    0  501    0  0.00000000000E+00  0.00000000000E+00 -0.50110781220E+03  0.50110781222E+03  0.50400001928E-02 0.  1.
    10030    2    1    2    0    0  0.00000000000E+00  0.00000000000E+00  0.77912303822E+03  0.17813386626E+04  0.16019159536E+04 0.  0.
        4    1    3    3  502    0 -0.21904399846E+03  0.73354857881E+03  0.65143405489E+03  0.10052073077E+04  0.12699999809E+01 0. -1.
       -4    1    3    3    0  502  0.21904399846E+03 -0.73354857881E+03  0.12768898333E+03  0.77613135492E+03  0.12699999809E+01 0.  1.
</event>
<event>
 5   0  0.2147844E-05  0.1600141E+04  0.7818609E-02  0.8820461E-01
        2   -1    0    0  501    0  0.00000000000E+00  0.00000000000E+00  0.14455686744E+04  0.14455686744E+04  0.25500000920E-02 0. -1.
       -2   -1    0    0    0  501  0.00000000000E+00  0.00000000000E+00 -0.44281036337E+03  0.44281036337E+03  0.25500000920E-02 0.  1.
    10030    2    1    2    0    0  0.00000000000E+00  0.00000000000E+00  0.10027583111E+04  0.18883790378E+04  0.16001409813E+04 0.  0.
        2    1    3    3  502    0 -0.45226195760E+03 -0.62452120706E+03  0.75323504087E+03  0.10779288674E+04  0.25500000920E-02 0. -1.
       -2    1    3    3    0  502  0.45226195760E+03  0.62452120706E+03  0.24952327020E+03  0.81045017042E+03  0.25500000920E-02 0.  1.
</event>
<event>
 5   0  0.2147844E-05  0.1600048E+04  0.7818609E-02  0.8820519E-01
       -2   -1    0    0    0  501  0.00000000000E+00  0.00000000000E+00  0.58857336310E+03  0.58857336311E+03  0.25500000920E-02 0. -1.
        2   -1    0    0  501    0  0.00000000000E+00  0.00000000000E+00 -0.10874403283E+04  0.10874403283E+04  0.25500000920E-02 0.  1.
    10030    2    1    2    0    0  0.00000000000E+00  0.00000000000E+00 -0.49886696518E+03  0.16760136914E+04  0.16000480133E+04 0.  0.
        2    1    3    3  502    0  0.10455122974E+03 -0.70351919057E+03 -0.63311364382E+03  0.95220958677E+03  0.25500000920E-02 0.  1.
       -2    1    3    3    0  502 -0.10455122974E+03  0.70351919057E+03  0.13424667864E+03  0.72380410462E+03  0.25500000920E-02 0. -1.
</event>
<event>
 5   0  0.1990948E-05  0.1600147E+04  0.7818609E-02  0.8820458E-01
       -2   -1    0    0    0  501  0.00000000000E+00  0.00000000000E+00  0.13227459872E+04  0.13227459872E+04  0.25500000920E-02 0.  1.
        2   -1    0    0  501    0  0.00000000000E+00  0.00000000000E+00 -0.48393082466E+03  0.48393082467E+03  0.25500000920E-02 0. -1.
    10030    2    1    2    0    0  0.00000000000E+00  0.00000000000E+00  0.83881516253E+03  0.18066768119E+04  0.16001469388E+04 0.  0.
        4    1    3    3  502    0 -0.14263362466E+03 -0.38041202535E+03 -0.35879748389E+03  0.54202851148E+03  0.12699999809E+01 0. -1.
       -4    1    3    3    0  502  0.14263362466E+03  0.38041202535E+03  0.11976126464E+04  0.12646483004E+04  0.12699999809E+01 0.  1.
</event>
<event>
 5   0  0.1994525E-05  0.1598975E+04  0.7818609E-02  0.8821178E-01
        2   -1    0    0  501    0  0.00000000000E+00  0.00000000000E+00  0.79744827873E+03  0.79744827873E+03  0.25500000920E-02 0. -1.
       -2   -1    0    0    0  501  0.00000000000E+00  0.00000000000E+00 -0.80153237253E+03  0.80153237254E+03  0.25500000920E-02 0.  1.
    10030    2    1    2    0    0  0.00000000000E+00  0.00000000000E+00 -0.40840938064E+01  0.15989806513E+04  0.15989754355E+04 0.  0.
        5    1    3    3  502    0 -0.71914118280E+03 -0.26403293275E+03 -0.23069337868E+03  0.80007434364E+03  0.46999998093E+01 0.  1.
       -5    1    3    3    0  502  0.71914118280E+03  0.26403293275E+03  0.22660928488E+03  0.79890630763E+03  0.46999998093E+01 0. -1.
</event>
<event>
 5   0  0.2147844E-05  0.1595779E+04  0.7818609E-02  0.8823145E-01
       -2   -1    0    0    0  501  0.00000000000E+00  0.00000000000E+00  0.27532574185E+03  0.27532574187E+03  0.25500000920E-02 0.  1.
        2   -1    0    0  501    0  0.00000000000E+00  0.00000000000E+00 -0.23122719596E+04  0.23122719596E+04  0.25500000920E-02 0. -1.
    10030    2    1    2    0    0  0.00000000000E+00  0.00000000000E+00 -0.20369462178E+04  0.25875977015E+04  0.15957794242E+04 0.  0.
        2    1    3    3  502    0  0.11719284846E+03 -0.17472791705E+03 -0.22664835487E+04  0.22762275118E+04  0.25500000920E-02 0. -1.
       -2    1    3    3    0  502 -0.11719284846E+03  0.17472791705E+03  0.22953733096E+03  0.31137018971E+03  0.25500000920E-02 0.  1.
</event>
<event>
 5   0  0.2046108E-05  0.1599221E+04  0.7818609E-02  0.8821027E-01
       -2   -1    0    0    0  501  0.00000000000E+00  0.00000000000E+00  0.21996863478E+03  0.21996863480E+03  0.25500000920E-02 0.  1.
        2   -1    0    0  501    0  0.00000000000E+00  0.00000000000E+00 -0.29066737180E+04  0.29066737180E+04  0.25500000920E-02 0. -1.
    10030    2    1    2    0    0  0.00000000000E+00  0.00000000000E+00 -0.26867050832E+04  0.31266423528E+04  0.15992211223E+04 0.  0.
        1    1    3    3  502    0 -0.67094086451E+03  0.40589398869E+03 -0.10375461755E+04  0.13005435941E+04  0.50400001928E-02 0. -1.
       -1    1    3    3    0  502  0.67094086451E+03 -0.40589398869E+03 -0.16491589077E+04  0.18260987587E+04  0.50400001928E-02 0.  1.
</event>
<event>
 5   0  0.1990948E-05  0.1605772E+04  0.7818609E-02  0.8817010E-01
        2   -1    0    0  501    0  0.00000000000E+00  0.00000000000E+00  0.52446513893E+03  0.52446513893E+03  0.25500000920E-02 0. -1.
       -2   -1    0    0    0  501  0.00000000000E+00  0.00000000000E+00 -0.12291104891E+04  0.12291104891E+04  0.25500000920E-02 0.  1.
    10030    2    1    2    0    0  0.00000000000E+00  0.00000000000E+00 -0.70464535014E+03  0.17535756280E+04  0.16057715945E+04 0.  0.
        4    1    3    3  502    0  0.37859521108E+03  0.35017934895E+03 -0.10243203723E+04  0.11468189692E+04  0.12699999809E+01 0.  1.
       -4    1    3    3    0  502 -0.37859521108E+03 -0.35017934895E+03  0.31967502212E+03  0.60675665876E+03  0.12699999809E+01 0. -1.
</event>
<event>
 5   0  0.1990948E-05  0.1599993E+04  0.7818609E-02  0.8820552E-01
        2   -1    0    0  501    0  0.00000000000E+00  0.00000000000E+00  0.26130184841E+04  0.26130184841E+04  0.25500000920E-02 0.  1.
       -2   -1    0    0    0  501  0.00000000000E+00  0.00000000000E+00 -0.24492534088E+03  0.24492534090E+03  0.25500000920E-02 0. -1.
    10030    2    1    2    0    0  0.00000000000E+00  0.00000000000E+00  0.23680931432E+04  0.28579438250E+04  0.15999930537E+04 0.  0.
        4    1    3    3  502    0  0.29120606360E+03 -0.64678748267E+03  0.18448471058E+04  0.19765114409E+04  0.12699999809E+01 0.  1.
       -4    1    3    3    0  502 -0.29120606360E+03  0.64678748267E+03  0.52324603742E+03  0.88143238413E+03  0.12699999809E+01 0. -1.
</event>
<event>
 5   0  0.1994525E-05  0.1599966E+04  0.7818609E-02  0.8820569E-01
        2   -1    0    0  501    0  0.00000000000E+00  0.00000000000E+00  0.11961359669E+04  0.11961359669E+04  0.25500000920E-02 0. -1.
       -2   -1    0    0    0  501  0.00000000000E+00  0.00000000000E+00 -0.53503376499E+03  0.53503376500E+03  0.25500000920E-02 0.  1.
    10030    2    1    2    0    0  0.00000000000E+00  0.00000000000E+00  0.66110220188E+03  0.17311697319E+04  0.15999664119E+04 0.  0.
        5    1    3    3  502    0 -0.10523802486E+03  0.78760289751E+03  0.23045742299E+03  0.82736091269E+03  0.46999998093E+01 0.  1.
       -5    1    3    3    0  502  0.10523802486E+03 -0.78760289751E+03  0.43064477889E+03  0.90380881918E+03  0.46999998093E+01 0. -1.
</event>
<event>
 5   0  0.1090674E-05  0.1600533E+04  0.7818609E-02  0.8820221E-01
        1   -1    0    0  501    0  0.00000000000E+00  0.00000000000E+00  0.64483574228E+03  0.64483574230E+03  0.50400001928E-02 0. -1.
       -1   -1    0    0    0  501  0.00000000000E+00  0.00000000000E+00 -0.99316203738E+03  0.99316203739E+03  0.50400001928E-02 0.  1.
    10030    2    1    2    0    0  0.00000000000E+00  0.00000000000E+00 -0.34832629510E+03  0.16379977797E+04  0.16005328858E+04 0.  0.
        4    1    3    3  502    0 -0.57288796479E+03  0.43224961967E+03  0.18822207705E+03  0.74193632954E+03  0.12699999809E+01 0.  1.
       -4    1    3    3    0  502  0.57288796479E+03 -0.43224961967E+03 -0.53654837215E+03  0.89606145016E+03  0.12699999809E+01 0. -1.
</event>
<event>
 5   0  0.1994525E-05  0.1601135E+04  0.7818609E-02  0.8819851E-01
        2   -1    0    0  501    0  0.00000000000E+00  0.00000000000E+00  0.17968980677E+04  0.17968980677E+04  0.25500000920E-02 0. -1.
       -2   -1    0    0    0  501  0.00000000000E+00  0.00000000000E+00 -0.35667474930E+03  0.35667474931E+03  0.25500000920E-02 0.  1.
    10030    2    1    2    0    0  0.00000000000E+00  0.00000000000E+00  0.14402233184E+04  0.21535728170E+04  0.16011348074E+04 0.  0.
        5    1    3    3  502    0 -0.58316090422E+03  0.24049301455E+03  0.57116640207E+02  0.63340187152E+03  0.46999998093E+01 0.  1.
       -5    1    3    3    0  502  0.58316090422E+03 -0.24049301455E+03  0.13831066782E+04  0.15201709455E+04  0.46999998093E+01 0. -1.
</event>
<event>
 5   0  0.2125803E-05  0.1599651E+04  0.7818609E-02  0.8820763E-01
       -2   -1    0    0    0  501  0.00000000000E+00  0.00000000000E+00  0.35850117326E+03  0.35850117327E+03  0.25500000920E-02 0.  1.
        2   -1    0    0  501    0  0.00000000000E+00  0.00000000000E+00 -0.17844312457E+04  0.17844312457E+04  0.25500000920E-02 0. -1.
    10030    2    1    2    0    0  0.00000000000E+00  0.00000000000E+00 -0.14259300724E+04  0.21429324189E+04  0.15996508309E+04 0.  0.
        3    1    3    3  502    0 -0.60885930013E+03  0.29918443941E+03 -0.12805294447E+04  0.14491296163E+04  0.10100000352E+00 0. -1.
       -3    1    3    3    0  502  0.60885930013E+03 -0.29918443941E+03 -0.14540062777E+03  0.69380280260E+03  0.10100000352E+00 0.  1.
</event>
<event>
 5   0  0.7597000E-06  0.1600543E+04  0.7818609E-02  0.8820215E-01
        4   -1    0    0  501    0  0.00000000000E+00  0.00000000000E+00  0.12400416278E+04  0.12400422781E+04  0.12699999809E+01 0. -1.
       -4   -1    0    0    0  501  0.00000000000E+00  0.00000000000E+00 -0.51646030182E+03  0.51646186331E+03  0.12699999809E+01 0.  1.
    10030    2    1    2    0    0  0.00000000000E+00  0.00000000000E+00  0.72358132593E+03  0.17565041414E+04  0.16005426778E+04 0.  0.
        1    1    3    3  502    0 -0.22703892545E+03  0.44794231757E+03 -0.32200979305E+03  0.59656458191E+03  0.50400001928E-02 0.  1.
       -1    1    3    3    0  502  0.22703892545E+03 -0.44794231757E+03  0.10455911190E+04  0.11599395595E+04  0.50400001928E-02 0. -1.
</event>
<event>
 5   0  0.1060251E-05  0.1600407E+04  0.7818609E-02  0.8820298E-01
        1   -1    0    0  501    0  0.00000000000E+00  0.00000000000E+00  0.71688497909E+03  0.71688497911E+03  0.50400001928E-02 0.  1.
       -1   -1    0    0    0  501  0.00000000000E+00  0.00000000000E+00 -0.89320499943E+03  0.89320499945E+03  0.50400001928E-02 0. -1.
    10030    2    1    2    0    0  0.00000000000E+00  0.00000000000E+00 -0.17632002035E+03  0.16100899786E+04  0.16004065076E+04 0.  0.
        1    1    3    3  502    0  0.69955856154E+03 -0.36102035628E+03 -0.23258126316E+03  0.82086047699E+03  0.50400001928E-02 0.  1.
       -1    1    3    3    0  502 -0.69955856154E+03  0.36102035628E+03  0.56261242819E+02  0.78922950157E+03  0.50400001928E-02 0. -1.
</event>
<event>
 5   0  0.1057506E-05  0.1599464E+04  0.7818609E-02  0.8820877E-01
        1   -1    0    0  501    0  0.00000000000E+00  0.00000000000E+00  0.14624249376E+04  0.14624249376E+04  0.50400001928E-02 0.  1.
       -1   -1    0    0    0  501  0.00000000000E+00  0.00000000000E+00 -0.43733629527E+03  0.43733629530E+03  0.50400001928E-02 0. -1.
    10030    2    1    2    0    0  0.00000000000E+00  0.00000000000E+00  0.10250886423E+04  0.18997612329E+04  0.15994642907E+04 0.  0.
        5    1    3    3  502    0 -0.11966771493E+03  0.75464536654E+03  0.79296220478E+03  0.11011907825E+04  0.46999998093E+01 0.  1.
       -5    1    3    3    0  502  0.11966771493E+03 -0.75464536654E+03  0.23212643751E+03  0.79857045038E+03  0.46999998093E+01 0. -1.
</event>
<event>
 5   0  0.1057506E-05  0.1601529E+04  0.7818609E-02  0.8819609E-01
       -1   -1    0    0    0  501  0.00000000000E+00  0.00000000000E+00  0.34301914449E+03  0.34301914452E+03  0.50400001928E-02 0.  1.
        1   -1    0    0  501    0  0.00000000000E+00  0.00000000000E+00 -0.18693524115E+04  0.18693524115E+04  0.50400001928E-02 0. -1.
    10030    2    1    2    0    0  0.00000000000E+00  0.00000000000E+00 -0.15263332671E+04  0.22123715561E+04  0.16015288508E+04 0.  0.
        5    1    3    3  502    0  0.79368230207E+03 -0.31484488269E+01 -0.61658020597E+03  0.10050546004E+04  0.46999998093E+01 0. -1.
       -5    1    3    3    0  502 -0.79368230207E+03  0.31484488269E+01 -0.90975306109E+03  0.12073169557E+04  0.46999998093E+01 0.  1.
</event>
<event>
 5   0  0.2046108E-05  0.1599816E+04  0.7818609E-02  0.8820661E-01
        2   -1    0    0  501    0  0.00000000000E+00  0.00000000000E+00  0.18332679342E+04  0.18332679342E+04  0.25500000920E-02 0. -1.
       -2   -1    0    0    0  501  0.00000000000E+00  0.00000000000E+00 -0.34902288515E+03  0.34902288516E+03  0.25500000920E-02 0.  1.
    10030    2    1    2    0    0  0.00000000000E+00  0.00000000000E+00  0.14842450491E+04  0.21822908194E+04  0.15998155690E+04 0.  0.
        1    1    3    3  502    0  0.30749692763E+02 -0.37711231533E+03  0.17034842405E+04  0.17449979369E+04  0.50400001928E-02 0. -1.
       -1    1    3    3    0  502 -0.30749692763E+02  0.37711231533E+03 -0.21923919147E+03  0.43729288250E+03  0.50400001928E-02 0.  1.
</event>
<event>
 5   0  0.2046108E-05  0.1600375E+04  0.7818609E-02  0.8820318E-01
        2   -1    0    0  501    0  0.00000000000E+00  0.00000000000E+00  0.45445665831E+03  0.45445665832E+03  0.25500000920E-02 0. -1.
       -2   -1    0    0    0  501  0.00000000000E+00  0.00000000000E+00 -0.14089355978E+04  0.14089355978E+04  0.25500000920E-02 0.  1.
    10030    2    1    2    0    0  0.00000000000E+00  0.00000000000E+00 -0.95447893949E+03  0.18633922561E+04  0.16003751605E+04 0.  0.
        1    1    3    3  502    0  0.63576453986E+03 -0.22759010066E+03 -0.97710437268E+03  0.11877401901E+04  0.50400001928E-02 0.  1.
       -1    1    3    3    0  502 -0.63576453986E+03  0.22759010066E+03  0.22625433186E+02  0.67565206602E+03  0.50400001928E-02 0. -1.
</event>
<event>
 5   0  0.1090674E-05  0.1599685E+04  0.7818609E-02  0.8820742E-01
       -1   -1    0    0    0  501  0.00000000000E+00  0.00000000000E+00  0.11273287763E+04  0.11273287763E+04  0.50400001928E-02 0. -1.
        1   -1    0    0  501    0  0.00000000000E+00  0.00000000000E+00 -0.56749013300E+03  0.56749013303E+03  0.50400001928E-02 0.  1.
    10030    2    1    2    0    0  0.00000000000E+00  0.00000000000E+00  0.55983864328E+03  0.16948189093E+04  0.15996849155E+04 0.  0.
        4    1    3    3  502    0 -0.74366117905E+03  0.22430653848E+03  0.48205610057E+03  0.91417999838E+03  0.12699999809E+01 0. -1.
       -4    1    3    3    0  502  0.74366117905E+03 -0.22430653848E+03  0.77782542710E+02  0.78063891095E+03  0.12699999809E+01 0.  1.
</event>
<event>
 5   0  0.2147844E-05  0.1599724E+04  0.7818609E-02  0.8820718E-01
       -2   -1    0    0    0  501  0.00000000000E+00  0.00000000000E+00  0.49085573052E+03  0.49085573053E+03  0.25500000920E-02 0.  1.
        2   -1    0    0  501    0  0.00000000000E+00  0.00000000000E+00 -0.13033951544E+04  0.13033951544E+04  0.25500000920E-02 0. -1.
    10030    2    1    2    0    0  0.00000000000E+00  0.00000000000E+00 -0.81253942384E+03  0.17942508849E+04  0.15997237020E+04 0.  0.
        2    1    3    3  502    0  0.31706369833E+03 -0.72945358394E+03 -0.31144928076E+03  0.85418532791E+03  0.25500000920E-02 0.  1.
       -2    1    3    3    0  502 -0.31706369833E+03  0.72945358394E+03 -0.50109014308E+03  0.94006555698E+03  0.25500000920E-02 0. -1.
</event>
<event>
 5   0  0.7597000E-06  0.1600304E+04  0.7818609E-02  0.8820361E-01
        3   -1    0    0  501    0  0.00000000000E+00  0.00000000000E+00  0.10454040589E+04  0.10454040638E+04  0.10100000352E+00 0. -1.
       -3   -1    0    0    0  501  0.00000000000E+00  0.00000000000E+00 -0.61243637021E+03  0.61243637854E+03  0.10100000352E+00 0.  1.
    10030    2    1    2    0    0  0.00000000000E+00  0.00000000000E+00  0.43296768866E+03  0.16578404423E+04  0.16003043188E+04 0.  0.
        1    1    3    3  502    0  0.30132325488E+03  0.20550675653E+03  0.95427949148E+03  0.10216056376E+04  0.50400001928E-02 0. -1.
       -1    1    3    3    0  502 -0.30132325488E+03 -0.20550675653E+03 -0.52131180282E+03  0.63623480468E+03  0.50400001928E-02 0.  1.
</event>
<event>
 5   0  0.1994525E-05  0.1600304E+04  0.7818609E-02  0.8820361E-01
       -2   -1    0    0    0  501  0.00000000000E+00  0.00000000000E+00  0.49294846138E+03  0.49294846139E+03  0.25500000920E-02 0. -1.
        2   -1    0    0  501    0  0.00000000000E+00  0.00000000000E+00 -0.12988041448E+04  0.12988041448E+04  0.25500000920E-02 0.  1.
    10030    2    1    2    0    0  0.00000000000E+00  0.00000000000E+00 -0.80585568344E+03  0.17917526062E+04  0.16003043521E+04 0.  0.
        5    1    3    3  502    0  0.61021510531E+03  0.25789973811E+03 -0.90532558392E+03  0.11218338792E+04  0.46999998093E+01 0.  1.
       -5    1    3    3    0  502 -0.61021510531E+03 -0.25789973811E+03  0.99469900482E+02  0.66991872699E+03  0.46999998093E+01 0. -1.
</event>
<event>
 5   0  0.1994525E-05  0.1599065E+04  0.7818609E-02  0.8821123E-01
       -2   -1    0    0    0  501  0.00000000000E+00  0.00000000000E+00  0.51338293388E+03  0.51338293389E+03  0.25500000920E-02 0.  1.
        2   -1    0    0  501    0  0.00000000000E+00  0.00000000000E+00 -0.12451764539E+04  0.12451764539E+04  0.25500000920E-02 0. -1.
    10030    2    1    2    0    0  0.00000000000E+00  0.00000000000E+00 -0.73179352003E+03  0.17585593878E+04  0.15990651533E+04 0.  0.
        5    1    3    3  502    0 -0.88573447812E+01  0.77483765515E+03 -0.14933296129E+03  0.78916048287E+03  0.46999998093E+01 0.  1.
       -5    1    3    3    0  502  0.88573447812E+01 -0.77483765515E+03 -0.58246055874E+03  0.96939890493E+03  0.46999998093E+01 0. -1.
</event>
<event>
 5   0  0.1060251E-05  0.1600338E+04  0.7818609E-02  0.8820340E-01
       -1   -1    0    0    0  501  0.00000000000E+00  0.00000000000E+00  0.53545119307E+03  0.53545119310E+03  0.50400001928E-02 0.  1.
        1   -1    0    0  501    0  0.00000000000E+00  0.00000000000E+00 -0.11957590385E+04  0.11957590385E+04  0.50400001928E-02 0. -1.
    10030    2    1    2    0    0  0.00000000000E+00  0.00000000000E+00 -0.66030784540E+03  0.17312102316E+04  0.16003382190E+04 0.  0.
        1    1    3    3  502    0 -0.62638640033E+02  0.68320149244E+03  0.11532672067E+03  0.69569255495E+03  0.50400001928E-02 0. -1.
       -1    1    3    3    0  502  0.62638640033E+02 -0.68320149244E+03 -0.77563456607E+03  0.10355176766E+04  0.50400001928E-02 0.  1.
</event>
<event>
 5   0  0.1090674E-05  0.1599775E+04  0.7818609E-02  0.8820686E-01
        1   -1    0    0  501    0  0.00000000000E+00  0.00000000000E+00  0.99110054593E+03  0.99110054595E+03  0.50400001928E-02 0. -1.
       -1   -1    0    0    0  501  0.00000000000E+00  0.00000000000E+00 -0.64556528791E+03  0.64556528793E+03  0.50400001928E-02 0.  1.
    10030    2    1    2    0    0  0.00000000000E+00  0.00000000000E+00  0.34553525802E+03  0.16366658339E+04  0.15997751208E+04 0.  0.
        4    1    3    3  502    0  0.22025703882E+03  0.56187387175E+03 -0.36431748512E+03  0.70494273084E+03  0.12699999809E+01 0.  1.
       -4    1    3    3    0  502 -0.22025703882E+03 -0.56187387175E+03  0.70985274314E+03  0.93172310304E+03  0.12699999809E+01 0. -1.
</event>
<event>
 5   0  0.2125803E-05  0.1599957E+04  0.7818609E-02  0.8820575E-01
        2   -1    0    0  501    0  0.00000000000E+00  0.00000000000E+00  0.89853901471E+03  0.89853901471E+03  0.25500000920E-02 0. -1.
       -2   -1    0    0    0  501  0.00000000000E+00  0.00000000000E+00 -0.71222873608E+03  0.71222873609E+03  0.25500000920E-02 0.  1.
    10030    2    1    2    0    0  0.00000000000E+00  0.00000000000E+00  0.18631027863E+03  0.16107677508E+04  0.15999566329E+04 0.  0.
        3    1    3    3  502    0 -0.51917467289E+03 -0.59299553148E+03 -0.44808263432E+02  0.78942626761E+03  0.10100000352E+00 0. -1.
       -3    1    3    3    0  502  0.51917467289E+03  0.59299553148E+03  0.23111854206E+03  0.82134148319E+03  0.10100000352E+00 0.  1.
</event>
<event>
 5   0  0.2046108E-05  0.1599622E+04  0.7818609E-02  0.8820780E-01
        2   -1    0    0  501    0  0.00000000000E+00  0.00000000000E+00  0.96666805245E+03  0.96666805245E+03  0.25500000920E-02 0. -1.
       -2   -1    0    0    0  501  0.00000000000E+00  0.00000000000E+00 -0.66175501820E+03  0.66175501821E+03  0.25500000920E-02 0.  1.
    10030    2    1    2    0    0  0.00000000000E+00  0.00000000000E+00  0.30491303424E+03  0.16284230707E+04  0.15996217486E+04 0.  0.
        1    1    3    3  502    0 -0.48067185599E+03 -0.86780402943E+02 -0.49228811398E+03  0.69348674008E+03  0.50400001928E-02 0.  1.
       -1    1    3    3    0  502  0.48067185599E+03  0.86780402943E+02  0.79720114823E+03  0.93493633058E+03  0.50400001928E-02 0. -1.
</event>
<event>
 5   0  0.1994525E-05  0.1606800E+04  0.7818609E-02  0.8816381E-01
        2   -1    0    0  501    0  0.00000000000E+00  0.00000000000E+00  0.10235441353E+04  0.10235441353E+04  0.25500000920E-02 0. -1.
       -2   -1    0    0    0  501  0.00000000000E+00  0.00000000000E+00 -0.63060443361E+03  0.63060443362E+03  0.25500000920E-02 0.  1.
    10030    2    1    2    0    0  0.00000000000E+00  0.00000000000E+00  0.39293970173E+03  0.16541485690E+04  0.16067998877E+04 0.  0.
        5    1    3    3  502    0 -0.60650534882E+02 -0.36305103676E+03 -0.53867737110E+03  0.65244152444E+03  0.46999998093E+01 0.  1.
       -5    1    3    3    0  502  0.60650534882E+02  0.36305103676E+03  0.93161707283E+03  0.10017070445E+04  0.46999998093E+01 0. -1.
</event>
<event>
 5   0  0.7597000E-06  0.1599536E+04  0.7818609E-02  0.8820833E-01
        4   -1    0    0  501    0  0.00000000000E+00  0.00000000000E+00  0.85711213888E+03  0.85711307977E+03  0.12699999809E+01 0. -1.
       -4   -1    0    0    0  501  0.00000000000E+00  0.00000000000E+00 -0.74625857223E+03  0.74625965288E+03  0.12699999809E+01 0.  1.
    10030    2    1    2    0    0  0.00000000000E+00  0.00000000000E+00  0.11085356666E+03  0.16033727327E+04  0.15995360598E+04 0.  0.
        3    1    3    3  502    0  0.70769736013E+03  0.35331561245E+03  0.17386863565E+03  0.80987516829E+03  0.10100000352E+00 0.  1.
       -3    1    3    3    0  502 -0.70769736013E+03 -0.35331561245E+03 -0.63015068996E+02  0.79349756437E+03  0.10100000352E+00 0. -1.
</event>
<event>
 5   0  0.2125803E-05  0.1599738E+04  0.7818609E-02  0.8820709E-01
       -2   -1    0    0    0  501  0.00000000000E+00  0.00000000000E+00  0.92277795306E+03  0.92277795306E+03  0.25500000920E-02 0.  1.
        2   -1    0    0  501    0  0.00000000000E+00  0.00000000000E+00 -0.69333078082E+03  0.69333078082E+03  0.25500000920E-02 0. -1.
    10030    2    1    2    0    0  0.00000000000E+00  0.00000000000E+00  0.22944717224E+03  0.16161087339E+04  0.15997379269E+04 0.  0.
        3    1    3    3  502    0  0.53311370885E+03  0.95270468505E+02 -0.47994589266E+03  0.72362611811E+03  0.10100000352E+00 0. -1.
       -3    1    3    3    0  502 -0.53311370885E+03 -0.95270468505E+02  0.70939306490E+03  0.89248261577E+03  0.10100000352E+00 0.  1.
</event>
<event>
 5   0  0.1990948E-05  0.1597799E+04  0.7818609E-02  0.8821901E-01
       -2   -1    0    0    0  501  0.00000000000E+00  0.00000000000E+00  0.41211508434E+03  0.41211508435E+03  0.25500000920E-02 0. -1.
        2   -1    0    0  501    0  0.00000000000E+00  0.00000000000E+00 -0.15486948433E+04  0.15486948433E+04  0.25500000920E-02 0.  1.
    10030    2    1    2    0    0  0.00000000000E+00  0.00000000000E+00 -0.11365797589E+04  0.19608099276E+04  0.15977991188E+04 0.  0.
        4    1    3    3  502    0 -0.10039404626E+03 -0.64792800418E+03 -0.11284462373E+04  0.13050985352E+04  0.12699999809E+01 0.  1.
       -4    1    3    3    0  502  0.10039404626E+03  0.64792800418E+03 -0.81335216358E+01  0.65571139246E+03  0.12699999809E+01 0. -1.
</event>
<event>
 5   0  0.7597000E-06  0.1599751E+04  0.7818609E-02  0.8820701E-01
       -3   -1    0    0    0  501  0.00000000000E+00  0.00000000000E+00  0.81558936962E+03  0.81558937588E+03  0.10100000352E+00 0.  1.
        3   -1    0    0  501    0  0.00000000000E+00  0.00000000000E+00 -0.78446436811E+03  0.78446437461E+03  0.10100000352E+00 0. -1.
    10030    2    1    2    0    0  0.00000000000E+00  0.00000000000E+00  0.31125001518E+02  0.16000537505E+04  0.15997509927E+04 0.  0.
        2    1    3    3  502    0 -0.11287939326E+03 -0.78960069842E+03  0.75488690314E+02  0.80119258779E+03  0.25500000920E-02 0.  1.
       -2    1    3    3    0  502  0.11287939326E+03  0.78960069842E+03 -0.44363688795E+02  0.79886116269E+03  0.25500000920E-02 0. -1.
</event>
<event>
 5   0  0.2125803E-05  0.1599711E+04  0.7818609E-02  0.8820726E-01
       -2   -1    0    0    0  501  0.00000000000E+00  0.00000000000E+00  0.23958390276E+03  0.23958390277E+03  0.25500000920E-02 0. -1.
        2   -1    0    0  501    0  0.00000000000E+00  0.00000000000E+00 -0.26703314238E+04  0.26703314238E+04  0.25500000920E-02 0.  1.
    10030    2    1    2    0    0  0.00000000000E+00  0.00000000000E+00 -0.24307475210E+04  0.29099153266E+04  0.15997105040E+04 0.  0.
        3    1    3    3  502    0 -0.78574397676E+03 -0.14782867690E+03 -0.11738338268E+04  0.14202579970E+04  0.10100000352E+00 0. -1.
       -3    1    3    3    0  502  0.78574397676E+03  0.14782867690E+03 -0.12569136942E+04  0.14896573296E+04  0.10100000352E+00 0.  1.
</event>
<event>
 5   0  0.1990948E-05  0.1599654E+04  0.7818609E-02  0.8820760E-01
       -2   -1    0    0    0  501  0.00000000000E+00  0.00000000000E+00  0.10748707816E+04  0.10748707816E+04  0.25500000920E-02 0.  1.
        2   -1    0    0  501    0  0.00000000000E+00  0.00000000000E+00 -0.59516307506E+03  0.59516307507E+03  0.25500000920E-02 0. -1.
    10030    2    1    2    0    0  0.00000000000E+00  0.00000000000E+00  0.47970770655E+03  0.16700338567E+04  0.15996542122E+04 0.  0.
        4    1    3    3  502    0 -0.62106688984E+03  0.44100961092E+03  0.49452964894E+03  0.90817109905E+03  0.12699999809E+01 0.  1.
       -4    1    3    3    0  502  0.62106688984E+03 -0.44100961092E+03 -0.14821942391E+02  0.76186275762E+03  0.12699999809E+01 0. -1.
</event>
<event>
 5   0  0.2046108E-05  0.1591784E+04  0.7818609E-02  0.8825611E-01
       -2   -1    0    0    0  501  0.00000000000E+00  0.00000000000E+00  0.32677625793E+03  0.32677625794E+03  0.25500000920E-02 0. -1.
        2   -1    0    0  501    0  0.00000000000E+00  0.00000000000E+00 -0.19384650279E+04  0.19384650279E+04  0.25500000920E-02 0.  1.
    10030    2    1    2    0    0  0.00000000000E+00  0.00000000000E+00 -0.16116887699E+04  0.22652412858E+04  0.15917843421E+04 0.  0.
        1    1    3    3  502    0 -0.42373748738E+03  0.33207996963E+03 -0.16400354393E+04  0.17261363812E+04  0.50400001928E-02 0.  1.
       -1    1    3    3    0  502  0.42373748738E+03 -0.33207996963E+03  0.28346669365E+02  0.53910490457E+03  0.50400001928E-02 0. -1.
</event>
<event>
 5   0  0.1090674E-05  0.1599934E+04  0.7818609E-02  0.8820588E-01
       -1   -1    0    0    0  501  0.00000000000E+00  0.00000000000E+00  0.12775633987E+04  0.12775633987E+04  0.50400001928E-02 0.  1.
        1   -1    0    0  501    0  0.00000000000E+00  0.00000000000E+00 -0.50091235892E+03  0.50091235894E+03  0.50400001928E-02 0. -1.
    10030    2    1    2    0    0  0.00000000000E+00  0.00000000000E+00  0.77665103978E+03  0.17784757576E+04  0.15999341183E+04 0.  0.
        4    1    3    3  502    0  0.77375159160E+03  0.74753173153E+02  0.59825517191E+03  0.98091305731E+03  0.12699999809E+01 0.  1.
       -4    1    3    3    0  502 -0.77375159160E+03 -0.74753173153E+02  0.17839586787E+03  0.79756270034E+03  0.12699999809E+01 0. -1.
</event>
<event>
 5   0  0.2125803E-05  0.1600111E+04  0.7818609E-02  0.8820480E-01
        2   -1    0    0  501    0  0.00000000000E+00  0.00000000000E+00  0.16713073775E+04  0.16713073775E+04  0.25500000920E-02 0. -1.
       -2   -1    0    0    0  501  0.00000000000E+00  0.00000000000E+00 -0.38298702386E+03  0.38298702387E+03  0.25500000920E-02 0.  1.
    10030    2    1    2    0    0  0.00000000000E+00  0.00000000000E+00  0.12883203537E+04  0.20542944014E+04  0.16001112943E+04 0.  0.
        3    1    3    3  502    0 -0.17239516125E+03  0.33105588463E+03 -0.26435471481E+03  0.45738552209E+03  0.10100000352E+00 0.  1.
       -3    1    3    3    0  502  0.17239516125E+03 -0.33105588463E+03  0.15526750685E+04  0.15969088793E+04  0.10100000352E+00 0. -1.
</event>
<event>
 5   0  0.1994525E-05  0.1588089E+04  0.7818609E-02  0.8827899E-01
       -2   -1    0    0    0  501  0.00000000000E+00  0.00000000000E+00  0.53919367315E+03  0.53919367315E+03  0.25500000920E-02 0.  1.
        2   -1    0    0  501    0  0.00000000000E+00  0.00000000000E+00 -0.11693514437E+04  0.11693514437E+04  0.25500000920E-02 0. -1.
    10030    2    1    2    0    0  0.00000000000E+00  0.00000000000E+00 -0.63015777056E+03  0.17085451169E+04  0.15880892924E+04 0.  0.
        5    1    3    3  502    0 -0.74859382539E+03 -0.26210103840E+03 -0.27489420741E+03  0.83945135952E+03  0.46999998093E+01 0. -1.
       -5    1    3    3    0  502  0.74859382539E+03  0.26210103840E+03 -0.35526356314E+03  0.86909375733E+03  0.46999998093E+01 0.  1.
</event>
<event>
 5   0  0.1081831E-05  0.1599187E+04  0.7818609E-02  0.8821048E-01
        1   -1    0    0  501    0  0.00000000000E+00  0.00000000000E+00  0.69920241145E+03  0.69920241146E+03  0.50400001928E-02 0. -1.
       -1   -1    0    0    0  501  0.00000000000E+00  0.00000000000E+00 -0.91439870967E+03  0.91439870968E+03  0.50400001928E-02 0.  1.
    10030    2    1    2    0    0  0.00000000000E+00  0.00000000000E+00 -0.21519629822E+03  0.16136011211E+04  0.15991870220E+04 0.  0.
        3    1    3    3  502    0 -0.75392956339E+02 -0.49243714208E+03  0.52347607482E+03  0.72263797844E+03  0.10100000352E+00 0. -1.
       -3    1    3    3    0  502  0.75392956339E+02  0.49243714208E+03 -0.73867237304E+03  0.89096314271E+03  0.10100000352E+00 0.  1.
</event>
<event>
 5   0  0.1090674E-05  0.1603843E+04  0.7818609E-02  0.8818191E-01
       -1   -1    0    0    0  501  0.00000000000E+00  0.00000000000E+00  0.43762613646E+03  0.43762613648E+03  0.50400001928E-02 0.  1.
        1   -1    0    0  501    0  0.00000000000E+00  0.00000000000E+00 -0.14694685921E+04  0.14694685921E+04  0.50400001928E-02 0. -1.
    10030    2    1    2    0    0  0.00000000000E+00  0.00000000000E+00 -0.10318424556E+04  0.19070947286E+04  0.16038427138E+04 0.  0.
        4    1    3    3  502    0 -0.67784159568E+03 -0.40793399163E+03 -0.35998920501E+03  0.86917961951E+03  0.12699999809E+01 0.  1.
       -4    1    3    3    0  502  0.67784159568E+03  0.40793399163E+03 -0.67185325063E+03  0.10379151091E+04  0.12699999809E+01 0. -1.
</event>
<event>
 5   0  0.1990948E-05  0.1600669E+04  0.7818609E-02  0.8820137E-01
       -2   -1    0    0    0  501  0.00000000000E+00  0.00000000000E+00  0.54853006639E+03  0.54853006640E+03  0.25500000920E-02 0. -1.
        2   -1    0    0  501    0  0.00000000000E+00  0.00000000000E+00 -0.11677300065E+04  0.11677300065E+04  0.25500000920E-02 0.  1.
    10030    2    1    2    0    0  0.00000000000E+00  0.00000000000E+00 -0.61919994010E+03  0.17162600729E+04  0.16006686328E+04 0.  0.
        4    1    3    3  502    0 -0.74445082170E+03  0.42070829913E+02 -0.62138479224E+03  0.97061715089E+03  0.12699999809E+01 0.  1.
       -4    1    3    3    0  502  0.74445082170E+03 -0.42070829913E+02  0.21848521402E+01  0.74564292201E+03  0.12699999809E+01 0. -1.
</event>
<event>
 5   0  0.1081831E-05  0.1599991E+04  0.7818609E-02  0.8820553E-01
        1   -1    0    0  501    0  0.00000000000E+00  0.00000000000E+00  0.12823730836E+04  0.12823730836E+04  0.50400001928E-02 0. -1.
       -1   -1    0    0    0  501  0.00000000000E+00  0.00000000000E+00 -0.49906941240E+03  0.49906941243E+03  0.50400001928E-02 0.  1.
    10030    2    1    2    0    0  0.00000000000E+00  0.00000000000E+00  0.78330367116E+03  0.17814424960E+04  0.15999914766E+04 0.  0.
        3    1    3    3  502    0 -0.60895783389E+03  0.40066998228E+03  0.24688041263E+02  0.72936656610E+03  0.10100000352E+00 0. -1.
       -3    1    3    3    0  502  0.60895783389E+03 -0.40066998228E+03  0.75861562990E+03  0.10520759299E+04  0.10100000352E+00 0.  1.
</event>
<event>
 5   0  0.1994525E-05  0.1600163E+04  0.7818609E-02  0.8820448E-01
        2   -1    0    0  501    0  0.00000000000E+00  0.00000000000E+00  0.12751086457E+04  0.12751086457E+04  0.25500000920E-02 0. -1.
       -2   -1    0    0    0  501  0.00000000000E+00  0.00000000000E+00 -0.50202055458E+03  0.50202055459E+03  0.25500000920E-02 0.  1.
    10030    2    1    2    0    0  0.00000000000E+00  0.00000000000E+00  0.77308809108E+03  0.17771292002E+04  0.16001634285E+04 0.  0.
        5    1    3    3  502    0  0.41621001063E+03  0.45211608760E+02 -0.37064358547E+03  0.55917226322E+03  0.46999998093E+01 0.  1.
       -5    1    3    3    0  502 -0.41621001063E+03 -0.45211608760E+02  0.11437316765E+04  0.12179569370E+04  0.46999998093E+01 0. -1.
</event>
<event>
 5   0  0.2147844E-05  0.1600095E+04  0.7818609E-02  0.8820489E-01
       -2   -1    0    0    0  501  0.00000000000E+00  0.00000000000E+00  0.12378592102E+04  0.12378592102E+04  0.25500000920E-02 0.  1.
        2   -1    0    0  501    0  0.00000000000E+00  0.00000000000E+00 -0.51708332278E+03  0.51708332279E+03  0.25500000920E-02 0. -1.
    10030    2    1    2    0    0  0.00000000000E+00  0.00000000000E+00  0.72077588737E+03  0.17549425329E+04  0.16000954391E+04 0.  0.
        2    1    3    3  502    0 -0.79815319403E+03 -0.87377244253E+00  0.42073111989E+03  0.90225493065E+03  0.25500000920E-02 0.  1.
       -2    1    3    3    0  502  0.79815319403E+03  0.87377244253E+00  0.30004476748E+03  0.85268760230E+03  0.25500000920E-02 0. -1.
</event>
<event>
 5   0  0.1994525E-05  0.1600155E+04  0.7818609E-02  0.8820453E-01
        2   -1    0    0  501    0  0.00000000000E+00  0.00000000000E+00  0.69864982694E+03  0.69864982694E+03  0.25500000920E-02 0.  1.
       -2   -1    0    0    0  501  0.00000000000E+00  0.00000000000E+00 -0.91623018608E+03  0.91623018608E+03  0.25500000920E-02 0. -1.
    10030    2    1    2    0    0  0.00000000000E+00  0.00000000000E+00 -0.21758035914E+03  0.16148800130E+04  0.16001550687E+04 0.  0.
        5    1    3    3  502    0  0.53118106903E+03  0.56219171601E+03  0.97761529288E+02  0.77961032590E+03  0.46999998093E+01 0.  1.
       -5    1    3    3    0  502 -0.53118106903E+03 -0.56219171601E+03 -0.31534188842E+03  0.83526968713E+03  0.46999998093E+01 0. -1.
</event>
<event>
 5   0  0.1057506E-05  0.1599884E+04  0.7818609E-02  0.8820619E-01
       -1   -1    0    0    0  501  0.00000000000E+00  0.00000000000E+00  0.34473823871E+03  0.34473823875E+03  0.50400001928E-02 0.  1.
        1   -1    0    0  501    0  0.00000000000E+00  0.00000000000E+00 -0.18562110011E+04  0.18562110011E+04  0.50400001928E-02 0. -1.
    10030    2    1    2    0    0  0.00000000000E+00  0.00000000000E+00 -0.15114727624E+04  0.22009492399E+04  0.15998836348E+04 0.  0.
        5    1    3    3  502    0 -0.45487310388E+03 -0.55850964348E+03 -0.27711715503E+03  0.77178920056E+03  0.46999998093E+01 0.  1.
       -5    1    3    3    0  502  0.45487310388E+03  0.55850964348E+03 -0.12343556074E+04  0.14291600393E+04  0.46999998093E+01 0. -1.
</event>
<event>
 5   0  0.1090674E-05  0.1600794E+04  0.7818609E-02  0.8820060E-01
        1   -1    0    0  501    0  0.00000000000E+00  0.00000000000E+00  0.14776171248E+04  0.14776171248E+04  0.50400001928E-02 0.  1.
       -1   -1    0    0    0  501  0.00000000000E+00  0.00000000000E+00 -0.43355967766E+03  0.43355967769E+03  0.50400001928E-02 0. -1.
    10030    2    1    2    0    0  0.00000000000E+00  0.00000000000E+00  0.10440574472E+04  0.19111768025E+04  0.16007938086E+04 0.  0.
        4    1    3    3  502    0 -0.52124600200E+03  0.28350215475E+03  0.11633646735E+04  0.13059440428E+04  0.12699999809E+01 0.  1.
       -4    1    3    3    0  502  0.52124600200E+03 -0.28350215475E+03 -0.11930722633E+03  0.60523275977E+03  0.12699999809E+01 0. -1.
</event>
<event>
 5   0  0.2125803E-05  0.1600536E+04  0.7818609E-02  0.8820219E-01
       -2   -1    0    0    0  501  0.00000000000E+00  0.00000000000E+00  0.72590403165E+03  0.72590403166E+03  0.25500000920E-02 0.  1.
        2   -1    0    0  501    0  0.00000000000E+00  0.00000000000E+00 -0.88225009591E+03  0.88225009592E+03  0.25500000920E-02 0. -1.
    10030    2    1    2    0    0  0.00000000000E+00  0.00000000000E+00 -0.15634606426E+03  0.16081541276E+04  0.16005360372E+04 0.  0.
        3    1    3    3  502    0 -0.70554888130E+02 -0.79502600417E+03 -0.13662683841E+03  0.80975999081E+03  0.10100000352E+00 0.  1.
       -3    1    3    3    0  502  0.70554888130E+02  0.79502600417E+03 -0.19719225854E+02  0.79839413676E+03  0.10100000352E+00 0. -1.
</event>
<event>
 5   0  0.1126485E-05  0.1599616E+04  0.7818609E-02  0.8820784E-01
       -1   -1    0    0    0  501  0.00000000000E+00  0.00000000000E+00  0.26141552339E+03  0.26141552344E+03  0.50400001928E-02 0. -1.
        1   -1    0    0  501    0  0.00000000000E+00  0.00000000000E+00 -0.24470352754E+04  0.24470352754E+04  0.50400001928E-02 0.  1.
    10030    2    1    2    0    0  0.00000000000E+00  0.00000000000E+00 -0.21856197520E+04  0.27084507988E+04  0.15996162131E+04 0.  0.
        2    1    3    3  502    0 -0.46267873315E+03 -0.37282544227E+03 -0.18632542505E+03  0.62272593052E+03  0.25500000920E-02 0.  1.
       -2    1    3    3    0  502  0.46267873315E+03  0.37282544227E+03 -0.19992943269E+04  0.20857248683E+04  0.25500000920E-02 0. -1.
</event>
<event>
 5   0  0.1990948E-05  0.1599715E+04  0.7818609E-02  0.8820723E-01
       -2   -1    0    0    0  501  0.00000000000E+00  0.00000000000E+00  0.55768973838E+03  0.55768973839E+03  0.25500000920E-02 0.  1.
        2   -1    0    0  501    0  0.00000000000E+00  0.00000000000E+00 -0.11471825607E+04  0.11471825607E+04  0.25500000920E-02 0. -1.
    10030    2    1    2    0    0  0.00000000000E+00  0.00000000000E+00 -0.58949282235E+03  0.17048722991E+04  0.15997149023E+04 0.  0.
        4    1    3    3  502    0  0.44509642140E+03 -0.60580144123E+03 -0.58595570796E+03  0.95312743908E+03  0.12699999809E+01 0. -1.
       -4    1    3    3    0  502 -0.44509642140E+03  0.60580144123E+03 -0.35371143925E+01  0.75174486005E+03  0.12699999809E+01 0.  1.
</event>
<event>
 5   0  0.1090674E-05  0.1599749E+04  0.7818609E-02  0.8820702E-01
        1   -1    0    0  501    0  0.00000000000E+00  0.00000000000E+00  0.15975067830E+04  0.15975067830E+04  0.50400001928E-02 0.  1.
       -1   -1    0    0    0  501  0.00000000000E+00  0.00000000000E+00 -0.40049842311E+03  0.40049842315E+03  0.50400001928E-02 0. -1.
    10030    2    1    2    0    0  0.00000000000E+00  0.00000000000E+00  0.11970083599E+04  0.19980052062E+04  0.15997486647E+04 0.  0.
        4    1    3    3  502    0 -0.55402339065E+03 -0.27076838544E+03 -0.37773845391E+02  0.61780734233E+03  0.12699999809E+01 0. -1.
       -4    1    3    3    0  502  0.55402339065E+03  0.27076838544E+03  0.12347822053E+04  0.13801978638E+04  0.12699999809E+01 0.  1.
</event>
<event>
 5   0  0.1060251E-05  0.1600209E+04  0.7818609E-02  0.8820420E-01
        1   -1    0    0  501    0  0.00000000000E+00  0.00000000000E+00  0.12292492931E+04  0.12292492931E+04  0.50400001928E-02 0. -1.
       -1   -1    0    0    0  501  0.00000000000E+00  0.00000000000E+00 -0.52077894981E+03  0.52077894984E+03  0.50400001928E-02 0.  1.
    10030    2    1    2    0    0  0.00000000000E+00  0.00000000000E+00  0.70847034324E+03  0.17500282429E+04  0.16002089313E+04 0.  0.
        1    1    3    3  502    0  0.26010885800E+03 -0.47642260968E+02  0.11800781742E+04  0.12093431689E+04  0.50400001928E-02 0. -1.
       -1    1    3    3    0  502 -0.26010885800E+03  0.47642260968E+02 -0.47160783091E+03  0.54068507400E+03  0.50400001928E-02 0.  1.
</event>
<event>
 5   0  0.1057506E-05  0.1599210E+04  0.7818609E-02  0.8821034E-01
       -1   -1    0    0    0  501  0.00000000000E+00  0.00000000000E+00  0.47368349591E+03  0.47368349594E+03  0.50400001928E-02 0.  1.
        1   -1    0    0  501    0  0.00000000000E+00  0.00000000000E+00 -0.13497788435E+04  0.13497788435E+04  0.50400001928E-02 0. -1.
    10030    2    1    2    0    0  0.00000000000E+00  0.00000000000E+00 -0.87609534755E+03  0.18234623394E+04  0.15992097565E+04 0.  0.
        5    1    3    3  502    0 -0.49814209202E+03 -0.20363544444E+03  0.23626237642E+03  0.58775414808E+03  0.46999998093E+01 0.  1.
       -5    1    3    3    0  502  0.49814209202E+03  0.20363544444E+03 -0.11123577240E+04  0.12357081913E+04  0.46999998093E+01 0. -1.
</event>
<event>
 5   0  0.1081831E-05  0.1599830E+04  0.7818609E-02  0.8820652E-01
       -1   -1    0    0    0  501  0.00000000000E+00  0.00000000000E+00  0.72419934686E+03  0.72419934687E+03  0.50400001928E-02 0. -1.
        1   -1    0    0  501    0  0.00000000000E+00  0.00000000000E+00 -0.88354672523E+03  0.88354672525E+03  0.50400001928E-02 0.  1.
    10030    2    1    2    0    0  0.00000000000E+00  0.00000000000E+00 -0.15934737838E+03  0.16077460721E+04  0.15998299427E+04 0.  0.
        3    1    3    3  502    0 -0.19554158021E+03 -0.21665888148E+03 -0.82813160136E+03  0.87805440599E+03  0.10100000352E+00 0.  1.
       -3    1    3    3    0  502  0.19554158021E+03  0.21665888148E+03  0.66878422298E+03  0.72969166613E+03  0.10100000352E+00 0. -1.
</event>
<event>
 5   0  0.2147844E-05  0.1601667E+04  0.7818609E-02  0.8819525E-01
       -2   -1    0    0    0  501  0.00000000000E+00  0.00000000000E+00  0.41499340603E+03  0.41499340603E+03  0.25500000920E-02 0.  1.
        2   -1    0    0  501    0  0.00000000000E+00  0.00000000000E+00 -0.15454085680E+04  0.15454085680E+04  0.25500000920E-02 0. -1.
    10030    2    1    2    0    0  0.00000000000E+00  0.00000000000E+00 -0.11304151620E+04  0.19604019741E+04  0.16016670882E+04 0.  0.
        2    1    3    3  502    0  0.66684454744E+03 -0.44276901701E+03 -0.59539571326E+03  0.99760819375E+03  0.25500000920E-02 0. -1.
       -2    1    3    3    0  502 -0.66684454744E+03  0.44276901701E+03 -0.53501944876E+03  0.96279378033E+03  0.25500000920E-02 0.  1.
</event>
<event>
 5   0  0.1090674E-05  0.1599528E+04  0.7818609E-02  0.8820838E-01
        1   -1    0    0  501    0  0.00000000000E+00  0.00000000000E+00  0.71856848343E+03  0.71856848345E+03  0.50400001928E-02 0.  1.
       -1   -1    0    0    0  501  0.00000000000E+00  0.00000000000E+00 -0.89013389550E+03  0.89013389551E+03  0.50400001928E-02 0. -1.
    10030    2    1    2    0    0  0.00000000000E+00  0.00000000000E+00 -0.17156541207E+03  0.16087023790E+04  0.15995276345E+04 0.  0.
        4    1    3    3  502    0  0.58189043406E+03  0.48107179825E+03 -0.35110262137E+03  0.83264711370E+03  0.12699999809E+01 0.  1.
       -4    1    3    3    0  502 -0.58189043406E+03 -0.48107179825E+03  0.17953720930E+03  0.77605526526E+03  0.12699999809E+01 0. -1.
</event>
<event>
 5   0  0.1994525E-05  0.1600439E+04  0.7818609E-02  0.8820279E-01
       -2   -1    0    0    0  501  0.00000000000E+00  0.00000000000E+00  0.91911801654E+03  0.91911801654E+03  0.25500000920E-02 0. -1.
        2   -1    0    0  501    0  0.00000000000E+00  0.00000000000E+00 -0.69670165989E+03  0.69670165990E+03  0.25500000920E-02 0.  1.
    10030    2    1    2    0    0  0.00000000000E+00  0.00000000000E+00  0.22241635665E+03  0.16158196764E+04  0.16004387496E+04 0.  0.
        5    1    3    3  502    0  0.56729481470E+03  0.43359285301E+03 -0.25351530815E+03  0.75770592610E+03  0.46999998093E+01 0.  1.
       -5    1    3    3    0  502 -0.56729481470E+03 -0.43359285301E+03  0.47593166480E+03  0.85811375034E+03  0.46999998093E+01 0. -1.
</event>
<event>
 5   0  0.1990948E-05  0.1601360E+04  0.7818609E-02  0.8819713E-01
        2   -1    0    0  501    0  0.00000000000E+00  0.00000000000E+00  0.19332637928E+04  0.19332637928E+04  0.25500000920E-02 0.  1.
       -2   -1    0    0    0  501  0.00000000000E+00  0.00000000000E+00 -0.33160941101E+03  0.33160941102E+03  0.25500000920E-02 0. -1.
    10030    2    1    2    0    0  0.00000000000E+00  0.00000000000E+00  0.16016543818E+04  0.22648732038E+04  0.16013600066E+04 0.  0.
        4    1    3    3  502    0  0.26773861367E+02 -0.13163798749E+03 -0.31555625445E+03  0.34296175009E+03  0.12699999809E+01 0. -1.
       -4    1    3    3    0  502 -0.26773861367E+02  0.13163798749E+03  0.19172106363E+04  0.19219114538E+04  0.12699999809E+01 0.  1.
</event>
<event>
 5   0  0.1060251E-05  0.1599608E+04  0.7818609E-02  0.8820789E-01
       -1   -1    0    0    0  501  0.00000000000E+00  0.00000000000E+00  0.11625243927E+04  0.11625243927E+04  0.50400001928E-02 0.  1.
        1   -1    0    0  501    0  0.00000000000E+00  0.00000000000E+00 -0.55025663349E+03  0.55025663351E+03  0.50400001928E-02 0. -1.
    10030    2    1    2    0    0  0.00000000000E+00  0.00000000000E+00  0.61226775919E+03  0.17127810262E+04  0.15996084004E+04 0.  0.
        1    1    3    3  502    0 -0.33525288574E+03  0.72566030917E+03  0.33465238129E+03  0.86658502066E+03  0.50400001928E-02 0. -1.
       -1    1    3    3    0  502  0.33525288574E+03 -0.72566030917E+03  0.27761537790E+03  0.84619600553E+03  0.50400001928E-02 0.  1.
</event>
<event>
 5   0  0.1994525E-05  0.1599704E+04  0.7818609E-02  0.8820730E-01
       -2   -1    0    0    0  501  0.00000000000E+00  0.00000000000E+00  0.26021918573E+03  0.26021918574E+03  0.25500000920E-02 0.  1.
        2   -1    0    0  501    0  0.00000000000E+00  0.00000000000E+00 -0.24585557085E+04  0.24585557085E+04  0.25500000920E-02 0. -1.
    10030    2    1    2    0    0  0.00000000000E+00  0.00000000000E+00 -0.21983365228E+04  0.27187748942E+04  0.15997041783E+04 0.  0.
        5    1    3    3  502    0  0.67984764953E+03  0.37056824197E+03 -0.75829277254E+03  0.10837636585E+04  0.46999998093E+01 0.  1.
       -5    1    3    3    0  502 -0.67984764953E+03 -0.37056824197E+03 -0.14400437502E+04  0.16350112358E+04  0.46999998093E+01 0. -1.
</event>
<event>
 5   0  0.7597000E-06  0.1599845E+04  0.7818609E-02  0.8820643E-01
       -3   -1    0    0    0  501  0.00000000000E+00  0.00000000000E+00  0.40820567297E+03  0.40820568546E+03  0.10100000352E+00 0.  1.
        3   -1    0    0  501    0  0.00000000000E+00  0.00000000000E+00 -0.15675339083E+04  0.15675339116E+04  0.10100000352E+00 0. -1.
    10030    2    1    2    0    0  0.00000000000E+00  0.00000000000E+00 -0.11593282354E+04  0.19757395970E+04  0.15998453044E+04 0.  0.
        5    1    3    3  502    0 -0.35231706195E+03  0.55605325411E+03 -0.18428797043E+02  0.65854707053E+03  0.46999998093E+01 0.  1.
       -5    1    3    3    0  502  0.35231706195E+03 -0.55605325411E+03 -0.11408994383E+04  0.13171925265E+04  0.46999998093E+01 0. -1.
</event>
<event>
 5   0  0.2046108E-05  0.1600220E+04  0.7818609E-02  0.8820413E-01
        2   -1    0    0  501    0  0.00000000000E+00  0.00000000000E+00  0.16333765406E+04  0.16333765406E+04  0.25500000920E-02 0.  1.
       -2   -1    0    0    0  501  0.00000000000E+00  0.00000000000E+00 -0.39193417830E+03  0.39193417830E+03  0.25500000920E-02 0. -1.
    10030    2    1    2    0    0  0.00000000000E+00  0.00000000000E+00  0.12414423623E+04  0.20253107190E+04  0.16002201003E+04 0.  0.
        1    1    3    3  502    0  0.63242090946E+03  0.33075802651E+03  0.10784912308E+04  0.12932518756E+04  0.50400001928E-02 0.  1.
       -1    1    3    3    0  502 -0.63242090946E+03 -0.33075802651E+03  0.16295113155E+03  0.73205884335E+03  0.50400001928E-02 0. -1.
</event>
<event>
 5   0  0.2125803E-05  0.1599204E+04  0.7818609E-02  0.8821037E-01
       -2   -1    0    0    0  501  0.00000000000E+00  0.00000000000E+00  0.45962820387E+03  0.45962820387E+03  0.25500000920E-02 0. -1.
        2   -1    0    0  501    0  0.00000000000E+00  0.00000000000E+00 -0.13910444600E+04  0.13910444600E+04  0.25500000920E-02 0.  1.
    10030    2    1    2    0    0  0.00000000000E+00  0.00000000000E+00 -0.93141625615E+03  0.18506726639E+04  0.15992038853E+04 0.  0.
        3    1    3    3  502    0  0.25069367928E+03  0.67736843290E+03 -0.86270927150E+03  0.11251411521E+04  0.10100000352E+00 0.  1.
       -3    1    3    3    0  502 -0.25069367928E+03 -0.67736843290E+03 -0.68706984647E+02  0.72553151183E+03  0.10100000352E+00 0. -1.
</event>
<event>
 5   0  0.1060251E-05  0.1599961E+04  0.7818609E-02  0.8820572E-01
        1   -1    0    0  501    0  0.00000000000E+00  0.00000000000E+00  0.10465503342E+04  0.10465503342E+04  0.50400001928E-02 0.  1.
       -1   -1    0    0    0  501  0.00000000000E+00  0.00000000000E+00 -0.61150328324E+03  0.61150328326E+03  0.50400001928E-02 0. -1.
    10030    2    1    2    0    0  0.00000000000E+00  0.00000000000E+00  0.43504705099E+03  0.16580536175E+04  0.15999612064E+04 0.  0.
        1    1    3    3  502    0 -0.13910063722E+03 -0.72381310698E+03 -0.10475773814E+03  0.74446530130E+03  0.50400001928E-02 0. -1.
       -1    1    3    3    0  502  0.13910063722E+03  0.72381310698E+03  0.53980478913E+03  0.91358831621E+03  0.50400001928E-02 0.  1.
</event>
<event>
 5   0  0.1126485E-05  0.1599611E+04  0.7818609E-02  0.8820787E-01
       -1   -1    0    0    0  501  0.00000000000E+00  0.00000000000E+00  0.59776034442E+03  0.59776034444E+03  0.50400001928E-02 0. -1.
        1   -1    0    0  501    0  0.00000000000E+00  0.00000000000E+00 -0.10701422309E+04  0.10701422309E+04  0.50400001928E-02 0.  1.
    10030    2    1    2    0    0  0.00000000000E+00  0.00000000000E+00 -0.47238188643E+03  0.16679025753E+04  0.15996106883E+04 0.  0.
        2    1    3    3  502    0  0.10389364405E+03  0.65252505104E+03 -0.70610398530E+03  0.96703964219E+03  0.25500000920E-02 0.  1.
       -2    1    3    3    0  502 -0.10389364405E+03 -0.65252505104E+03  0.23372209887E+03  0.70086293311E+03  0.25500000920E-02 0. -1.
</event>
<event>
 5   0  0.2046108E-05  0.1599857E+04  0.7818609E-02  0.8820636E-01
       -2   -1    0    0    0  501  0.00000000000E+00  0.00000000000E+00  0.45531684424E+03  0.45531684424E+03  0.25500000920E-02 0. -1.
        2   -1    0    0  501    0  0.00000000000E+00  0.00000000000E+00 -0.14053627016E+04  0.14053627016E+04  0.25500000920E-02 0.  1.
    10030    2    1    2    0    0  0.00000000000E+00  0.00000000000E+00 -0.95004585736E+03  0.18606795458E+04  0.15998566315E+04 0.  0.
        1    1    3    3  502    0  0.26716024822E+02  0.12170303473E+03 -0.13940071004E+04  0.13995646361E+04  0.50400001928E-02 0.  1.
       -1    1    3    3    0  502 -0.26716024822E+02 -0.12170303473E+03  0.44396124303E+03  0.46111490974E+03  0.50400001928E-02 0. -1.
</event>
<event>
 5   0  0.2125803E-05  0.1600331E+04  0.7818609E-02  0.8820345E-01
       -2   -1    0    0    0  501  0.00000000000E+00  0.00000000000E+00  0.88792778870E+03  0.88792778870E+03  0.25500000920E-02 0. -1.
        2   -1    0    0  501    0  0.00000000000E+00  0.00000000000E+00 -0.72107716437E+03  0.72107716438E+03  0.25500000920E-02 0.  1.
    10030    2    1    2    0    0  0.00000000000E+00  0.00000000000E+00  0.16685062432E+03  0.16090049531E+04  0.16003305309E+04 0.  0.
        3    1    3    3  502    0 -0.43792766932E+03  0.66517738819E+03  0.53976899626E+01  0.79641116678E+03  0.10100000352E+00 0. -1.
       -3    1    3    3    0  502  0.43792766932E+03 -0.66517738819E+03  0.16145293436E+03  0.81259378630E+03  0.10100000352E+00 0.  1.
</event>
<event>
 5   0  0.1057506E-05  0.1599716E+04  0.7818609E-02  0.8820723E-01
        1   -1    0    0  501    0  0.00000000000E+00  0.00000000000E+00  0.24127127703E+04  0.24127127703E+04  0.50400001928E-02 0. -1.
       -1   -1    0    0    0  501  0.00000000000E+00  0.00000000000E+00 -0.26516730857E+03  0.26516730862E+03  0.50400001928E-02 0.  1.
    10030    2    1    2    0    0  0.00000000000E+00  0.00000000000E+00  0.21475454617E+04  0.26778800789E+04  0.15997156644E+04 0.  0.
        5    1    3    3  502    0 -0.26319368853E+03  0.55091342792E+03  0.19387063174E+04  0.20325798380E+04  0.46999998093E+01 0. -1.
       -5    1    3    3    0  502  0.26319368853E+03 -0.55091342792E+03  0.20883914434E+03  0.64530024093E+03  0.46999998093E+01 0.  1.
</event>
<event>
 5   0  0.2125803E-05  0.1599957E+04  0.7818609E-02  0.8820574E-01
       -2   -1    0    0    0  501  0.00000000000E+00  0.00000000000E+00  0.51624781374E+03  0.51624781374E+03  0.25500000920E-02 0.  1.
        2   -1    0    0  501    0  0.00000000000E+00  0.00000000000E+00 -0.12396484971E+04  0.12396484971E+04  0.25500000920E-02 0. -1.
    10030    2    1    2    0    0  0.00000000000E+00  0.00000000000E+00 -0.72340068337E+03  0.17558963109E+04  0.15999572825E+04 0.  0.
        3    1    3    3  502    0 -0.38099159239E+03  0.65718444141E+03 -0.63698642612E+03  0.99136153888E+03  0.10100000352E+00 0. -1.
       -3    1    3    3    0  502  0.38099159239E+03 -0.65718444141E+03 -0.86414257250E+02  0.76453477198E+03  0.10100000352E+00 0.  1.
</event>
<event>
 5   0  0.1090674E-05  0.1599599E+04  0.7818609E-02  0.8820795E-01
       -1   -1    0    0    0  501  0.00000000000E+00  0.00000000000E+00  0.51289975592E+03  0.51289975594E+03  0.50400001928E-02 0.  1.
        1   -1    0    0  501    0  0.00000000000E+00  0.00000000000E+00 -0.12471810699E+04  0.12471810699E+04  0.50400001928E-02 0. -1.
    10030    2    1    2    0    0  0.00000000000E+00  0.00000000000E+00 -0.73428131394E+03  0.17600808258E+04  0.15995985326E+04 0.  0.
        4    1    3    3  502    0  0.67163080519E+03  0.69345730622E+02  0.10456524583E+03  0.68325125128E+03  0.12699999809E+01 0.  1.
       -4    1    3    3    0  502 -0.67163080519E+03 -0.69345730622E+02 -0.83884655977E+03  0.10768295745E+04  0.12699999809E+01 0. -1.
</event>
<event>
 5   0  0.1090674E-05  0.1600010E+04  0.7818609E-02  0.8820542E-01
       -1   -1    0    0    0  501  0.00000000000E+00  0.00000000000E+00  0.55052365957E+03  0.55052365959E+03  0.50400001928E-02 0. -1.
        1   -1    0    0  501    0  0.00000000000E+00  0.00000000000E+00 -0.11625447031E+04  0.11625447031E+04  0.50400001928E-02 0.  1.
    10030    2    1    2    0    0  0.00000000000E+00  0.00000000000E+00 -0.61202104348E+03  0.17130683627E+04  0.16000104554E+04 0.  0.
        4    1    3    3  502    0  0.74510643727E+03  0.28911627124E+03 -0.34363522623E+03  0.86997620816E+03  0.12699999809E+01 0.  1.
       -4    1    3    3    0  502 -0.74510643727E+03 -0.28911627124E+03 -0.26838581726E+03  0.84309215449E+03  0.12699999809E+01 0. -1.
</event>
<event>
 5   0  0.2125803E-05  0.1599862E+04  0.7818609E-02  0.8820633E-01
        2   -1    0    0  501    0  0.00000000000E+00  0.00000000000E+00  0.55092496916E+03  0.55092496916E+03  0.25500000920E-02 0. -1.
       -2   -1    0    0    0  501  0.00000000000E+00  0.00000000000E+00 -0.11614818081E+04  0.11614818081E+04  0.25500000920E-02 0.  1.
    10030    2    1    2    0    0  0.00000000000E+00  0.00000000000E+00 -0.61055683895E+03  0.17124067773E+04  0.15998616557E+04 0.  0.
        3    1    3    3  502    0  0.19848182574E+03 -0.88266327566E+01  0.52409625971E+03  0.56049071735E+03  0.10100000352E+00 0. -1.
       -3    1    3    3    0  502 -0.19848182574E+03  0.88266327566E+01 -0.11346530987E+04  0.11519160599E+04  0.10100000352E+00 0.  1.
</event>
<event>
 5   0  0.1081831E-05  0.1602882E+04  0.7818609E-02  0.8818780E-01
        1   -1    0    0  501    0  0.00000000000E+00  0.00000000000E+00  0.50588135508E+03  0.50588135510E+03  0.50400001928E-02 0.  1.
       -1   -1    0    0    0  501  0.00000000000E+00  0.00000000000E+00 -0.12696798813E+04  0.12696798813E+04  0.50400001928E-02 0. -1.
    10030    2    1    2    0    0  0.00000000000E+00  0.00000000000E+00 -0.76379852619E+03  0.17755612364E+04  0.16028816287E+04 0.  0.
        3    1    3    3  502    0  0.57738965589E+03  0.25198608258E+03  0.16688217682E+03  0.65170965290E+03  0.10100000352E+00 0.  1.
       -3    1    3    3    0  502 -0.57738965589E+03 -0.25198608258E+03 -0.93068070300E+03  0.11238515835E+04  0.10100000352E+00 0. -1.
</event>
<event>
 5   0  0.1060251E-05  0.1598176E+04  0.7818609E-02  0.8821669E-01
        1   -1    0    0  501    0  0.00000000000E+00  0.00000000000E+00  0.12553563733E+04  0.12553563733E+04  0.50400001928E-02 0. -1.
       -1   -1    0    0    0  501  0.00000000000E+00  0.00000000000E+00 -0.50865397989E+03  0.50865397992E+03  0.50400001928E-02 0.  1.
    10030    2    1    2    0    0  0.00000000000E+00  0.00000000000E+00  0.74670239337E+03  0.17640103532E+04  0.15981764802E+04 0.  0.
        1    1    3    3  502    0 -0.41936259362E+03 -0.63575437670E+03  0.64030114366E+03  0.99500460653E+03  0.50400001928E-02 0. -1.
       -1    1    3    3    0  502  0.41936259362E+03  0.63575437670E+03  0.10640124971E+03  0.76900574665E+03  0.50400001928E-02 0.  1.
</event>
<event>
 5   0  0.1090674E-05  0.1600254E+04  0.7818609E-02  0.8820392E-01
       -1   -1    0    0    0  501  0.00000000000E+00  0.00000000000E+00  0.11507753737E+04  0.11507753738E+04  0.50400001928E-02 0. -1.
        1   -1    0    0  501    0  0.00000000000E+00  0.00000000000E+00 -0.55632322203E+03  0.55632322206E+03  0.50400001928E-02 0.  1.
    10030    2    1    2    0    0  0.00000000000E+00  0.00000000000E+00  0.59445215171E+03  0.17070985958E+04  0.16002538096E+04 0.  0.
        4    1    3    3  502    0  0.28474749556E+03  0.33767978878E+03 -0.41447063519E+03  0.60571965158E+03  0.12699999809E+01 0.  1.
       -4    1    3    3    0  502 -0.28474749556E+03 -0.33767978878E+03  0.10089227869E+04  0.11013789442E+04  0.12699999809E+01 0. -1.
</event>
<event>
 5   0  0.2147844E-05  0.1599503E+04  0.7818609E-02  0.8820854E-01
       -2   -1    0    0    0  501  0.00000000000E+00  0.00000000000E+00  0.75629395443E+03  0.75629395443E+03  0.25500000920E-02 0.  1.
        2   -1    0    0  501    0  0.00000000000E+00  0.00000000000E+00 -0.84570580108E+03  0.84570580108E+03  0.25500000920E-02 0. -1.
    10030    2    1    2    0    0  0.00000000000E+00  0.00000000000E+00 -0.89411846654E+02  0.16019997555E+04  0.15995026534E+04 0.  0.
        2    1    3    3  502    0 -0.46681678627E+03 -0.47927807219E+03  0.39412968196E+03  0.77650730108E+03  0.25500000920E-02 0.  1.
       -2    1    3    3    0  502  0.46681678627E+03  0.47927807219E+03 -0.48354152861E+03  0.82549245443E+03  0.25500000920E-02 0. -1.
</event>
<event>
 5   0  0.2147844E-05  0.1599227E+04  0.7818609E-02  0.8821023E-01
        2   -1    0    0  501    0  0.00000000000E+00  0.00000000000E+00  0.15339338513E+04  0.15339338513E+04  0.25500000920E-02 0.  1.
       -2   -1    0    0    0  501  0.00000000000E+00  0.00000000000E+00 -0.41682468242E+03  0.41682468243E+03  0.25500000920E-02 0. -1.
    10030    2    1    2    0    0  0.00000000000E+00  0.00000000000E+00  0.11171091689E+04  0.19507585337E+04  0.15992266762E+04 0.  0.
        2    1    3    3  502    0  0.60736128833E+03  0.13236062197E+03 -0.54969753945E+02  0.62404226032E+03  0.25500000920E-02 0. -1.
       -2    1    3    3    0  502 -0.60736128833E+03 -0.13236062197E+03  0.11720789228E+04  0.13267162734E+04  0.25500000920E-02 0.  1.
</event>
<event>
 5   0  0.2147844E-05  0.1602174E+04  0.7818609E-02  0.8819213E-01
       -2   -1    0    0    0  501  0.00000000000E+00  0.00000000000E+00  0.10489043779E+04  0.10489043780E+04  0.25500000920E-02 0.  1.
        2   -1    0    0  501    0  0.00000000000E+00  0.00000000000E+00 -0.61181983602E+03  0.61181983603E+03  0.25500000920E-02 0. -1.
    10030    2    1    2    0    0  0.00000000000E+00  0.00000000000E+00  0.43708454192E+03  0.16607242140E+04  0.16021741535E+04 0.  0.
        2    1    3    3  502    0 -0.10146865343E+03 -0.49506356672E+03 -0.42574864816E+03  0.66079174794E+03  0.25500000920E-02 0. -1.
       -2    1    3    3    0  502  0.10146865343E+03  0.49506356672E+03  0.86283319009E+03  0.99993246604E+03  0.25500000920E-02 0.  1.
</event>
<event>
 5   0  0.1126485E-05  0.1601035E+04  0.7818609E-02  0.8819913E-01
        1   -1    0    0  501    0  0.00000000000E+00  0.00000000000E+00  0.49692837433E+03  0.49692837436E+03  0.50400001928E-02 0. -1.
       -1   -1    0    0    0  501  0.00000000000E+00  0.00000000000E+00 -0.12895779540E+04  0.12895779540E+04  0.50400001928E-02 0.  1.
    10030    2    1    2    0    0  0.00000000000E+00  0.00000000000E+00 -0.79264957963E+03  0.17865063283E+04  0.16010345109E+04 0.  0.
        2    1    3    3  502    0  0.47084805052E+03 -0.47812355723E+03  0.90735926355E+02  0.67715067082E+03  0.25500000920E-02 0. -1.
       -2    1    3    3    0  502 -0.47084805052E+03  0.47812355723E+03 -0.88338550599E+03  0.11093556575E+04  0.25500000920E-02 0.  1.
</event>
<event>
 5   0  0.1090674E-05  0.1599893E+04  0.7818609E-02  0.8820614E-01
        1   -1    0    0  501    0  0.00000000000E+00  0.00000000000E+00  0.95295435304E+03  0.95295435306E+03  0.50400001928E-02 0.  1.
       -1   -1    0    0    0  501  0.00000000000E+00  0.00000000000E+00 -0.67150543699E+03  0.67150543701E+03  0.50400001928E-02 0. -1.
    10030    2    1    2    0    0  0.00000000000E+00  0.00000000000E+00  0.28144891605E+03  0.16244597901E+04  0.15998925330E+04 0.  0.
        4    1    3    3  502    0 -0.47203648767E+03  0.63480402352E+03  0.20081490320E+02  0.79132766483E+03  0.12699999809E+01 0. -1.
       -4    1    3    3    0  502  0.47203648767E+03 -0.63480402352E+03  0.26136742573E+03  0.83313212524E+03  0.12699999809E+01 0.  1.
</event>
<event>
 5   0  0.1081831E-05  0.1600162E+04  0.7818609E-02  0.8820449E-01
       -1   -1    0    0    0  501  0.00000000000E+00  0.00000000000E+00  0.51202736052E+03  0.51202736055E+03  0.50400001928E-02 0. -1.
        1   -1    0    0  501    0  0.00000000000E+00  0.00000000000E+00 -0.12501860414E+04  0.12501860414E+04  0.50400001928E-02 0.  1.
    10030    2    1    2    0    0  0.00000000000E+00  0.00000000000E+00 -0.73815868086E+03  0.17622134019E+04  0.16001618155E+04 0.  0.
        3    1    3    3  502    0  0.55767907669E+02  0.69838316059E+03  0.56417088778E+02  0.70287409728E+03  0.10100000352E+00 0.  1.
       -3    1    3    3    0  502 -0.55767907669E+02 -0.69838316059E+03 -0.79457576964E+03  0.10593393047E+04  0.10100000352E+00 0. -1.
</event>
<event>
 5   0  0.1994525E-05  0.1600215E+04  0.7818609E-02  0.8820416E-01
        2   -1    0    0  501    0  0.00000000000E+00  0.00000000000E+00  0.61134457259E+03  0.61134457259E+03  0.25500000920E-02 0.  1.
       -2   -1    0    0    0  501  0.00000000000E+00  0.00000000000E+00 -0.10471542277E+04  0.10471542277E+04  0.25500000920E-02 0. -1.
    10030    2    1    2    0    0  0.00000000000E+00  0.00000000000E+00 -0.43580965512E+03  0.16584988003E+04  0.16002150528E+04 0.  0.
        5    1    3    3  502    0  0.28360449531E+03  0.17498735408E+03  0.53597968418E+03  0.63114847358E+03  0.46999998093E+01 0.  1.
       -5    1    3    3    0  502 -0.28360449531E+03 -0.17498735408E+03 -0.97178933931E+03  0.10273503267E+04  0.46999998093E+01 0. -1.
</event>
<event>
 5   0  0.1090674E-05  0.1599968E+04  0.7818609E-02  0.8820568E-01
       -1   -1    0    0    0  501  0.00000000000E+00  0.00000000000E+00  0.11094089067E+04  0.11094089067E+04  0.50400001928E-02 0.  1.
        1   -1    0    0  501    0  0.00000000000E+00  0.00000000000E+00 -0.57686087356E+03  0.57686087359E+03  0.50400001928E-02 0. -1.
    10030    2    1    2    0    0  0.00000000000E+00  0.00000000000E+00  0.53254803312E+03  0.16862697803E+04  0.15999682385E+04 0.  0.
        4    1    3    3  502    0 -0.75239157662E+03  0.66865094264E+02 -0.11392455063E+02  0.75544386048E+03  0.12699999809E+01 0. -1.
       -4    1    3    3    0  502  0.75239157662E+03 -0.66865094264E+02  0.54394048819E+03  0.93082591981E+03  0.12699999809E+01 0.  1.
</event>
<event>
 5   0  0.1994525E-05  0.1602051E+04  0.7818609E-02  0.8819289E-01
       -2   -1    0    0    0  501  0.00000000000E+00  0.00000000000E+00  0.49352906108E+03  0.49352906109E+03  0.25500000920E-02 0.  1.
        2   -1    0    0  501    0  0.00000000000E+00  0.00000000000E+00 -0.13001099778E+04  0.13001099778E+04  0.25500000920E-02 0. -1.
    10030    2    1    2    0    0  0.00000000000E+00  0.00000000000E+00 -0.80658091673E+03  0.17936390389E+04  0.16020512559E+04 0.  0.
        5    1    3    3  502    0 -0.42505598138E+03 -0.61567660966E+03 -0.82904658473E+02  0.75274534032E+03  0.46999998093E+01 0.  1.
       -5    1    3    3    0  502  0.42505598138E+03  0.61567660966E+03 -0.72367625826E+03  0.10408936986E+04  0.46999998093E+01 0. -1.
</event>
<event>
 5   0  0.1090674E-05  0.1601709E+04  0.7818609E-02  0.8819499E-01
        1   -1    0    0  501    0  0.00000000000E+00  0.00000000000E+00  0.66127856569E+03  0.66127856570E+03  0.50400001928E-02 0.  1.
       -1   -1    0    0    0  501  0.00000000000E+00  0.00000000000E+00 -0.96989051663E+03  0.96989051664E+03  0.50400001928E-02 0. -1.
    10030    2    1    2    0    0  0.00000000000E+00  0.00000000000E+00 -0.30861195094E+03  0.16311690823E+04  0.16017088496E+04 0.  0.
        4    1    3    3  502    0  0.50576393416E+03 -0.46380437617E+03 -0.57476114156E+03  0.89513330806E+03  0.12699999809E+01 0. -1.
       -4    1    3    3    0  502 -0.50576393416E+03  0.46380437617E+03  0.26614919062E+03  0.73603577428E+03  0.12699999809E+01 0.  1.
</event>
<event>
 5   0  0.1057506E-05  0.1600489E+04  0.7818609E-02  0.8820248E-01
        1   -1    0    0  501    0  0.00000000000E+00  0.00000000000E+00  0.13747413790E+04  0.13747413790E+04  0.50400001928E-02 0.  1.
       -1   -1    0    0    0  501  0.00000000000E+00  0.00000000000E+00 -0.46582670425E+03  0.46582670428E+03  0.50400001928E-02 0. -1.
    10030    2    1    2    0    0  0.00000000000E+00  0.00000000000E+00  0.90891467475E+03  0.18405680833E+04  0.16004889825E+04 0.  0.
        5    1    3    3  502    0  0.73459977797E+03  0.13754074211E+02  0.89807993741E+02  0.74021184406E+03  0.46999998093E+01 0. -1.
       -5    1    3    3    0  502 -0.73459977797E+03 -0.13754074211E+02  0.81910668101E+03  0.11003562392E+04  0.46999998093E+01 0.  1.
</event>
<event>
 5   0  0.1081831E-05  0.1600598E+04  0.7818609E-02  0.8820181E-01
        1   -1    0    0  501    0  0.00000000000E+00  0.00000000000E+00  0.12049343673E+04  0.12049343673E+04  0.50400001928E-02 0. -1.
       -1   -1    0    0    0  501  0.00000000000E+00  0.00000000000E+00 -0.53154649801E+03  0.53154649804E+03  0.50400001928E-02 0.  1.
    10030    2    1    2    0    0  0.00000000000E+00  0.00000000000E+00  0.67338786929E+03  0.17364808654E+04  0.16005981923E+04 0.  0.
        3    1    3    3  502    0 -0.51314445465E+03  0.59566469709E+03  0.49886656918E+03  0.93112916759E+03  0.10100000352E+00 0.  1.
       -3    1    3    3    0  502  0.51314445465E+03 -0.59566469709E+03  0.17452130011E+03  0.80535169776E+03  0.10100000352E+00 0. -1.
</event>
<event>
 5   0  0.1081831E-05  0.1599650E+04  0.7818609E-02  0.8820763E-01
       -1   -1    0    0    0  501  0.00000000000E+00  0.00000000000E+00  0.12036342305E+04  0.12036342305E+04  0.50400001928E-02 0.  1.
        1   -1    0    0  501    0  0.00000000000E+00  0.00000000000E+00 -0.53149024435E+03  0.53149024438E+03  0.50400001928E-02 0. -1.
    10030    2    1    2    0    0  0.00000000000E+00  0.00000000000E+00  0.67214398617E+03  0.17351244749E+04  0.15996497758E+04 0.  0.
        3    1    3    3  502    0 -0.74218392140E+02 -0.55005913251E+03 -0.28858755766E+03  0.62558469261E+03  0.10100000352E+00 0. -1.
       -3    1    3    3    0  502  0.74218392140E+02  0.55005913251E+03  0.96073154383E+03  0.11095397823E+04  0.10100000352E+00 0.  1.
</event>
<event>
 5   0  0.1990948E-05  0.1599997E+04  0.7818609E-02  0.8820550E-01
       -2   -1    0    0    0  501  0.00000000000E+00  0.00000000000E+00  0.54146516696E+03  0.54146516697E+03  0.25500000920E-02 0.  1.
        2   -1    0    0  501    0  0.00000000000E+00  0.00000000000E+00 -0.11819740981E+04  0.11819740981E+04  0.25500000920E-02 0. -1.
    10030    2    1    2    0    0  0.00000000000E+00  0.00000000000E+00 -0.64050893111E+03  0.17234392650E+04  0.15999972530E+04 0.  0.
        4    1    3    3  502    0  0.49554881768E+03 -0.33824310497E+03 -0.89024890769E+03  0.10735556619E+04  0.12699999809E+01 0. -1.
       -4    1    3    3    0  502 -0.49554881768E+03  0.33824310497E+03  0.24973997658E+03  0.64988360309E+03  0.12699999809E+01 0.  1.
</event>
<event>
 5   0  0.2147844E-05  0.1599845E+04  0.7818609E-02  0.8820643E-01
        2   -1    0    0  501    0  0.00000000000E+00  0.00000000000E+00  0.19859235920E+04  0.19859235920E+04  0.25500000920E-02 0. -1.
       -2   -1    0    0    0  501  0.00000000000E+00  0.00000000000E+00 -0.32220559256E+03  0.32220559257E+03  0.25500000920E-02 0.  1.
    10030    2    1    2    0    0  0.00000000000E+00  0.00000000000E+00  0.16637179994E+04  0.23081291845E+04  0.15998446021E+04 0.  0.
        2    1    3    3  502    0  0.25661264650E+03 -0.31180631164E+03  0.18280705125E+04  0.18721418282E+04  0.25500000920E-02 0. -1.
       -2    1    3    3    0  502 -0.25661264650E+03  0.31180631164E+03 -0.16435251306E+03  0.43598735633E+03  0.25500000920E-02 0.  1.
</event>
<event>
 5   0  0.1081831E-05  0.1599887E+04  0.7818609E-02  0.8820618E-01
        1   -1    0    0  501    0  0.00000000000E+00  0.00000000000E+00  0.15905044908E+04  0.15905044908E+04  0.50400001928E-02 0. -1.
       -1   -1    0    0    0  501  0.00000000000E+00  0.00000000000E+00 -0.40233111265E+03  0.40233111268E+03  0.50400001928E-02 0.  1.
    10030    2    1    2    0    0  0.00000000000E+00  0.00000000000E+00  0.11881733781E+04  0.19928356035E+04  0.15998867978E+04 0.  0.
        3    1    3    3  502    0 -0.79278532900E+03 -0.65932429135E+01  0.72683265930E+03  0.10755639328E+04  0.10100000352E+00 0.  1.
       -3    1    3    3    0  502  0.79278532900E+03  0.65932429135E+01  0.46134071881E+03  0.91727167064E+03  0.10100000352E+00 0. -1.
</event>
<event>
 5   0  0.2125803E-05  0.1599948E+04  0.7818609E-02  0.8820580E-01
       -2   -1    0    0    0  501  0.00000000000E+00  0.00000000000E+00  0.85357425786E+03  0.85357425786E+03  0.25500000920E-02 0.  1.
        2   -1    0    0  501    0  0.00000000000E+00  0.00000000000E+00 -0.74973976663E+03  0.74973976664E+03  0.25500000920E-02 0. -1.
    10030    2    1    2    0    0  0.00000000000E+00  0.00000000000E+00  0.10383449123E+03  0.16033140245E+04  0.15999482053E+04 0.  0.
        3    1    3    3  502    0 -0.38776906061E+03 -0.58857008720E+03 -0.32726873654E+03  0.77710001160E+03  0.10100000352E+00 0. -1.
       -3    1    3    3    0  502  0.38776906061E+03  0.58857008720E+03  0.43110322776E+03  0.82621401290E+03  0.10100000352E+00 0.  1.
</event>
<event>
 5   0  0.1060251E-05  0.1599800E+04  0.7818609E-02  0.8820671E-01
        1   -1    0    0  501    0  0.00000000000E+00  0.00000000000E+00  0.14798791376E+04  0.14798791376E+04  0.50400001928E-02 0. -1.
       -1   -1    0    0    0  501  0.00000000000E+00  0.00000000000E+00 -0.43235988873E+03  0.43235988876E+03  0.50400001928E-02 0.  1.
    10030    2    1    2    0    0  0.00000000000E+00  0.00000000000E+00  0.10475192489E+04  0.19122390264E+04  0.15998004617E+04 0.  0.
        1    1    3    3  502    0 -0.68689191220E+03  0.38474195533E+03  0.35474633261E+03  0.86353449946E+03  0.50400001928E-02 0.  1.
       -1    1    3    3    0  502  0.68689191220E+03 -0.38474195533E+03  0.69277291629E+03  0.10487045269E+04  0.50400001928E-02 0. -1.
</event>
<event>
 5   0  0.1090674E-05  0.1599180E+04  0.7818609E-02  0.8821052E-01
       -1   -1    0    0    0  501  0.00000000000E+00  0.00000000000E+00  0.89473641877E+03  0.89473641878E+03  0.50400001928E-02 0. -1.
        1   -1    0    0  501    0  0.00000000000E+00  0.00000000000E+00 -0.71456170743E+03  0.71456170745E+03  0.50400001928E-02 0.  1.
    10030    2    1    2    0    0  0.00000000000E+00  0.00000000000E+00  0.18017471134E+03  0.16092981262E+04  0.15991802689E+04 0.  0.
        4    1    3    3  502    0  0.74022804756E+03  0.30146368234E+03  0.11314204057E+03  0.80723023259E+03  0.12699999809E+01 0. -1.
       -4    1    3    3    0  502 -0.74022804756E+03 -0.30146368234E+03  0.67032670776E+02  0.80206789364E+03  0.12699999809E+01 0.  1.
</event>
<event>
 5   0  0.1057506E-05  0.1604095E+04  0.7818609E-02  0.8818036E-01
       -1   -1    0    0    0  501  0.00000000000E+00  0.00000000000E+00  0.54313755905E+03  0.54313755907E+03  0.50400001928E-02 0.  1.
        1   -1    0    0  501    0  0.00000000000E+00  0.00000000000E+00 -0.11843774114E+04  0.11843774114E+04  0.50400001928E-02 0. -1.
    10030    2    1    2    0    0  0.00000000000E+00  0.00000000000E+00 -0.64123985236E+03  0.17275149705E+04  0.16040945811E+04 0.  0.
        5    1    3    3  502    0  0.63219741843E+02  0.64686330816E+03  0.18546079529E+03  0.67590433627E+03  0.46999998093E+01 0.  1.
       -5    1    3    3    0  502 -0.63219741843E+02 -0.64686330816E+03 -0.82670064765E+03  0.10516106342E+04  0.46999998093E+01 0. -1.
</event>
<event>
 5   0  0.2125803E-05  0.1605817E+04  0.7818609E-02  0.8816982E-01
       -2   -1    0    0    0  501  0.00000000000E+00  0.00000000000E+00  0.37866773465E+03  0.37866773466E+03  0.25500000920E-02 0. -1.
        2   -1    0    0  501    0  0.00000000000E+00  0.00000000000E+00 -0.17024478722E+04  0.17024478723E+04  0.25500000920E-02 0.  1.
    10030    2    1    2    0    0  0.00000000000E+00  0.00000000000E+00 -0.13237801376E+04  0.20811156069E+04  0.16058170246E+04 0.  0.
        3    1    3    3  502    0  0.24856864702E+03  0.33216234892E+03  0.22899404638E+03  0.47387390917E+03  0.10100000352E+00 0. -1.
       -3    1    3    3    0  502 -0.24856864702E+03 -0.33216234892E+03 -0.15527741840E+04  0.16072416977E+04  0.10100000352E+00 0.  1.
</event>
<event>
 5   0  0.1060251E-05  0.1599648E+04  0.7818609E-02  0.8820765E-01
       -1   -1    0    0    0  501  0.00000000000E+00  0.00000000000E+00  0.46326321226E+03  0.46326321229E+03  0.50400001928E-02 0.  1.
        1   -1    0    0  501    0  0.00000000000E+00  0.00000000000E+00 -0.13808954408E+04  0.13808954408E+04  0.50400001928E-02 0. -1.
    10030    2    1    2    0    0  0.00000000000E+00  0.00000000000E+00 -0.91763222852E+03  0.18441586531E+04  0.15996475333E+04 0.  0.
        1    1    3    3  502    0 -0.74696492824E+03  0.39486557241E+02 -0.78530417028E+03  0.10845360446E+04  0.50400001928E-02 0. -1.
       -1    1    3    3    0  502  0.74696492824E+03 -0.39486557241E+02 -0.13232805824E+03  0.75962260844E+03  0.50400001928E-02 0.  1.
</event>
<event>
 5   0  0.2046108E-05  0.1598226E+04  0.7818609E-02  0.8821639E-01
       -2   -1    0    0    0  501  0.00000000000E+00  0.00000000000E+00  0.41245697449E+03  0.41245697450E+03  0.25500000920E-02 0.  1.
        2   -1    0    0  501    0  0.00000000000E+00  0.00000000000E+00 -0.15482372087E+04  0.15482372087E+04  0.25500000920E-02 0. -1.
    10030    2    1    2    0    0  0.00000000000E+00  0.00000000000E+00 -0.11357802342E+04  0.19606941832E+04  0.15982255597E+04 0.  0.
        1    1    3    3  502    0  0.34377724620E+03  0.44607106343E+03 -0.12634068657E+04  0.13832422408E+04  0.50400001928E-02 0. -1.
       -1    1    3    3    0  502 -0.34377724620E+03 -0.44607106343E+03  0.12762663147E+03  0.57745194235E+03  0.50400001928E-02 0.  1.
</event>
<event>
 5   0  0.1090674E-05  0.1609242E+04  0.7818609E-02  0.8814890E-01
       -1   -1    0    0    0  501  0.00000000000E+00  0.00000000000E+00  0.40592272859E+03  0.40592272863E+03  0.50400001928E-02 0.  1.
        1   -1    0    0  501    0  0.00000000000E+00  0.00000000000E+00 -0.15949211578E+04  0.15949211578E+04  0.50400001928E-02 0. -1.
    10030    2    1    2    0    0  0.00000000000E+00  0.00000000000E+00 -0.11889984292E+04  0.20008438864E+04  0.16092417448E+04 0.  0.
        4    1    3    3  502    0  0.61734732105E+02  0.49737708685E+03 -0.13771337549E+04  0.14655013257E+04  0.12699999809E+01 0. -1.
       -4    1    3    3    0  502 -0.61734732105E+02 -0.49737708685E+03  0.18813532573E+03  0.53534256076E+03  0.12699999809E+01 0.  1.
</event>
<event>
 5   0  0.1057506E-05  0.1598759E+04  0.7818609E-02  0.8821311E-01
        1   -1    0    0  501    0  0.00000000000E+00  0.00000000000E+00  0.92076251153E+03  0.92076251154E+03  0.50400001928E-02 0. -1.
       -1   -1    0    0    0  501  0.00000000000E+00  0.00000000000E+00 -0.69399859275E+03  0.69399859277E+03  0.50400001928E-02 0.  1.
    10030    2    1    2    0    0  0.00000000000E+00  0.00000000000E+00  0.22676391878E+03  0.16147611043E+04  0.15987593781E+04 0.  0.
        5    1    3    3  502    0 -0.71876766857E+03 -0.21594857173E+03 -0.16455414107E+03  0.76834946629E+03  0.46999998093E+01 0.  1.
       -5    1    3    3    0  502  0.71876766857E+03  0.21594857173E+03  0.39131805985E+03  0.84641163802E+03  0.46999998093E+01 0. -1.
</event>
<event>
 5   0  0.1126485E-05  0.1601921E+04  0.7818609E-02  0.8819368E-01
        1   -1    0    0  501    0  0.00000000000E+00  0.00000000000E+00  0.58065920088E+03  0.58065920090E+03  0.50400001928E-02 0. -1.
       -1   -1    0    0    0  501  0.00000000000E+00  0.00000000000E+00 -0.11048444427E+04  0.11048444427E+04  0.50400001928E-02 0.  1.
    10030    2    1    2    0    0  0.00000000000E+00  0.00000000000E+00 -0.52418524178E+03  0.16855036436E+04  0.16019214602E+04 0.  0.
        2    1    3    3  502    0 -0.57166661785E+03 -0.46990816800E+03  0.60364081982E+02  0.74246900993E+03  0.25500000920E-02 0. -1.
       -2    1    3    3    0  502  0.57166661785E+03  0.46990816800E+03 -0.58454932377E+03  0.94303463364E+03  0.25500000920E-02 0.  1.
</event>
<event>
 5   0  0.1090674E-05  0.1600538E+04  0.7818609E-02  0.8820218E-01
        1   -1    0    0  501    0  0.00000000000E+00  0.00000000000E+00  0.16340790623E+04  0.16340790624E+04  0.50400001928E-02 0. -1.
       -1   -1    0    0    0  501  0.00000000000E+00  0.00000000000E+00 -0.39192136693E+03  0.39192136696E+03  0.50400001928E-02 0.  1.
    10030    2    1    2    0    0  0.00000000000E+00  0.00000000000E+00  0.12421576954E+04  0.20260004293E+04  0.16005380343E+04 0.  0.
        4    1    3    3  502    0 -0.13525764847E+03 -0.77118652901E+03  0.41152620827E+03  0.88452175043E+03  0.12699999809E+01 0. -1.
       -4    1    3    3    0  502  0.13525764847E+03  0.77118652901E+03  0.83063148715E+03  0.11414786789E+04  0.12699999809E+01 0.  1.
</event>
<event>
 5   0  0.1057506E-05  0.1599635E+04  0.7818609E-02  0.8820772E-01
        1   -1    0    0  501    0  0.00000000000E+00  0.00000000000E+00  0.10036676246E+04  0.10036676246E+04  0.50400001928E-02 0. -1.
       -1   -1    0    0    0  501  0.00000000000E+00  0.00000000000E+00 -0.63737026054E+03  0.63737026056E+03  0.50400001928E-02 0.  1.
    10030    2    1    2    0    0  0.00000000000E+00  0.00000000000E+00  0.36629736408E+03  0.16410378852E+04  0.15996348276E+04 0.  0.
        5    1    3    3  502    0  0.36926517087E+03 -0.65751081025E+03 -0.90222763990E+02  0.75949948595E+03  0.46999998093E+01 0.  1.
       -5    1    3    3    0  502 -0.36926517087E+03  0.65751081025E+03  0.45652012807E+03  0.88153839925E+03  0.46999998093E+01 0. -1.
</event>
<event>
 5   0  0.2147844E-05  0.1598952E+04  0.7818609E-02  0.8821192E-01
       -2   -1    0    0    0  501  0.00000000000E+00  0.00000000000E+00  0.98964893259E+03  0.98964893259E+03  0.25500000920E-02 0. -1.
        2   -1    0    0  501    0  0.00000000000E+00  0.00000000000E+00 -0.64584715093E+03  0.64584715094E+03  0.25500000920E-02 0.  1.
    10030    2    1    2    0    0  0.00000000000E+00  0.00000000000E+00  0.34380178166E+03  0.16354960835E+04  0.15989520863E+04 0.  0.
        2    1    3    3  502    0  0.47583713975E+03 -0.12124778567E+03 -0.47342246191E+03  0.68209298233E+03  0.25500000920E-02 0.  1.
       -2    1    3    3    0  502 -0.47583713975E+03  0.12124778567E+03  0.81722424357E+03  0.95340310120E+03  0.25500000920E-02 0. -1.
</event>
<event>
 5   0  0.1060251E-05  0.1609385E+04  0.7818609E-02  0.8814803E-01
       -1   -1    0    0    0  501  0.00000000000E+00  0.00000000000E+00  0.71550608593E+03  0.71550608595E+03  0.50400001928E-02 0.  1.
        1   -1    0    0  501    0  0.00000000000E+00  0.00000000000E+00 -0.90499590394E+03  0.90499590396E+03  0.50400001928E-02 0. -1.
    10030    2    1    2    0    0  0.00000000000E+00  0.00000000000E+00 -0.18948981801E+03  0.16205019899E+04  0.16093850714E+04 0.  0.
        1    1    3    3  502    0  0.61456765692E+03  0.11557491143E+03 -0.60468082422E+03  0.86987922397E+03  0.50400001928E-02 0. -1.
       -1    1    3    3    0  502 -0.61456765692E+03 -0.11557491143E+03  0.41519100621E+03  0.75062276594E+03  0.50400001928E-02 0.  1.
</event>
<event>
 5   0  0.1060251E-05  0.1598266E+04  0.7818609E-02  0.8821614E-01
        1   -1    0    0  501    0  0.00000000000E+00  0.00000000000E+00  0.89946903604E+03  0.89946903605E+03  0.50400001928E-02 0. -1.
       -1   -1    0    0    0  501  0.00000000000E+00  0.00000000000E+00 -0.70998910242E+03  0.70998910244E+03  0.50400001928E-02 0.  1.
    10030    2    1    2    0    0  0.00000000000E+00  0.00000000000E+00  0.18947993362E+03  0.16094581385E+04  0.15982655769E+04 0.  0.
        1    1    3    3  502    0 -0.47328204420E+03 -0.55186742585E+02 -0.55129126613E+03  0.72867244360E+03  0.50400001928E-02 0.  1.
       -1    1    3    3    0  502  0.47328204420E+03  0.55186742585E+02  0.74077119975E+03  0.88078569489E+03  0.50400001928E-02 0. -1.
</event>
<event>
 5   0  0.1060251E-05  0.1600049E+04  0.7818609E-02  0.8820518E-01
       -1   -1    0    0    0  501  0.00000000000E+00  0.00000000000E+00  0.19551648695E+04  0.19551648695E+04  0.50400001928E-02 0. -1.
        1   -1    0    0  501    0  0.00000000000E+00  0.00000000000E+00 -0.32735813575E+03  0.32735813579E+03  0.50400001928E-02 0.  1.
    10030    2    1    2    0    0  0.00000000000E+00  0.00000000000E+00  0.16278067338E+04  0.22825230053E+04  0.16000489078E+04 0.  0.
        1    1    3    3  502    0  0.40765074317E+03  0.31220850212E+01  0.17958829614E+04  0.18415712006E+04  0.50400001928E-02 0. -1.
       -1    1    3    3    0  502 -0.40765074317E+03 -0.31220850212E+01 -0.16807622758E+03  0.44095180476E+03  0.50400001928E-02 0.  1.
</event>
<event>
 5   0  0.1990948E-05  0.1600114E+04  0.7818609E-02  0.8820478E-01
        2   -1    0    0  501    0  0.00000000000E+00  0.00000000000E+00  0.16662300664E+04  0.16662300664E+04  0.25500000920E-02 0. -1.
       -2   -1    0    0    0  501  0.00000000000E+00  0.00000000000E+00 -0.38415514573E+03  0.38415514574E+03  0.25500000920E-02 0.  1.
    10030    2    1    2    0    0  0.00000000000E+00  0.00000000000E+00  0.12820749207E+04  0.20503852122E+04  0.16001135635E+04 0.  0.
        4    1    3    3  502    0 -0.36166394055E+03 -0.55872505791E+01  0.15554733249E+04  0.15969755480E+04  0.12699999809E+01 0. -1.
       -4    1    3    3    0  502  0.36166394055E+03  0.55872505791E+01 -0.27339840425E+03  0.45340966422E+03  0.12699999809E+01 0.  1.
</event>
<event>
 5   0  0.1081831E-05  0.1600018E+04  0.7818609E-02  0.8820537E-01
        1   -1    0    0  501    0  0.00000000000E+00  0.00000000000E+00  0.64080057465E+03  0.64080057467E+03  0.50400001928E-02 0.  1.
       -1   -1    0    0    0  501  0.00000000000E+00  0.00000000000E+00 -0.99877326105E+03  0.99877326106E+03  0.50400001928E-02 0. -1.
    10030    2    1    2    0    0  0.00000000000E+00  0.00000000000E+00 -0.35797268639E+03  0.16395738357E+04  0.16000180995E+04 0.  0.
        3    1    3    3  502    0  0.17704960101E+03 -0.17719102177E+03  0.59958075762E+03  0.64980021123E+03  0.10100000352E+00 0.  1.
       -3    1    3    3    0  502 -0.17704960101E+03  0.17719102177E+03 -0.95755344401E+03  0.98977362450E+03  0.10100000352E+00 0. -1.
</event>
<event>
 5   0  0.1990948E-05  0.1598807E+04  0.7818609E-02  0.8821282E-01
       -2   -1    0    0    0  501  0.00000000000E+00  0.00000000000E+00  0.49283911510E+03  0.49283911510E+03  0.25500000920E-02 0. -1.
        2   -1    0    0  501    0  0.00000000000E+00  0.00000000000E+00 -0.12966616408E+04  0.12966616408E+04  0.25500000920E-02 0.  1.
    10030    2    1    2    0    0  0.00000000000E+00  0.00000000000E+00 -0.80382252569E+03  0.17895007559E+04  0.15988065244E+04 0.  0.
        4    1    3    3  502    0 -0.82646790073E+02  0.51306689733E+03 -0.10817954389E+04  0.12001462900E+04  0.12699999809E+01 0.  1.
       -4    1    3    3    0  502  0.82646790073E+02 -0.51306689733E+03  0.27797291318E+03  0.58935446585E+03  0.12699999809E+01 0. -1.
</event>
<event>
 5   0  0.2125803E-05  0.1599622E+04  0.7818609E-02  0.8820780E-01
        2   -1    0    0  501    0  0.00000000000E+00  0.00000000000E+00  0.13292210253E+04  0.13292210253E+04  0.25500000920E-02 0. -1.
       -2   -1    0    0    0  501  0.00000000000E+00  0.00000000000E+00 -0.48125733690E+03  0.48125733691E+03  0.25500000920E-02 0.  1.
    10030    2    1    2    0    0  0.00000000000E+00  0.00000000000E+00  0.84796368843E+03  0.18104783622E+04  0.15996216688E+04 0.  0.
        3    1    3    3  502    0  0.38153444367E+03  0.64069609310E+03  0.96659102886E+02  0.75193284793E+03  0.10100000352E+00 0.  1.
       -3    1    3    3    0  502 -0.38153444367E+03 -0.64069609310E+03  0.75130458554E+03  0.10585455143E+04  0.10100000352E+00 0. -1.
</event>
<event>
 5   0  0.2046108E-05  0.1599702E+04  0.7818609E-02  0.8820731E-01
        2   -1    0    0  501    0  0.00000000000E+00  0.00000000000E+00  0.13438748855E+04  0.13438748855E+04  0.25500000920E-02 0. -1.
       -2   -1    0    0    0  501  0.00000000000E+00  0.00000000000E+00 -0.47605751937E+03  0.47605751938E+03  0.25500000920E-02 0.  1.
    10030    2    1    2    0    0  0.00000000000E+00  0.00000000000E+00  0.86781736609E+03  0.18199324048E+04  0.15997021527E+04 0.  0.
        1    1    3    3  502    0 -0.24032301880E+03  0.29707569933E+03  0.12333209996E+04  0.12911583220E+04  0.50400001928E-02 0. -1.
       -1    1    3    3    0  502  0.24032301880E+03 -0.29707569933E+03 -0.36550363352E+03  0.52877408280E+03  0.50400001928E-02 0.  1.
</event>
<event>
 5   0  0.1990948E-05  0.1599771E+04  0.7818609E-02  0.8820689E-01
        2   -1    0    0  501    0  0.00000000000E+00  0.00000000000E+00  0.13060993132E+04  0.13060993132E+04  0.25500000920E-02 0. -1.
       -2   -1    0    0    0  501  0.00000000000E+00  0.00000000000E+00 -0.48986855878E+03  0.48986855879E+03  0.25500000920E-02 0.  1.
    10030    2    1    2    0    0  0.00000000000E+00  0.00000000000E+00  0.81623075442E+03  0.17959678720E+04  0.15997712189E+04 0.  0.
        4    1    3    3  502    0 -0.50411838820E+03  0.61751607535E+03  0.48219197693E+03  0.93165023918E+03  0.12699999809E+01 0.  1.
       -4    1    3    3    0  502  0.50411838820E+03 -0.61751607535E+03  0.33403877749E+03  0.86431763282E+03  0.12699999809E+01 0. -1.
</event>
<event>
 5   0  0.1081831E-05  0.1600186E+04  0.7818609E-02  0.8820434E-01
        1   -1    0    0  501    0  0.00000000000E+00  0.00000000000E+00  0.56861725946E+03  0.56861725948E+03  0.50400001928E-02 0. -1.
       -1   -1    0    0    0  501  0.00000000000E+00  0.00000000000E+00 -0.11257987702E+04  0.11257987702E+04  0.50400001928E-02 0.  1.
    10030    2    1    2    0    0  0.00000000000E+00  0.00000000000E+00 -0.55718151071E+03  0.16944160297E+04  0.16001857535E+04 0.  0.
        3    1    3    3  502    0  0.75336388575E+03 -0.24109010314E+03 -0.15122895826E+03  0.80532713241E+03  0.10100000352E+00 0. -1.
       -3    1    3    3    0  502 -0.75336388575E+03  0.24109010314E+03 -0.40595255244E+03  0.88908889725E+03  0.10100000352E+00 0.  1.
</event>
<event>
 5   0  0.2125803E-05  0.1601209E+04  0.7818609E-02  0.8819805E-01
        2   -1    0    0  501    0  0.00000000000E+00  0.00000000000E+00  0.11414957681E+04  0.11414957681E+04  0.25500000920E-02 0. -1.
       -2   -1    0    0    0  501  0.00000000000E+00  0.00000000000E+00 -0.56151582658E+03  0.56151582659E+03  0.25500000920E-02 0.  1.
    10030    2    1    2    0    0  0.00000000000E+00  0.00000000000E+00  0.57997994150E+03  0.17030115947E+04  0.16012094676E+04 0.  0.
        3    1    3    3  502    0  0.75050448622E+03 -0.39823395525E+02 -0.34594324817E+01  0.75156827005E+03  0.10100000352E+00 0.  1.
       -3    1    3    3    0  502 -0.75050448622E+03  0.39823395525E+02  0.58343937398E+03  0.95144332463E+03  0.10100000352E+00 0. -1.
</event>
<event>
 5   0  0.1081831E-05  0.1600621E+04  0.7818609E-02  0.8820167E-01
        1   -1    0    0  501    0  0.00000000000E+00  0.00000000000E+00  0.68923597812E+03  0.68923597814E+03  0.50400001928E-02 0. -1.
       -1   -1    0    0    0  501  0.00000000000E+00  0.00000000000E+00 -0.92928484254E+03  0.92928484255E+03  0.50400001928E-02 0.  1.
    10030    2    1    2    0    0  0.00000000000E+00  0.00000000000E+00 -0.24004886442E+03  0.16185208207E+04  0.16006205639E+04 0.  0.
        3    1    3    3  502    0  0.42400239624E+03  0.23240563916E+03 -0.76489158240E+03  0.90490306450E+03  0.10100000352E+00 0.  1.
       -3    1    3    3    0  502 -0.42400239624E+03 -0.23240563916E+03  0.52484271798E+03  0.71361775619E+03  0.10100000352E+00 0. -1.
</event>
<event>
 5   0  0.1990948E-05  0.1600051E+04  0.7818609E-02  0.8820517E-01
        2   -1    0    0  501    0  0.00000000000E+00  0.00000000000E+00  0.13433343707E+04  0.13433343707E+04  0.25500000920E-02 0.  1.
       -2   -1    0    0    0  501  0.00000000000E+00  0.00000000000E+00 -0.47645689710E+03  0.47645689711E+03  0.25500000920E-02 0. -1.
    10030    2    1    2    0    0  0.00000000000E+00  0.00000000000E+00  0.86687747359E+03  0.18197912678E+04  0.16000511567E+04 0.  0.
        4    1    3    3  502    0 -0.69495894075E+02 -0.15076689667E+03  0.13235274659E+04  0.13338991350E+04  0.12699999809E+01 0.  1.
       -4    1    3    3    0  502  0.69495894075E+02  0.15076689667E+03 -0.45664999227E+03  0.48589213285E+03  0.12699999809E+01 0. -1.
</event>
<event>
 5   0  0.2147844E-05  0.1599979E+04  0.7818609E-02  0.8820561E-01
        2   -1    0    0  501    0  0.00000000000E+00  0.00000000000E+00  0.20716250889E+04  0.20716250889E+04  0.25500000920E-02 0.  1.
       -2   -1    0    0    0  501  0.00000000000E+00  0.00000000000E+00 -0.30892816802E+03  0.30892816803E+03  0.25500000920E-02 0. -1.
    10030    2    1    2    0    0  0.00000000000E+00  0.00000000000E+00  0.17626969209E+04  0.23805532570E+04  0.15999791793E+04 0.  0.
        2    1    3    3  502    0 -0.49669592462E+03  0.49161600389E+03  0.14606426111E+04  0.16192189395E+04  0.25500000920E-02 0.  1.
       -2    1    3    3    0  502  0.49669592462E+03 -0.49161600389E+03  0.30205430983E+03  0.76133431744E+03  0.25500000920E-02 0. -1.
</event>
<event>
 5   0  0.2046108E-05  0.1600304E+04  0.7818609E-02  0.8820361E-01
       -2   -1    0    0    0  501  0.00000000000E+00  0.00000000000E+00  0.73318612571E+03  0.73318612571E+03  0.25500000920E-02 0. -1.
        2   -1    0    0  501    0  0.00000000000E+00  0.00000000000E+00 -0.87323388214E+03  0.87323388214E+03  0.25500000920E-02 0.  1.
    10030    2    1    2    0    0  0.00000000000E+00  0.00000000000E+00 -0.14004775643E+03  0.16064200079E+04  0.16003036798E+04 0.  0.
        1    1    3    3  502    0 -0.28709305632E+03 -0.66292113690E+03  0.27532022308E+03  0.77310289225E+03  0.50400001928E-02 0. -1.
       -1    1    3    3    0  502  0.28709305632E+03  0.66292113690E+03 -0.41536797951E+03  0.83331711561E+03  0.50400001928E-02 0.  1.
</event>
<event>
 5   0  0.2125803E-05  0.1602500E+04  0.7818609E-02  0.8819014E-01
       -2   -1    0    0    0  501  0.00000000000E+00  0.00000000000E+00  0.10026126705E+04  0.10026126705E+04  0.25500000920E-02 0.  1.
        2   -1    0    0  501    0  0.00000000000E+00  0.00000000000E+00 -0.64032825847E+03  0.64032825848E+03  0.25500000920E-02 0. -1.
    10030    2    1    2    0    0  0.00000000000E+00  0.00000000000E+00  0.36228441204E+03  0.16429409290E+04  0.16024995791E+04 0.  0.
        3    1    3    3  502    0 -0.39855838553E+03  0.21933596344E+03  0.85736638936E+03  0.97058445658E+03  0.10100000352E+00 0.  1.
       -3    1    3    3    0  502  0.39855838553E+03 -0.21933596344E+03 -0.49508197732E+03  0.67235647242E+03  0.10100000352E+00 0. -1.
</event>
<event>
 5   0  0.2147844E-05  0.1600304E+04  0.7818609E-02  0.8820362E-01
       -2   -1    0    0    0  501  0.00000000000E+00  0.00000000000E+00  0.78303398536E+03  0.78303398536E+03  0.25500000920E-02 0. -1.
        2   -1    0    0  501    0  0.00000000000E+00  0.00000000000E+00 -0.81764376534E+03  0.81764376534E+03  0.25500000920E-02 0.  1.
    10030    2    1    2    0    0  0.00000000000E+00  0.00000000000E+00 -0.34609779981E+02  0.16006777507E+04  0.16003035414E+04 0.  0.
        2    1    3    3  502    0  0.38607176268E+03  0.38339253811E+02  0.68265982920E+03  0.78520427070E+03  0.25500000920E-02 0. -1.
       -2    1    3    3    0  502 -0.38607176268E+03 -0.38339253811E+02 -0.71726960918E+03  0.81547348000E+03  0.25500000920E-02 0.  1.
</event>
<event>
 5   0  0.1126485E-05  0.1600332E+04  0.7818609E-02  0.8820344E-01
       -1   -1    0    0    0  501  0.00000000000E+00  0.00000000000E+00  0.36420401033E+03  0.36420401036E+03  0.50400001928E-02 0. -1.
        1   -1    0    0  501    0  0.00000000000E+00  0.00000000000E+00 -0.17579858905E+04  0.17579858905E+04  0.50400001928E-02 0.  1.
    10030    2    1    2    0    0  0.00000000000E+00  0.00000000000E+00 -0.13937818802E+04  0.21221899009E+04  0.16003318549E+04 0.  0.
        2    1    3    3  502    0  0.17707122340E+03 -0.17800525756E+03  0.31061338279E+03  0.39940050507E+03  0.25500000920E-02 0. -1.
       -2    1    3    3    0  502 -0.17707122340E+03  0.17800525756E+03 -0.17043952630E+04  0.17227893958E+04  0.25500000920E-02 0.  1.
</event>
<event>
 5   0  0.1126485E-05  0.1600075E+04  0.7818609E-02  0.8820502E-01
       -1   -1    0    0    0  501  0.00000000000E+00  0.00000000000E+00  0.40941996337E+03  0.40941996340E+03  0.50400001928E-02 0. -1.
        1   -1    0    0  501    0  0.00000000000E+00  0.00000000000E+00 -0.15633339097E+04  0.15633339097E+04  0.50400001928E-02 0.  1.
    10030    2    1    2    0    0  0.00000000000E+00  0.00000000000E+00 -0.11539139463E+04  0.19727538731E+04  0.16000751384E+04 0.  0.
        2    1    3    3  502    0  0.69532262103E+03  0.35244254670E+03 -0.35513255486E+03  0.85662618894E+03  0.25500000920E-02 0.  1.
       -2    1    3    3    0  502 -0.69532262103E+03 -0.35244254670E+03 -0.79878139147E+03  0.11161276842E+04  0.25500000920E-02 0. -1.
</event>
<event>
 5   0  0.1090674E-05  0.1600354E+04  0.7818609E-02  0.8820331E-01
        1   -1    0    0  501    0  0.00000000000E+00  0.00000000000E+00  0.91070189295E+03  0.91070189297E+03  0.50400001928E-02 0.  1.
       -1   -1    0    0    0  501  0.00000000000E+00  0.00000000000E+00 -0.70306533757E+03  0.70306533759E+03  0.50400001928E-02 0. -1.
    10030    2    1    2    0    0  0.00000000000E+00  0.00000000000E+00  0.20763655538E+03  0.16137672306E+04  0.16003536282E+04 0.  0.
        4    1    3    3  502    0 -0.58105850968E+03 -0.53452602387E+03 -0.27404139423E+02  0.78999978584E+03  0.12699999809E+01 0. -1.
       -4    1    3    3    0  502  0.58105850968E+03  0.53452602387E+03  0.23504069480E+03  0.82376744472E+03  0.12699999809E+01 0.  1.
</event>
<event>
 5   0  0.1057506E-05  0.1599777E+04  0.7818609E-02  0.8820685E-01
       -1   -1    0    0    0  501  0.00000000000E+00  0.00000000000E+00  0.14816253813E+04  0.14816253813E+04  0.50400001928E-02 0.  1.
        1   -1    0    0  501    0  0.00000000000E+00  0.00000000000E+00 -0.43183757914E+03  0.43183757917E+03  0.50400001928E-02 0. -1.
    10030    2    1    2    0    0  0.00000000000E+00  0.00000000000E+00  0.10497878021E+04  0.19134629605E+04  0.15997768818E+04 0.  0.
        5    1    3    3  502    0  0.60300574554E+03 -0.23462838311E+03  0.10873484615E+04  0.12653122832E+04  0.46999998093E+01 0.  1.
       -5    1    3    3    0  502 -0.60300574554E+03  0.23462838311E+03 -0.37560659337E+02  0.64815067727E+03  0.46999998093E+01 0. -1.
</event>
<event>
 5   0  0.1057506E-05  0.1599643E+04  0.7818609E-02  0.8820767E-01
        1   -1    0    0  501    0  0.00000000000E+00  0.00000000000E+00  0.12433849608E+04  0.12433849609E+04  0.50400001928E-02 0.  1.
       -1   -1    0    0    0  501  0.00000000000E+00  0.00000000000E+00 -0.51449422087E+03  0.51449422089E+03  0.50400001928E-02 0. -1.
    10030    2    1    2    0    0  0.00000000000E+00  0.00000000000E+00  0.72889073998E+03  0.17578791817E+04  0.15996429310E+04 0.  0.
        5    1    3    3  502    0  0.75124354161E+03  0.90126342448E+01  0.66588648475E+03  0.10039297719E+04  0.46999998093E+01 0.  1.
       -5    1    3    3    0  502 -0.75124354161E+03 -0.90126342448E+01  0.63004255234E+02  0.75394940982E+03  0.46999998093E+01 0. -1.
</event>
<event>
 5   0  0.2125803E-05  0.1599167E+04  0.7818609E-02  0.8821060E-01
       -2   -1    0    0    0  501  0.00000000000E+00  0.00000000000E+00  0.32521428631E+03  0.32521428632E+03  0.25500000920E-02 0.  1.
        2   -1    0    0  501    0  0.00000000000E+00  0.00000000000E+00 -0.19658840764E+04  0.19658840764E+04  0.25500000920E-02 0. -1.
    10030    2    1    2    0    0  0.00000000000E+00  0.00000000000E+00 -0.16406697901E+04  0.22910983627E+04  0.15991667666E+04 0.  0.
        3    1    3    3  502    0 -0.38395859023E+03 -0.57273429913E+03 -0.14003233079E+04  0.15608824918E+04  0.10100000352E+00 0. -1.
       -3    1    3    3    0  502  0.38395859023E+03  0.57273429913E+03 -0.24034648219E+03  0.73021587090E+03  0.10100000352E+00 0.  1.
</event>
<event>
 5   0  0.2125803E-05  0.1600341E+04  0.7818609E-02  0.8820339E-01
       -2   -1    0    0    0  501  0.00000000000E+00  0.00000000000E+00  0.35053559543E+03  0.35053559544E+03  0.25500000920E-02 0.  1.
        2   -1    0    0  501    0  0.00000000000E+00  0.00000000000E+00 -0.18265547590E+04  0.18265547590E+04  0.25500000920E-02 0. -1.
    10030    2    1    2    0    0  0.00000000000E+00  0.00000000000E+00 -0.14760191636E+04  0.21770903544E+04  0.16003405388E+04 0.  0.
        3    1    3    3  502    0  0.69033951913E+03  0.40218589777E+03 -0.67793165226E+03  0.10478136683E+04  0.10100000352E+00 0.  1.
       -3    1    3    3    0  502 -0.69033951913E+03 -0.40218589777E+03 -0.79808751132E+03  0.11292766862E+04  0.10100000352E+00 0. -1.
</event>
<event>
 5   0  0.1057506E-05  0.1599861E+04  0.7818609E-02  0.8820633E-01
       -1   -1    0    0    0  501  0.00000000000E+00  0.00000000000E+00  0.52670481616E+03  0.52670481619E+03  0.50400001928E-02 0. -1.
        1   -1    0    0  501    0  0.00000000000E+00  0.00000000000E+00 -0.12148908037E+04  0.12148908037E+04  0.50400001928E-02 0.  1.
    10030    2    1    2    0    0  0.00000000000E+00  0.00000000000E+00 -0.68818598754E+03  0.17415956199E+04  0.15998610408E+04 0.  0.
        5    1    3    3  502    0 -0.79118377251E+02  0.30128707666E+03  0.45795107721E+03  0.55387263815E+03  0.46999998093E+01 0. -1.
       -5    1    3    3    0  502  0.79118377251E+02 -0.30128707666E+03 -0.11461370647E+04  0.11877229817E+04  0.46999998093E+01 0.  1.
</event>
<event>
 5   0  0.2046108E-05  0.1599876E+04  0.7818609E-02  0.8820624E-01
       -2   -1    0    0    0  501  0.00000000000E+00  0.00000000000E+00  0.82314744178E+03  0.82314744178E+03  0.25500000920E-02 0.  1.
        2   -1    0    0  501    0  0.00000000000E+00  0.00000000000E+00 -0.77738332751E+03  0.77738332752E+03  0.25500000920E-02 0. -1.
    10030    2    1    2    0    0  0.00000000000E+00  0.00000000000E+00  0.45764114269E+02  0.16005307693E+04  0.15998763669E+04 0.  0.
        1    1    3    3  502    0  0.61052183949E+03 -0.47014171648E+03  0.23775107101E+03  0.80640915289E+03  0.50400001928E-02 0.  1.
       -1    1    3    3    0  502 -0.61052183949E+03  0.47014171648E+03 -0.19198695674E+03  0.79412161641E+03  0.50400001928E-02 0. -1.
</event>
<event>
 5   0  0.1126485E-05  0.1601646E+04  0.7818609E-02  0.8819538E-01
        1   -1    0    0  501    0  0.00000000000E+00  0.00000000000E+00  0.20385760643E+04  0.20385760643E+04  0.50400001928E-02 0.  1.
       -1   -1    0    0    0  501  0.00000000000E+00  0.00000000000E+00 -0.31459083207E+03  0.31459083211E+03  0.50400001928E-02 0. -1.
    10030    2    1    2    0    0  0.00000000000E+00  0.00000000000E+00  0.17239852322E+04  0.23531668964E+04  0.16016458290E+04 0.  0.
        2    1    3    3  502    0  0.20244569159E+03 -0.45325008487E+03 -0.61276703085E+02  0.50017470130E+03  0.25500000920E-02 0. -1.
       -2    1    3    3    0  502 -0.20244569159E+03  0.45325008487E+03  0.17852619353E+04  0.18529921951E+04  0.25500000920E-02 0.  1.
</event>
<event>
 5   0  0.2125803E-05  0.1600299E+04  0.7818609E-02  0.8820364E-01
        2   -1    0    0  501    0  0.00000000000E+00  0.00000000000E+00  0.80300292540E+03  0.80300292541E+03  0.25500000920E-02 0. -1.
       -2   -1    0    0    0  501  0.00000000000E+00  0.00000000000E+00 -0.79730654466E+03  0.79730654467E+03  0.25500000920E-02 0.  1.
    10030    2    1    2    0    0  0.00000000000E+00  0.00000000000E+00  0.56963807396E+01  0.16003094701E+04  0.16002993318E+04 0.  0.
        3    1    3    3  502    0  0.66395088044E+03  0.37695140092E+03 -0.23656165392E+03  0.79930254385E+03  0.10100000352E+00 0.  1.
       -3    1    3    3    0  502 -0.66395088044E+03 -0.37695140092E+03  0.24225803466E+03  0.80100692622E+03  0.10100000352E+00 0. -1.
</event>
<event>
 5   0  0.1990948E-05  0.1598151E+04  0.7818609E-02  0.8821685E-01
        2   -1    0    0  501    0  0.00000000000E+00  0.00000000000E+00  0.52866612549E+03  0.52866612549E+03  0.25500000920E-02 0. -1.
       -2   -1    0    0    0  501  0.00000000000E+00  0.00000000000E+00 -0.12077969541E+04  0.12077969541E+04  0.25500000920E-02 0.  1.
    10030    2    1    2    0    0  0.00000000000E+00  0.00000000000E+00 -0.67913082862E+03  0.17364630796E+04  0.15981506013E+04 0.  0.
        4    1    3    3  502    0 -0.22819468932E+03  0.54949986568E+03 -0.91910959285E+03  0.10948913075E+04  0.12699999809E+01 0.  1.
       -4    1    3    3    0  502  0.22819468932E+03 -0.54949986568E+03  0.23997876423E+03  0.64157177213E+03  0.12699999809E+01 0. -1.
</event>
<event>
 5   0  0.1994525E-05  0.1602891E+04  0.7818609E-02  0.8818774E-01
       -2   -1    0    0    0  501  0.00000000000E+00  0.00000000000E+00  0.44636348079E+03  0.44636348080E+03  0.25500000920E-02 0.  1.
        2   -1    0    0  501    0  0.00000000000E+00  0.00000000000E+00 -0.14389954107E+04  0.14389954107E+04  0.25500000920E-02 0. -1.
    10030    2    1    2    0    0  0.00000000000E+00  0.00000000000E+00 -0.99263192996E+03  0.18853588915E+04  0.16028911384E+04 0.  0.
        5    1    3    3  502    0  0.78304756398E+02 -0.49864961816E+03  0.23588680850E+03  0.55717838525E+03  0.46999998093E+01 0.  1.
       -5    1    3    3    0  502 -0.78304756398E+02  0.49864961816E+03 -0.12285187385E+04  0.13281805063E+04  0.46999998093E+01 0. -1.
</event>
<event>
 5   0  0.1060251E-05  0.1604109E+04  0.7818609E-02  0.8818027E-01
       -1   -1    0    0    0  501  0.00000000000E+00  0.00000000000E+00  0.46251216002E+03  0.46251216005E+03  0.50400001928E-02 0. -1.
        1   -1    0    0  501    0  0.00000000000E+00  0.00000000000E+00 -0.13908646592E+04  0.13908646592E+04  0.50400001928E-02 0.  1.
    10030    2    1    2    0    0  0.00000000000E+00  0.00000000000E+00 -0.92835249919E+03  0.18533768193E+04  0.16041094948E+04 0.  0.
        1    1    3    3  502    0  0.42120231867E+03  0.28409490921E+03 -0.11812374604E+04  0.12858628421E+04  0.50400001928E-02 0.  1.
       -1    1    3    3    0  502 -0.42120231867E+03 -0.28409490921E+03  0.25288496122E+03  0.56751397721E+03  0.50400001928E-02 0. -1.
</event>
<event>
 5   0  0.1081831E-05  0.1600183E+04  0.7818609E-02  0.8820435E-01
        1   -1    0    0  501    0  0.00000000000E+00  0.00000000000E+00  0.89951765626E+03  0.89951765627E+03  0.50400001928E-02 0. -1.
       -1   -1    0    0    0  501  0.00000000000E+00  0.00000000000E+00 -0.71165534821E+03  0.71165534823E+03  0.50400001928E-02 0.  1.
    10030    2    1    2    0    0  0.00000000000E+00  0.00000000000E+00  0.18786230805E+03  0.16111730045E+04  0.16001831782E+04 0.  0.
        3    1    3    3  502    0  0.23181444900E+03  0.70360817503E+03  0.39823876658E+03  0.84106868219E+03  0.10100000352E+00 0. -1.
       -3    1    3    3    0  502 -0.23181444900E+03 -0.70360817503E+03 -0.21037645854E+03  0.77010432232E+03  0.10100000352E+00 0.  1.
</event>
<event>
 5   0  0.1090674E-05  0.1599631E+04  0.7818609E-02  0.8820775E-01
        1   -1    0    0  501    0  0.00000000000E+00  0.00000000000E+00  0.23664290046E+04  0.23664290046E+04  0.50400001928E-02 0.  1.
       -1   -1    0    0    0  501  0.00000000000E+00  0.00000000000E+00 -0.27032487372E+03  0.27032487376E+03  0.50400001928E-02 0. -1.
    10030    2    1    2    0    0  0.00000000000E+00  0.00000000000E+00  0.20961041309E+04  0.26367538784E+04  0.15996307348E+04 0.  0.
        4    1    3    3  502    0  0.11350987786E+03 -0.71361342870E+03  0.48284676949E+03  0.86906342329E+03  0.12699999809E+01 0. -1.
       -4    1    3    3    0  502 -0.11350987786E+03  0.71361342870E+03  0.16132573614E+04  0.17676904551E+04  0.12699999809E+01 0.  1.
</event>
<event>
 5   0  0.1057506E-05  0.1599118E+04  0.7818609E-02  0.8821090E-01
       -1   -1    0    0    0  501  0.00000000000E+00  0.00000000000E+00  0.11642060742E+04  0.11642060743E+04  0.50400001928E-02 0.  1.
        1   -1    0    0  501    0  0.00000000000E+00  0.00000000000E+00 -0.54912522828E+03  0.54912522830E+03  0.50400001928E-02 0. -1.
    10030    2    1    2    0    0  0.00000000000E+00  0.00000000000E+00  0.61508084597E+03  0.17133313026E+04  0.15991184150E+04 0.  0.
        5    1    3    3  502    0  0.28532583248E+03 -0.72095012106E+03  0.51665432512E+03  0.93173692071E+03  0.46999998093E+01 0.  1.
       -5    1    3    3    0  502 -0.28532583248E+03  0.72095012106E+03  0.98426520841E+02  0.78159438185E+03  0.46999998093E+01 0. -1.
</event>
<event>
 5   0  0.2125803E-05  0.1604487E+04  0.7818609E-02  0.8817796E-01
       -2   -1    0    0    0  501  0.00000000000E+00  0.00000000000E+00  0.37767384122E+03  0.37767384122E+03  0.25500000920E-02 0.  1.
        2   -1    0    0  501    0  0.00000000000E+00  0.00000000000E+00 -0.17041023260E+04  0.17041023260E+04  0.25500000920E-02 0. -1.
    10030    2    1    2    0    0  0.00000000000E+00  0.00000000000E+00 -0.13264284848E+04  0.20817761672E+04  0.16044872967E+04 0.  0.
        3    1    3    3  502    0  0.35558956827E+02  0.16473107128E+03  0.35444839186E+03  0.39247221296E+03  0.10100000352E+00 0.  1.
       -3    1    3    3    0  502 -0.35558956827E+02 -0.16473107128E+03 -0.16808768766E+04  0.16893039542E+04  0.10100000352E+00 0. -1.
</event>
<event>
 5   0  0.1126485E-05  0.1599881E+04  0.7818609E-02  0.8820621E-01
        1   -1    0    0  501    0  0.00000000000E+00  0.00000000000E+00  0.93364042251E+03  0.93364042253E+03  0.50400001928E-02 0.  1.
       -1   -1    0    0    0  501  0.00000000000E+00  0.00000000000E+00 -0.68538675262E+03  0.68538675264E+03  0.50400001928E-02 0. -1.
    10030    2    1    2    0    0  0.00000000000E+00  0.00000000000E+00  0.24825366989E+03  0.16190271752E+04  0.15998809672E+04 0.  0.
        2    1    3    3  502    0  0.49286599755E+03  0.63006904797E+03  0.12507645369E+03  0.80965919746E+03  0.25500000920E-02 0.  1.
       -2    1    3    3    0  502 -0.49286599755E+03 -0.63006904797E+03  0.12317721619E+03  0.80936797771E+03  0.25500000920E-02 0. -1.
</event>
<event>
 5   0  0.1090674E-05  0.1600036E+04  0.7818609E-02  0.8820526E-01
       -1   -1    0    0    0  501  0.00000000000E+00  0.00000000000E+00  0.52458560460E+03  0.52458560463E+03  0.50400001928E-02 0. -1.
        1   -1    0    0  501    0  0.00000000000E+00  0.00000000000E+00 -0.12200653513E+04  0.12200653514E+04  0.50400001928E-02 0.  1.
    10030    2    1    2    0    0  0.00000000000E+00  0.00000000000E+00 -0.69547974674E+03  0.17446509560E+04  0.16000358996E+04 0.  0.
        4    1    3    3  502    0 -0.30164405042E+03 -0.36263305742E+03 -0.10523118952E+04  0.11531928742E+04  0.12699999809E+01 0.  1.
       -4    1    3    3    0  502  0.30164405042E+03  0.36263305742E+03  0.35683214841E+03  0.59145808180E+03  0.12699999809E+01 0. -1.
</event>
<event>
 5   0  0.1081831E-05  0.1603183E+04  0.7818609E-02  0.8818595E-01
       -1   -1    0    0    0  501  0.00000000000E+00  0.00000000000E+00  0.35364542842E+03  0.35364542845E+03  0.50400001928E-02 0. -1.
        1   -1    0    0  501    0  0.00000000000E+00  0.00000000000E+00 -0.18169294775E+04  0.18169294775E+04  0.50400001928E-02 0.  1.
    10030    2    1    2    0    0  0.00000000000E+00  0.00000000000E+00 -0.14632840490E+04  0.21705749059E+04  0.16031828386E+04 0.  0.
        3    1    3    3  502    0  0.61521059128E+03  0.45160174453E+03 -0.39966859492E+03  0.86148894551E+03  0.10100000352E+00 0. -1.
       -3    1    3    3    0  502 -0.61521059128E+03 -0.45160174453E+03 -0.10636154541E+04  0.13090859604E+04  0.10100000352E+00 0.  1.
</event>
<event>
 5   0  0.1090674E-05  0.1599961E+04  0.7818609E-02  0.8820572E-01
        1   -1    0    0  501    0  0.00000000000E+00  0.00000000000E+00  0.10422649819E+04  0.10422649820E+04  0.50400001928E-02 0.  1.
       -1   -1    0    0    0  501  0.00000000000E+00  0.00000000000E+00 -0.61401773757E+03  0.61401773759E+03  0.50400001928E-02 0. -1.
    10030    2    1    2    0    0  0.00000000000E+00  0.00000000000E+00  0.42824724437E+03  0.16562827195E+04  0.15999614823E+04 0.  0.
        4    1    3    3  502    0 -0.32555100024E+03 -0.51286075128E+03 -0.32473632933E+03  0.68881412620E+03  0.12699999809E+01 0. -1.
       -4    1    3    3    0  502  0.32555100024E+03  0.51286075128E+03  0.75298357369E+03  0.96746859335E+03  0.12699999809E+01 0.  1.
</event>
<event>
 5   0  0.2147844E-05  0.1601036E+04  0.7818609E-02  0.8819912E-01
       -2   -1    0    0    0  501  0.00000000000E+00  0.00000000000E+00  0.59457224122E+03  0.59457224123E+03  0.25500000920E-02 0.  1.
        2   -1    0    0  501    0  0.00000000000E+00  0.00000000000E+00 -0.10777983279E+04  0.10777983279E+04  0.25500000920E-02 0. -1.
    10030    2    1    2    0    0  0.00000000000E+00  0.00000000000E+00 -0.48322608670E+03  0.16723705692E+04  0.16010358740E+04 0.  0.
        2    1    3    3  502    0 -0.63179732634E+03 -0.41155440505E+03  0.39222953950E+02  0.75503862816E+03  0.25500000920E-02 0.  1.
       -2    1    3    3    0  502  0.63179732634E+03  0.41155440505E+03 -0.52244904065E+03  0.91733194100E+03  0.25500000920E-02 0. -1.
</event>
<event>
 5   0  0.1994525E-05  0.1600304E+04  0.7818609E-02  0.8820362E-01
        2   -1    0    0  501    0  0.00000000000E+00  0.00000000000E+00  0.10655655095E+04  0.10655655095E+04  0.25500000920E-02 0. -1.
       -2   -1    0    0    0  501  0.00000000000E+00  0.00000000000E+00 -0.60084794057E+03  0.60084794058E+03  0.25500000920E-02 0.  1.
    10030    2    1    2    0    0  0.00000000000E+00  0.00000000000E+00  0.46471756896E+03  0.16664134501E+04  0.16003035236E+04 0.  0.
        5    1    3    3  502    0  0.17493959114E+02 -0.26885341511E+03  0.10168969005E+04  0.10519931529E+04  0.46999998093E+01 0. -1.
       -5    1    3    3    0  502 -0.17493959114E+02  0.26885341511E+03 -0.55217933157E+03  0.61442029722E+03  0.46999998093E+01 0.  1.
</event>
<event>
 5   0  0.2125803E-05  0.1599466E+04  0.7818609E-02  0.8820876E-01
        2   -1    0    0  501    0  0.00000000000E+00  0.00000000000E+00  0.79083488892E+03  0.79083488892E+03  0.25500000920E-02 0. -1.
       -2   -1    0    0    0  501  0.00000000000E+00  0.00000000000E+00 -0.80873096044E+03  0.80873096045E+03  0.25500000920E-02 0.  1.
    10030    2    1    2    0    0  0.00000000000E+00  0.00000000000E+00 -0.17896071524E+02  0.15995658494E+04  0.15994657349E+04 0.  0.
        3    1    3    3  502    0  0.73352528503E+03 -0.15915675407E+03  0.26708089410E+03  0.79669469079E+03  0.10100000352E+00 0.  1.
       -3    1    3    3    0  502 -0.73352528503E+03  0.15915675407E+03 -0.28497696562E+03  0.80287115858E+03  0.10100000352E+00 0. -1.
</event>
<event>
 5   0  0.1994525E-05  0.1599946E+04  0.7818609E-02  0.8820581E-01
        2   -1    0    0  501    0  0.00000000000E+00  0.00000000000E+00  0.17068183661E+04  0.17068183661E+04  0.25500000920E-02 0. -1.
       -2   -1    0    0    0  501  0.00000000000E+00  0.00000000000E+00 -0.37494146200E+03  0.37494146201E+03  0.25500000920E-02 0.  1.
    10030    2    1    2    0    0  0.00000000000E+00  0.00000000000E+00  0.13318769041E+04  0.20817598282E+04  0.15999462161E+04 0.  0.
        5    1    3    3  502    0 -0.70016525840E+02 -0.69175379671E+03  0.15118976054E+03  0.71155186940E+03  0.46999998093E+01 0.  1.
       -5    1    3    3    0  502  0.70016525840E+02  0.69175379671E+03  0.11806871436E+04  0.13702079588E+04  0.46999998093E+01 0. -1.
</event>
<event>
 5   0  0.1090674E-05  0.1600494E+04  0.7818609E-02  0.8820245E-01
       -1   -1    0    0    0  501  0.00000000000E+00  0.00000000000E+00  0.10881901249E+04  0.10881901250E+04  0.50400001928E-02 0.  1.
        1   -1    0    0  501    0  0.00000000000E+00  0.00000000000E+00 -0.58849547978E+03  0.58849547980E+03  0.50400001928E-02 0. -1.
    10030    2    1    2    0    0  0.00000000000E+00  0.00000000000E+00  0.49969464516E+03  0.16766856048E+04  0.16004936360E+04 0.  0.
        4    1    3    3  502    0  0.14548098421E+03 -0.12578833658E+03 -0.56392417137E+03  0.59581835012E+03  0.12699999809E+01 0. -1.
       -4    1    3    3    0  502 -0.14548098421E+03  0.12578833658E+03  0.10636188165E+04  0.10808672546E+04  0.12699999809E+01 0.  1.
</event>
<event>
 5   0  0.1057506E-05  0.1599977E+04  0.7818609E-02  0.8820562E-01
       -1   -1    0    0    0  501  0.00000000000E+00  0.00000000000E+00  0.52044635329E+03  0.52044635332E+03  0.50400001928E-02 0. -1.
        1   -1    0    0  501    0  0.00000000000E+00  0.00000000000E+00 -0.12296777458E+04  0.12296777458E+04  0.50400001928E-02 0.  1.
    10030    2    1    2    0    0  0.00000000000E+00  0.00000000000E+00 -0.70923139252E+03  0.17501240991E+04  0.15999766230E+04 0.  0.
        5    1    3    3  502    0  0.58483553737E+03  0.69364250635E+02 -0.94682384701E+03  0.11150522375E+04  0.46999998093E+01 0.  1.
       -5    1    3    3    0  502 -0.58483553737E+03 -0.69364250635E+02  0.23759245449E+03  0.63507186166E+03  0.46999998093E+01 0. -1.
</event>
<event>
 5   0  0.1081831E-05  0.1599914E+04  0.7818609E-02  0.8820601E-01
       -1   -1    0    0    0  501  0.00000000000E+00  0.00000000000E+00  0.99254490412E+03  0.99254490413E+03  0.50400001928E-02 0.  1.
        1   -1    0    0  501    0  0.00000000000E+00  0.00000000000E+00 -0.64473755020E+03  0.64473755022E+03  0.50400001928E-02 0. -1.
    10030    2    1    2    0    0  0.00000000000E+00  0.00000000000E+00  0.34780735392E+03  0.16372824544E+04  0.15999137101E+04 0.  0.
        3    1    3    3  502    0 -0.32771179915E+03 -0.14251364113E+03 -0.55851223664E+03  0.66305436420E+03  0.10100000352E+00 0. -1.
       -3    1    3    3    0  502  0.32771179915E+03  0.14251364113E+03  0.90631959056E+03  0.97422809015E+03  0.10100000352E+00 0.  1.
</event>
<event>
 5   0  0.1057506E-05  0.1602668E+04  0.7818609E-02  0.8818911E-01
        1   -1    0    0  501    0  0.00000000000E+00  0.00000000000E+00  0.70170734875E+03  0.70170734877E+03  0.50400001928E-02 0.  1.
       -1   -1    0    0    0  501  0.00000000000E+00  0.00000000000E+00 -0.91510505264E+03  0.91510505265E+03  0.50400001928E-02 0. -1.
    10030    2    1    2    0    0  0.00000000000E+00  0.00000000000E+00 -0.21339770389E+03  0.16168124014E+04  0.16026677015E+04 0.  0.
        5    1    3    3  502    0 -0.64743468650E+03  0.47178351604E+03 -0.87491619520E+02  0.80587110184E+03  0.46999998093E+01 0.  1.
       -5    1    3    3    0  502  0.64743468650E+03 -0.47178351604E+03 -0.12590608437E+03  0.81094129958E+03  0.46999998093E+01 0. -1.
</event>
<event>
 5   0  0.2147844E-05  0.1600239E+04  0.7818609E-02  0.8820401E-01
        2   -1    0    0  501    0  0.00000000000E+00  0.00000000000E+00  0.11805699489E+04  0.11805699489E+04  0.25500000920E-02 0. -1.
       -2   -1    0    0    0  501  0.00000000000E+00  0.00000000000E+00 -0.54227304116E+03  0.54227304116E+03  0.25500000920E-02 0.  1.
    10030    2    1    2    0    0  0.00000000000E+00  0.00000000000E+00  0.63829690775E+03  0.17228429901E+04  0.16002390528E+04 0.  0.
        2    1    3    3  502    0 -0.52953360352E+03 -0.45583196306E+03 -0.10059738717E+03  0.70590966144E+03  0.25500000920E-02 0.  1.
       -2    1    3    3    0  502  0.52953360352E+03  0.45583196306E+03  0.73889429492E+03  0.10169333286E+04  0.25500000920E-02 0. -1.
</event>
<event>
 5   0  0.2125803E-05  0.1600253E+04  0.7818609E-02  0.8820393E-01
        2   -1    0    0  501    0  0.00000000000E+00  0.00000000000E+00  0.12109934064E+04  0.12109934064E+04  0.25500000920E-02 0. -1.
       -2   -1    0    0    0  501  0.00000000000E+00  0.00000000000E+00 -0.52865866360E+03  0.52865866361E+03  0.25500000920E-02 0.  1.
    10030    2    1    2    0    0  0.00000000000E+00  0.00000000000E+00  0.68233474282E+03  0.17396520700E+04  0.16002526749E+04 0.  0.
        3    1    3    3  502    0 -0.34757812387E+02 -0.78871676280E+03  0.19975974318E+03  0.81436245164E+03  0.10100000352E+00 0.  1.
       -3    1    3    3    0  502  0.34757812387E+02  0.78871676280E+03  0.48257499964E+03  0.92528961840E+03  0.10100000352E+00 0. -1.
</event>
<event>
 5   0  0.2125803E-05  0.1600265E+04  0.7818609E-02  0.8820385E-01
       -2   -1    0    0    0  501  0.00000000000E+00  0.00000000000E+00  0.82482486653E+03  0.82482486653E+03  0.25500000920E-02 0.  1.
        2   -1    0    0  501    0  0.00000000000E+00  0.00000000000E+00 -0.77617890519E+03  0.77617890520E+03  0.25500000920E-02 0. -1.
    10030    2    1    2    0    0  0.00000000000E+00  0.00000000000E+00  0.48645961337E+02  0.16010037717E+04  0.16002645555E+04 0.  0.
        3    1    3    3  502    0  0.27721113483E+03  0.70063451564E+03  0.29366270749E+03  0.80868568291E+03  0.10100000352E+00 0.  1.
       -3    1    3    3    0  502 -0.27721113483E+03 -0.70063451564E+03 -0.24501674615E+03  0.79231808882E+03  0.10100000352E+00 0. -1.
</event>
<event>
 5   0  0.1126485E-05  0.1600810E+04  0.7818609E-02  0.8820051E-01
       -1   -1    0    0    0  501  0.00000000000E+00  0.00000000000E+00  0.47532754040E+03  0.47532754042E+03  0.50400001928E-02 0.  1.
        1   -1    0    0  501    0  0.00000000000E+00  0.00000000000E+00 -0.13478034863E+04  0.13478034864E+04  0.50400001928E-02 0. -1.
    10030    2    1    2    0    0  0.00000000000E+00  0.00000000000E+00 -0.87247594595E+03  0.18231310268E+04  0.16008099402E+04 0.  0.
        2    1    3    3  502    0  0.29304549142E+03 -0.66467615887E+03 -0.53435119787E+02  0.72837172395E+03  0.25500000920E-02 0.  1.
       -2    1    3    3    0  502 -0.29304549142E+03  0.66467615887E+03 -0.81904082616E+03  0.10947593028E+04  0.25500000920E-02 0. -1.
</event>
<event>
 5   0  0.1990948E-05  0.1600270E+04  0.7818609E-02  0.8820382E-01
       -2   -1    0    0    0  501  0.00000000000E+00  0.00000000000E+00  0.87103562920E+03  0.87103562920E+03  0.25500000920E-02 0. -1.
        2   -1    0    0  501    0  0.00000000000E+00  0.00000000000E+00 -0.73500563780E+03  0.73500563780E+03  0.25500000920E-02 0.  1.
    10030    2    1    2    0    0  0.00000000000E+00  0.00000000000E+00  0.13602999140E+03  0.16060412670E+04  0.16002700999E+04 0.  0.
        4    1    3    3  502    0  0.59557245452E+03 -0.53390004764E+03  0.89508950727E+02  0.80484114869E+03  0.12699999809E+01 0.  1.
       -4    1    3    3    0  502 -0.59557245452E+03  0.53390004764E+03  0.46521040675E+02  0.80120011832E+03  0.12699999809E+01 0. -1.
</event>
<event>
 5   0  0.2125803E-05  0.1600785E+04  0.7818609E-02  0.8820066E-01
        2   -1    0    0  501    0  0.00000000000E+00  0.00000000000E+00  0.10251377226E+04  0.10251377226E+04  0.25500000920E-02 0.  1.
       -2   -1    0    0    0  501  0.00000000000E+00  0.00000000000E+00 -0.62491929103E+03  0.62491929104E+03  0.25500000920E-02 0. -1.
    10030    2    1    2    0    0  0.00000000000E+00  0.00000000000E+00  0.40021843155E+03  0.16500570136E+04  0.16007852308E+04 0.  0.
        3    1    3    3  502    0  0.57681769263E+03  0.49299639919E+03 -0.62414480281E+02  0.76135384526E+03  0.10100000352E+00 0. -1.
       -3    1    3    3    0  502 -0.57681769263E+03 -0.49299639919E+03  0.46263291183E+03  0.88870316836E+03  0.10100000352E+00 0.  1.
</event>
<event>
 5   0  0.2125803E-05  0.1600150E+04  0.7818609E-02  0.8820456E-01
       -2   -1    0    0    0  501  0.00000000000E+00  0.00000000000E+00  0.64254605752E+03  0.64254605752E+03  0.25500000920E-02 0. -1.
        2   -1    0    0  501    0  0.00000000000E+00  0.00000000000E+00 -0.99622378904E+03  0.99622378904E+03  0.25500000920E-02 0.  1.
    10030    2    1    2    0    0  0.00000000000E+00  0.00000000000E+00 -0.35367773152E+03  0.16387698466E+04  0.16001495781E+04 0.  0.
        3    1    3    3  502    0  0.81605872888E+02 -0.74506943926E+03 -0.46347179102E+03  0.88124576543E+03  0.10100000352E+00 0.  1.
       -3    1    3    3    0  502 -0.81605872888E+02  0.74506943926E+03  0.10979405950E+03  0.75752408114E+03  0.10100000352E+00 0. -1.
</event>
<event>
 5   0  0.2125803E-05  0.1599940E+04  0.7818609E-02  0.8820585E-01
       -2   -1    0    0    0  501  0.00000000000E+00  0.00000000000E+00  0.28534194188E+03  0.28534194189E+03  0.25500000920E-02 0. -1.
        2   -1    0    0  501    0  0.00000000000E+00  0.00000000000E+00 -0.22427560091E+04  0.22427560091E+04  0.25500000920E-02 0.  1.
    10030    2    1    2    0    0  0.00000000000E+00  0.00000000000E+00 -0.19574140672E+04  0.25280979510E+04  0.15999404424E+04 0.  0.
        3    1    3    3  502    0 -0.14977522785E+03  0.38579710988E+03  0.10304678555E+03  0.42648643482E+03  0.10100000352E+00 0. -1.
       -3    1    3    3    0  502  0.14977522785E+03 -0.38579710988E+03 -0.20604608528E+04  0.21016115162E+04  0.10100000352E+00 0.  1.
</event>
<event>
 5   0  0.1994525E-05  0.1600218E+04  0.7818609E-02  0.8820414E-01
       -2   -1    0    0    0  501  0.00000000000E+00  0.00000000000E+00  0.19839221577E+03  0.19839221579E+03  0.25500000920E-02 0. -1.
        2   -1    0    0  501    0  0.00000000000E+00  0.00000000000E+00 -0.32268128090E+04  0.32268128090E+04  0.25500000920E-02 0.  1.
    10030    2    1    2    0    0  0.00000000000E+00  0.00000000000E+00 -0.30284205932E+04  0.34252050248E+04  0.16002181640E+04 0.  0.
        5    1    3    3  502    0 -0.25099190168E+03 -0.71165243247E+03 -0.20833731345E+04  0.22158320845E+04  0.46999998093E+01 0.  1.
       -5    1    3    3    0  502  0.25099190168E+03  0.71165243247E+03 -0.94504745875E+03  0.12093729403E+04  0.46999998093E+01 0. -1.
</event>
<event>
 5   0  0.1081831E-05  0.1600633E+04  0.7818609E-02  0.8820159E-01
        1   -1    0    0  501    0  0.00000000000E+00  0.00000000000E+00  0.17101598604E+04  0.17101598604E+04  0.50400001928E-02 0.  1.
       -1   -1    0    0    0  501  0.00000000000E+00  0.00000000000E+00 -0.37453041206E+03  0.37453041209E+03  0.50400001928E-02 0. -1.
    10030    2    1    2    0    0  0.00000000000E+00  0.00000000000E+00  0.13356294483E+04  0.20846902725E+04  0.16006334711E+04 0.  0.
        3    1    3    3  502    0 -0.34421500536E+03 -0.39408582669E+03  0.14565231936E+04  0.15476586937E+04  0.10100000352E+00 0.  1.
       -3    1    3    3    0  502  0.34421500536E+03  0.39408582669E+03 -0.12089374525E+03  0.53703157873E+03  0.10100000352E+00 0. -1.
</event>
<event>
 5   0  0.1126485E-05  0.1600040E+04  0.7818609E-02  0.8820524E-01
        1   -1    0    0  501    0  0.00000000000E+00  0.00000000000E+00  0.10320143734E+04  0.10320143734E+04  0.50400001928E-02 0. -1.
       -1   -1    0    0    0  501  0.00000000000E+00  0.00000000000E+00 -0.62017703584E+03  0.62017703586E+03  0.50400001928E-02 0.  1.
    10030    2    1    2    0    0  0.00000000000E+00  0.00000000000E+00  0.41183733758E+03  0.16521914093E+04  0.16000395184E+04 0.  0.
        2    1    3    3  502    0  0.32331394084E+03  0.19151006520E+03  0.93521352283E+03  0.10078850841E+04  0.25500000920E-02 0. -1.
       -2    1    3    3    0  502 -0.32331394084E+03 -0.19151006520E+03 -0.52337618525E+03  0.64430632521E+03  0.25500000920E-02 0.  1.
</event>
<event>
 5   0  0.1090674E-05  0.1600544E+04  0.7818609E-02  0.8820214E-01
        1   -1    0    0  501    0  0.00000000000E+00  0.00000000000E+00  0.13194724919E+04  0.13194724919E+04  0.50400001928E-02 0.  1.
       -1   -1    0    0    0  501  0.00000000000E+00  0.00000000000E+00 -0.48537249889E+03  0.48537249892E+03  0.50400001928E-02 0. -1.
    10030    2    1    2    0    0  0.00000000000E+00  0.00000000000E+00  0.83409999304E+03  0.18048449909E+04  0.16005444832E+04 0.  0.
        4    1    3    3  502    0  0.68738125802E+03 -0.38174309473E+03  0.24898458471E+03  0.82475191457E+03  0.12699999809E+01 0.  1.
       -4    1    3    3    0  502 -0.68738125802E+03  0.38174309473E+03  0.58511540833E+03  0.98009307630E+03  0.12699999809E+01 0. -1.
</event>
<event>
 5   0  0.2125803E-05  0.1600579E+04  0.7818609E-02  0.8820193E-01
       -2   -1    0    0    0  501  0.00000000000E+00  0.00000000000E+00  0.28186868538E+03  0.28186868539E+03  0.25500000920E-02 0.  1.
        2   -1    0    0  501    0  0.00000000000E+00  0.00000000000E+00 -0.22722031359E+04  0.22722031359E+04  0.25500000920E-02 0. -1.
    10030    2    1    2    0    0  0.00000000000E+00  0.00000000000E+00 -0.19903344505E+04  0.25540718213E+04  0.16005785340E+04 0.  0.
        3    1    3    3  502    0 -0.15657543608E+03  0.78427905619E+03 -0.10417828259E+04  0.13133624678E+04  0.10100000352E+00 0. -1.
       -3    1    3    3    0  502  0.15657543608E+03 -0.78427905619E+03 -0.94855162457E+03  0.12407093535E+04  0.10100000352E+00 0.  1.
</event>
<event>
 5   0  0.2125803E-05  0.1601163E+04  0.7818609E-02  0.8819834E-01
        2   -1    0    0  501    0  0.00000000000E+00  0.00000000000E+00  0.13149116010E+04  0.13149116010E+04  0.25500000920E-02 0. -1.
       -2   -1    0    0    0  501  0.00000000000E+00  0.00000000000E+00 -0.48743272917E+03  0.48743272918E+03  0.25500000920E-02 0.  1.
    10030    2    1    2    0    0  0.00000000000E+00  0.00000000000E+00  0.82747887188E+03  0.18023443302E+04  0.16011632650E+04 0.  0.
        3    1    3    3  502    0  0.14116757965E+03 -0.31110047888E+03  0.12287412709E+04  0.12753497225E+04  0.10100000352E+00 0. -1.
       -3    1    3    3    0  502 -0.14116757965E+03  0.31110047888E+03 -0.40126239906E+03  0.52699460775E+03  0.10100000352E+00 0.  1.
</event>
<event>
 5   0  0.2046108E-05  0.1600241E+04  0.7818609E-02  0.8820400E-01
        2   -1    0    0  501    0  0.00000000000E+00  0.00000000000E+00  0.14581270792E+04  0.14581270792E+04  0.25500000920E-02 0.  1.
       -2   -1    0    0    0  501  0.00000000000E+00  0.00000000000E+00 -0.43905168886E+03  0.43905168887E+03  0.25500000920E-02 0. -1.
    10030    2    1    2    0    0  0.00000000000E+00  0.00000000000E+00  0.10190753904E+04  0.18971787681E+04  0.16002414277E+04 0.  0.
        1    1    3    3  502    0  0.66602725671E+03  0.42668104750E+03  0.65251485826E+03  0.10253900054E+04  0.50400001928E-02 0.  1.
       -1    1    3    3    0  502 -0.66602725671E+03 -0.42668104750E+03  0.36656053211E+03  0.87178876267E+03  0.50400001928E-02 0. -1.
</event>
<event>
 5   0  0.1060251E-05  0.1599985E+04  0.7818609E-02  0.8820557E-01
       -1   -1    0    0    0  501  0.00000000000E+00  0.00000000000E+00  0.51498891574E+03  0.51498891577E+03  0.50400001928E-02 0.  1.
        1   -1    0    0  501    0  0.00000000000E+00  0.00000000000E+00 -0.12427211918E+04  0.12427211919E+04  0.50400001928E-02 0. -1.
    10030    2    1    2    0    0  0.00000000000E+00  0.00000000000E+00 -0.72773227610E+03  0.17577101076E+04  0.15999845489E+04 0.  0.
        1    1    3    3  502    0  0.11105668834E+03  0.23883513169E+03  0.46598815960E+03  0.53527635205E+03  0.50400001928E-02 0.  1.
       -1    1    3    3    0  502 -0.11105668834E+03 -0.23883513169E+03 -0.11937204357E+04  0.12224337556E+04  0.50400001928E-02 0. -1.
</event>
<event>
 5   0  0.2147844E-05  0.1590874E+04  0.7818609E-02  0.8826174E-01
       -2   -1    0    0    0  501  0.00000000000E+00  0.00000000000E+00  0.76415216026E+03  0.76415216026E+03  0.25500000920E-02 0.  1.
        2   -1    0    0  501    0  0.00000000000E+00  0.00000000000E+00 -0.82800251411E+03  0.82800251411E+03  0.25500000920E-02 0. -1.
    10030    2    1    2    0    0  0.00000000000E+00  0.00000000000E+00 -0.63850353853E+02  0.15921546744E+04  0.15908738603E+04 0.  0.
        2    1    3    3  502    0 -0.62380393808E+03  0.30332692356E+03  0.35772275254E+03  0.78045124346E+03  0.25500000920E-02 0.  1.
       -2    1    3    3    0  502  0.62380393808E+03 -0.30332692356E+03 -0.42157310639E+03  0.81170343092E+03  0.25500000920E-02 0. -1.
</event>
<event>
 5   0  0.2125803E-05  0.1600312E+04  0.7818609E-02  0.8820356E-01
       -2   -1    0    0    0  501  0.00000000000E+00  0.00000000000E+00  0.62421538103E+03  0.62421538104E+03  0.25500000920E-02 0.  1.
        2   -1    0    0  501    0  0.00000000000E+00  0.00000000000E+00 -0.10256875621E+04  0.10256875621E+04  0.25500000920E-02 0. -1.
    10030    2    1    2    0    0  0.00000000000E+00  0.00000000000E+00 -0.40147218102E+03  0.16499029431E+04  0.16003124100E+04 0.  0.
        3    1    3    3  502    0 -0.59158013610E+03  0.12981417710E+03  0.33837421020E+03  0.69376933799E+03  0.10100000352E+00 0.  1.
       -3    1    3    3    0  502  0.59158013610E+03 -0.12981417710E+03 -0.73984639122E+03  0.95613360510E+03  0.10100000352E+00 0. -1.
</event>
<event>
 5   0  0.1060251E-05  0.1599770E+04  0.7818609E-02  0.8820689E-01
        1   -1    0    0  501    0  0.00000000000E+00  0.00000000000E+00  0.72206174129E+03  0.72206174131E+03  0.50400001928E-02 0. -1.
       -1   -1    0    0    0  501  0.00000000000E+00  0.00000000000E+00 -0.88609610569E+03  0.88609610571E+03  0.50400001928E-02 0.  1.
    10030    2    1    2    0    0  0.00000000000E+00  0.00000000000E+00 -0.16403436440E+03  0.16081578470E+04  0.15997701048E+04 0.  0.
        1    1    3    3  502    0  0.41080424757E+03 -0.33656455567E+03  0.51926632194E+03  0.74274715959E+03  0.50400001928E-02 0. -1.
       -1    1    3    3    0  502 -0.41080424757E+03  0.33656455567E+03 -0.68330068633E+03  0.86541068743E+03  0.50400001928E-02 0.  1.
</event>
<event>
 5   0  0.1990948E-05  0.1599294E+04  0.7818609E-02  0.8820982E-01
       -2   -1    0    0    0  501  0.00000000000E+00  0.00000000000E+00  0.56646989304E+03  0.56646989305E+03  0.25500000920E-02 0.  1.
        2   -1    0    0  501    0  0.00000000000E+00  0.00000000000E+00 -0.11288073434E+04  0.11288073434E+04  0.25500000920E-02 0. -1.
    10030    2    1    2    0    0  0.00000000000E+00  0.00000000000E+00 -0.56233745040E+03  0.16952772365E+04  0.15992940632E+04 0.  0.
        4    1    3    3  502    0  0.51537483001E+02  0.73466710125E+02  0.56111404429E+03  0.56824647228E+03  0.12699999809E+01 0.  1.
       -4    1    3    3    0  502 -0.51537483001E+02 -0.73466710125E+02 -0.11234514947E+04  0.11270307642E+04  0.12699999809E+01 0. -1.
</event>
<event>
 5   0  0.1057506E-05  0.1601038E+04  0.7818609E-02  0.8819911E-01
       -1   -1    0    0    0  501  0.00000000000E+00  0.00000000000E+00  0.55839799327E+03  0.55839799329E+03  0.50400001928E-02 0.  1.
        1   -1    0    0  501    0  0.00000000000E+00  0.00000000000E+00 -0.11476228137E+04  0.11476228137E+04  0.50400001928E-02 0. -1.
    10030    2    1    2    0    0  0.00000000000E+00  0.00000000000E+00 -0.58922482046E+03  0.17060208070E+04  0.16010375089E+04 0.  0.
        5    1    3    3  502    0 -0.58986157869E+03 -0.31304530071E+03 -0.76500441037E+03  0.10154742144E+04  0.46999998093E+01 0. -1.
       -5    1    3    3    0  502  0.58986157869E+03  0.31304530071E+03  0.17577958991E+03  0.69054659259E+03  0.46999998093E+01 0.  1.
</event>
<event>
 5   0  0.1994525E-05  0.1599967E+04  0.7818609E-02  0.8820568E-01
       -2   -1    0    0    0  501  0.00000000000E+00  0.00000000000E+00  0.68132229686E+03  0.68132229687E+03  0.25500000920E-02 0.  1.
        2   -1    0    0  501    0  0.00000000000E+00  0.00000000000E+00 -0.93931120532E+03  0.93931120533E+03  0.25500000920E-02 0. -1.
    10030    2    1    2    0    0  0.00000000000E+00  0.00000000000E+00 -0.25798890846E+03  0.16206335022E+04  0.15999670845E+04 0.  0.
        5    1    3    3  502    0 -0.53256290275E+03  0.24790669456E+02 -0.73311567877E+03  0.90648690621E+03  0.46999998093E+01 0. -1.
       -5    1    3    3    0  502  0.53256290275E+03 -0.24790669456E+02  0.47512677031E+03  0.71414659598E+03  0.46999998093E+01 0.  1.
</event>
<event>
 5   0  0.1990948E-05  0.1598138E+04  0.7818609E-02  0.8821692E-01
       -2   -1    0    0    0  501  0.00000000000E+00  0.00000000000E+00  0.67147815052E+03  0.67147815053E+03  0.25500000920E-02 0.  1.
        2   -1    0    0  501    0  0.00000000000E+00  0.00000000000E+00 -0.95090453792E+03  0.95090453793E+03  0.25500000920E-02 0. -1.
    10030    2    1    2    0    0  0.00000000000E+00  0.00000000000E+00 -0.27942638740E+03  0.16223826885E+04  0.15981384426E+04 0.  0.
        4    1    3    3  502    0 -0.40983812837E+03 -0.54636548358E+03  0.28134082023E+03  0.73867232461E+03  0.12699999809E+01 0.  1.
       -4    1    3    3    0  502  0.40983812837E+03  0.54636548358E+03 -0.56076720764E+03  0.88371036385E+03  0.12699999809E+01 0. -1.
</event>
<event>
 5   0  0.2125803E-05  0.1600093E+04  0.7818609E-02  0.8820491E-01
        2   -1    0    0  501    0  0.00000000000E+00  0.00000000000E+00  0.60423095591E+03  0.60423095592E+03  0.25500000920E-02 0. -1.
       -2   -1    0    0    0  501  0.00000000000E+00  0.00000000000E+00 -0.10593212393E+04  0.10593212393E+04  0.25500000920E-02 0.  1.
    10030    2    1    2    0    0  0.00000000000E+00  0.00000000000E+00 -0.45509028338E+03  0.16635521952E+04  0.16000933536E+04 0.  0.
        3    1    3    3  502    0 -0.42306712163E+03 -0.59115097041E+03 -0.57490564556E+03  0.92680190479E+03  0.10100000352E+00 0.  1.
       -3    1    3    3    0  502  0.42306712163E+03  0.59115097041E+03  0.11981536218E+03  0.73675029042E+03  0.10100000352E+00 0. -1.
</event>
<event>
 5   0  0.2125803E-05  0.1600180E+04  0.7818609E-02  0.8820437E-01
        2   -1    0    0  501    0  0.00000000000E+00  0.00000000000E+00  0.83235881995E+03  0.83235881996E+03  0.25500000920E-02 0.  1.
       -2   -1    0    0    0  501  0.00000000000E+00  0.00000000000E+00 -0.76907258157E+03  0.76907258158E+03  0.25500000920E-02 0. -1.
    10030    2    1    2    0    0  0.00000000000E+00  0.00000000000E+00  0.63286238377E+02  0.16014314015E+04  0.16001804229E+04 0.  0.
        3    1    3    3  502    0 -0.63183919040E+03  0.29342588057E+03  0.42542858979E+03  0.81627752948E+03  0.10100000352E+00 0.  1.
       -3    1    3    3    0  502  0.63183919040E+03 -0.29342588057E+03 -0.36214235141E+03  0.78515387206E+03  0.10100000352E+00 0. -1.
</event>
<event>
 5   0  0.1990948E-05  0.1599323E+04  0.7818609E-02  0.8820964E-01
       -2   -1    0    0    0  501  0.00000000000E+00  0.00000000000E+00  0.11360310636E+04  0.11360310636E+04  0.25500000920E-02 0. -1.
        2   -1    0    0  501    0  0.00000000000E+00  0.00000000000E+00 -0.56288807167E+03  0.56288807168E+03  0.25500000920E-02 0.  1.
    10030    2    1    2    0    0  0.00000000000E+00  0.00000000000E+00  0.57314299190E+03  0.16989191352E+04  0.15993227751E+04 0.  0.
        4    1    3    3  502    0 -0.46501724825E+03 -0.36335587834E+03  0.85979430336E+03  0.10428405403E+04  0.12699999809E+01 0. -1.
       -4    1    3    3    0  502  0.46501724825E+03  0.36335587834E+03 -0.28665131146E+03  0.65607859495E+03  0.12699999809E+01 0.  1.
</event>
<event>
 5   0  0.2125803E-05  0.1601158E+04  0.7818609E-02  0.8819837E-01
        2   -1    0    0  501    0  0.00000000000E+00  0.00000000000E+00  0.12482061153E+04  0.12482061153E+04  0.25500000920E-02 0.  1.
       -2   -1    0    0    0  501  0.00000000000E+00  0.00000000000E+00 -0.51347809227E+03  0.51347809228E+03  0.25500000920E-02 0. -1.
    10030    2    1    2    0    0  0.00000000000E+00  0.00000000000E+00  0.73472802303E+03  0.17616842076E+04  0.16011576997E+04 0.  0.
        3    1    3    3  502    0 -0.37051061877E+03  0.66828109117E+03  0.63015896222E+03  0.99044336704E+03  0.10100000352E+00 0.  1.
       -3    1    3    3    0  502  0.37051061877E+03 -0.66828109117E+03  0.10456906081E+03  0.77124084054E+03  0.10100000352E+00 0. -1.
</event>
<event>
 5   0  0.1057506E-05  0.1600188E+04  0.7818609E-02  0.8820432E-01
        1   -1    0    0  501    0  0.00000000000E+00  0.00000000000E+00  0.93542499457E+03  0.93542499459E+03  0.50400001928E-02 0. -1.
       -1   -1    0    0    0  501  0.00000000000E+00  0.00000000000E+00 -0.68434202990E+03  0.68434202992E+03  0.50400001928E-02 0.  1.
    10030    2    1    2    0    0  0.00000000000E+00  0.00000000000E+00  0.25108296467E+03  0.16197670245E+04  0.16001882885E+04 0.  0.
        5    1    3    3  502    0 -0.31600818760E+02  0.55303158660E+03 -0.45883133035E+03  0.71929884418E+03  0.46999998093E+01 0.  1.
       -5    1    3    3    0  502  0.31600818760E+02 -0.55303158660E+03  0.70991429502E+03  0.90046818033E+03  0.46999998093E+01 0. -1.
</event>
<event>
 5   0  0.2046108E-05  0.1600337E+04  0.7818609E-02  0.8820341E-01
        2   -1    0    0  501    0  0.00000000000E+00  0.00000000000E+00  0.25629429207E+04  0.25629429207E+04  0.25500000920E-02 0. -1.
       -2   -1    0    0    0  501  0.00000000000E+00  0.00000000000E+00 -0.24981828283E+03  0.24981828285E+03  0.25500000920E-02 0.  1.
    10030    2    1    2    0    0  0.00000000000E+00  0.00000000000E+00  0.23131246379E+04  0.28127612035E+04  0.16003374637E+04 0.  0.
        1    1    3    3  502    0 -0.78350651401E+02 -0.78667791808E+02  0.25493382351E+04  0.25517548634E+04  0.50400001928E-02 0. -1.
       -1    1    3    3    0  502  0.78350651401E+02  0.78667791808E+02 -0.23621359723E+03  0.26100634013E+03  0.50400001928E-02 0.  1.
</event>
<event>
 5   0  0.1081831E-05  0.1597615E+04  0.7818609E-02  0.8822015E-01
       -1   -1    0    0    0  501  0.00000000000E+00  0.00000000000E+00  0.37169588500E+03  0.37169588503E+03  0.50400001928E-02 0.  1.
        1   -1    0    0  501    0  0.00000000000E+00  0.00000000000E+00 -0.17167075109E+04  0.17167075109E+04  0.50400001928E-02 0. -1.
    10030    2    1    2    0    0  0.00000000000E+00  0.00000000000E+00 -0.13450116259E+04  0.20884033959E+04  0.15976146189E+04 0.  0.
        3    1    3    3  502    0  0.22887161961E+03 -0.47410001022E+03  0.11283815733E+03  0.53841015769E+03  0.10100000352E+00 0.  1.
       -3    1    3    3    0  502 -0.22887161961E+03  0.47410001022E+03 -0.14578497832E+04  0.15499932383E+04  0.10100000352E+00 0. -1.
</event>
<event>
 5   0  0.1990948E-05  0.1600202E+04  0.7818609E-02  0.8820424E-01
       -2   -1    0    0    0  501  0.00000000000E+00  0.00000000000E+00  0.11225415629E+04  0.11225415629E+04  0.25500000920E-02 0. -1.
        2   -1    0    0  501    0  0.00000000000E+00  0.00000000000E+00 -0.57027883609E+03  0.57027883610E+03  0.25500000920E-02 0.  1.
    10030    2    1    2    0    0  0.00000000000E+00  0.00000000000E+00  0.55226272679E+03  0.16928203990E+04  0.16002021072E+04 0.  0.
        4    1    3    3  502    0 -0.33451233123E+03  0.70269348988E+03  0.47257653279E+03  0.91049812340E+03  0.12699999809E+01 0.  1.
       -4    1    3    3    0  502  0.33451233123E+03 -0.70269348988E+03  0.79686194000E+02  0.78232227559E+03  0.12699999809E+01 0. -1.
</event>
<event>
 5   0  0.1990948E-05  0.1599435E+04  0.7818609E-02  0.8820895E-01
       -2   -1    0    0    0  501  0.00000000000E+00  0.00000000000E+00  0.51698004047E+03  0.51698004047E+03  0.25500000920E-02 0. -1.
        2   -1    0    0  501    0  0.00000000000E+00  0.00000000000E+00 -0.12370845679E+04  0.12370845679E+04  0.25500000920E-02 0.  1.
    10030    2    1    2    0    0  0.00000000000E+00  0.00000000000E+00 -0.72010452741E+03  0.17540646084E+04  0.15994349377E+04 0.  0.
        4    1    3    3  502    0  0.21430579165E+03 -0.77035857009E+03 -0.37422947827E+03  0.88285254384E+03  0.12699999809E+01 0. -1.
       -4    1    3    3    0  502 -0.21430579165E+03  0.77035857009E+03 -0.34587504914E+03  0.87121206452E+03  0.12699999809E+01 0.  1.
</event>
<event>
 5   0  0.7597000E-06  0.1611820E+04  0.7818609E-02  0.8813319E-01
       -3   -1    0    0    0  501  0.00000000000E+00  0.00000000000E+00  0.21293323871E+04  0.21293323895E+04  0.10100000352E+00 0. -1.
        3   -1    0    0  501    0  0.00000000000E+00  0.00000000000E+00 -0.30502106173E+03  0.30502107845E+03  0.10100000352E+00 0.  1.
    10030    2    1    2    0    0  0.00000000000E+00  0.00000000000E+00  0.18243113253E+04  0.24343534679E+04  0.16118203979E+04 0.  0.
        1    1    3    3  502    0 -0.35547347790E+03  0.23571387617E+03  0.19448927259E+04  0.19911127894E+04  0.50400001928E-02 0. -1.
       -1    1    3    3    0  502  0.35547347790E+03 -0.23571387617E+03 -0.12058140054E+03  0.44324067852E+03  0.50400001928E-02 0.  1.
</event>
<event>
 5   0  0.1990948E-05  0.1596928E+04  0.7818609E-02  0.8822438E-01
        2   -1    0    0  501    0  0.00000000000E+00  0.00000000000E+00  0.27469515634E+04  0.27469515634E+04  0.25500000920E-02 0.  1.
       -2   -1    0    0    0  501  0.00000000000E+00  0.00000000000E+00 -0.23209165468E+03  0.23209165469E+03  0.25500000920E-02 0. -1.
    10030    2    1    2    0    0  0.00000000000E+00  0.00000000000E+00  0.25148599088E+04  0.29790432181E+04  0.15969277175E+04 0.  0.
        4    1    3    3  502    0  0.44917690996E+03  0.52151114096E+03  0.50240617686E+03  0.85214279673E+03  0.12699999809E+01 0. -1.
       -4    1    3    3    0  502 -0.44917690996E+03 -0.52151114096E+03  0.20124537319E+04  0.21269004214E+04  0.12699999809E+01 0.  1.
</event>
<event>
 5   0  0.2046108E-05  0.1599343E+04  0.7818609E-02  0.8820951E-01
        2   -1    0    0  501    0  0.00000000000E+00  0.00000000000E+00  0.12563862032E+04  0.12563862032E+04  0.25500000920E-02 0. -1.
       -2   -1    0    0    0  501  0.00000000000E+00  0.00000000000E+00 -0.50897955910E+03  0.50897955910E+03  0.25500000920E-02 0.  1.
    10030    2    1    2    0    0  0.00000000000E+00  0.00000000000E+00  0.74740664406E+03  0.17653657623E+04  0.15993434850E+04 0.  0.
        1    1    3    3  502    0  0.17274527017E+03  0.52634536945E+02  0.12335845913E+04  0.12467326364E+04  0.50400001928E-02 0. -1.
       -1    1    3    3    0  502 -0.17274527017E+03 -0.52634536945E+02 -0.48617794721E+03  0.51863312585E+03  0.50400001928E-02 0.  1.
</event>
<event>
 5   0  0.1090674E-05  0.1595559E+04  0.7818609E-02  0.8823281E-01
       -1   -1    0    0    0  501  0.00000000000E+00  0.00000000000E+00  0.51186788457E+03  0.51186788460E+03  0.50400001928E-02 0.  1.
        1   -1    0    0  501    0  0.00000000000E+00  0.00000000000E+00 -0.12433910805E+04  0.12433910805E+04  0.50400001928E-02 0. -1.
    10030    2    1    2    0    0  0.00000000000E+00  0.00000000000E+00 -0.73152319593E+03  0.17552589651E+04  0.15955587888E+04 0.  0.
        4    1    3    3  502    0 -0.28159129411E+02 -0.67597623872E+03  0.99296397024E+02  0.68381152319E+03  0.12699999809E+01 0.  1.
       -4    1    3    3    0  502  0.28159129411E+02  0.67597623872E+03 -0.83081959296E+03  0.10714474419E+04  0.12699999809E+01 0. -1.
</event>
<event>
 5   0  0.7597000E-06  0.1600294E+04  0.7818609E-02  0.8820367E-01
       -3   -1    0    0    0  501  0.00000000000E+00  0.00000000000E+00  0.61278241366E+03  0.61278242198E+03  0.10100000352E+00 0. -1.
        3   -1    0    0  501    0  0.00000000000E+00  0.00000000000E+00 -0.10448003572E+04  0.10448003621E+04  0.10100000352E+00 0.  1.
    10030    2    1    2    0    0  0.00000000000E+00  0.00000000000E+00 -0.43201794352E+03  0.16575827840E+04  0.16002940925E+04 0.  0.
        3    1    3    3  502    0 -0.49635343091E+03  0.12837692304E+03 -0.85231996174E+03  0.99463394781E+03  0.10100000352E+00 0.  1.
       -3    1    3    3    0  502  0.49635343091E+03 -0.12837692304E+03  0.42030201822E+03  0.66294883624E+03  0.10100000352E+00 0. -1.
</event>
<event>
 5   0  0.1057506E-05  0.1600740E+04  0.7818609E-02  0.8820093E-01
        1   -1    0    0  501    0  0.00000000000E+00  0.00000000000E+00  0.93599837928E+03  0.93599837929E+03  0.50400001928E-02 0.  1.
       -1   -1    0    0    0  501  0.00000000000E+00  0.00000000000E+00 -0.68439471416E+03  0.68439471417E+03  0.50400001928E-02 0. -1.
    10030    2    1    2    0    0  0.00000000000E+00  0.00000000000E+00  0.25160366512E+03  0.16203930935E+04  0.16007402578E+04 0.  0.
        5    1    3    3  502    0 -0.10865374690E+03 -0.18080285143E+03  0.90733956400E+03  0.93154843255E+03  0.46999998093E+01 0.  1.
       -5    1    3    3    0  502  0.10865374690E+03  0.18080285143E+03 -0.65573589887E+03  0.68884466091E+03  0.46999998093E+01 0. -1.
</event>
<event>
 5   0  0.1990948E-05  0.1601864E+04  0.7818609E-02  0.8819404E-01
        2   -1    0    0  501    0  0.00000000000E+00  0.00000000000E+00  0.96837489490E+03  0.96837489490E+03  0.25500000920E-02 0.  1.
       -2   -1    0    0    0  501  0.00000000000E+00  0.00000000000E+00 -0.66244195867E+03  0.66244195868E+03  0.25500000920E-02 0. -1.
    10030    2    1    2    0    0  0.00000000000E+00  0.00000000000E+00  0.30593293623E+03  0.16308168536E+04  0.16018641167E+04 0.  0.
        4    1    3    3  502    0  0.31109676529E+03  0.60031351777E+03 -0.28413382899E+03  0.73341063714E+03  0.12699999809E+01 0. -1.
       -4    1    3    3    0  502 -0.31109676529E+03 -0.60031351777E+03  0.59006676522E+03  0.89740621644E+03  0.12699999809E+01 0.  1.
</event>
<event>
 5   0  0.2046108E-05  0.1599805E+04  0.7818609E-02  0.8820668E-01
       -2   -1    0    0    0  501  0.00000000000E+00  0.00000000000E+00  0.30839724338E+03  0.30839724340E+03  0.25500000920E-02 0.  1.
        2   -1    0    0  501    0  0.00000000000E+00  0.00000000000E+00 -0.20747394301E+04  0.20747394301E+04  0.25500000920E-02 0. -1.
    10030    2    1    2    0    0  0.00000000000E+00  0.00000000000E+00 -0.17663421867E+04  0.23831366735E+04  0.15998048893E+04 0.  0.
        1    1    3    3  502    0  0.31551819926E+03  0.67784380367E+03 -0.13066592395E+04  0.15054508708E+04  0.50400001928E-02 0. -1.
       -1    1    3    3    0  502 -0.31551819926E+03 -0.67784380367E+03 -0.45968294721E+03  0.87768580267E+03  0.50400001928E-02 0.  1.
</event>
<event>
 5   0  0.1990948E-05  0.1599422E+04  0.7818609E-02  0.8820903E-01
        2   -1    0    0  501    0  0.00000000000E+00  0.00000000000E+00  0.98308844448E+03  0.98308844448E+03  0.25500000920E-02 0.  1.
       -2   -1    0    0    0  501  0.00000000000E+00  0.00000000000E+00 -0.65053902035E+03  0.65053902035E+03  0.25500000920E-02 0. -1.
    10030    2    1    2    0    0  0.00000000000E+00  0.00000000000E+00  0.33254942413E+03  0.16336274648E+04  0.15994216375E+04 0.  0.
        4    1    3    3  502    0 -0.42077785463E+03  0.60766649001E+03  0.47812927056E+03  0.88029641502E+03  0.12699999809E+01 0. -1.
       -4    1    3    3    0  502  0.42077785463E+03 -0.60766649001E+03 -0.14557984642E+03  0.75333104981E+03  0.12699999809E+01 0.  1.
</event>
<event>
 5   0  0.1994525E-05  0.1599650E+04  0.7818609E-02  0.8820763E-01
       -2   -1    0    0    0  501  0.00000000000E+00  0.00000000000E+00  0.30081140404E+03  0.30081140405E+03  0.25500000920E-02 0.  1.
        2   -1    0    0  501    0  0.00000000000E+00  0.00000000000E+00 -0.21266469304E+04  0.21266469304E+04  0.25500000920E-02 0. -1.
    10030    2    1    2    0    0  0.00000000000E+00  0.00000000000E+00 -0.18258355263E+04  0.24274583344E+04  0.15996495229E+04 0.  0.
        5    1    3    3  502    0  0.45991579844E+03 -0.53458458163E+03 -0.34028879974E+03  0.78302092807E+03  0.46999998093E+01 0.  1.
       -5    1    3    3    0  502 -0.45991579844E+03  0.53458458163E+03 -0.14855467266E+04  0.16444374064E+04  0.46999998093E+01 0. -1.
</event>
<event>
 5   0  0.2147844E-05  0.1600246E+04  0.7818609E-02  0.8820397E-01
       -2   -1    0    0    0  501  0.00000000000E+00  0.00000000000E+00  0.55100716810E+03  0.55100716810E+03  0.25500000920E-02 0. -1.
        2   -1    0    0  501    0  0.00000000000E+00  0.00000000000E+00 -0.11618667432E+04  0.11618667432E+04  0.25500000920E-02 0.  1.
    10030    2    1    2    0    0  0.00000000000E+00  0.00000000000E+00 -0.61085957507E+03  0.17128739113E+04  0.16002461109E+04 0.  0.
        2    1    3    3  502    0  0.34213861794E+03  0.48423892660E+03 -0.88050539365E+03  0.10615252800E+04  0.25500000920E-02 0.  1.
       -2    1    3    3    0  502 -0.34213861794E+03 -0.48423892660E+03  0.26964581858E+03  0.65134863123E+03  0.25500000920E-02 0. -1.
</event>
<event>
 5   0  0.1081831E-05  0.1600915E+04  0.7818609E-02  0.8819986E-01
       -1   -1    0    0    0  501  0.00000000000E+00  0.00000000000E+00  0.10082136548E+04  0.10082136548E+04  0.50400001928E-02 0.  1.
        1   -1    0    0  501    0  0.00000000000E+00  0.00000000000E+00 -0.63551230219E+03  0.63551230221E+03  0.50400001928E-02 0. -1.
    10030    2    1    2    0    0  0.00000000000E+00  0.00000000000E+00  0.37270135263E+03  0.16437259570E+04  0.16009149645E+04 0.  0.
        3    1    3    3  502    0 -0.39678603993E+03 -0.24537346046E+02 -0.52698791104E+03  0.66011931605E+03  0.10100000352E+00 0. -1.
       -3    1    3    3    0  502  0.39678603993E+03  0.24537346046E+02  0.89968926367E+03  0.98360664099E+03  0.10100000352E+00 0.  1.
</event>
<event>
 5   0  0.2046108E-05  0.1599680E+04  0.7818609E-02  0.8820745E-01
        2   -1    0    0  501    0  0.00000000000E+00  0.00000000000E+00  0.95531859511E+03  0.95531859511E+03  0.25500000920E-02 0.  1.
       -2   -1    0    0    0  501  0.00000000000E+00  0.00000000000E+00 -0.66966560549E+03  0.66966560549E+03  0.25500000920E-02 0. -1.
    10030    2    1    2    0    0  0.00000000000E+00  0.00000000000E+00  0.28565298962E+03  0.16249842006E+04  0.15996799748E+04 0.  0.
        1    1    3    3  502    0  0.29921435492E+03 -0.51612713261E+03 -0.39835546995E+03  0.71735871617E+03  0.50400001928E-02 0. -1.
       -1    1    3    3    0  502 -0.29921435492E+03  0.51612713261E+03  0.68400845957E+03  0.90762548443E+03  0.50400001928E-02 0.  1.
</event>
<event>
 5   0  0.1126485E-05  0.1599450E+04  0.7818609E-02  0.8820886E-01
       -1   -1    0    0    0  501  0.00000000000E+00  0.00000000000E+00  0.40074339088E+03  0.40074339091E+03  0.50400001928E-02 0.  1.
        1   -1    0    0  501    0  0.00000000000E+00  0.00000000000E+00 -0.15959345548E+04  0.15959345548E+04  0.50400001928E-02 0. -1.
    10030    2    1    2    0    0  0.00000000000E+00  0.00000000000E+00 -0.11951911639E+04  0.19966779457E+04  0.15994501870E+04 0.  0.
        2    1    3    3  502    0 -0.83373875611E+02  0.38754239376E+03  0.26946594425E+03  0.47932473878E+03  0.25500000920E-02 0.  1.
       -2    1    3    3    0  502  0.83373875611E+02 -0.38754239376E+03 -0.14646571081E+04  0.15173532069E+04  0.25500000920E-02 0. -1.
</event>
<event>
 5   0  0.1090674E-05  0.1600774E+04  0.7818609E-02  0.8820073E-01
        1   -1    0    0  501    0  0.00000000000E+00  0.00000000000E+00  0.26690735165E+03  0.26690735170E+03  0.50400001928E-02 0. -1.
       -1   -1    0    0    0  501  0.00000000000E+00  0.00000000000E+00 -0.24001566190E+04  0.24001566190E+04  0.50400001928E-02 0.  1.
    10030    2    1    2    0    0  0.00000000000E+00  0.00000000000E+00 -0.21332492674E+04  0.26670639707E+04  0.16007741212E+04 0.  0.
        4    1    3    3  502    0 -0.20908833645E+03 -0.75566000789E+03 -0.13346448211E+04  0.15479077464E+04  0.12699999809E+01 0. -1.
       -4    1    3    3    0  502  0.20908833645E+03  0.75566000789E+03 -0.79860444627E+03  0.11191562243E+04  0.12699999809E+01 0.  1.
</event>
<event>
 5   0  0.2125803E-05  0.1599541E+04  0.7818609E-02  0.8820830E-01
       -2   -1    0    0    0  501  0.00000000000E+00  0.00000000000E+00  0.71856678442E+03  0.71856678442E+03  0.25500000920E-02 0. -1.
        2   -1    0    0  501    0  0.00000000000E+00  0.00000000000E+00 -0.89015085796E+03  0.89015085796E+03  0.25500000920E-02 0.  1.
    10030    2    1    2    0    0  0.00000000000E+00  0.00000000000E+00 -0.17158407354E+03  0.16087176424E+04  0.15995409837E+04 0.  0.
        3    1    3    3  502    0  0.69409137512E+03 -0.39732764387E+03 -0.86654781609E+02  0.80445084062E+03  0.10100000352E+00 0. -1.
       -3    1    3    3    0  502 -0.69409137512E+03  0.39732764387E+03 -0.84929291930E+02  0.80426680176E+03  0.10100000352E+00 0.  1.
</event>
<event>
 5   0  0.1994525E-05  0.1610393E+04  0.7818609E-02  0.8814189E-01
        2   -1    0    0  501    0  0.00000000000E+00  0.00000000000E+00  0.11316843535E+04  0.11316843535E+04  0.25500000920E-02 0. -1.
       -2   -1    0    0    0  501  0.00000000000E+00  0.00000000000E+00 -0.57289930952E+03  0.57289930953E+03  0.25500000920E-02 0.  1.
    10030    2    1    2    0    0  0.00000000000E+00  0.00000000000E+00  0.55878504402E+03  0.17045836631E+04  0.16103927282E+04 0.  0.
        5    1    3    3  502    0  0.30064381843E+03  0.35781854095E+03  0.97340834997E+03  0.10797993886E+04  0.46999998093E+01 0. -1.
       -5    1    3    3    0  502 -0.30064381843E+03 -0.35781854095E+03 -0.41462330595E+03  0.62478427448E+03  0.46999998093E+01 0.  1.
</event>
<event>
 5   0  0.7597000E-06  0.1599261E+04  0.7818609E-02  0.8821002E-01
       -3   -1    0    0    0  501  0.00000000000E+00  0.00000000000E+00  0.54166866315E+03  0.54166867256E+03  0.10100000352E+00 0.  1.
        3   -1    0    0  501    0  0.00000000000E+00  0.00000000000E+00 -0.11804434247E+04  0.11804434290E+04  0.10100000352E+00 0. -1.
    10030    2    1    2    0    0  0.00000000000E+00  0.00000000000E+00 -0.63877476153E+03  0.17221121016E+04  0.15992613590E+04 0.  0.
        3    1    3    3  502    0  0.18353888517E+03 -0.66636372910E+03 -0.75237243641E+03  0.10216611156E+04  0.10100000352E+00 0. -1.
       -3    1    3    3    0  502 -0.18353888517E+03  0.66636372910E+03  0.11359767487E+03  0.70045098598E+03  0.10100000352E+00 0.  1.
</event>
<event>
 5   0  0.1994525E-05  0.1597561E+04  0.7818609E-02  0.8822048E-01
        2   -1    0    0  501    0  0.00000000000E+00  0.00000000000E+00  0.11477934102E+04  0.11477934102E+04  0.25500000920E-02 0.  1.
       -2   -1    0    0    0  501  0.00000000000E+00  0.00000000000E+00 -0.55589274532E+03  0.55589274533E+03  0.25500000920E-02 0. -1.
    10030    2    1    2    0    0  0.00000000000E+00  0.00000000000E+00  0.59190066488E+03  0.17036861555E+04  0.15975606779E+04 0.  0.
        5    1    3    3  502    0  0.15720651499E+02 -0.25044494855E+03  0.11046515656E+04  0.11328049181E+04  0.46999998093E+01 0.  1.
       -5    1    3    3    0  502 -0.15720651499E+02  0.25044494855E+03 -0.51275090067E+03  0.57088123746E+03  0.46999998093E+01 0. -1.
</event>
<event>
 5   0  0.2046108E-05  0.1600793E+04  0.7818609E-02  0.8820061E-01
       -2   -1    0    0    0  501  0.00000000000E+00  0.00000000000E+00  0.46615032033E+03  0.46615032033E+03  0.25500000920E-02 0.  1.
        2   -1    0    0  501    0  0.00000000000E+00  0.00000000000E+00 -0.13743094669E+04  0.13743094669E+04  0.25500000920E-02 0. -1.
    10030    2    1    2    0    0  0.00000000000E+00  0.00000000000E+00 -0.90815914658E+03  0.18404597872E+04  0.16007933011E+04 0.  0.
        1    1    3    3  502    0  0.70889716998E+03 -0.11299894394E+03 -0.86110360198E+03  0.11210724206E+04  0.50400001928E-02 0. -1.
       -1    1    3    3    0  502 -0.70889716998E+03  0.11299894394E+03 -0.47055544597E+02  0.71938736661E+03  0.50400001928E-02 0.  1.
</event>
<event>
 5   0  0.1090674E-05  0.1600437E+04  0.7818609E-02  0.8820280E-01
        1   -1    0    0  501    0  0.00000000000E+00  0.00000000000E+00  0.54681320213E+03  0.54681320215E+03  0.50400001928E-02 0. -1.
       -1   -1    0    0    0  501  0.00000000000E+00  0.00000000000E+00 -0.11710567183E+04  0.11710567183E+04  0.50400001928E-02 0.  1.
    10030    2    1    2    0    0  0.00000000000E+00  0.00000000000E+00 -0.62424351617E+03  0.17178699205E+04  0.16004365330E+04 0.  0.
        4    1    3    3  502    0  0.65156339119E+03  0.29347298619E+03  0.74422352774E+02  0.71847167366E+03  0.12699999809E+01 0.  1.
       -4    1    3    3    0  502 -0.65156339119E+03 -0.29347298619E+03 -0.69866586894E+03  0.99939824679E+03  0.12699999809E+01 0. -1.
</event>
<event>
 5   0  0.1057506E-05  0.1600405E+04  0.7818609E-02  0.8820299E-01
        1   -1    0    0  501    0  0.00000000000E+00  0.00000000000E+00  0.11106203581E+04  0.11106203582E+04  0.50400001928E-02 0.  1.
       -1   -1    0    0    0  501  0.00000000000E+00  0.00000000000E+00 -0.57654616266E+03  0.57654616269E+03  0.50400001928E-02 0. -1.
    10030    2    1    2    0    0  0.00000000000E+00  0.00000000000E+00  0.53407419549E+03  0.16871665208E+04  0.16004048309E+04 0.  0.
        5    1    3    3  502    0 -0.16366565197E+03 -0.42774693583E+03  0.95877065965E+03  0.10625521891E+04  0.46999998093E+01 0.  1.
       -5    1    3    3    0  502  0.16366565197E+03  0.42774693583E+03 -0.42469646417E+03  0.62461433175E+03  0.46999998093E+01 0. -1.
</event>
<event>
 5   0  0.1994525E-05  0.1601406E+04  0.7818609E-02  0.8819685E-01
       -2   -1    0    0    0  501  0.00000000000E+00  0.00000000000E+00  0.55014906760E+03  0.55014906760E+03  0.25500000920E-02 0.  1.
        2   -1    0    0  501    0  0.00000000000E+00  0.00000000000E+00 -0.11653658293E+04  0.11653658293E+04  0.25500000920E-02 0. -1.
    10030    2    1    2    0    0  0.00000000000E+00  0.00000000000E+00 -0.61521676173E+03  0.17155148969E+04  0.16014055382E+04 0.  0.
        5    1    3    3  502    0 -0.61545234147E+02  0.67117184414E+03 -0.77066278416E+03  0.10238176972E+04  0.46999998093E+01 0. -1.
       -5    1    3    3    0  502  0.61545234147E+02 -0.67117184414E+03  0.15544602243E+03  0.69169719972E+03  0.46999998093E+01 0.  1.
</event>
<event>
 5   0  0.2147844E-05  0.1599491E+04  0.7818609E-02  0.8820860E-01
        2   -1    0    0  501    0  0.00000000000E+00  0.00000000000E+00  0.69318889416E+03  0.69318889416E+03  0.25500000920E-02 0.  1.
       -2   -1    0    0    0  501  0.00000000000E+00  0.00000000000E+00 -0.92268245517E+03  0.92268245518E+03  0.25500000920E-02 0. -1.
    10030    2    1    2    0    0  0.00000000000E+00  0.00000000000E+00 -0.22949356102E+03  0.16158713493E+04  0.15994914576E+04 0.  0.
        2    1    3    3  502    0 -0.21053478631E+03  0.73527401011E+03 -0.35089357093E+03  0.84147433966E+03  0.25500000920E-02 0. -1.
       -2    1    3    3    0  502  0.21053478631E+03 -0.73527401011E+03  0.12140000991E+03  0.77439700968E+03  0.25500000920E-02 0.  1.
</event>
<event>
 5   0  0.2125803E-05  0.1599809E+04  0.7818609E-02  0.8820665E-01
       -2   -1    0    0    0  501  0.00000000000E+00  0.00000000000E+00  0.93327846498E+03  0.93327846498E+03  0.25500000920E-02 0.  1.
        2   -1    0    0  501    0  0.00000000000E+00  0.00000000000E+00 -0.68559082051E+03  0.68559082052E+03  0.25500000920E-02 0. -1.
    10030    2    1    2    0    0  0.00000000000E+00  0.00000000000E+00  0.24768764447E+03  0.16188692855E+04  0.15998089243E+04 0.  0.
        3    1    3    3  502    0  0.54075697759E+03 -0.14308821804E+03  0.70245593545E+03  0.89796252617E+03  0.10100000352E+00 0.  1.
       -3    1    3    3    0  502 -0.54075697759E+03  0.14308821804E+03 -0.45476829098E+03  0.72090675933E+03  0.10100000352E+00 0. -1.
</event>
<event>
 5   0  0.1060251E-05  0.1600017E+04  0.7818609E-02  0.8820537E-01
       -1   -1    0    0    0  501  0.00000000000E+00  0.00000000000E+00  0.68232557497E+03  0.68232557499E+03  0.50400001928E-02 0.  1.
        1   -1    0    0  501    0  0.00000000000E+00  0.00000000000E+00 -0.93798912817E+03  0.93798912819E+03  0.50400001928E-02 0. -1.
    10030    2    1    2    0    0  0.00000000000E+00  0.00000000000E+00 -0.25566355320E+03  0.16203147032E+04  0.16000174639E+04 0.  0.
        1    1    3    3  502    0  0.39445774737E+02  0.37706232737E+03 -0.84124131779E+03  0.92272364370E+03  0.50400001928E-02 0. -1.
       -1    1    3    3    0  502 -0.39445774737E+02 -0.37706232737E+03  0.58557776458E+03  0.69759105948E+03  0.50400001928E-02 0.  1.
</event>
<event>
 5   0  0.2125803E-05  0.1599575E+04  0.7818609E-02  0.8820809E-01
        2   -1    0    0  501    0  0.00000000000E+00  0.00000000000E+00  0.49525085655E+03  0.49525085655E+03  0.25500000920E-02 0.  1.
       -2   -1    0    0    0  501  0.00000000000E+00  0.00000000000E+00 -0.12915873414E+04  0.12915873414E+04  0.25500000920E-02 0. -1.
    10030    2    1    2    0    0  0.00000000000E+00  0.00000000000E+00 -0.79633648488E+03  0.17868381980E+04  0.15995746149E+04 0.  0.
        3    1    3    3  502    0  0.72163454431E+03  0.56254363173E+02 -0.77820021297E+03  0.10627871615E+04  0.10100000352E+00 0. -1.
       -3    1    3    3    0  502 -0.72163454431E+03 -0.56254363173E+02 -0.18136271910E+02  0.72405103651E+03  0.10100000352E+00 0.  1.
</event>
<event>
 5   0  0.1994525E-05  0.1601038E+04  0.7818609E-02  0.8819911E-01
        2   -1    0    0  501    0  0.00000000000E+00  0.00000000000E+00  0.15048821720E+04  0.15048821720E+04  0.25500000920E-02 0.  1.
       -2   -1    0    0    0  501  0.00000000000E+00  0.00000000000E+00 -0.42583431392E+03  0.42583431392E+03  0.25500000920E-02 0. -1.
    10030    2    1    2    0    0  0.00000000000E+00  0.00000000000E+00  0.10790478581E+04  0.19307164859E+04  0.16010377475E+04 0.  0.
        5    1    3    3  502    0  0.45723210814E+03  0.43931307241E+03  0.11287605305E+04  0.12946735502E+04  0.46999998093E+01 0.  1.
       -5    1    3    3    0  502 -0.45723210814E+03 -0.43931307241E+03 -0.49712672438E+02  0.63604293574E+03  0.46999998093E+01 0. -1.
</event>
<event>
 5   0  0.1060251E-05  0.1599474E+04  0.7818609E-02  0.8820871E-01
       -1   -1    0    0    0  501  0.00000000000E+00  0.00000000000E+00  0.31600731866E+03  0.31600731870E+03  0.50400001928E-02 0. -1.
        1   -1    0    0  501    0  0.00000000000E+00  0.00000000000E+00 -0.20239377929E+04  0.20239377929E+04  0.50400001928E-02 0.  1.
    10030    2    1    2    0    0  0.00000000000E+00  0.00000000000E+00 -0.17079304743E+04  0.23399451116E+04  0.15994738574E+04 0.  0.
        1    1    3    3  502    0 -0.19896819079E+03  0.13652891917E+03 -0.19694088272E+04  0.19841369951E+04  0.50400001928E-02 0.  1.
       -1    1    3    3    0  502  0.19896819079E+03 -0.13652891917E+03  0.26147835292E+03  0.35580811653E+03  0.50400001928E-02 0. -1.
</event>
<event>
 5   0  0.1126485E-05  0.1596673E+04  0.7818609E-02  0.8822594E-01
        1   -1    0    0  501    0  0.00000000000E+00  0.00000000000E+00  0.85218461887E+03  0.85218461889E+03  0.50400001928E-02 0. -1.
       -1   -1    0    0    0  501  0.00000000000E+00  0.00000000000E+00 -0.74789098390E+03  0.74789098392E+03  0.50400001928E-02 0.  1.
    10030    2    1    2    0    0  0.00000000000E+00  0.00000000000E+00  0.10429363497E+03  0.16000756028E+04  0.15966730324E+04 0.  0.
        2    1    3    3  502    0  0.63591215234E+03 -0.36586432537E+03 -0.26332591617E+03  0.77947514919E+03  0.25500000920E-02 0. -1.
       -2    1    3    3    0  502 -0.63591215234E+03  0.36586432537E+03  0.36761955115E+03  0.82060045361E+03  0.25500000920E-02 0.  1.
</event>
<event>
 5   0  0.1990948E-05  0.1600117E+04  0.7818609E-02  0.8820476E-01
       -2   -1    0    0    0  501  0.00000000000E+00  0.00000000000E+00  0.68978480632E+03  0.68978480633E+03  0.25500000920E-02 0.  1.
        2   -1    0    0  501    0  0.00000000000E+00  0.00000000000E+00 -0.92796090923E+03  0.92796090923E+03  0.25500000920E-02 0. -1.
    10030    2    1    2    0    0  0.00000000000E+00  0.00000000000E+00 -0.23817610291E+03  0.16177457156E+04  0.16001166658E+04 0.  0.
        4    1    3    3  502    0  0.44962860834E+03  0.30529964640E+03 -0.71268350714E+03  0.89626622930E+03  0.12699999809E+01 0. -1.
       -4    1    3    3    0  502 -0.44962860834E+03 -0.30529964640E+03  0.47450740423E+03  0.72147948627E+03  0.12699999809E+01 0.  1.
</event>
<event>
 5   0  0.1990948E-05  0.1601642E+04  0.7818609E-02  0.8819540E-01
        2   -1    0    0  501    0  0.00000000000E+00  0.00000000000E+00  0.11070755215E+04  0.11070755215E+04  0.25500000920E-02 0. -1.
       -2   -1    0    0    0  501  0.00000000000E+00  0.00000000000E+00 -0.57928711324E+03  0.57928711324E+03  0.25500000920E-02 0.  1.
    10030    2    1    2    0    0  0.00000000000E+00  0.00000000000E+00  0.52778840827E+03  0.16863626348E+04  0.16016423858E+04 0.  0.
        4    1    3    3  502    0  0.19508060002E+03 -0.77055637485E+02 -0.54985123401E+03  0.58849979118E+03  0.12699999809E+01 0.  1.
       -4    1    3    3    0  502 -0.19508060002E+03  0.77055637485E+02  0.10776396423E+04  0.10978628436E+04  0.12699999809E+01 0. -1.
</event>
<event>
 5   0  0.2147844E-05  0.1600321E+04  0.7818609E-02  0.8820351E-01
       -2   -1    0    0    0  501  0.00000000000E+00  0.00000000000E+00  0.50725681163E+03  0.50725681163E+03  0.25500000920E-02 0. -1.
        2   -1    0    0  501    0  0.00000000000E+00  0.00000000000E+00 -0.12621945397E+04  0.12621945397E+04  0.25500000920E-02 0.  1.
    10030    2    1    2    0    0  0.00000000000E+00  0.00000000000E+00 -0.75493772807E+03  0.17694513513E+04  0.16003209401E+04 0.  0.
        2    1    3    3  502    0 -0.55717458283E+03  0.94668274031E+02  0.24883250238E+03  0.61751373435E+03  0.25500000920E-02 0. -1.
       -2    1    3    3    0  502  0.55717458283E+03 -0.94668274031E+02 -0.10037702305E+04  0.11519376170E+04  0.25500000920E-02 0.  1.
</event>
<event>
 5   0  0.2046108E-05  0.1600244E+04  0.7818609E-02  0.8820398E-01
       -2   -1    0    0    0  501  0.00000000000E+00  0.00000000000E+00  0.38586831858E+03  0.38586831859E+03  0.25500000920E-02 0. -1.
        2   -1    0    0  501    0  0.00000000000E+00  0.00000000000E+00 -0.16591026382E+04  0.16591026382E+04  0.25500000920E-02 0.  1.
    10030    2    1    2    0    0  0.00000000000E+00  0.00000000000E+00 -0.12732343197E+04  0.20449709568E+04  0.16002439131E+04 0.  0.
        1    1    3    3  502    0 -0.79319290300E+03  0.42135067844E+02 -0.75962108939E+03  0.10990698544E+04  0.50400001928E-02 0.  1.
       -1    1    3    3    0  502  0.79319290300E+03 -0.42135067844E+02 -0.51361323027E+03  0.94590110246E+03  0.50400001928E-02 0. -1.
</event>
<event>
 5   0  0.1990948E-05  0.1600157E+04  0.7818609E-02  0.8820451E-01
       -2   -1    0    0    0  501  0.00000000000E+00  0.00000000000E+00  0.57175047062E+03  0.57175047063E+03  0.25500000920E-02 0. -1.
        2   -1    0    0  501    0  0.00000000000E+00  0.00000000000E+00 -0.11195896871E+04  0.11195896871E+04  0.25500000920E-02 0.  1.
    10030    2    1    2    0    0  0.00000000000E+00  0.00000000000E+00 -0.54783921647E+03  0.16913401577E+04  0.16001574054E+04 0.  0.
        4    1    3    3  502    0  0.34215828581E+03 -0.23089968983E+03 -0.99834857127E+03  0.10803186761E+04  0.12699999809E+01 0.  1.
       -4    1    3    3    0  502 -0.34215828581E+03  0.23089968983E+03  0.45050935480E+03  0.61102148160E+03  0.12699999809E+01 0. -1.
</event>
<event>
 5   0  0.1994525E-05  0.1599764E+04  0.7818609E-02  0.8820693E-01
       -2   -1    0    0    0  501  0.00000000000E+00  0.00000000000E+00  0.29251650958E+03  0.29251650959E+03  0.25500000920E-02 0.  1.
        2   -1    0    0  501    0  0.00000000000E+00  0.00000000000E+00 -0.21872653719E+04  0.21872653719E+04  0.25500000920E-02 0. -1.
    10030    2    1    2    0    0  0.00000000000E+00  0.00000000000E+00 -0.18947488623E+04  0.24797818815E+04  0.15997640228E+04 0.  0.
        5    1    3    3  502    0  0.56839162675E+03 -0.11476498897E+02 -0.75196588317E+02  0.57347830672E+03  0.46999998093E+01 0.  1.
       -5    1    3    3    0  502 -0.56839162675E+03  0.11476498897E+02 -0.18195522740E+04  0.19063035748E+04  0.46999998093E+01 0. -1.
</event>
<event>
 5   0  0.1081831E-05  0.1606140E+04  0.7818609E-02  0.8816785E-01
        1   -1    0    0  501    0  0.00000000000E+00  0.00000000000E+00  0.69683053711E+03  0.69683053713E+03  0.50400001928E-02 0. -1.
       -1   -1    0    0    0  501  0.00000000000E+00  0.00000000000E+00 -0.92550711889E+03  0.92550711890E+03  0.50400001928E-02 0.  1.
    10030    2    1    2    0    0  0.00000000000E+00  0.00000000000E+00 -0.22867658178E+03  0.16223376560E+04  0.16061402464E+04 0.  0.
        3    1    3    3  502    0 -0.51817166160E+03 -0.22696950158E+02  0.50495531844E+03  0.72387630591E+03  0.10100000352E+00 0. -1.
       -3    1    3    3    0  502  0.51817166160E+03  0.22696950158E+02 -0.73363190022E+03  0.89846135012E+03  0.10100000352E+00 0.  1.
</event>
<event>
 5   0  0.1081831E-05  0.1599763E+04  0.7818609E-02  0.8820694E-01
        1   -1    0    0  501    0  0.00000000000E+00  0.00000000000E+00  0.71879885660E+03  0.71879885662E+03  0.50400001928E-02 0.  1.
       -1   -1    0    0    0  501  0.00000000000E+00  0.00000000000E+00 -0.89011054786E+03  0.89011054788E+03  0.50400001928E-02 0. -1.
    10030    2    1    2    0    0  0.00000000000E+00  0.00000000000E+00 -0.17131169126E+03  0.16089094045E+04  0.15997630376E+04 0.  0.
        3    1    3    3  502    0 -0.49189978990E+03  0.20992110542E+03 -0.68384900383E+03  0.86814845738E+03  0.10100000352E+00 0. -1.
       -3    1    3    3    0  502  0.49189978990E+03 -0.20992110542E+03  0.51253731257E+03  0.74076094712E+03  0.10100000352E+00 0.  1.
</event>
<event>
 5   0  0.1090674E-05  0.1601941E+04  0.7818609E-02  0.8819357E-01
        1   -1    0    0  501    0  0.00000000000E+00  0.00000000000E+00  0.63396375823E+03  0.63396375825E+03  0.50400001928E-02 0. -1.
       -1   -1    0    0    0  501  0.00000000000E+00  0.00000000000E+00 -0.10119718143E+04  0.10119718143E+04  0.50400001928E-02 0.  1.
    10030    2    1    2    0    0  0.00000000000E+00  0.00000000000E+00 -0.37800805610E+03  0.16459355726E+04  0.16019406414E+04 0.  0.
        4    1    3    3  502    0 -0.39117550507E+03  0.24372889966E+03  0.48406676230E+03  0.66838932933E+03  0.12699999809E+01 0. -1.
       -4    1    3    3    0  502  0.39117550507E+03 -0.24372889966E+03 -0.86207481840E+03  0.97754624326E+03  0.12699999809E+01 0.  1.
</event>
<event>
 5   0  0.1060251E-05  0.1600084E+04  0.7818609E-02  0.8820496E-01
       -1   -1    0    0    0  501  0.00000000000E+00  0.00000000000E+00  0.20932506767E+04  0.20932506767E+04  0.50400001928E-02 0. -1.
        1   -1    0    0  501    0  0.00000000000E+00  0.00000000000E+00 -0.30577684983E+03  0.30577684988E+03  0.50400001928E-02 0.  1.
    10030    2    1    2    0    0  0.00000000000E+00  0.00000000000E+00  0.17874738268E+04  0.23990275266E+04  0.16000844951E+04 0.  0.
        1    1    3    3  502    0 -0.68914989994E+02  0.85866051840E+02  0.20818375710E+04  0.20847469694E+04  0.50400001928E-02 0. -1.
       -1    1    3    3    0  502  0.68914989994E+02 -0.85866051840E+02 -0.29436374412E+03  0.31428055712E+03  0.50400001928E-02 0.  1.
</event>
<event>
 5   0  0.2046108E-05  0.1604437E+04  0.7818609E-02  0.8817827E-01
       -2   -1    0    0    0  501  0.00000000000E+00  0.00000000000E+00  0.42248360495E+03  0.42248360496E+03  0.25500000920E-02 0. -1.
        2   -1    0    0  501    0  0.00000000000E+00  0.00000000000E+00 -0.15232654933E+04  0.15232654933E+04  0.25500000920E-02 0.  1.
    10030    2    1    2    0    0  0.00000000000E+00  0.00000000000E+00 -0.11007818883E+04  0.19457490982E+04  0.16044372183E+04 0.  0.
        1    1    3    3  502    0  0.55945471068E+03 -0.28558059779E+03 -0.11555527325E+04  0.13152368489E+04  0.50400001928E-02 0.  1.
       -1    1    3    3    0  502 -0.55945471068E+03  0.28558059779E+03  0.54770844182E+02  0.63051224932E+03  0.50400001928E-02 0. -1.
</event>
<event>
 5   0  0.1990948E-05  0.1599557E+04  0.7818609E-02  0.8820820E-01
        2   -1    0    0  501    0  0.00000000000E+00  0.00000000000E+00  0.11978401919E+04  0.11978401919E+04  0.25500000920E-02 0. -1.
       -2   -1    0    0    0  501  0.00000000000E+00  0.00000000000E+00 -0.53399917750E+03  0.53399917751E+03  0.25500000920E-02 0.  1.
    10030    2    1    2    0    0  0.00000000000E+00  0.00000000000E+00  0.66384101435E+03  0.17318393694E+04  0.15995570352E+04 0.  0.
        4    1    3    3  502    0  0.25221892680E+03 -0.75558039260E+03  0.40945227165E+03  0.89563881804E+03  0.12699999809E+01 0. -1.
       -4    1    3    3    0  502 -0.25221892680E+03  0.75558039260E+03  0.25438874270E+03  0.83620055132E+03  0.12699999809E+01 0.  1.
</event>
<event>
 5   0  0.2147844E-05  0.1601047E+04  0.7818609E-02  0.8819905E-01
        2   -1    0    0  501    0  0.00000000000E+00  0.00000000000E+00  0.77982695755E+03  0.77982695756E+03  0.25500000920E-02 0.  1.
       -2   -1    0    0    0  501  0.00000000000E+00  0.00000000000E+00 -0.82176950227E+03  0.82176950227E+03  0.25500000920E-02 0. -1.
    10030    2    1    2    0    0  0.00000000000E+00  0.00000000000E+00 -0.41942544719E+02  0.16015964598E+04  0.16010471708E+04 0.  0.
        2    1    3    3  502    0 -0.49567861385E+03 -0.33103501783E+03 -0.55552951168E+03  0.81479721993E+03  0.25500000920E-02 0. -1.
       -2    1    3    3    0  502  0.49567861385E+03  0.33103501783E+03  0.51358696696E+03  0.78679923989E+03  0.25500000920E-02 0.  1.
</event>
<event>
 5   0  0.1057506E-05  0.1599847E+04  0.7818609E-02  0.8820642E-01
       -1   -1    0    0    0  501  0.00000000000E+00  0.00000000000E+00  0.47149614038E+03  0.47149614041E+03  0.50400001928E-02 0.  1.
        1   -1    0    0  501    0  0.00000000000E+00  0.00000000000E+00 -0.13571222069E+04  0.13571222069E+04  0.50400001928E-02 0. -1.
    10030    2    1    2    0    0  0.00000000000E+00  0.00000000000E+00 -0.88562606656E+03  0.18286183474E+04  0.15998473460E+04 0.  0.
        5    1    3    3  502    0 -0.62753511146E+03  0.21659477004E+03 -0.95287877874E+03  0.11613413226E+04  0.46999998093E+01 0. -1.
       -5    1    3    3    0  502  0.62753511146E+03 -0.21659477004E+03  0.67252712183E+02  0.66727702479E+03  0.46999998093E+01 0.  1.
</event>
<event>
 5   0  0.1081831E-05  0.1599845E+04  0.7818609E-02  0.8820643E-01
       -1   -1    0    0    0  501  0.00000000000E+00  0.00000000000E+00  0.66216512370E+03  0.66216512372E+03  0.50400001928E-02 0.  1.
        1   -1    0    0  501    0  0.00000000000E+00  0.00000000000E+00 -0.96633905159E+03  0.96633905160E+03  0.50400001928E-02 0. -1.
    10030    2    1    2    0    0  0.00000000000E+00  0.00000000000E+00 -0.30417392789E+03  0.16285041753E+04  0.15998450146E+04 0.  0.
        3    1    3    3  502    0  0.57087221240E+03  0.46842327765E+03  0.16092863157E+03  0.75578666606E+03  0.10100000352E+00 0.  1.
       -3    1    3    3    0  502 -0.57087221240E+03 -0.46842327765E+03 -0.46510255946E+03  0.87271750925E+03  0.10100000352E+00 0. -1.
</event>
<event>
 5   0  0.2046108E-05  0.1600180E+04  0.7818609E-02  0.8820437E-01
        2   -1    0    0  501    0  0.00000000000E+00  0.00000000000E+00  0.14064191145E+04  0.14064191145E+04  0.25500000920E-02 0.  1.
       -2   -1    0    0    0  501  0.00000000000E+00  0.00000000000E+00 -0.45515905448E+03  0.45515905449E+03  0.25500000920E-02 0. -1.
    10030    2    1    2    0    0  0.00000000000E+00  0.00000000000E+00  0.95126006005E+03  0.18615781690E+04  0.16001804828E+04 0.  0.
        1    1    3    3  502    0  0.62449887399E+03  0.44536138671E+03  0.74040205615E+03  0.10660866818E+04  0.50400001928E-02 0.  1.
       -1    1    3    3    0  502 -0.62449887399E+03 -0.44536138671E+03  0.21085800390E+03  0.79549148721E+03  0.50400001928E-02 0. -1.
</event>
<event>
 5   0  0.1090674E-05  0.1600133E+04  0.7818609E-02  0.8820466E-01
       -1   -1    0    0    0  501  0.00000000000E+00  0.00000000000E+00  0.35246577023E+03  0.35246577026E+03  0.50400001928E-02 0. -1.
        1   -1    0    0  501    0  0.00000000000E+00  0.00000000000E+00 -0.18160818870E+04  0.18160818870E+04  0.50400001928E-02 0.  1.
    10030    2    1    2    0    0  0.00000000000E+00  0.00000000000E+00 -0.14636161168E+04  0.21685476573E+04  0.16001333709E+04 0.  0.
        4    1    3    3  502    0  0.51460049831E+03 -0.15726268752E+03  0.70597416572E+02  0.54270695027E+03  0.12699999809E+01 0. -1.
       -4    1    3    3    0  502 -0.51460049831E+03  0.15726268752E+03 -0.15342135334E+04  0.16258407070E+04  0.12699999809E+01 0.  1.
</event>
<event>
 5   0  0.1081831E-05  0.1599980E+04  0.7818609E-02  0.8820560E-01
        1   -1    0    0  501    0  0.00000000000E+00  0.00000000000E+00  0.50764759520E+03  0.50764759522E+03  0.50400001928E-02 0.  1.
       -1   -1    0    0    0  501  0.00000000000E+00  0.00000000000E+00 -0.12606850735E+04  0.12606850735E+04  0.50400001928E-02 0. -1.
    10030    2    1    2    0    0  0.00000000000E+00  0.00000000000E+00 -0.75303747828E+03  0.17683326687E+04  0.15999796822E+04 0.  0.
        3    1    3    3  502    0  0.21733721307E+03  0.29576743970E+03  0.40909887704E+03  0.54961417737E+03  0.10100000352E+00 0.  1.
       -3    1    3    3    0  502 -0.21733721307E+03 -0.29576743970E+03 -0.11621363553E+04  0.12187184913E+04  0.10100000352E+00 0. -1.
</event>
<event>
 5   0  0.1060251E-05  0.1599822E+04  0.7818609E-02  0.8820657E-01
        1   -1    0    0  501    0  0.00000000000E+00  0.00000000000E+00  0.16870774808E+04  0.16870774809E+04  0.50400001928E-02 0.  1.
       -1   -1    0    0    0  501  0.00000000000E+00  0.00000000000E+00 -0.37926980657E+03  0.37926980661E+03  0.50400001928E-02 0. -1.
    10030    2    1    2    0    0  0.00000000000E+00  0.00000000000E+00  0.13078076743E+04  0.20663472875E+04  0.15998219274E+04 0.  0.
        1    1    3    3  502    0 -0.16606725541E+03 -0.18173729191E+03 -0.32912210839E+03  0.41100868464E+03  0.50400001928E-02 0. -1.
       -1    1    3    3    0  502  0.16606725541E+03  0.18173729191E+03  0.16369297827E+04  0.16553386028E+04  0.50400001928E-02 0.  1.
</event>
<event>
 5   0  0.1057506E-05  0.1601905E+04  0.7818609E-02  0.8819379E-01
        1   -1    0    0  501    0  0.00000000000E+00  0.00000000000E+00  0.35426188940E+03  0.35426188944E+03  0.50400001928E-02 0.  1.
       -1   -1    0    0    0  501  0.00000000000E+00  0.00000000000E+00 -0.18108776209E+04  0.18108776209E+04  0.50400001928E-02 0. -1.
    10030    2    1    2    0    0  0.00000000000E+00  0.00000000000E+00 -0.14566157315E+04  0.21651395104E+04  0.16019050253E+04 0.  0.
        5    1    3    3  502    0 -0.58140473507E+03 -0.50226276151E+03 -0.42246461375E+03  0.87681114696E+03  0.46999998093E+01 0. -1.
       -5    1    3    3    0  502  0.58140473507E+03  0.50226276151E+03 -0.10341511178E+04  0.12883283634E+04  0.46999998093E+01 0.  1.
</event>
<event>
 5   0  0.1081831E-05  0.1595675E+04  0.7818609E-02  0.8823209E-01
       -1   -1    0    0    0  501  0.00000000000E+00  0.00000000000E+00  0.79012936896E+03  0.79012936898E+03  0.50400001928E-02 0. -1.
        1   -1    0    0  501    0  0.00000000000E+00  0.00000000000E+00 -0.80562081746E+03  0.80562081747E+03  0.50400001928E-02 0.  1.
    10030    2    1    2    0    0  0.00000000000E+00  0.00000000000E+00 -0.15491448494E+02  0.15957501865E+04  0.15956749897E+04 0.  0.
        3    1    3    3  502    0 -0.70780949874E+02 -0.28228261187E+03 -0.75064763954E+03  0.80508714111E+03  0.10100000352E+00 0.  1.
       -3    1    3    3    0  502  0.70780949874E+02  0.28228261187E+03  0.73515619105E+03  0.79066304534E+03  0.10100000352E+00 0. -1.
</event>
<event>
 5   0  0.1990948E-05  0.1600092E+04  0.7818609E-02  0.8820492E-01
        2   -1    0    0  501    0  0.00000000000E+00  0.00000000000E+00  0.22334338015E+04  0.22334338015E+04  0.25500000920E-02 0. -1.
       -2   -1    0    0    0  501  0.00000000000E+00  0.00000000000E+00 -0.28658714414E+03  0.28658714415E+03  0.25500000920E-02 0.  1.
    10030    2    1    2    0    0  0.00000000000E+00  0.00000000000E+00  0.19468466573E+04  0.25200209456E+04  0.16000917659E+04 0.  0.
        4    1    3    3  502    0 -0.55545567487E+03  0.30718290230E+03  0.20641903013E+03  0.66745993971E+03  0.12699999809E+01 0.  1.
       -4    1    3    3    0  502  0.55545567487E+03 -0.30718290230E+03  0.17404276272E+04  0.18525610059E+04  0.12699999809E+01 0. -1.
</event>
<event>
 5   0  0.2046108E-05  0.1600495E+04  0.7818609E-02  0.8820244E-01
       -2   -1    0    0    0  501  0.00000000000E+00  0.00000000000E+00  0.32765577532E+03  0.32765577532E+03  0.25500000920E-02 0.  1.
        2   -1    0    0  501    0  0.00000000000E+00  0.00000000000E+00 -0.19544791210E+04  0.19544791210E+04  0.25500000920E-02 0. -1.
    10030    2    1    2    0    0  0.00000000000E+00  0.00000000000E+00 -0.16268233457E+04  0.22821348963E+04  0.16004953880E+04 0.  0.
        1    1    3    3  502    0  0.63113319503E+03 -0.49052196858E+03 -0.86781018838E+03  0.11798455130E+04  0.50400001928E-02 0. -1.
       -1    1    3    3    0  502 -0.63113319503E+03  0.49052196858E+03 -0.75901315730E+03  0.11022893833E+04  0.50400001928E-02 0.  1.
</event>
<event>
 5   0  0.1090674E-05  0.1600569E+04  0.7818609E-02  0.8820198E-01
       -1   -1    0    0    0  501  0.00000000000E+00  0.00000000000E+00  0.56918801846E+03  0.56918801848E+03  0.50400001928E-02 0. -1.
        1   -1    0    0  501    0  0.00000000000E+00  0.00000000000E+00 -0.11252087481E+04  0.11252087482E+04  0.50400001928E-02 0.  1.
    10030    2    1    2    0    0  0.00000000000E+00  0.00000000000E+00 -0.55602072969E+03  0.16943967666E+04  0.16005690710E+04 0.  0.
        4    1    3    3  502    0 -0.73851955269E+03  0.13008367406E+03  0.17875437050E+02  0.75010268371E+03  0.12699999809E+01 0. -1.
       -4    1    3    3    0  502  0.73851955269E+03 -0.13008367406E+03 -0.57389616674E+03  0.94429408293E+03  0.12699999809E+01 0.  1.
</event>
<event>
 5   0  0.1994525E-05  0.1598167E+04  0.7818609E-02  0.8821675E-01
       -2   -1    0    0    0  501  0.00000000000E+00  0.00000000000E+00  0.58912221407E+03  0.58912221407E+03  0.25500000920E-02 0.  1.
        2   -1    0    0  501    0  0.00000000000E+00  0.00000000000E+00 -0.10838740499E+04  0.10838740499E+04  0.25500000920E-02 0. -1.
    10030    2    1    2    0    0  0.00000000000E+00  0.00000000000E+00 -0.49475183581E+03  0.16729962640E+04  0.15981667999E+04 0.  0.
        5    1    3    3  502    0 -0.47969129050E+03  0.24061096290E+03 -0.86713950901E+03  0.10197795780E+04  0.46999998093E+01 0. -1.
       -5    1    3    3    0  502  0.47969129050E+03 -0.24061096290E+03  0.37238767320E+03  0.65321668594E+03  0.46999998093E+01 0.  1.
</event>
<event>
 5   0  0.1090674E-05  0.1599436E+04  0.7818609E-02  0.8820894E-01
        1   -1    0    0  501    0  0.00000000000E+00  0.00000000000E+00  0.10898348146E+04  0.10898348146E+04  0.50400001928E-02 0. -1.
       -1   -1    0    0    0  501  0.00000000000E+00  0.00000000000E+00 -0.58683134324E+03  0.58683134326E+03  0.50400001928E-02 0.  1.
    10030    2    1    2    0    0  0.00000000000E+00  0.00000000000E+00  0.50300347132E+03  0.16766661578E+04  0.15994364360E+04 0.  0.
        4    1    3    3  502    0  0.76306492134E+03  0.19323137436E+03  0.39953353162E+03  0.88274293767E+03  0.12699999809E+01 0. -1.
       -4    1    3    3    0  502 -0.76306492134E+03 -0.19323137436E+03  0.10346993970E+03  0.79392322017E+03  0.12699999809E+01 0.  1.
</event>
<event>
 5   0  0.1060251E-05  0.1600146E+04  0.7818609E-02  0.8820459E-01
       -1   -1    0    0    0  501  0.00000000000E+00  0.00000000000E+00  0.85658517485E+03  0.85658517486E+03  0.50400001928E-02 0.  1.
        1   -1    0    0  501    0  0.00000000000E+00  0.00000000000E+00 -0.74728873878E+03  0.74728873880E+03  0.50400001928E-02 0. -1.
    10030    2    1    2    0    0  0.00000000000E+00  0.00000000000E+00  0.10929643607E+03  0.16038739137E+04  0.16001455621E+04 0.  0.
        1    1    3    3  502    0 -0.90991100327E+02  0.70832590571E+03  0.41619837201E+03  0.82657489311E+03  0.50400001928E-02 0.  1.
       -1    1    3    3    0  502  0.90991100327E+02 -0.70832590571E+03 -0.30690193594E+03  0.77729902055E+03  0.50400001928E-02 0. -1.
</event>
<event>
 5   0  0.1060251E-05  0.1600376E+04  0.7818609E-02  0.8820317E-01
       -1   -1    0    0    0  501  0.00000000000E+00  0.00000000000E+00  0.40839703662E+03  0.40839703665E+03  0.50400001928E-02 0. -1.
        1   -1    0    0  501    0  0.00000000000E+00  0.00000000000E+00 -0.15678388034E+04  0.15678388034E+04  0.50400001928E-02 0.  1.
    10030    2    1    2    0    0  0.00000000000E+00  0.00000000000E+00 -0.11594417668E+04  0.19762358400E+04  0.16003758574E+04 0.  0.
        1    1    3    3  502    0 -0.40849956944E+03  0.68673978453E+03 -0.52707928640E+03  0.95723351596E+03  0.50400001928E-02 0. -1.
       -1    1    3    3    0  502  0.40849956944E+03 -0.68673978453E+03 -0.63236248035E+03  0.10190023241E+04  0.50400001928E-02 0.  1.
</event>
<event>
 5   0  0.1081831E-05  0.1600044E+04  0.7818609E-02  0.8820521E-01
        1   -1    0    0  501    0  0.00000000000E+00  0.00000000000E+00  0.10632571565E+04  0.10632571565E+04  0.50400001928E-02 0. -1.
       -1   -1    0    0    0  501  0.00000000000E+00  0.00000000000E+00 -0.60195693110E+03  0.60195693112E+03  0.50400001928E-02 0.  1.
    10030    2    1    2    0    0  0.00000000000E+00  0.00000000000E+00  0.46130022541E+03  0.16652140876E+04  0.16000437681E+04 0.  0.
        3    1    3    3  502    0 -0.40705234586E+03  0.65555092643E+03  0.45043002443E+03  0.89349082061E+03  0.10100000352E+00 0. -1.
       -3    1    3    3    0  502  0.40705234586E+03 -0.65555092643E+03  0.10870200980E+02  0.77172326703E+03  0.10100000352E+00 0.  1.
</event>
<event>
 5   0  0.1994525E-05  0.1599486E+04  0.7818609E-02  0.8820864E-01
        2   -1    0    0  501    0  0.00000000000E+00  0.00000000000E+00  0.14842428812E+04  0.14842428812E+04  0.25500000920E-02 0.  1.
       -2   -1    0    0    0  501  0.00000000000E+00  0.00000000000E+00 -0.43091919814E+03  0.43091919815E+03  0.25500000920E-02 0. -1.
    10030    2    1    2    0    0  0.00000000000E+00  0.00000000000E+00  0.10533236831E+04  0.19151620793E+04  0.15994858577E+04 0.  0.
        5    1    3    3  502    0 -0.45429152729E+03 -0.11941821504E+03 -0.24832325678E+03  0.53134549185E+03  0.46999998093E+01 0. -1.
       -5    1    3    3    0  502  0.45429152729E+03  0.11941821504E+03  0.13016469398E+04  0.13838165875E+04  0.46999998093E+01 0.  1.
</event>
<event>
 5   0  0.2046108E-05  0.1600272E+04  0.7818609E-02  0.8820381E-01
       -2   -1    0    0    0  501  0.00000000000E+00  0.00000000000E+00  0.10941189943E+04  0.10941189943E+04  0.25500000920E-02 0.  1.
        2   -1    0    0  501    0  0.00000000000E+00  0.00000000000E+00 -0.58514469474E+03  0.58514469475E+03  0.25500000920E-02 0. -1.
    10030    2    1    2    0    0  0.00000000000E+00  0.00000000000E+00  0.50897429953E+03  0.16792636890E+04  0.16002723830E+04 0.  0.
        1    1    3    3  502    0 -0.35949475495E+03  0.12795476955E+03 -0.48351224268E+03  0.61594885400E+03  0.50400001928E-02 0. -1.
       -1    1    3    3    0  502  0.35949475495E+03 -0.12795476955E+03  0.99248654222E+03  0.10633148350E+04  0.50400001928E-02 0.  1.
</event>
<event>
 5   0  0.1090674E-05  0.1600657E+04  0.7818609E-02  0.8820144E-01
        1   -1    0    0  501    0  0.00000000000E+00  0.00000000000E+00  0.19441905046E+04  0.19441905046E+04  0.50400001928E-02 0. -1.
       -1   -1    0    0    0  501  0.00000000000E+00  0.00000000000E+00 -0.32945641152E+03  0.32945641156E+03  0.50400001928E-02 0.  1.
    10030    2    1    2    0    0  0.00000000000E+00  0.00000000000E+00  0.16147340930E+04  0.22736469161E+04  0.16006573987E+04 0.  0.
        4    1    3    3  502    0 -0.48611468543E+03  0.28368059200E+03  0.16155772428E+04  0.17108108037E+04  0.12699999809E+01 0. -1.
       -4    1    3    3    0  502  0.48611468543E+03 -0.28368059200E+03 -0.84314976282E+00  0.56283611244E+03  0.12699999809E+01 0.  1.
</event>
<event>
 5   0  0.1081831E-05  0.1600086E+04  0.7818609E-02  0.8820495E-01
       -1   -1    0    0    0  501  0.00000000000E+00  0.00000000000E+00  0.32669391418E+03  0.32669391422E+03  0.50400001928E-02 0. -1.
        1   -1    0    0  501    0  0.00000000000E+00  0.00000000000E+00 -0.19592299691E+04  0.19592299691E+04  0.50400001928E-02 0.  1.
    10030    2    1    2    0    0  0.00000000000E+00  0.00000000000E+00 -0.16325360549E+04  0.22859238833E+04  0.16000856320E+04 0.  0.
        3    1    3    3  502    0  0.33668880871E+03 -0.58994256372E+03 -0.14201509695E+04  0.15742364399E+04  0.10100000352E+00 0.  1.
       -3    1    3    3    0  502 -0.33668880871E+03  0.58994256372E+03 -0.21238508541E+03  0.71168744341E+03  0.10100000352E+00 0. -1.
</event>
<event>
 5   0  0.1994525E-05  0.1599533E+04  0.7818609E-02  0.8820835E-01
       -2   -1    0    0    0  501  0.00000000000E+00  0.00000000000E+00  0.54255552217E+03  0.54255552218E+03  0.25500000920E-02 0. -1.
        2   -1    0    0  501    0  0.00000000000E+00  0.00000000000E+00 -0.11789138433E+04  0.11789138433E+04  0.25500000920E-02 0.  1.
    10030    2    1    2    0    0  0.00000000000E+00  0.00000000000E+00 -0.63635832112E+03  0.17214693655E+04  0.15995327016E+04 0.  0.
        5    1    3    3  502    0 -0.22547595518E+03 -0.51180594812E+03  0.29708282591E+03  0.63329695273E+03  0.46999998093E+01 0. -1.
       -5    1    3    3    0  502  0.22547595518E+03  0.51180594812E+03 -0.93344114702E+03  0.10881724127E+04  0.46999998093E+01 0.  1.
</event>
<event>
 5   0  0.1081831E-05  0.1599695E+04  0.7818609E-02  0.8820735E-01
        1   -1    0    0  501    0  0.00000000000E+00  0.00000000000E+00  0.60753571379E+03  0.60753571381E+03  0.50400001928E-02 0. -1.
       -1   -1    0    0    0  501  0.00000000000E+00  0.00000000000E+00 -0.10530346407E+04  0.10530346408E+04  0.50400001928E-02 0.  1.
    10030    2    1    2    0    0  0.00000000000E+00  0.00000000000E+00 -0.44549892696E+03  0.16605703546E+04  0.15996951611E+04 0.  0.
        3    1    3    3  502    0  0.48853060315E+03  0.25454651875E+03 -0.82473148722E+03  0.99178531782E+03  0.10100000352E+00 0.  1.
       -3    1    3    3    0  502 -0.48853060315E+03 -0.25454651875E+03  0.37923256026E+03  0.66878503675E+03  0.10100000352E+00 0. -1.
</event>
<event>
 5   0  0.1081831E-05  0.1604569E+04  0.7818609E-02  0.8817746E-01
        1   -1    0    0  501    0  0.00000000000E+00  0.00000000000E+00  0.15861809123E+04  0.15861809123E+04  0.50400001928E-02 0.  1.
       -1   -1    0    0    0  501  0.00000000000E+00  0.00000000000E+00 -0.40579274213E+03  0.40579274216E+03  0.50400001928E-02 0. -1.
    10030    2    1    2    0    0  0.00000000000E+00  0.00000000000E+00  0.11803881701E+04  0.19919736544E+04  0.16045693527E+04 0.  0.
        3    1    3    3  502    0 -0.18918122872E+03 -0.70306800325E+03  0.17183395511E+03  0.74807825314E+03  0.10100000352E+00 0. -1.
       -3    1    3    3    0  502  0.18918122872E+03  0.70306800325E+03  0.10085542150E+04  0.12438954013E+04  0.10100000352E+00 0.  1.
</event>
<event>
 5   0  0.1990948E-05  0.1600036E+04  0.7818609E-02  0.8820526E-01
       -2   -1    0    0    0  501  0.00000000000E+00  0.00000000000E+00  0.30315498223E+03  0.30315498224E+03  0.25500000920E-02 0.  1.
        2   -1    0    0  501    0  0.00000000000E+00  0.00000000000E+00 -0.21112270123E+04  0.21112270123E+04  0.25500000920E-02 0. -1.
    10030    2    1    2    0    0  0.00000000000E+00  0.00000000000E+00 -0.18080720301E+04  0.24143819946E+04  0.16000362338E+04 0.  0.
        4    1    3    3  502    0 -0.78584607013E+03 -0.65487048449E+02 -0.70055207761E+03  0.10548068192E+04  0.12699999809E+01 0.  1.
       -4    1    3    3    0  502  0.78584607013E+03  0.65487048449E+02 -0.11075199525E+04  0.13595751754E+04  0.12699999809E+01 0. -1.
</event>
<event>
 5   0  0.2147844E-05  0.1599809E+04  0.7818609E-02  0.8820665E-01
        2   -1    0    0  501    0  0.00000000000E+00  0.00000000000E+00  0.12308423807E+04  0.12308423807E+04  0.25500000920E-02 0.  1.
       -2   -1    0    0    0  501  0.00000000000E+00  0.00000000000E+00 -0.51984526990E+03  0.51984526991E+03  0.25500000920E-02 0. -1.
    10030    2    1    2    0    0  0.00000000000E+00  0.00000000000E+00  0.71099711076E+03  0.17506876506E+04  0.15998094756E+04 0.  0.
        2    1    3    3  502    0  0.33766182633E+02 -0.96769618185E+02 -0.51263018148E+03  0.52277549394E+03  0.25500000920E-02 0. -1.
       -2    1    3    3    0  502 -0.33766182633E+02  0.96769618185E+02  0.12236272922E+04  0.12279121566E+04  0.25500000920E-02 0.  1.
</event>
<event>
 5   0  0.1126485E-05  0.1600035E+04  0.7818609E-02  0.8820527E-01
        1   -1    0    0  501    0  0.00000000000E+00  0.00000000000E+00  0.52607525779E+03  0.52607525782E+03  0.50400001928E-02 0.  1.
       -1   -1    0    0    0  501  0.00000000000E+00  0.00000000000E+00 -0.12166091081E+04  0.12166091081E+04  0.50400001928E-02 0. -1.
    10030    2    1    2    0    0  0.00000000000E+00  0.00000000000E+00 -0.69053385029E+03  0.17426843659E+04  0.16000349374E+04 0.  0.
        2    1    3    3  502    0 -0.42200017692E+03 -0.23402737643E+03 -0.10402589410E+04  0.11467308431E+04  0.25500000920E-02 0. -1.
       -2    1    3    3    0  502  0.42200017692E+03  0.23402737643E+03  0.34972509071E+03  0.59595352278E+03  0.25500000920E-02 0.  1.
</event>
<event>
 5   0  0.2147844E-05  0.1590514E+04  0.7818609E-02  0.8826397E-01
       -2   -1    0    0    0  501  0.00000000000E+00  0.00000000000E+00  0.98749339353E+03  0.98749339353E+03  0.25500000920E-02 0. -1.
        2   -1    0    0  501    0  0.00000000000E+00  0.00000000000E+00 -0.64044378609E+03  0.64044378609E+03  0.25500000920E-02 0.  1.
    10030    2    1    2    0    0  0.00000000000E+00  0.00000000000E+00  0.34704960744E+03  0.16279371796E+04  0.15905143919E+04 0.  0.
        2    1    3    3  502    0 -0.24377137121E+03 -0.49035244319E+03  0.76377706739E+03  0.93980072816E+03  0.25500000920E-02 0. -1.
       -2    1    3    3    0  502  0.24377137121E+03  0.49035244319E+03 -0.41672745995E+03  0.68813645147E+03  0.25500000920E-02 0.  1.
</event>
<event>
 5   0  0.1126485E-05  0.1599901E+04  0.7818609E-02  0.8820609E-01
       -1   -1    0    0    0  501  0.00000000000E+00  0.00000000000E+00  0.10030797673E+04  0.10030797673E+04  0.50400001928E-02 0. -1.
        1   -1    0    0  501    0  0.00000000000E+00  0.00000000000E+00 -0.63795610266E+03  0.63795610268E+03  0.50400001928E-02 0.  1.
    10030    2    1    2    0    0  0.00000000000E+00  0.00000000000E+00  0.36512366461E+03  0.16410358700E+04  0.15999010707E+04 0.  0.
        2    1    3    3  502    0 -0.63492858615E+03 -0.33132895964E+03  0.54810605075E+03  0.90185000520E+03  0.25500000920E-02 0. -1.
       -2    1    3    3    0  502  0.63492858615E+03  0.33132895964E+03 -0.18298238615E+03  0.73918586475E+03  0.25500000920E-02 0.  1.
</event>
<event>
 5   0  0.7597000E-06  0.1599457E+04  0.7818609E-02  0.8820882E-01
        3   -1    0    0  501    0  0.00000000000E+00  0.00000000000E+00  0.10668945153E+04  0.10668945201E+04  0.10100000352E+00 0. -1.
       -3   -1    0    0    0  501  0.00000000000E+00  0.00000000000E+00 -0.59946458129E+03  0.59946458979E+03  0.10100000352E+00 0.  1.
    10030    2    1    2    0    0  0.00000000000E+00  0.00000000000E+00  0.46742993405E+03  0.16663591099E+04  0.15994567640E+04 0.  0.
        1    1    3    3  502    0 -0.63359218505E+03  0.18952904702E+03  0.70219622496E+03  0.96459310333E+03  0.50400001928E-02 0. -1.
       -1    1    3    3    0  502  0.63359218505E+03 -0.18952904702E+03 -0.23476629091E+03  0.70176600658E+03  0.50400001928E-02 0.  1.
</event>
<event>
 5   0  0.1060251E-05  0.1593126E+04  0.7818609E-02  0.8824782E-01
       -1   -1    0    0    0  501  0.00000000000E+00  0.00000000000E+00  0.95280325231E+03  0.95280325233E+03  0.50400001928E-02 0. -1.
        1   -1    0    0  501    0  0.00000000000E+00  0.00000000000E+00 -0.66594256495E+03  0.66594256497E+03  0.50400001928E-02 0.  1.
    10030    2    1    2    0    0  0.00000000000E+00  0.00000000000E+00  0.28686068736E+03  0.16187458173E+04  0.15931255340E+04 0.  0.
        1    1    3    3  502    0 -0.15703013718E+03  0.53515813734E+03 -0.43445096424E+03  0.70696558353E+03  0.50400001928E-02 0.  1.
       -1    1    3    3    0  502  0.15703013718E+03 -0.53515813734E+03  0.72131165159E+03  0.91178023377E+03  0.50400001928E-02 0. -1.
</event>
<event>
 5   0  0.2147844E-05  0.1600438E+04  0.7818609E-02  0.8820279E-01
       -2   -1    0    0    0  501  0.00000000000E+00  0.00000000000E+00  0.50719675491E+03  0.50719675492E+03  0.25500000920E-02 0.  1.
        2   -1    0    0  501    0  0.00000000000E+00  0.00000000000E+00 -0.12625280503E+04  0.12625280503E+04  0.25500000920E-02 0. -1.
    10030    2    1    2    0    0  0.00000000000E+00  0.00000000000E+00 -0.75533129538E+03  0.17697248052E+04  0.16004376028E+04 0.  0.
        2    1    3    3  502    0 -0.45436799102E+03  0.25823920167E+03  0.29241279269E+03  0.59886809723E+03  0.25500000920E-02 0.  1.
       -2    1    3    3    0  502  0.45436799102E+03 -0.25823920167E+03 -0.10477440881E+04  0.11708567080E+04  0.25500000920E-02 0. -1.
</event>
<event>
 5   0  0.1990948E-05  0.1599428E+04  0.7818609E-02  0.8820900E-01
       -2   -1    0    0    0  501  0.00000000000E+00  0.00000000000E+00  0.86193908389E+03  0.86193908389E+03  0.25500000920E-02 0. -1.
        2   -1    0    0  501    0  0.00000000000E+00  0.00000000000E+00 -0.74198096738E+03  0.74198096739E+03  0.25500000920E-02 0.  1.
    10030    2    1    2    0    0  0.00000000000E+00  0.00000000000E+00  0.11995811650E+03  0.16039200513E+04  0.15994278918E+04 0.  0.
        4    1    3    3  502    0  0.51411593313E+03 -0.40005950966E+03 -0.40519658087E+03  0.76716926816E+03  0.12699999809E+01 0. -1.
       -4    1    3    3    0  502 -0.51411593313E+03  0.40005950966E+03  0.52515469737E+03  0.83675078311E+03  0.12699999809E+01 0.  1.
</event>
<event>
 5   0  0.2046108E-05  0.1610465E+04  0.7818609E-02  0.8814145E-01
       -2   -1    0    0    0  501  0.00000000000E+00  0.00000000000E+00  0.25326468995E+04  0.25326468995E+04  0.25500000920E-02 0. -1.
        2   -1    0    0  501    0  0.00000000000E+00  0.00000000000E+00 -0.25601642149E+03  0.25601642150E+03  0.25500000920E-02 0.  1.
    10030    2    1    2    0    0  0.00000000000E+00  0.00000000000E+00  0.22766304781E+04  0.27886633210E+04  0.16104647728E+04 0.  0.
        1    1    3    3  502    0 -0.64922633826E+03 -0.13902619401E+03  0.34939426356E+03  0.75026626763E+03  0.50400001928E-02 0.  1.
       -1    1    3    3    0  502  0.64922633826E+03  0.13902619401E+03  0.19272362145E+04  0.20383970534E+04  0.50400001928E-02 0. -1.
</event>
<event>
 5   0  0.2046108E-05  0.1599386E+04  0.7818609E-02  0.8820925E-01
        2   -1    0    0  501    0  0.00000000000E+00  0.00000000000E+00  0.26262120904E+04  0.26262120904E+04  0.25500000920E-02 0.  1.
       -2   -1    0    0    0  501  0.00000000000E+00  0.00000000000E+00 -0.24351004096E+03  0.24351004098E+03  0.25500000920E-02 0. -1.
    10030    2    1    2    0    0  0.00000000000E+00  0.00000000000E+00  0.23827020494E+04  0.28697221314E+04  0.15993861494E+04 0.  0.
        1    1    3    3  502    0  0.55678832072E+02 -0.31693233318E+03 -0.12222081912E+03  0.34421528846E+03  0.50400001928E-02 0. -1.
       -1    1    3    3    0  502 -0.55678832072E+02  0.31693233318E+03  0.25049228685E+04  0.25255068429E+04  0.50400001928E-02 0.  1.
</event>
<event>
 5   0  0.1126485E-05  0.1600078E+04  0.7818609E-02  0.8820500E-01
       -1   -1    0    0    0  501  0.00000000000E+00  0.00000000000E+00  0.65209907596E+03  0.65209907598E+03  0.50400001928E-02 0. -1.
        1   -1    0    0  501    0  0.00000000000E+00  0.00000000000E+00 -0.98154217919E+03  0.98154217920E+03  0.50400001928E-02 0.  1.
    10030    2    1    2    0    0  0.00000000000E+00  0.00000000000E+00 -0.32944310323E+03  0.16336412552E+04  0.16000784332E+04 0.  0.
        2    1    3    3  502    0 -0.50547725165E+03  0.20801507029E+03 -0.76117171982E+03  0.93710186664E+03  0.25500000920E-02 0.  1.
       -2    1    3    3    0  502  0.50547725165E+03 -0.20801507029E+03  0.43172861658E+03  0.69653938854E+03  0.25500000920E-02 0. -1.
</event>
<event>
 5   0  0.7597000E-06  0.1599925E+04  0.7818609E-02  0.8820594E-01
        4   -1    0    0  501    0  0.00000000000E+00  0.00000000000E+00  0.43756104397E+03  0.43756288702E+03  0.12699999809E+01 0. -1.
       -4   -1    0    0    0  501  0.00000000000E+00  0.00000000000E+00 -0.14625101567E+04  0.14625107081E+04  0.12699999809E+01 0.  1.
    10030    2    1    2    0    0  0.00000000000E+00  0.00000000000E+00 -0.10249491127E+04  0.19000735951E+04  0.15999246805E+04 0.  0.
        3    1    3    3  502    0 -0.64360709620E+03 -0.45517012428E+03 -0.35081319103E+03  0.86283245275E+03  0.10100000352E+00 0. -1.
       -3    1    3    3    0  502  0.64360709620E+03  0.45517012428E+03 -0.67413592169E+03  0.10372411424E+04  0.10100000352E+00 0.  1.
</event>
<event>
 5   0  0.2046108E-05  0.1599526E+04  0.7818609E-02  0.8820839E-01
       -2   -1    0    0    0  501  0.00000000000E+00  0.00000000000E+00  0.87612896178E+03  0.87612896179E+03  0.25500000920E-02 0.  1.
        2   -1    0    0  501    0  0.00000000000E+00  0.00000000000E+00 -0.73005347103E+03  0.73005347103E+03  0.25500000920E-02 0. -1.
    10030    2    1    2    0    0  0.00000000000E+00  0.00000000000E+00  0.14607549076E+03  0.16061824328E+04  0.15995261669E+04 0.  0.
        1    1    3    3  502    0 -0.35916133082E+03 -0.20276428729E+03  0.76109773216E+03  0.86566735856E+03  0.50400001928E-02 0.  1.
       -1    1    3    3    0  502  0.35916133082E+03  0.20276428729E+03 -0.61502224140E+03  0.74051507426E+03  0.50400001928E-02 0. -1.
</event>
<event>
 5   0  0.1994525E-05  0.1598601E+04  0.7818609E-02  0.8821408E-01
       -2   -1    0    0    0  501  0.00000000000E+00  0.00000000000E+00  0.54907034930E+03  0.54907034931E+03  0.25500000920E-02 0. -1.
        2   -1    0    0  501    0  0.00000000000E+00  0.00000000000E+00 -0.11635685011E+04  0.11635685011E+04  0.25500000920E-02 0.  1.
    10030    2    1    2    0    0  0.00000000000E+00  0.00000000000E+00 -0.61449815176E+03  0.17126388504E+04  0.15986005922E+04 0.  0.
        5    1    3    3  502    0  0.20702778257E+03  0.18865875724E+03 -0.11092544986E+04  0.11440805313E+04  0.46999998093E+01 0.  1.
       -5    1    3    3    0  502 -0.20702778257E+03 -0.18865875724E+03  0.49475634684E+03  0.56855831907E+03  0.46999998093E+01 0. -1.
</event>
<event>
 5   0  0.1990948E-05  0.1601768E+04  0.7818609E-02  0.8819463E-01
        2   -1    0    0  501    0  0.00000000000E+00  0.00000000000E+00  0.58940474762E+03  0.58940474763E+03  0.25500000920E-02 0. -1.
       -2   -1    0    0    0  501  0.00000000000E+00  0.00000000000E+00 -0.10882420200E+04  0.10882420200E+04  0.25500000920E-02 0.  1.
    10030    2    1    2    0    0  0.00000000000E+00  0.00000000000E+00 -0.49883727241E+03  0.16776467677E+04  0.16017677899E+04 0.  0.
        4    1    3    3  502    0  0.20503484777E+02  0.38749744303E+03 -0.98320626265E+03  0.10570103259E+04  0.12699999809E+01 0.  1.
       -4    1    3    3    0  502 -0.20503484777E+02 -0.38749744303E+03  0.48436899024E+03  0.62063644176E+03  0.12699999809E+01 0. -1.
</event>
<event>
 5   0  0.1060251E-05  0.1599946E+04  0.7818609E-02  0.8820581E-01
       -1   -1    0    0    0  501  0.00000000000E+00  0.00000000000E+00  0.67447755989E+03  0.67447755991E+03  0.50400001928E-02 0.  1.
        1   -1    0    0  501    0  0.00000000000E+00  0.00000000000E+00 -0.94881852258E+03  0.94881852259E+03  0.50400001928E-02 0. -1.
    10030    2    1    2    0    0  0.00000000000E+00  0.00000000000E+00 -0.27434096269E+03  0.16232960825E+04  0.15999460015E+04 0.  0.
        1    1    3    3  502    0  0.63705723971E+02  0.38464329423E+03 -0.84589776209E+03  0.93142466523E+03  0.50400001928E-02 0. -1.
       -1    1    3    3    0  502 -0.63705723971E+02 -0.38464329423E+03  0.57155679940E+03  0.69187141727E+03  0.50400001928E-02 0.  1.
</event>
<event>
 5   0  0.2125803E-05  0.1599209E+04  0.7818609E-02  0.8821034E-01
       -2   -1    0    0    0  501  0.00000000000E+00  0.00000000000E+00  0.51806907529E+03  0.51806907529E+03  0.25500000920E-02 0.  1.
        2   -1    0    0  501    0  0.00000000000E+00  0.00000000000E+00 -0.12341350321E+04  0.12341350322E+04  0.25500000920E-02 0. -1.
    10030    2    1    2    0    0  0.00000000000E+00  0.00000000000E+00 -0.71606595686E+03  0.17522041074E+04  0.15992087980E+04 0.  0.
        3    1    3    3  502    0  0.63801666425E+03 -0.21356079253E+03  0.11538458433E+03  0.68263246954E+03  0.10100000352E+00 0. -1.
       -3    1    3    3    0  502 -0.63801666425E+03  0.21356079253E+03 -0.83145054120E+03  0.10695716379E+04  0.10100000352E+00 0.  1.
</event>
<event>
 5   0  0.2046108E-05  0.1601636E+04  0.7818609E-02  0.8819544E-01
        2   -1    0    0  501    0  0.00000000000E+00  0.00000000000E+00  0.10333725024E+04  0.10333725024E+04  0.25500000920E-02 0. -1.
       -2   -1    0    0    0  501  0.00000000000E+00  0.00000000000E+00 -0.62059823605E+03  0.62059823606E+03  0.25500000920E-02 0.  1.
    10030    2    1    2    0    0  0.00000000000E+00  0.00000000000E+00  0.41277426631E+03  0.16539707384E+04  0.16016356042E+04 0.  0.
        1    1    3    3  502    0 -0.72809838072E+03  0.18665607618E+03  0.49171500290E+03  0.89819340171E+03  0.50400001928E-02 0. -1.
       -1    1    3    3    0  502  0.72809838072E+03 -0.18665607618E+03 -0.78940736582E+02  0.75577733672E+03  0.50400001928E-02 0.  1.
</event>
<event>
 5   0  0.1090674E-05  0.1599697E+04  0.7818609E-02  0.8820734E-01
        1   -1    0    0  501    0  0.00000000000E+00  0.00000000000E+00  0.98356423046E+03  0.98356423047E+03  0.50400001928E-02 0. -1.
       -1   -1    0    0    0  501  0.00000000000E+00  0.00000000000E+00 -0.65044855795E+03  0.65044855797E+03  0.50400001928E-02 0.  1.
    10030    2    1    2    0    0  0.00000000000E+00  0.00000000000E+00  0.33311567251E+03  0.16340127884E+04  0.15996973906E+04 0.  0.
        4    1    3    3  502    0  0.41548729152E+03 -0.49120861071E+03 -0.31886337872E+03  0.71804669475E+03  0.12699999809E+01 0.  1.
       -4    1    3    3    0  502 -0.41548729152E+03  0.49120861071E+03  0.65197905123E+03  0.91596609369E+03  0.12699999809E+01 0. -1.
</event>
<event>
 5   0  0.2125803E-05  0.1601290E+04  0.7818609E-02  0.8819756E-01
       -2   -1    0    0    0  501  0.00000000000E+00  0.00000000000E+00  0.36281343946E+03  0.36281343947E+03  0.25500000920E-02 0.  1.
        2   -1    0    0  501    0  0.00000000000E+00  0.00000000000E+00 -0.17668367327E+04  0.17668367327E+04  0.25500000920E-02 0. -1.
    10030    2    1    2    0    0  0.00000000000E+00  0.00000000000E+00 -0.14040232932E+04  0.21296501721E+04  0.16012896202E+04 0.  0.
        3    1    3    3  502    0 -0.27353851907E+03  0.48661164415E+03  0.61317719621E+02  0.56158177194E+03  0.10100000352E+00 0.  1.
       -3    1    3    3    0  502  0.27353851907E+03 -0.48661164415E+03 -0.14653410128E+04  0.15680684002E+04  0.10100000352E+00 0. -1.
</event>
<event>
 5   0  0.2046108E-05  0.1598915E+04  0.7818609E-02  0.8821215E-01
       -2   -1    0    0    0  501  0.00000000000E+00  0.00000000000E+00  0.10706479442E+04  0.10706479442E+04  0.25500000920E-02 0.  1.
        2   -1    0    0  501    0  0.00000000000E+00  0.00000000000E+00 -0.59695859226E+03  0.59695859227E+03  0.25500000920E-02 0. -1.
    10030    2    1    2    0    0  0.00000000000E+00  0.00000000000E+00  0.47368935195E+03  0.16676065365E+04  0.15989152443E+04 0.  0.
        1    1    3    3  502    0 -0.72665282803E+03 -0.11659043162E+03 -0.88844612881E+02  0.74129010953E+03  0.50400001928E-02 0. -1.
       -1    1    3    3    0  502  0.72665282803E+03  0.11659043162E+03  0.56253396483E+03  0.92631642695E+03  0.50400001928E-02 0.  1.
</event>
<event>
 5   0  0.1126485E-05  0.1600277E+04  0.7818609E-02  0.8820378E-01
       -1   -1    0    0    0  501  0.00000000000E+00  0.00000000000E+00  0.33335493761E+03  0.33335493764E+03  0.50400001928E-02 0.  1.
        1   -1    0    0  501    0  0.00000000000E+00  0.00000000000E+00 -0.19205403928E+04  0.19205403928E+04  0.50400001928E-02 0. -1.
    10030    2    1    2    0    0  0.00000000000E+00  0.00000000000E+00 -0.15871854552E+04  0.22538953304E+04  0.16002770046E+04 0.  0.
        2    1    3    3  502    0 -0.35142630458E+03  0.28642952540E+03  0.13499525695E+03  0.47303915269E+03  0.25500000920E-02 0.  1.
       -2    1    3    3    0  502  0.35142630458E+03 -0.28642952540E+03 -0.17221807121E+04  0.17808561777E+04  0.25500000920E-02 0. -1.
</event>
<event>
 5   0  0.1994525E-05  0.1600083E+04  0.7818609E-02  0.8820497E-01
       -2   -1    0    0    0  501  0.00000000000E+00  0.00000000000E+00  0.55634998574E+03  0.55634998575E+03  0.25500000920E-02 0. -1.
        2   -1    0    0  501    0  0.00000000000E+00  0.00000000000E+00 -0.11504739543E+04  0.11504739543E+04  0.25500000920E-02 0.  1.
    10030    2    1    2    0    0  0.00000000000E+00  0.00000000000E+00 -0.59412396856E+03  0.17068239400E+04  0.16000827080E+04 0.  0.
        5    1    3    3  502    0  0.75224111006E+03  0.23283348248E+03 -0.44778910064E+03  0.90587818546E+03  0.46999998093E+01 0.  1.
       -5    1    3    3    0  502 -0.75224111006E+03 -0.23283348248E+03 -0.14633486791E+03  0.80094575459E+03  0.46999998093E+01 0. -1.
</event>
<event>
 5   0  0.1060251E-05  0.1602980E+04  0.7818609E-02  0.8818719E-01
       -1   -1    0    0    0  501  0.00000000000E+00  0.00000000000E+00  0.29405647957E+03  0.29405647962E+03  0.50400001928E-02 0.  1.
        1   -1    0    0  501    0  0.00000000000E+00  0.00000000000E+00 -0.21845675141E+04  0.21845675141E+04  0.50400001928E-02 0. -1.
    10030    2    1    2    0    0  0.00000000000E+00  0.00000000000E+00 -0.18905110345E+04  0.24786239937E+04  0.16029800156E+04 0.  0.
        1    1    3    3  502    0 -0.38569686915E+03 -0.11573961502E+03 -0.20167908754E+04  0.20565999048E+04  0.50400001928E-02 0. -1.
       -1    1    3    3    0  502  0.38569686915E+03  0.11573961502E+03  0.12627984089E+03  0.42202408889E+03  0.50400001928E-02 0.  1.
</event>
<event>
 5   0  0.2046108E-05  0.1604589E+04  0.7818609E-02  0.8817733E-01
       -2   -1    0    0    0  501  0.00000000000E+00  0.00000000000E+00  0.94366496936E+03  0.94366496937E+03  0.25500000920E-02 0.  1.
        2   -1    0    0  501    0  0.00000000000E+00  0.00000000000E+00 -0.68210313185E+03  0.68210313185E+03  0.25500000920E-02 0. -1.
    10030    2    1    2    0    0  0.00000000000E+00  0.00000000000E+00  0.26156183752E+03  0.16257681012E+04  0.16045894566E+04 0.  0.
        1    1    3    3  502    0  0.11277306776E+03 -0.69305317306E+03  0.52402263081E+03  0.87615077648E+03  0.50400001928E-02 0.  1.
       -1    1    3    3    0  502 -0.11277306776E+03  0.69305317306E+03 -0.26246079330E+03  0.74961732473E+03  0.50400001928E-02 0. -1.
</event>
<event>
 5   0  0.2147844E-05  0.1599794E+04  0.7818609E-02  0.8820675E-01
       -2   -1    0    0    0  501  0.00000000000E+00  0.00000000000E+00  0.42352964003E+03  0.42352964003E+03  0.25500000920E-02 0. -1.
        2   -1    0    0  501    0  0.00000000000E+00  0.00000000000E+00 -0.15107206442E+04  0.15107206442E+04  0.25500000920E-02 0.  1.
    10030    2    1    2    0    0  0.00000000000E+00  0.00000000000E+00 -0.10871910042E+04  0.19342502843E+04  0.15997937000E+04 0.  0.
        2    1    3    3  502    0 -0.34992597810E+02  0.17621045475E+03 -0.14860131368E+04  0.14968332068E+04  0.25500000920E-02 0.  1.
       -2    1    3    3    0  502  0.34992597810E+02 -0.17621045475E+03  0.39882213255E+03  0.43741707750E+03  0.25500000920E-02 0. -1.
</event>
<event>
 5   0  0.1057506E-05  0.1600611E+04  0.7818609E-02  0.8820173E-01
        1   -1    0    0  501    0  0.00000000000E+00  0.00000000000E+00  0.14781888830E+04  0.14781888831E+04  0.50400001928E-02 0. -1.
       -1   -1    0    0    0  501  0.00000000000E+00  0.00000000000E+00 -0.43329291760E+03  0.43329291763E+03  0.50400001928E-02 0.  1.
    10030    2    1    2    0    0  0.00000000000E+00  0.00000000000E+00  0.10448959654E+04  0.19114818007E+04  0.16006108508E+04 0.  0.
        5    1    3    3  502    0 -0.56120688080E+03 -0.32491076187E+03 -0.37622849708E+02  0.64958273919E+03  0.46999998093E+01 0.  1.
       -5    1    3    3    0  502  0.56120688080E+03  0.32491076187E+03  0.10825188152E+04  0.12618990615E+04  0.46999998093E+01 0. -1.
</event>
<event>
 5   0  0.1081831E-05  0.1600491E+04  0.7818609E-02  0.8820246E-01
        1   -1    0    0  501    0  0.00000000000E+00  0.00000000000E+00  0.14654940665E+04  0.14654940665E+04  0.50400001928E-02 0. -1.
       -1   -1    0    0    0  501  0.00000000000E+00  0.00000000000E+00 -0.43698110901E+03  0.43698110904E+03  0.50400001928E-02 0.  1.
    10030    2    1    2    0    0  0.00000000000E+00  0.00000000000E+00  0.10285129575E+04  0.19024751755E+04  0.16004914526E+04 0.  0.
        3    1    3    3  502    0  0.24876487682E+03 -0.76049255785E+03  0.49920578682E+03  0.94310090779E+03  0.10100000352E+00 0. -1.
       -3    1    3    3    0  502 -0.24876487682E+03  0.76049255785E+03  0.52930717066E+03  0.95937426773E+03  0.10100000352E+00 0.  1.
</event>
<event>
 5   0  0.2125803E-05  0.1599476E+04  0.7818609E-02  0.8820870E-01
       -2   -1    0    0    0  501  0.00000000000E+00  0.00000000000E+00  0.48755645748E+03  0.48755645749E+03  0.25500000920E-02 0. -1.
        2   -1    0    0  501    0  0.00000000000E+00  0.00000000000E+00 -0.13118095430E+04  0.13118095430E+04  0.25500000920E-02 0.  1.
    10030    2    1    2    0    0  0.00000000000E+00  0.00000000000E+00 -0.82425308547E+03  0.17993660004E+04  0.15994764314E+04 0.  0.
        3    1    3    3  502    0 -0.29437407639E+03 -0.57076404790E+03  0.12404207310E+03  0.65407502729E+03  0.10100000352E+00 0. -1.
       -3    1    3    3    0  502  0.29437407639E+03  0.57076404790E+03 -0.94829515857E+03  0.11452909732E+04  0.10100000352E+00 0.  1.
</event>
<event>
 5   0  0.1994525E-05  0.1600427E+04  0.7818609E-02  0.8820286E-01
        2   -1    0    0  501    0  0.00000000000E+00  0.00000000000E+00  0.16499196883E+04  0.16499196883E+04  0.25500000920E-02 0.  1.
       -2   -1    0    0    0  501  0.00000000000E+00  0.00000000000E+00 -0.38810450213E+03  0.38810450214E+03  0.25500000920E-02 0. -1.
    10030    2    1    2    0    0  0.00000000000E+00  0.00000000000E+00  0.12618151861E+04  0.20380241904E+04  0.16004265171E+04 0.  0.
        5    1    3    3  502    0  0.11770650864E+03 -0.26316440628E+03 -0.31965910633E+03  0.43048154567E+03  0.46999998093E+01 0. -1.
       -5    1    3    3    0  502 -0.11770650864E+03  0.26316440628E+03  0.15814742924E+04  0.16075426447E+04  0.46999998093E+01 0.  1.
</event>
<event>
 5   0  0.1057506E-05  0.1600831E+04  0.7818609E-02  0.8820038E-01
        1   -1    0    0  501    0  0.00000000000E+00  0.00000000000E+00  0.70859908223E+03  0.70859908225E+03  0.50400001928E-02 0. -1.
       -1   -1    0    0    0  501  0.00000000000E+00  0.00000000000E+00 -0.90412927079E+03  0.90412927080E+03  0.50400001928E-02 0.  1.
    10030    2    1    2    0    0  0.00000000000E+00  0.00000000000E+00 -0.19553018855E+03  0.16127283531E+04  0.16008312485E+04 0.  0.
        5    1    3    3  502    0  0.50717234572E+03 -0.56006370450E+03  0.16829599280E+03  0.77410643490E+03  0.46999998093E+01 0. -1.
       -5    1    3    3    0  502 -0.50717234572E+03  0.56006370450E+03 -0.36382618135E+03  0.83862191815E+03  0.46999998093E+01 0.  1.
</event>
<event>
 5   0  0.2046108E-05  0.1600289E+04  0.7818609E-02  0.8820371E-01
        2   -1    0    0  501    0  0.00000000000E+00  0.00000000000E+00  0.70310813296E+03  0.70310813296E+03  0.25500000920E-02 0. -1.
       -2   -1    0    0    0  501  0.00000000000E+00  0.00000000000E+00 -0.91057246706E+03  0.91057246706E+03  0.25500000920E-02 0.  1.
    10030    2    1    2    0    0  0.00000000000E+00  0.00000000000E+00 -0.20746433410E+03  0.16136806000E+04  0.16002886080E+04 0.  0.
        1    1    3    3  502    0  0.24783642248E+03  0.14032086892E+03 -0.85773161496E+03  0.90377893419E+03  0.50400001928E-02 0.  1.
       -1    1    3    3    0  502 -0.24783642248E+03 -0.14032086892E+03  0.65026728086E+03  0.70990166583E+03  0.50400001928E-02 0. -1.
</event>
<event>
 5   0  0.1060251E-05  0.1605804E+04  0.7818609E-02  0.8816990E-01
        1   -1    0    0  501    0  0.00000000000E+00  0.00000000000E+00  0.99058114218E+03  0.99058114219E+03  0.50400001928E-02 0.  1.
       -1   -1    0    0    0  501  0.00000000000E+00  0.00000000000E+00 -0.65078105499E+03  0.65078105500E+03  0.50400001928E-02 0. -1.
    10030    2    1    2    0    0  0.00000000000E+00  0.00000000000E+00  0.33980008719E+03  0.16413621972E+04  0.16058037748E+04 0.  0.
        1    1    3    3  502    0 -0.80846290840E+02  0.41863238274E+03  0.86530507983E+03  0.96464608838E+03  0.50400001928E-02 0.  1.
       -1    1    3    3    0  502  0.80846290840E+02 -0.41863238274E+03 -0.52550499263E+03  0.67671610882E+03  0.50400001928E-02 0. -1.
</event>
<event>
 5   0  0.2125803E-05  0.1599087E+04  0.7818609E-02  0.8821109E-01
       -2   -1    0    0    0  501  0.00000000000E+00  0.00000000000E+00  0.17254636214E+04  0.17254636214E+04  0.25500000920E-02 0. -1.
        2   -1    0    0  501    0  0.00000000000E+00  0.00000000000E+00 -0.37049144874E+03  0.37049144875E+03  0.25500000920E-02 0.  1.
    10030    2    1    2    0    0  0.00000000000E+00  0.00000000000E+00  0.13549721727E+04  0.20959550702E+04  0.15990866354E+04 0.  0.
        3    1    3    3  502    0  0.11240038532E+03 -0.50565313590E+03  0.14757895144E+04  0.15640567897E+04  0.10100000352E+00 0. -1.
       -3    1    3    3    0  502 -0.11240038532E+03  0.50565313590E+03 -0.12081734174E+03  0.53189828043E+03  0.10100000352E+00 0.  1.
</event>
<event>
 5   0  0.1990948E-05  0.1600110E+04  0.7818609E-02  0.8820480E-01
        2   -1    0    0  501    0  0.00000000000E+00  0.00000000000E+00  0.16696249241E+04  0.16696249241E+04  0.25500000920E-02 0. -1.
       -2   -1    0    0    0  501  0.00000000000E+00  0.00000000000E+00 -0.38337247008E+03  0.38337247009E+03  0.25500000920E-02 0.  1.
    10030    2    1    2    0    0  0.00000000000E+00  0.00000000000E+00  0.12862524540E+04  0.20529973941E+04  0.16001102853E+04 0.  0.
        4    1    3    3  502    0  0.68169022924E+03  0.40649132163E+03  0.51386496147E+03  0.94551339214E+03  0.12699999809E+01 0. -1.
       -4    1    3    3    0  502 -0.68169022924E+03 -0.40649132163E+03  0.77238749250E+03  0.11074840020E+04  0.12699999809E+01 0.  1.
</event>
<event>
 5   0  0.2147844E-05  0.1600324E+04  0.7818609E-02  0.8820349E-01
       -2   -1    0    0    0  501  0.00000000000E+00  0.00000000000E+00  0.54872283201E+03  0.54872283202E+03  0.25500000920E-02 0.  1.
        2   -1    0    0  501    0  0.00000000000E+00  0.00000000000E+00 -0.11668170327E+04  0.11668170327E+04  0.25500000920E-02 0. -1.
    10030    2    1    2    0    0  0.00000000000E+00  0.00000000000E+00 -0.61809420065E+03  0.17155398647E+04  0.16003239005E+04 0.  0.
        2    1    3    3  502    0  0.41890869025E+03  0.19951262071E+02 -0.10395603345E+04  0.11209675431E+04  0.25500000920E-02 0.  1.
       -2    1    3    3    0  502 -0.41890869025E+03 -0.19951262071E+02  0.42146613383E+03  0.59457232159E+03  0.25500000920E-02 0. -1.
</event>
<event>
 5   0  0.1990948E-05  0.1600010E+04  0.7818609E-02  0.8820542E-01
        2   -1    0    0  501    0  0.00000000000E+00  0.00000000000E+00  0.72687300461E+03  0.72687300461E+03  0.25500000920E-02 0. -1.
       -2   -1    0    0    0  501  0.00000000000E+00  0.00000000000E+00 -0.88049542321E+03  0.88049542322E+03  0.25500000920E-02 0.  1.
    10030    2    1    2    0    0  0.00000000000E+00  0.00000000000E+00 -0.15362241860E+03  0.16073684278E+04  0.16000104422E+04 0.  0.
        4    1    3    3  502    0 -0.40460101597E+03 -0.49370129341E+03  0.40765519541E+03  0.75738188550E+03  0.12699999809E+01 0. -1.
       -4    1    3    3    0  502  0.40460101597E+03  0.49370129341E+03 -0.56127761402E+03  0.84998654233E+03  0.12699999809E+01 0.  1.
</event>
<event>
 5   0  0.2046108E-05  0.1599267E+04  0.7818609E-02  0.8820998E-01
        2   -1    0    0  501    0  0.00000000000E+00  0.00000000000E+00  0.99925739366E+03  0.99925739366E+03  0.25500000920E-02 0. -1.
       -2   -1    0    0    0  501  0.00000000000E+00  0.00000000000E+00 -0.63988889387E+03  0.63988889388E+03  0.25500000920E-02 0.  1.
    10030    2    1    2    0    0  0.00000000000E+00  0.00000000000E+00  0.35936849979E+03  0.16391462875E+04  0.15992669675E+04 0.  0.
        1    1    3    3  502    0  0.51322222697E+03 -0.30733588468E+03  0.72353938611E+03  0.93880862988E+03  0.50400001928E-02 0. -1.
       -1    1    3    3    0  502 -0.51322222697E+03  0.30733588468E+03 -0.36417088632E+03  0.70033765766E+03  0.50400001928E-02 0.  1.
</event>
<event>
 5   0  0.1057506E-05  0.1600283E+04  0.7818609E-02  0.8820374E-01
        1   -1    0    0  501    0  0.00000000000E+00  0.00000000000E+00  0.17682058886E+04  0.17682058886E+04  0.50400001928E-02 0. -1.
       -1   -1    0    0    0  501  0.00000000000E+00  0.00000000000E+00 -0.36207686886E+03  0.36207686890E+03  0.50400001928E-02 0.  1.
    10030    2    1    2    0    0  0.00000000000E+00  0.00000000000E+00  0.14061290197E+04  0.21302827575E+04  0.16002830396E+04 0.  0.
        5    1    3    3  502    0  0.43993860835E+03 -0.23911855224E+03 -0.12771049378E+03  0.51677434278E+03  0.46999998093E+01 0.  1.
       -5    1    3    3    0  502 -0.43993860835E+03  0.23911855224E+03  0.15338395135E+04  0.16135084147E+04  0.46999998093E+01 0. -1.
</event>
<event>
 5   0  0.1060251E-05  0.1601112E+04  0.7818609E-02  0.8819865E-01
        1   -1    0    0  501    0  0.00000000000E+00  0.00000000000E+00  0.14406096810E+04  0.14406096810E+04  0.50400001928E-02 0. -1.
       -1   -1    0    0    0  501  0.00000000000E+00  0.00000000000E+00 -0.44487405288E+03  0.44487405290E+03  0.50400001928E-02 0.  1.
    10030    2    1    2    0    0  0.00000000000E+00  0.00000000000E+00  0.99573562812E+03  0.18854837339E+04  0.16011119479E+04 0.  0.
        1    1    3    3  502    0  0.40406401951E+03  0.66581460944E+03  0.71600549859E+03  0.10579417281E+04  0.50400001928E-02 0. -1.
       -1    1    3    3    0  502 -0.40406401951E+03 -0.66581460944E+03  0.27973012954E+03  0.82754200582E+03  0.50400001928E-02 0.  1.
</event>
<event>
 5   0  0.2046108E-05  0.1601442E+04  0.7818609E-02  0.8819663E-01
       -2   -1    0    0    0  501  0.00000000000E+00  0.00000000000E+00  0.38050434019E+03  0.38050434019E+03  0.25500000920E-02 0.  1.
        2   -1    0    0  501    0  0.00000000000E+00  0.00000000000E+00 -0.16850111335E+04  0.16850111335E+04  0.25500000920E-02 0. -1.
    10030    2    1    2    0    0  0.00000000000E+00  0.00000000000E+00 -0.13045067933E+04  0.20655154737E+04  0.16014419122E+04 0.  0.
        1    1    3    3  502    0 -0.46099302432E+03 -0.60168634046E+03 -0.31936638331E+03  0.82251802873E+03  0.50400001928E-02 0. -1.
       -1    1    3    3    0  502  0.46099302432E+03  0.60168634046E+03 -0.98514041002E+03  0.12429974450E+04  0.50400001928E-02 0.  1.
</event>
<event>
 5   0  0.1126485E-05  0.1599794E+04  0.7818609E-02  0.8820675E-01
       -1   -1    0    0    0  501  0.00000000000E+00  0.00000000000E+00  0.75107756258E+03  0.75107756260E+03  0.50400001928E-02 0.  1.
        1   -1    0    0  501    0  0.00000000000E+00  0.00000000000E+00 -0.85188914446E+03  0.85188914447E+03  0.50400001928E-02 0. -1.
    10030    2    1    2    0    0  0.00000000000E+00  0.00000000000E+00 -0.10081158188E+03  0.16029667071E+04  0.15997935145E+04 0.  0.
        2    1    3    3  502    0  0.75124395599E+03  0.11255808701E+02 -0.32543273607E+03  0.81877997066E+03  0.25500000920E-02 0.  1.
       -2    1    3    3    0  502 -0.75124395599E+03 -0.11255808701E+02  0.22462115419E+03  0.78418673641E+03  0.25500000920E-02 0. -1.
</event>
<event>
 5   0  0.1081831E-05  0.1600513E+04  0.7818609E-02  0.8820233E-01
        1   -1    0    0  501    0  0.00000000000E+00  0.00000000000E+00  0.61936684081E+03  0.61936684083E+03  0.50400001928E-02 0. -1.
       -1   -1    0    0    0  501  0.00000000000E+00  0.00000000000E+00 -0.10339759502E+04  0.10339759502E+04  0.50400001928E-02 0.  1.
    10030    2    1    2    0    0  0.00000000000E+00  0.00000000000E+00 -0.41460910936E+03  0.16533427910E+04  0.16005129400E+04 0.  0.
        3    1    3    3  502    0  0.91232318628E+02 -0.36093593291E+03 -0.93907417867E+03  0.10101774136E+04  0.10100000352E+00 0.  1.
       -3    1    3    3    0  502 -0.91232318628E+02  0.36093593291E+03  0.52446506931E+03  0.64316537745E+03  0.10100000352E+00 0. -1.
</event>
<event>
 5   0  0.1090674E-05  0.1600530E+04  0.7818609E-02  0.8820222E-01
        1   -1    0    0  501    0  0.00000000000E+00  0.00000000000E+00  0.67916405157E+03  0.67916405159E+03  0.50400001928E-02 0. -1.
       -1   -1    0    0    0  501  0.00000000000E+00  0.00000000000E+00 -0.94295953062E+03  0.94295953064E+03  0.50400001928E-02 0.  1.
    10030    2    1    2    0    0  0.00000000000E+00  0.00000000000E+00 -0.26379547906E+03  0.16221235822E+04  0.16005301813E+04 0.  0.
        4    1    3    3  502    0 -0.49671978844E+03  0.10464186644E+03  0.49511044082E+03  0.70909550129E+03  0.12699999809E+01 0. -1.
       -4    1    3    3    0  502  0.49671978844E+03 -0.10464186644E+03 -0.75890591988E+03  0.91302808093E+03  0.12699999809E+01 0.  1.
</event>
<event>
 5   0  0.2046108E-05  0.1603735E+04  0.7818609E-02  0.8818257E-01
        2   -1    0    0  501    0  0.00000000000E+00  0.00000000000E+00  0.78741217321E+03  0.78741217321E+03  0.25500000920E-02 0.  1.
       -2   -1    0    0    0  501  0.00000000000E+00  0.00000000000E+00 -0.81658806212E+03  0.81658806212E+03  0.25500000920E-02 0. -1.
    10030    2    1    2    0    0  0.00000000000E+00  0.00000000000E+00 -0.29175888913E+02  0.16040002353E+04  0.16037348666E+04 0.  0.
        1    1    3    3  502    0  0.11282738198E+03  0.78563614321E+03  0.99611564383E+02  0.79992289093E+03  0.50400001928E-02 0. -1.
       -1    1    3    3    0  502 -0.11282738198E+03 -0.78563614321E+03 -0.12878745330E+03  0.80407734441E+03  0.50400001928E-02 0.  1.
</event>
<event>
 5   0  0.1126485E-05  0.1600149E+04  0.7818609E-02  0.8820457E-01
       -1   -1    0    0    0  501  0.00000000000E+00  0.00000000000E+00  0.50499565242E+03  0.50499565245E+03  0.50400001928E-02 0.  1.
        1   -1    0    0  501    0  0.00000000000E+00  0.00000000000E+00 -0.12675735207E+04  0.12675735207E+04  0.50400001928E-02 0. -1.
    10030    2    1    2    0    0  0.00000000000E+00  0.00000000000E+00 -0.76257786829E+03  0.17725691732E+04  0.16001488895E+04 0.  0.
        2    1    3    3  502    0 -0.66632538161E+03  0.29363858675E+03 -0.14045985443E+02  0.72829281441E+03  0.25500000920E-02 0.  1.
       -2    1    3    3    0  502  0.66632538161E+03 -0.29363858675E+03 -0.74853188285E+03  0.10442763588E+04  0.25500000920E-02 0. -1.
</event>
<event>
 5   0  0.1057506E-05  0.1599929E+04  0.7818609E-02  0.8820592E-01
        1   -1    0    0  501    0  0.00000000000E+00  0.00000000000E+00  0.12950908509E+04  0.12950908509E+04  0.50400001928E-02 0. -1.
       -1   -1    0    0    0  501  0.00000000000E+00  0.00000000000E+00 -0.49413008080E+03  0.49413008083E+03  0.50400001928E-02 0.  1.
    10030    2    1    2    0    0  0.00000000000E+00  0.00000000000E+00  0.80096077008E+03  0.17892209317E+04  0.15999291820E+04 0.  0.
        5    1    3    3  502    0  0.29612467151E+03  0.62221859922E+02 -0.42764490015E+03  0.52389276723E+03  0.46999998093E+01 0.  1.
       -5    1    3    3    0  502 -0.29612467151E+03 -0.62221859922E+02  0.12286056702E+04  0.12653281645E+04  0.46999998093E+01 0. -1.
</event>
<event>
 5   0  0.1057506E-05  0.1599793E+04  0.7818609E-02  0.8820675E-01
       -1   -1    0    0    0  501  0.00000000000E+00  0.00000000000E+00  0.72347413545E+03  0.72347413546E+03  0.50400001928E-02 0. -1.
        1   -1    0    0  501    0  0.00000000000E+00  0.00000000000E+00 -0.88439109390E+03  0.88439109391E+03  0.50400001928E-02 0.  1.
    10030    2    1    2    0    0  0.00000000000E+00  0.00000000000E+00 -0.16091695845E+03  0.16078652294E+04  0.15997925892E+04 0.  0.
        5    1    3    3  502    0  0.37485089942E+03  0.14669009022E+03  0.61424634594E+03  0.73440577535E+03  0.46999998093E+01 0. -1.
       -5    1    3    3    0  502 -0.37485089942E+03 -0.14669009022E+03 -0.77516330439E+03  0.87345945403E+03  0.46999998093E+01 0.  1.
</event>
<event>
 5   0  0.2046108E-05  0.1596450E+04  0.7818609E-02  0.8822732E-01
       -2   -1    0    0    0  501  0.00000000000E+00  0.00000000000E+00  0.82800707151E+03  0.82800707152E+03  0.25500000920E-02 0. -1.
        2   -1    0    0  501    0  0.00000000000E+00  0.00000000000E+00 -0.76951402414E+03  0.76951402415E+03  0.25500000920E-02 0.  1.
    10030    2    1    2    0    0  0.00000000000E+00  0.00000000000E+00  0.58493047373E+02  0.15975210957E+04  0.15964498785E+04 0.  0.
        1    1    3    3  502    0  0.67467582742E+03 -0.10622814803E+03  0.44267161522E+03  0.81389805902E+03  0.50400001928E-02 0. -1.
       -1    1    3    3    0  502 -0.67467582742E+03  0.10622814803E+03 -0.38417856784E+03  0.78362303664E+03  0.50400001928E-02 0.  1.
</event>
<event>
 5   0  0.1057506E-05  0.1600036E+04  0.7818609E-02  0.8820526E-01
        1   -1    0    0  501    0  0.00000000000E+00  0.00000000000E+00  0.22134337262E+04  0.22134337262E+04  0.50400001928E-02 0.  1.
       -1   -1    0    0    0  501  0.00000000000E+00  0.00000000000E+00 -0.28915669431E+03  0.28915669435E+03  0.50400001928E-02 0. -1.
    10030    2    1    2    0    0  0.00000000000E+00  0.00000000000E+00  0.19242770319E+04  0.25025904206E+04  0.16000364738E+04 0.  0.
        5    1    3    3  502    0  0.98364417332E+02  0.63443531751E+03  0.17086887228E+04  0.18253281820E+04  0.46999998093E+01 0.  1.
       -5    1    3    3    0  502 -0.98364417332E+02 -0.63443531751E+03  0.21558830908E+03  0.67726223851E+03  0.46999998093E+01 0. -1.
</event>
<event>
 5   0  0.2147844E-05  0.1600823E+04  0.7818609E-02  0.8820043E-01
       -2   -1    0    0    0  501  0.00000000000E+00  0.00000000000E+00  0.50242323172E+03  0.50242323173E+03  0.25500000920E-02 0.  1.
        2   -1    0    0  501    0  0.00000000000E+00  0.00000000000E+00 -0.12751366601E+04  0.12751366601E+04  0.25500000920E-02 0. -1.
    10030    2    1    2    0    0  0.00000000000E+00  0.00000000000E+00 -0.77271342842E+03  0.17775598919E+04  0.16008226406E+04 0.  0.
        2    1    3    3  502    0  0.29582512492E+03  0.15178492072E+03  0.42211129770E+03  0.53733519738E+03  0.25500000920E-02 0.  1.
       -2    1    3    3    0  502 -0.29582512492E+03 -0.15178492072E+03 -0.11948247261E+04  0.12402246945E+04  0.25500000920E-02 0. -1.
</event>
<event>
 5   0  0.1126485E-05  0.1600004E+04  0.7818609E-02  0.8820545E-01
       -1   -1    0    0    0  501  0.00000000000E+00  0.00000000000E+00  0.47934903169E+03  0.47934903172E+03  0.50400001928E-02 0. -1.
        1   -1    0    0  501    0  0.00000000000E+00  0.00000000000E+00 -0.13351510772E+04  0.13351510772E+04  0.50400001928E-02 0.  1.
    10030    2    1    2    0    0  0.00000000000E+00  0.00000000000E+00 -0.85580204554E+03  0.18145001090E+04  0.16000042201E+04 0.  0.
        2    1    3    3  502    0 -0.50153367856E+03  0.30933956816E+02 -0.11338569221E+04  0.12402114578E+04  0.25500000920E-02 0.  1.
       -2    1    3    3    0  502  0.50153367856E+03 -0.30933956816E+02  0.27805487654E+03  0.57428865111E+03  0.25500000920E-02 0. -1.
</event>
<event>
 5   0  0.1994525E-05  0.1599788E+04  0.7818609E-02  0.8820678E-01
        2   -1    0    0  501    0  0.00000000000E+00  0.00000000000E+00  0.75513110381E+03  0.75513110381E+03  0.25500000920E-02 0.  1.
       -2   -1    0    0    0  501  0.00000000000E+00  0.00000000000E+00 -0.84731010124E+03  0.84731010124E+03  0.25500000920E-02 0. -1.
    10030    2    1    2    0    0  0.00000000000E+00  0.00000000000E+00 -0.92178997434E+02  0.16024412051E+04  0.15997877509E+04 0.  0.
        5    1    3    3  502    0  0.34800327791E+03 -0.15214914716E+03 -0.75121198181E+03  0.84178214285E+03  0.46999998093E+01 0. -1.
       -5    1    3    3    0  502 -0.34800327791E+03  0.15214914716E+03  0.65903298437E+03  0.76065906220E+03  0.46999998093E+01 0.  1.
</event>
<event>
 5   0  0.1990948E-05  0.1600043E+04  0.7818609E-02  0.8820522E-01
       -2   -1    0    0    0  501  0.00000000000E+00  0.00000000000E+00  0.46333381469E+03  0.46333381469E+03  0.25500000920E-02 0. -1.
        2   -1    0    0  501    0  0.00000000000E+00  0.00000000000E+00 -0.13813671398E+04  0.13813671398E+04  0.25500000920E-02 0.  1.
    10030    2    1    2    0    0  0.00000000000E+00  0.00000000000E+00 -0.91803332513E+03  0.18447009545E+04  0.16000426324E+04 0.  0.
        4    1    3    3  502    0  0.51092130462E+02  0.71157734335E+03 -0.87642609318E+03  0.11300783296E+04  0.12699999809E+01 0.  1.
       -4    1    3    3    0  502 -0.51092130462E+02 -0.71157734335E+03 -0.41607231950E+02  0.71462262490E+03  0.12699999809E+01 0. -1.
</event>
<event>
 5   0  0.1990948E-05  0.1600419E+04  0.7818609E-02  0.8820291E-01
        2   -1    0    0  501    0  0.00000000000E+00  0.00000000000E+00  0.58975757204E+03  0.58975757204E+03  0.25500000920E-02 0. -1.
       -2   -1    0    0    0  501  0.00000000000E+00  0.00000000000E+00 -0.10857603843E+04  0.10857603843E+04  0.25500000920E-02 0.  1.
    10030    2    1    2    0    0  0.00000000000E+00  0.00000000000E+00 -0.49600281227E+03  0.16755179564E+04  0.16004192052E+04 0.  0.
        4    1    3    3  502    0  0.73371662022E+03  0.59251621978E+02  0.80544365708E+02  0.74049972400E+03  0.12699999809E+01 0. -1.
       -4    1    3    3    0  502 -0.73371662022E+03 -0.59251621978E+02 -0.57654717798E+03  0.93501823235E+03  0.12699999809E+01 0.  1.
</event>
<event>
 5   0  0.1057506E-05  0.1599947E+04  0.7818609E-02  0.8820581E-01
        1   -1    0    0  501    0  0.00000000000E+00  0.00000000000E+00  0.11400016404E+04  0.11400016404E+04  0.50400001928E-02 0. -1.
       -1   -1    0    0    0  501  0.00000000000E+00  0.00000000000E+00 -0.56136538298E+03  0.56136538301E+03  0.50400001928E-02 0.  1.
    10030    2    1    2    0    0  0.00000000000E+00  0.00000000000E+00  0.57863625744E+03  0.17013670234E+04  0.15999468210E+04 0.  0.
        5    1    3    3  502    0 -0.74054343221E+03 -0.25638654554E+03  0.11852326459E+03  0.79259604464E+03  0.46999998093E+01 0.  1.
       -5    1    3    3    0  502  0.74054343221E+03  0.25638654554E+03  0.46011299284E+03  0.90877097880E+03  0.46999998093E+01 0. -1.
</event>
<event>
 5   0  0.7597000E-06  0.1599244E+04  0.7818609E-02  0.8821013E-01
        3   -1    0    0  501    0  0.00000000000E+00  0.00000000000E+00  0.36130019700E+03  0.36130021112E+03  0.10100000352E+00 0. -1.
       -3   -1    0    0    0  501  0.00000000000E+00  0.00000000000E+00 -0.17697059216E+04  0.17697059245E+04  0.10100000352E+00 0.  1.
    10030    2    1    2    0    0  0.00000000000E+00  0.00000000000E+00 -0.14084057246E+04  0.21310061356E+04  0.15992437165E+04 0.  0.
        2    1    3    3  502    0 -0.57623869273E+03 -0.53333252738E+02 -0.14395009653E+04  0.15514697857E+04  0.25500000920E-02 0.  1.
       -2    1    3    3    0  502  0.57623869273E+03  0.53333252738E+02  0.31095240699E+02  0.57953634990E+03  0.25500000920E-02 0. -1.
</event>
<event>
 5   0  0.1057506E-05  0.1598914E+04  0.7818609E-02  0.8821215E-01
        1   -1    0    0  501    0  0.00000000000E+00  0.00000000000E+00  0.83611846597E+03  0.83611846599E+03  0.50400001928E-02 0. -1.
       -1   -1    0    0    0  501  0.00000000000E+00  0.00000000000E+00 -0.76440309870E+03  0.76440309871E+03  0.50400001928E-02 0.  1.
    10030    2    1    2    0    0  0.00000000000E+00  0.00000000000E+00  0.71715367274E+02  0.16005215647E+04  0.15989140643E+04 0.  0.
        5    1    3    3  502    0  0.67739641480E+03  0.41401091703E+03 -0.58250206483E+02  0.79604404322E+03  0.46999998093E+01 0. -1.
       -5    1    3    3    0  502 -0.67739641480E+03 -0.41401091703E+03  0.12996557376E+03  0.80447752148E+03  0.46999998093E+01 0.  1.
</event>
<event>
 5   0  0.2046108E-05  0.1600084E+04  0.7818609E-02  0.8820497E-01
       -2   -1    0    0    0  501  0.00000000000E+00  0.00000000000E+00  0.62006038544E+03  0.62006038544E+03  0.25500000920E-02 0.  1.
        2   -1    0    0  501    0  0.00000000000E+00  0.00000000000E+00 -0.10322656631E+04  0.10322656632E+04  0.25500000920E-02 0. -1.
    10030    2    1    2    0    0  0.00000000000E+00  0.00000000000E+00 -0.41220527771E+03  0.16523260486E+04  0.16000838040E+04 0.  0.
        1    1    3    3  502    0  0.28143534579E+02 -0.31555046421E+03 -0.96473330174E+03  0.10154183855E+04  0.50400001928E-02 0. -1.
       -1    1    3    3    0  502 -0.28143534579E+02  0.31555046421E+03  0.55252802403E+03  0.63690766314E+03  0.50400001928E-02 0.  1.
</event>
<event>
 5   0  0.1994525E-05  0.1599527E+04  0.7818609E-02  0.8820839E-01
        2   -1    0    0  501    0  0.00000000000E+00  0.00000000000E+00  0.36247133689E+03  0.36247133690E+03  0.25500000920E-02 0. -1.
       -2   -1    0    0    0  501  0.00000000000E+00  0.00000000000E+00 -0.17646121798E+04  0.17646121798E+04  0.25500000920E-02 0.  1.
    10030    2    1    2    0    0  0.00000000000E+00  0.00000000000E+00 -0.14021408429E+04  0.21270835167E+04  0.15995265999E+04 0.  0.
        5    1    3    3  502    0 -0.28067871727E+03  0.62058445311E+03 -0.14366511877E+03  0.69610872866E+03  0.46999998093E+01 0. -1.
       -5    1    3    3    0  502  0.28067871727E+03 -0.62058445311E+03 -0.12584757242E+04  0.14309747881E+04  0.46999998093E+01 0.  1.
</event>
<event>
 5   0  0.1081831E-05  0.1601488E+04  0.7818609E-02  0.8819635E-01
        1   -1    0    0  501    0  0.00000000000E+00  0.00000000000E+00  0.21364778053E+04  0.21364778053E+04  0.50400001928E-02 0. -1.
       -1   -1    0    0    0  501  0.00000000000E+00  0.00000000000E+00 -0.30011578291E+03  0.30011578295E+03  0.50400001928E-02 0.  1.
    10030    2    1    2    0    0  0.00000000000E+00  0.00000000000E+00  0.18363620223E+04  0.24365935882E+04  0.16014876949E+04 0.  0.
        3    1    3    3  502    0 -0.77929645956E+03 -0.50491889559E+02  0.64884328960E+03  0.10153078486E+04  0.10100000352E+00 0.  1.
       -3    1    3    3    0  502  0.77929645956E+03  0.50491889559E+02  0.11875187327E+04  0.14212857396E+04  0.10100000352E+00 0. -1.
</event>
<event>
 5   0  0.1990948E-05  0.1599748E+04  0.7818609E-02  0.8820703E-01
       -2   -1    0    0    0  501  0.00000000000E+00  0.00000000000E+00  0.93185084419E+03  0.93185084419E+03  0.25500000920E-02 0. -1.
        2   -1    0    0  501    0  0.00000000000E+00  0.00000000000E+00 -0.68658865106E+03  0.68658865107E+03  0.25500000920E-02 0.  1.
    10030    2    1    2    0    0  0.00000000000E+00  0.00000000000E+00  0.24526219313E+03  0.16184394953E+04  0.15997477478E+04 0.  0.
        4    1    3    3  502    0  0.79846867475E+02 -0.27998000408E+03 -0.63107856119E+03  0.69500078289E+03  0.12699999809E+01 0.  1.
       -4    1    3    3    0  502 -0.79846867475E+02  0.27998000408E+03  0.87634075432E+03  0.92343871237E+03  0.12699999809E+01 0. -1.
</event>
<event>
 5   0  0.2046108E-05  0.1599684E+04  0.7818609E-02  0.8820742E-01
       -2   -1    0    0    0  501  0.00000000000E+00  0.00000000000E+00  0.14041655058E+04  0.14041655058E+04  0.25500000920E-02 0. -1.
        2   -1    0    0  501    0  0.00000000000E+00  0.00000000000E+00 -0.45560664095E+03  0.45560664096E+03  0.25500000920E-02 0.  1.
    10030    2    1    2    0    0  0.00000000000E+00  0.00000000000E+00  0.94855886487E+03  0.18597721468E+04  0.15996838806E+04 0.  0.
        1    1    3    3  502    0 -0.54020933944E+03  0.58570651759E+03  0.39315720811E+03  0.88851046447E+03  0.50400001928E-02 0. -1.
       -1    1    3    3    0  502  0.54020933944E+03 -0.58570651759E+03  0.55540165676E+03  0.97126168231E+03  0.50400001928E-02 0.  1.
</event>
<event>
 5   0  0.1081831E-05  0.1597842E+04  0.7818609E-02  0.8821875E-01
       -1   -1    0    0    0  501  0.00000000000E+00  0.00000000000E+00  0.55934269771E+03  0.55934269774E+03  0.50400001928E-02 0. -1.
        1   -1    0    0  501    0  0.00000000000E+00  0.00000000000E+00 -0.11411153159E+04  0.11411153159E+04  0.50400001928E-02 0.  1.
    10030    2    1    2    0    0  0.00000000000E+00  0.00000000000E+00 -0.58177261821E+03  0.17004580137E+04  0.15978416933E+04 0.  0.
        3    1    3    3  502    0 -0.81583557627E+02 -0.76716706225E+03 -0.51175613659E+03  0.92579454082E+03  0.10100000352E+00 0.  1.
       -3    1    3    3    0  502  0.81583557627E+02  0.76716706225E+03 -0.70016481618E+02  0.77466347285E+03  0.10100000352E+00 0. -1.
</event>
<event>
 5   0  0.2125803E-05  0.1599861E+04  0.7818609E-02  0.8820633E-01
       -2   -1    0    0    0  501  0.00000000000E+00  0.00000000000E+00  0.69648519213E+03  0.69648519213E+03  0.25500000920E-02 0.  1.
        2   -1    0    0  501    0  0.00000000000E+00  0.00000000000E+00 -0.91874026500E+03  0.91874026500E+03  0.25500000920E-02 0. -1.
    10030    2    1    2    0    0  0.00000000000E+00  0.00000000000E+00 -0.22225507287E+03  0.16152254571E+04  0.15998612315E+04 0.  0.
        3    1    3    3  502    0  0.66097823866E+03  0.14900783371E+03 -0.54040900233E+03  0.86668187155E+03  0.10100000352E+00 0. -1.
       -3    1    3    3    0  502 -0.66097823866E+03 -0.14900783371E+03  0.31815392946E+03  0.74854358558E+03  0.10100000352E+00 0.  1.
</event>
<event>
 5   0  0.1081831E-05  0.1599843E+04  0.7818609E-02  0.8820644E-01
       -1   -1    0    0    0  501  0.00000000000E+00  0.00000000000E+00  0.41901637338E+03  0.41901637341E+03  0.50400001928E-02 0. -1.
        1   -1    0    0  501    0  0.00000000000E+00  0.00000000000E+00 -0.15270873086E+04  0.15270873086E+04  0.50400001928E-02 0.  1.
    10030    2    1    2    0    0  0.00000000000E+00  0.00000000000E+00 -0.11080709352E+04  0.19461036820E+04  0.15998432247E+04 0.  0.
        3    1    3    3  502    0 -0.14984825080E+03  0.42118217566E+03 -0.13609500159E+04  0.14324921917E+04  0.10100000352E+00 0.  1.
       -3    1    3    3    0  502  0.14984825080E+03 -0.42118217566E+03  0.25287908066E+03  0.51361149033E+03  0.10100000352E+00 0. -1.
</event>
<event>
 5   0  0.1057506E-05  0.1599973E+04  0.7818609E-02  0.8820564E-01
        1   -1    0    0  501    0  0.00000000000E+00  0.00000000000E+00  0.66013410474E+03  0.66013410476E+03  0.50400001928E-02 0.  1.
       -1   -1    0    0    0  501  0.00000000000E+00  0.00000000000E+00 -0.96946762704E+03  0.96946762705E+03  0.50400001928E-02 0. -1.
    10030    2    1    2    0    0  0.00000000000E+00  0.00000000000E+00 -0.30933352230E+03  0.16296017318E+04  0.15999733049E+04 0.  0.
        5    1    3    3  502    0 -0.42860307923E+03 -0.59483235554E+03 -0.48064095857E+03  0.87667779245E+03  0.46999998093E+01 0. -1.
       -5    1    3    3    0  502  0.42860307923E+03  0.59483235554E+03  0.17130743627E+03  0.75292393935E+03  0.46999998093E+01 0.  1.
</event>
<event>
 5   0  0.1060251E-05  0.1599812E+04  0.7818609E-02  0.8820664E-01
        1   -1    0    0  501    0  0.00000000000E+00  0.00000000000E+00  0.10277538973E+04  0.10277538973E+04  0.50400001928E-02 0.  1.
       -1   -1    0    0    0  501  0.00000000000E+00  0.00000000000E+00 -0.62257068590E+03  0.62257068592E+03  0.50400001928E-02 0. -1.
    10030    2    1    2    0    0  0.00000000000E+00  0.00000000000E+00  0.40518321142E+03  0.16503245833E+04  0.15998118000E+04 0.  0.
        1    1    3    3  502    0 -0.42271508981E+03  0.23300013783E+03 -0.45541394193E+03  0.66361055591E+03  0.50400001928E-02 0. -1.
       -1    1    3    3    0  502  0.42271508981E+03 -0.23300013783E+03  0.86059715335E+03  0.98671402735E+03  0.50400001928E-02 0.  1.
</event>
<event>
 5   0  0.1060251E-05  0.1598888E+04  0.7818609E-02  0.8821231E-01
        1   -1    0    0  501    0  0.00000000000E+00  0.00000000000E+00  0.10025344381E+04  0.10025344381E+04  0.50400001928E-02 0. -1.
       -1   -1    0    0    0  501  0.00000000000E+00  0.00000000000E+00 -0.63749512263E+03  0.63749512265E+03  0.50400001928E-02 0.  1.
    10030    2    1    2    0    0  0.00000000000E+00  0.00000000000E+00  0.36503931550E+03  0.16400295608E+04  0.15988881319E+04 0.  0.
        1    1    3    3  502    0 -0.44699038805E+02  0.57502911593E+03 -0.38530791278E+03  0.69362718799E+03  0.50400001928E-02 0.  1.
       -1    1    3    3    0  502  0.44699038805E+02 -0.57502911593E+03  0.75034722828E+03  0.94640237281E+03  0.50400001928E-02 0. -1.
</event>
<event>
 5   0  0.2125803E-05  0.1601602E+04  0.7818609E-02  0.8819564E-01
        2   -1    0    0  501    0  0.00000000000E+00  0.00000000000E+00  0.10995066780E+04  0.10995066780E+04  0.25500000920E-02 0. -1.
       -2   -1    0    0    0  501  0.00000000000E+00  0.00000000000E+00 -0.58324553353E+03  0.58324553353E+03  0.25500000920E-02 0.  1.
    10030    2    1    2    0    0  0.00000000000E+00  0.00000000000E+00  0.51626114451E+03  0.16827522116E+04  0.16016021467E+04 0.  0.
        3    1    3    3  502    0 -0.40634438243E+03  0.10677801078E+03  0.97440963702E+03  0.10611274436E+04  0.10100000352E+00 0. -1.
       -3    1    3    3    0  502  0.40634438243E+03 -0.10677801078E+03 -0.45814849251E+03  0.62162476794E+03  0.10100000352E+00 0.  1.
</event>
<event>
 5   0  0.1060251E-05  0.1601903E+04  0.7818609E-02  0.8819380E-01
       -1   -1    0    0    0  501  0.00000000000E+00  0.00000000000E+00  0.93598396546E+03  0.93598396548E+03  0.50400001928E-02 0. -1.
        1   -1    0    0  501    0  0.00000000000E+00  0.00000000000E+00 -0.68539997563E+03  0.68539997564E+03  0.50400001928E-02 0.  1.
    10030    2    1    2    0    0  0.00000000000E+00  0.00000000000E+00  0.25058398984E+03  0.16213839411E+04  0.16019031021E+04 0.  0.
        1    1    3    3  502    0  0.76449941031E+03  0.73211651827E+02 -0.10485859161E+03  0.77512232492E+03  0.50400001928E-02 0.  1.
       -1    1    3    3    0  502 -0.76449941031E+03 -0.73211651827E+02  0.35544258144E+03  0.84626161620E+03  0.50400001928E-02 0. -1.
</event>
<event>
 5   0  0.1126485E-05  0.1598895E+04  0.7818609E-02  0.8821227E-01
       -1   -1    0    0    0  501  0.00000000000E+00  0.00000000000E+00  0.90983970904E+03  0.90983970906E+03  0.50400001928E-02 0.  1.
        1   -1    0    0  501    0  0.00000000000E+00  0.00000000000E+00 -0.70244912870E+03  0.70244912872E+03  0.50400001928E-02 0. -1.
    10030    2    1    2    0    0  0.00000000000E+00  0.00000000000E+00  0.20739058035E+03  0.16122888378E+04  0.15988947569E+04 0.  0.
        2    1    3    3  502    0 -0.35883636119E+03  0.55871579297E+02  0.82186294078E+03  0.89852315547E+03  0.25500000920E-02 0.  1.
       -2    1    3    3    0  502  0.35883636119E+03 -0.55871579297E+02 -0.61447236044E+03  0.71376568230E+03  0.25500000920E-02 0. -1.
</event>
<event>
 5   0  0.1057506E-05  0.1599483E+04  0.7818609E-02  0.8820866E-01
        1   -1    0    0  501    0  0.00000000000E+00  0.00000000000E+00  0.70479014355E+03  0.70479014357E+03  0.50400001928E-02 0. -1.
       -1   -1    0    0    0  501  0.00000000000E+00  0.00000000000E+00 -0.90748519735E+03  0.90748519736E+03  0.50400001928E-02 0.  1.
    10030    2    1    2    0    0  0.00000000000E+00  0.00000000000E+00 -0.20269505379E+03  0.16122753409E+04  0.15994831947E+04 0.  0.
        5    1    3    3  502    0  0.23034343121E+03 -0.38848538718E+03  0.56391989627E+03  0.72250033340E+03  0.46999998093E+01 0. -1.
       -5    1    3    3    0  502 -0.23034343121E+03  0.38848538718E+03 -0.76661495007E+03  0.88977500753E+03  0.46999998093E+01 0.  1.
</event>
<event>
 5   0  0.2046108E-05  0.1599966E+04  0.7818609E-02  0.8820569E-01
       -2   -1    0    0    0  501  0.00000000000E+00  0.00000000000E+00  0.64513863269E+03  0.64513863270E+03  0.25500000920E-02 0. -1.
        2   -1    0    0  501    0  0.00000000000E+00  0.00000000000E+00 -0.99199321015E+03  0.99199321015E+03  0.25500000920E-02 0.  1.
    10030    2    1    2    0    0  0.00000000000E+00  0.00000000000E+00 -0.34685457746E+03  0.16371318429E+04  0.15999664287E+04 0.  0.
        1    1    3    3  502    0 -0.36353449502E+03 -0.68666447502E+03  0.21544704637E+02  0.77725774660E+03  0.50400001928E-02 0. -1.
       -1    1    3    3    0  502  0.36353449502E+03  0.68666447502E+03 -0.36839928209E+03  0.85987409625E+03  0.50400001928E-02 0.  1.
</event>
<event>
 5   0  0.2125803E-05  0.1599769E+04  0.7818609E-02  0.8820690E-01
        2   -1    0    0  501    0  0.00000000000E+00  0.00000000000E+00  0.13249154543E+04  0.13249154543E+04  0.25500000920E-02 0. -1.
       -2   -1    0    0    0  501  0.00000000000E+00  0.00000000000E+00 -0.48290996733E+03  0.48290996733E+03  0.25500000920E-02 0.  1.
    10030    2    1    2    0    0  0.00000000000E+00  0.00000000000E+00  0.84200548700E+03  0.18078254217E+04  0.15997685817E+04 0.  0.
        3    1    3    3  502    0 -0.56835333777E+03  0.52998289435E+03  0.20686569522E+03  0.80417710171E+03  0.10100000352E+00 0.  1.
       -3    1    3    3    0  502  0.56835333777E+03 -0.52998289435E+03  0.63513979178E+03  0.10036483200E+04  0.10100000352E+00 0. -1.
</event>
<event>
 5   0  0.1090674E-05  0.1600626E+04  0.7818609E-02  0.8820164E-01
        1   -1    0    0  501    0  0.00000000000E+00  0.00000000000E+00  0.10977289605E+04  0.10977289605E+04  0.50400001928E-02 0. -1.
       -1   -1    0    0    0  501  0.00000000000E+00  0.00000000000E+00 -0.58347815848E+03  0.58347815850E+03  0.50400001928E-02 0.  1.
    10030    2    1    2    0    0  0.00000000000E+00  0.00000000000E+00  0.51425080203E+03  0.16812071190E+04  0.16006259681E+04 0.  0.
        4    1    3    3  502    0 -0.25475814666E+03  0.61994134215E+03 -0.20223664234E+03  0.70009303196E+03  0.12699999809E+01 0.  1.
       -4    1    3    3    0  502  0.25475814666E+03 -0.61994134215E+03  0.71648744437E+03  0.98111408706E+03  0.12699999809E+01 0. -1.
</event>
<event>
 5   0  0.1126485E-05  0.1598877E+04  0.7818609E-02  0.8821238E-01
       -1   -1    0    0    0  501  0.00000000000E+00  0.00000000000E+00  0.71365370151E+03  0.71365370153E+03  0.50400001928E-02 0.  1.
        1   -1    0    0  501    0  0.00000000000E+00  0.00000000000E+00 -0.89553469798E+03  0.89553469799E+03  0.50400001928E-02 0. -1.
    10030    2    1    2    0    0  0.00000000000E+00  0.00000000000E+00 -0.18188099647E+03  0.16091883995E+04  0.15988766708E+04 0.  0.
        2    1    3    3  502    0 -0.30692618601E+03  0.61786004964E+03  0.31557899633E+03  0.75864670798E+03  0.25500000920E-02 0.  1.
       -2    1    3    3    0  502  0.30692618601E+03 -0.61786004964E+03 -0.49745999280E+03  0.85054169154E+03  0.25500000920E-02 0. -1.
</event>
<event>
 5   0  0.1090674E-05  0.1600190E+04  0.7818609E-02  0.8820431E-01
        1   -1    0    0  501    0  0.00000000000E+00  0.00000000000E+00  0.68013849912E+03  0.68013849914E+03  0.50400001928E-02 0. -1.
       -1   -1    0    0    0  501  0.00000000000E+00  0.00000000000E+00 -0.94120874872E+03  0.94120874874E+03  0.50400001928E-02 0.  1.
    10030    2    1    2    0    0  0.00000000000E+00  0.00000000000E+00 -0.26107024960E+03  0.16213472479E+04  0.16001903709E+04 0.  0.
        4    1    3    3  502    0 -0.21276377231E+03  0.61357025904E+03  0.34299153020E+03  0.73442609450E+03  0.12699999809E+01 0. -1.
       -4    1    3    3    0  502  0.21276377231E+03 -0.61357025904E+03 -0.60406177981E+03  0.88692115338E+03  0.12699999809E+01 0.  1.
</event>
<event>
 5   0  0.1060251E-05  0.1599648E+04  0.7818609E-02  0.8820764E-01
       -1   -1    0    0    0  501  0.00000000000E+00  0.00000000000E+00  0.61879551327E+03  0.61879551329E+03  0.50400001928E-02 0.  1.
        1   -1    0    0  501    0  0.00000000000E+00  0.00000000000E+00 -0.10338127430E+04  0.10338127430E+04  0.50400001928E-02 0. -1.
    10030    2    1    2    0    0  0.00000000000E+00  0.00000000000E+00 -0.41501722971E+03  0.16526082563E+04  0.15996483200E+04 0.  0.
        1    1    3    3  502    0  0.65638482949E+03  0.27473119644E+03  0.16982369113E+03  0.73154518710E+03  0.50400001928E-02 0.  1.
       -1    1    3    3    0  502 -0.65638482949E+03 -0.27473119644E+03 -0.58484092084E+03  0.92106306917E+03  0.50400001928E-02 0. -1.
</event>
<event>
 5   0  0.7597000E-06  0.1600056E+04  0.7818609E-02  0.8820514E-01
       -3   -1    0    0    0  501  0.00000000000E+00  0.00000000000E+00  0.40457315956E+03  0.40457317216E+03  0.10100000352E+00 0. -1.
        3   -1    0    0  501    0  0.00000000000E+00  0.00000000000E+00 -0.15820241356E+04  0.15820241389E+04  0.10100000352E+00 0.  1.
    10030    2    1    2    0    0  0.00000000000E+00  0.00000000000E+00 -0.11774509761E+04  0.19865973110E+04  0.16000556475E+04 0.  0.
        3    1    3    3  502    0  0.72505648599E+03  0.80534280256E+01 -0.10084323623E+04  0.12420578107E+04  0.10100000352E+00 0.  1.
       -3    1    3    3    0  502 -0.72505648599E+03 -0.80534280256E+01 -0.16901861383E+03  0.74453950037E+03  0.10100000352E+00 0. -1.
</event>
<event>
 5   0  0.1060251E-05  0.1599685E+04  0.7818609E-02  0.8820742E-01
        1   -1    0    0  501    0  0.00000000000E+00  0.00000000000E+00  0.20363574536E+04  0.20363574536E+04  0.50400001928E-02 0. -1.
       -1   -1    0    0    0  501  0.00000000000E+00  0.00000000000E+00 -0.31416282671E+03  0.31416282675E+03  0.50400001928E-02 0.  1.
    10030    2    1    2    0    0  0.00000000000E+00  0.00000000000E+00  0.17221946269E+04  0.23505202804E+04  0.15996847363E+04 0.  0.
        1    1    3    3  502    0  0.44808239121E+03  0.31615062969E+03  0.17166395796E+04  0.18021044632E+04  0.50400001928E-02 0. -1.
       -1    1    3    3    0  502 -0.44808239121E+03 -0.31615062969E+03  0.55550473113E+01  0.54841581719E+03  0.50400001928E-02 0.  1.
</event>
<event>
 5   0  0.1990948E-05  0.1599402E+04  0.7818609E-02  0.8820915E-01
       -2   -1    0    0    0  501  0.00000000000E+00  0.00000000000E+00  0.14337199406E+04  0.14337199406E+04  0.25500000920E-02 0.  1.
        2   -1    0    0  501    0  0.00000000000E+00  0.00000000000E+00 -0.44605773695E+03  0.44605773696E+03  0.25500000920E-02 0. -1.
    10030    2    1    2    0    0  0.00000000000E+00  0.00000000000E+00  0.98766220363E+03  0.18797776775E+04  0.15994022285E+04 0.  0.
        4    1    3    3  502    0  0.58010320299E+03 -0.54446771178E+03  0.39867210713E+03  0.88989093556E+03  0.12699999809E+01 0. -1.
       -4    1    3    3    0  502 -0.58010320299E+03  0.54446771178E+03  0.58899009649E+03  0.98988674198E+03  0.12699999809E+01 0.  1.
</event>
<event>
 5   0  0.1990948E-05  0.1598927E+04  0.7818609E-02  0.8821207E-01
       -2   -1    0    0    0  501  0.00000000000E+00  0.00000000000E+00  0.45611777569E+03  0.45611777569E+03  0.25500000920E-02 0.  1.
        2   -1    0    0  501    0  0.00000000000E+00  0.00000000000E+00 -0.14012655485E+04  0.14012655485E+04  0.25500000920E-02 0. -1.
    10030    2    1    2    0    0  0.00000000000E+00  0.00000000000E+00 -0.94514777280E+03  0.18573833242E+04  0.15989272968E+04 0.  0.
        4    1    3    3  502    0  0.76021061074E+03 -0.58889722568E+02 -0.75173673320E+03  0.10707464224E+04  0.12699999809E+01 0. -1.
       -4    1    3    3    0  502 -0.76021061074E+03  0.58889722568E+02 -0.19341103959E+03  0.78663690178E+03  0.12699999809E+01 0.  1.
</event>
<event>
 5   0  0.1060251E-05  0.1602897E+04  0.7818609E-02  0.8818770E-01
       -1   -1    0    0    0  501  0.00000000000E+00  0.00000000000E+00  0.74360658008E+03  0.74360658009E+03  0.50400001928E-02 0.  1.
        1   -1    0    0  501    0  0.00000000000E+00  0.00000000000E+00 -0.86378928241E+03  0.86378928243E+03  0.50400001928E-02 0. -1.
    10030    2    1    2    0    0  0.00000000000E+00  0.00000000000E+00 -0.12018270234E+03  0.16073958625E+04  0.16028966208E+04 0.  0.
        1    1    3    3  502    0 -0.76616078901E+03 -0.67929184376E+02  0.16571321945E+03  0.78681484469E+03  0.50400001928E-02 0.  1.
       -1    1    3    3    0  502  0.76616078901E+03  0.67929184376E+02 -0.28589592179E+03  0.82058101783E+03  0.50400001928E-02 0. -1.
</event>
<event>
 5   0  0.1090674E-05  0.1601171E+04  0.7818609E-02  0.8819829E-01
       -1   -1    0    0    0  501  0.00000000000E+00  0.00000000000E+00  0.57211634059E+03  0.57211634061E+03  0.50400001928E-02 0.  1.
        1   -1    0    0  501    0  0.00000000000E+00  0.00000000000E+00 -0.11202914991E+04  0.11202914991E+04  0.50400001928E-02 0. -1.
    10030    2    1    2    0    0  0.00000000000E+00  0.00000000000E+00 -0.54817515854E+03  0.16924078397E+04  0.16011709127E+04 0.  0.
        4    1    3    3  502    0 -0.44807250017E+03  0.35238012703E+03 -0.86825285025E+03  0.10386555465E+04  0.12699999809E+01 0. -1.
       -4    1    3    3    0  502  0.44807250017E+03 -0.35238012703E+03  0.32007769171E+03  0.65375229328E+03  0.12699999809E+01 0.  1.
</event>
<event>
 5   0  0.1990948E-05  0.1600208E+04  0.7818609E-02  0.8820420E-01
        2   -1    0    0  501    0  0.00000000000E+00  0.00000000000E+00  0.11454435117E+04  0.11454435117E+04  0.25500000920E-02 0. -1.
       -2   -1    0    0    0  501  0.00000000000E+00  0.00000000000E+00 -0.55888074456E+03  0.55888074456E+03  0.25500000920E-02 0.  1.
    10030    2    1    2    0    0  0.00000000000E+00  0.00000000000E+00  0.58656276713E+03  0.17043242563E+04  0.16002078898E+04 0.  0.
        4    1    3    3  502    0  0.52365117509E+03  0.77754779089E+02 -0.34567583288E+03  0.63225766360E+03  0.12699999809E+01 0.  1.
       -4    1    3    3    0  502 -0.52365117509E+03 -0.77754779089E+02  0.93223860001E+03  0.10720665927E+04  0.12699999809E+01 0. -1.
</event>
<event>
 5   0  0.1990948E-05  0.1599198E+04  0.7818609E-02  0.8821041E-01
        2   -1    0    0  501    0  0.00000000000E+00  0.00000000000E+00  0.86470724881E+03  0.86470724881E+03  0.25500000920E-02 0. -1.
       -2   -1    0    0    0  501  0.00000000000E+00  0.00000000000E+00 -0.73939293936E+03  0.73939293936E+03  0.25500000920E-02 0.  1.
    10030    2    1    2    0    0  0.00000000000E+00  0.00000000000E+00  0.12531430945E+03  0.16041001882E+04  0.15991978419E+04 0.  0.
        4    1    3    3  502    0 -0.22096004221E+03  0.41709456191E+02  0.83233840971E+03  0.86217855469E+03  0.12699999809E+01 0. -1.
       -4    1    3    3    0  502  0.22096004221E+03 -0.41709456191E+02 -0.70702410026E+03  0.74192163348E+03  0.12699999809E+01 0.  1.
</event>
<event>
 5   0  0.1994525E-05  0.1600729E+04  0.7818609E-02  0.8820100E-01
       -2   -1    0    0    0  501  0.00000000000E+00  0.00000000000E+00  0.44257854743E+03  0.44257854744E+03  0.25500000920E-02 0.  1.
        2   -1    0    0  501    0  0.00000000000E+00  0.00000000000E+00 -0.14473898939E+04  0.14473898939E+04  0.25500000920E-02 0. -1.
    10030    2    1    2    0    0  0.00000000000E+00  0.00000000000E+00 -0.10048113464E+04  0.18899684413E+04  0.16007294797E+04 0.  0.
        5    1    3    3  502    0  0.41490431880E+03 -0.13895202549E+03  0.28884152028E+03  0.52431362083E+03  0.46999998093E+01 0.  1.
       -5    1    3    3    0  502 -0.41490431880E+03  0.13895202549E+03 -0.12936528667E+04  0.13656548205E+04  0.46999998093E+01 0. -1.
</event>
<event>
 5   0  0.2046108E-05  0.1599710E+04  0.7818609E-02  0.8820726E-01
       -2   -1    0    0    0  501  0.00000000000E+00  0.00000000000E+00  0.10798079149E+04  0.10798079149E+04  0.25500000920E-02 0. -1.
        2   -1    0    0  501    0  0.00000000000E+00  0.00000000000E+00 -0.59248320280E+03  0.59248320280E+03  0.25500000920E-02 0.  1.
    10030    2    1    2    0    0  0.00000000000E+00  0.00000000000E+00  0.48732471205E+03  0.16722911177E+04  0.15997100385E+04 0.  0.
        1    1    3    3  502    0  0.38513937443E+02 -0.46415652137E+03 -0.43610517664E+03  0.63805354385E+03  0.50400001928E-02 0.  1.
       -1    1    3    3    0  502 -0.38513937443E+02  0.46415652137E+03  0.92342988869E+03  0.10342375738E+04  0.50400001928E-02 0. -1.
</event>
<event>
 5   0  0.1057506E-05  0.1599875E+04  0.7818609E-02  0.8820625E-01
       -1   -1    0    0    0  501  0.00000000000E+00  0.00000000000E+00  0.48205405114E+03  0.48205405116E+03  0.50400001928E-02 0. -1.
        1   -1    0    0  501    0  0.00000000000E+00  0.00000000000E+00 -0.13274452747E+04  0.13274452747E+04  0.50400001928E-02 0.  1.
    10030    2    1    2    0    0  0.00000000000E+00  0.00000000000E+00 -0.84539122353E+03  0.18094993258E+04  0.15998754606E+04 0.  0.
        5    1    3    3  502    0  0.64166407779E+03 -0.44981807192E+03 -0.24099370502E+03  0.81985922109E+03  0.46999998093E+01 0. -1.
       -5    1    3    3    0  502 -0.64166407779E+03  0.44981807192E+03 -0.60439751851E+03  0.98964010475E+03  0.46999998093E+01 0.  1.
</event>
<event>
 5   0  0.1994525E-05  0.1599797E+04  0.7818609E-02  0.8820673E-01
        2   -1    0    0  501    0  0.00000000000E+00  0.00000000000E+00  0.83337506687E+03  0.83337506687E+03  0.25500000920E-02 0. -1.
       -2   -1    0    0    0  501  0.00000000000E+00  0.00000000000E+00 -0.76776701629E+03  0.76776701630E+03  0.25500000920E-02 0.  1.
    10030    2    1    2    0    0  0.00000000000E+00  0.00000000000E+00  0.65608050574E+02  0.16011420832E+04  0.15997973479E+04 0.  0.
        5    1    3    3  502    0 -0.10751375673E+03  0.44892016218E+03  0.68659677920E+03  0.82736071160E+03  0.46999998093E+01 0. -1.
       -5    1    3    3    0  502  0.10751375673E+03 -0.44892016218E+03 -0.62098872863E+03  0.77378137156E+03  0.46999998093E+01 0.  1.
</event>
<event>
 5   0  0.1126485E-05  0.1598646E+04  0.7818609E-02  0.8821380E-01
        1   -1    0    0  501    0  0.00000000000E+00  0.00000000000E+00  0.81284975711E+03  0.81284975713E+03  0.50400001928E-02 0.  1.
       -1   -1    0    0    0  501  0.00000000000E+00  0.00000000000E+00 -0.78602125931E+03  0.78602125932E+03  0.50400001928E-02 0. -1.
    10030    2    1    2    0    0  0.00000000000E+00  0.00000000000E+00  0.26828497805E+02  0.15988710165E+04  0.15986459142E+04 0.  0.
        2    1    3    3  502    0 -0.68903640755E+02 -0.58613089488E+03  0.55258203462E+03  0.80848255555E+03  0.25500000920E-02 0.  1.
       -2    1    3    3    0  502  0.68903640755E+02  0.58613089488E+03 -0.52575353682E+03  0.79038846090E+03  0.25500000920E-02 0. -1.
</event>
<event>
 5   0  0.1994525E-05  0.1600119E+04  0.7818609E-02  0.8820475E-01
        2   -1    0    0  501    0  0.00000000000E+00  0.00000000000E+00  0.81098519875E+03  0.81098519875E+03  0.25500000920E-02 0. -1.
       -2   -1    0    0    0  501  0.00000000000E+00  0.00000000000E+00 -0.78928094514E+03  0.78928094514E+03  0.25500000920E-02 0.  1.
    10030    2    1    2    0    0  0.00000000000E+00  0.00000000000E+00  0.21704253607E+02  0.16002661439E+04  0.16001189508E+04 0.  0.
        5    1    3    3  502    0  0.11233420269E+03 -0.24690684890E+03  0.76357739911E+03  0.81034221139E+03  0.46999998093E+01 0. -1.
       -5    1    3    3    0  502 -0.11233420269E+03  0.24690684890E+03 -0.74187314551E+03  0.78992393251E+03  0.46999998093E+01 0.  1.
</event>
<event>
 5   0  0.1081831E-05  0.1604216E+04  0.7818609E-02  0.8817962E-01
        1   -1    0    0  501    0  0.00000000000E+00  0.00000000000E+00  0.45719468509E+03  0.45719468512E+03  0.50400001928E-02 0. -1.
       -1   -1    0    0    0  501  0.00000000000E+00  0.00000000000E+00 -0.14072273608E+04  0.14072273608E+04  0.50400001928E-02 0.  1.
    10030    2    1    2    0    0  0.00000000000E+00  0.00000000000E+00 -0.95003267571E+03  0.18644220459E+04  0.16042155343E+04 0.  0.
        3    1    3    3  502    0  0.39599671513E+03  0.46557897943E+03 -0.10786899934E+04  0.12398182515E+04  0.10100000352E+00 0.  1.
       -3    1    3    3    0  502 -0.39599671513E+03 -0.46557897943E+03  0.12865731773E+03  0.62460379448E+03  0.10100000352E+00 0. -1.
</event>
<event>
 5   0  0.1090674E-05  0.1600057E+04  0.7818609E-02  0.8820513E-01
        1   -1    0    0  501    0  0.00000000000E+00  0.00000000000E+00  0.13723583332E+04  0.13723583332E+04  0.50400001928E-02 0. -1.
       -1   -1    0    0    0  501  0.00000000000E+00  0.00000000000E+00 -0.46638368863E+03  0.46638368865E+03  0.50400001928E-02 0.  1.
    10030    2    1    2    0    0  0.00000000000E+00  0.00000000000E+00  0.90597464461E+03  0.18387420219E+04  0.16000569260E+04 0.  0.
        4    1    3    3  502    0 -0.51862607997E+02 -0.63692106210E+03 -0.10015264224E+03  0.64683099346E+03  0.12699999809E+01 0.  1.
       -4    1    3    3    0  502  0.51862607997E+02  0.63692106210E+03  0.10061272869E+04  0.11919110284E+04  0.12699999809E+01 0. -1.
</event>
<event>
 5   0  0.1081831E-05  0.1601437E+04  0.7818609E-02  0.8819666E-01
        1   -1    0    0  501    0  0.00000000000E+00  0.00000000000E+00  0.12922395828E+04  0.12922395828E+04  0.50400001928E-02 0.  1.
       -1   -1    0    0    0  501  0.00000000000E+00  0.00000000000E+00 -0.49615393076E+03  0.49615393078E+03  0.50400001928E-02 0. -1.
    10030    2    1    2    0    0  0.00000000000E+00  0.00000000000E+00  0.79608565202E+03  0.17883935136E+04  0.16014365407E+04 0.  0.
        3    1    3    3  502    0  0.28421289653E+03  0.55323989559E+03  0.96119420753E+03  0.11448780142E+04  0.10100000352E+00 0.  1.
       -3    1    3    3    0  502 -0.28421289653E+03 -0.55323989559E+03 -0.16510855551E+03  0.64351549937E+03  0.10100000352E+00 0. -1.
</event>
<event>
 5   0  0.1081831E-05  0.1599654E+04  0.7818609E-02  0.8820760E-01
       -1   -1    0    0    0  501  0.00000000000E+00  0.00000000000E+00  0.10092244495E+04  0.10092244495E+04  0.50400001928E-02 0. -1.
        1   -1    0    0  501    0  0.00000000000E+00  0.00000000000E+00 -0.63387641630E+03  0.63387641632E+03  0.50400001928E-02 0.  1.
    10030    2    1    2    0    0  0.00000000000E+00  0.00000000000E+00  0.37534803318E+03  0.16431008658E+04  0.15996544343E+04 0.  0.
        3    1    3    3  502    0  0.56158497779E+03 -0.29836066627E+03 -0.31060630735E+03  0.70772386057E+03  0.10100000352E+00 0.  1.
       -3    1    3    3    0  502 -0.56158497779E+03  0.29836066627E+03  0.68595434052E+03  0.93537700524E+03  0.10100000352E+00 0. -1.
</event>
<event>
 5   0  0.2147844E-05  0.1600718E+04  0.7818609E-02  0.8820107E-01
       -2   -1    0    0    0  501  0.00000000000E+00  0.00000000000E+00  0.62860399446E+03  0.62860399447E+03  0.25500000920E-02 0.  1.
        2   -1    0    0  501    0  0.00000000000E+00  0.00000000000E+00 -0.10190432700E+04  0.10190432700E+04  0.25500000920E-02 0. -1.
    10030    2    1    2    0    0  0.00000000000E+00  0.00000000000E+00 -0.39043927557E+03  0.16476472645E+04  0.16007181764E+04 0.  0.
        2    1    3    3  502    0 -0.28346145328E+03 -0.72195126236E+03  0.80820363661E+01  0.77564769066E+03  0.25500000920E-02 0.  1.
       -2    1    3    3    0  502  0.28346145328E+03  0.72195126236E+03 -0.39852131194E+03  0.87199957385E+03  0.25500000920E-02 0. -1.
</event>
<event>
 5   0  0.1057506E-05  0.1600004E+04  0.7818609E-02  0.8820545E-01
       -1   -1    0    0    0  501  0.00000000000E+00  0.00000000000E+00  0.65906396126E+03  0.65906396127E+03  0.50400001928E-02 0. -1.
        1   -1    0    0  501    0  0.00000000000E+00  0.00000000000E+00 -0.97107934016E+03  0.97107934017E+03  0.50400001928E-02 0.  1.
    10030    2    1    2    0    0  0.00000000000E+00  0.00000000000E+00 -0.31201537890E+03  0.16301433014E+04  0.16000042458E+04 0.  0.
        5    1    3    3  502    0  0.27681773887E+03  0.11952994128E+03  0.59894000095E+03  0.67057190677E+03  0.46999998093E+01 0. -1.
       -5    1    3    3    0  502 -0.27681773887E+03 -0.11952994128E+03 -0.91095537985E+03  0.95957139468E+03  0.46999998093E+01 0.  1.
</event>
<event>
 5   0  0.1126485E-05  0.1601988E+04  0.7818609E-02  0.8819328E-01
       -1   -1    0    0    0  501  0.00000000000E+00  0.00000000000E+00  0.13774358095E+04  0.13774358095E+04  0.50400001928E-02 0. -1.
        1   -1    0    0  501    0  0.00000000000E+00  0.00000000000E+00 -0.46578689791E+03  0.46578689793E+03  0.50400001928E-02 0.  1.
    10030    2    1    2    0    0  0.00000000000E+00  0.00000000000E+00  0.91164891157E+03  0.18432227074E+04  0.16019882057E+04 0.  0.
        2    1    3    3  502    0 -0.64084768280E+03 -0.44042991469E+03  0.67692622568E+03  0.10309672048E+04  0.25500000920E-02 0.  1.
       -2    1    3    3    0  502  0.64084768280E+03  0.44042991469E+03  0.23472268590E+03  0.81225550265E+03  0.25500000920E-02 0. -1.
</event>
<event>
 5   0  0.1081831E-05  0.1599918E+04  0.7818609E-02  0.8820598E-01
        1   -1    0    0  501    0  0.00000000000E+00  0.00000000000E+00  0.10374417961E+04  0.10374417961E+04  0.50400001928E-02 0.  1.
       -1   -1    0    0    0  501  0.00000000000E+00  0.00000000000E+00 -0.61683919300E+03  0.61683919302E+03  0.50400001928E-02 0. -1.
    10030    2    1    2    0    0  0.00000000000E+00  0.00000000000E+00  0.42060260313E+03  0.16542809892E+04  0.15999184483E+04 0.  0.
        3    1    3    3  502    0  0.60250148285E+03 -0.49796553790E+03  0.34351618677E+02  0.78240511097E+03  0.10100000352E+00 0. -1.
       -3    1    3    3    0  502 -0.60250148285E+03  0.49796553790E+03  0.38625098445E+03  0.87187587818E+03  0.10100000352E+00 0.  1.
</event>
<event>
 5   0  0.2046108E-05  0.1600502E+04  0.7818609E-02  0.8820240E-01
       -2   -1    0    0    0  501  0.00000000000E+00  0.00000000000E+00  0.86684494594E+03  0.86684494594E+03  0.25500000920E-02 0. -1.
        2   -1    0    0  501    0  0.00000000000E+00  0.00000000000E+00 -0.73877261983E+03  0.73877261983E+03  0.25500000920E-02 0.  1.
    10030    2    1    2    0    0  0.00000000000E+00  0.00000000000E+00  0.12807232611E+03  0.16056175658E+04  0.16005015610E+04 0.  0.
        1    1    3    3  502    0 -0.40589285842E+03 -0.64613079821E+03  0.30598605185E+03  0.82210795208E+03  0.50400001928E-02 0. -1.
       -1    1    3    3    0  502  0.40589285842E+03  0.64613079821E+03 -0.17791372574E+03  0.78350961370E+03  0.50400001928E-02 0.  1.
</event>
<event>
 5   0  0.2147844E-05  0.1603257E+04  0.7818609E-02  0.8818550E-01
        2   -1    0    0  501    0  0.00000000000E+00  0.00000000000E+00  0.10161249203E+04  0.10161249203E+04  0.25500000920E-02 0.  1.
       -2   -1    0    0    0  501  0.00000000000E+00  0.00000000000E+00 -0.63241051374E+03  0.63241051374E+03  0.25500000920E-02 0. -1.
    10030    2    1    2    0    0  0.00000000000E+00  0.00000000000E+00  0.38371440660E+03  0.16485354341E+04  0.16032567890E+04 0.  0.
        2    1    3    3  502    0 -0.39483945466E+02 -0.76744664918E+03  0.42650082894E+03  0.87888355223E+03  0.25500000920E-02 0. -1.
       -2    1    3    3    0  502  0.39483945466E+02  0.76744664918E+03 -0.42786422338E+02  0.76965188185E+03  0.25500000920E-02 0.  1.
</event>
<event>
 5   0  0.1081831E-05  0.1599534E+04  0.7818609E-02  0.8820834E-01
       -1   -1    0    0    0  501  0.00000000000E+00  0.00000000000E+00  0.54551899555E+03  0.54551899557E+03  0.50400001928E-02 0.  1.
        1   -1    0    0  501    0  0.00000000000E+00  0.00000000000E+00 -0.11725110898E+04  0.11725110898E+04  0.50400001928E-02 0. -1.
    10030    2    1    2    0    0  0.00000000000E+00  0.00000000000E+00 -0.62699209426E+03  0.17180300854E+04  0.15995337721E+04 0.  0.
        3    1    3    3  502    0 -0.76619297604E+03 -0.41182591180E+02 -0.71221241607E+02  0.77059727342E+03  0.10100000352E+00 0.  1.
       -3    1    3    3    0  502  0.76619297604E+03  0.41182591180E+02 -0.55577085265E+03  0.94743281197E+03  0.10100000352E+00 0. -1.
</event>
<event>
 5   0  0.2046108E-05  0.1600798E+04  0.7818609E-02  0.8820058E-01
        2   -1    0    0  501    0  0.00000000000E+00  0.00000000000E+00  0.91992090521E+03  0.91992090522E+03  0.25500000920E-02 0. -1.
       -2   -1    0    0    0  501  0.00000000000E+00  0.00000000000E+00 -0.69640634211E+03  0.69640634212E+03  0.25500000920E-02 0.  1.
    10030    2    1    2    0    0  0.00000000000E+00  0.00000000000E+00  0.22351456310E+03  0.16163272473E+04  0.16007982417E+04 0.  0.
        1    1    3    3  502    0  0.22220924413E+03 -0.29347796408E+03 -0.60586406140E+03  0.70892702340E+03  0.50400001928E-02 0.  1.
       -1    1    3    3    0  502 -0.22220924413E+03  0.29347796408E+03  0.82937862451E+03  0.90740022393E+03  0.50400001928E-02 0. -1.
</event>
<event>
 5   0  0.1060251E-05  0.1604737E+04  0.7818609E-02  0.8817643E-01
       -1   -1    0    0    0  501  0.00000000000E+00  0.00000000000E+00  0.13332135870E+04  0.13332135870E+04  0.50400001928E-02 0. -1.
        1   -1    0    0  501    0  0.00000000000E+00  0.00000000000E+00 -0.48288987571E+03  0.48288987573E+03  0.50400001928E-02 0.  1.
    10030    2    1    2    0    0  0.00000000000E+00  0.00000000000E+00  0.85032371133E+03  0.18161034628E+04  0.16047371665E+04 0.  0.
        1    1    3    3  502    0  0.71043365557E+03  0.24275134649E+03  0.74556114879E+03  0.10580669269E+04  0.50400001928E-02 0. -1.
       -1    1    3    3    0  502 -0.71043365557E+03 -0.24275134649E+03  0.10476256253E+03  0.75803653587E+03  0.50400001928E-02 0.  1.
</event>
<event>
 5   0  0.1081831E-05  0.1600316E+04  0.7818609E-02  0.8820354E-01
       -1   -1    0    0    0  501  0.00000000000E+00  0.00000000000E+00  0.15970601460E+04  0.15970601460E+04  0.50400001928E-02 0. -1.
        1   -1    0    0  501    0  0.00000000000E+00  0.00000000000E+00 -0.40089465070E+03  0.40089465073E+03  0.50400001928E-02 0.  1.
    10030    2    1    2    0    0  0.00000000000E+00  0.00000000000E+00  0.11961654953E+04  0.19979547968E+04  0.16003160556E+04 0.  0.
        3    1    3    3  502    0  0.45892412554E+02  0.75015915459E+03  0.94092044840E+03  0.12042326068E+04  0.10100000352E+00 0. -1.
       -3    1    3    3    0  502 -0.45892412554E+02 -0.75015915459E+03  0.25524504694E+03  0.79372219002E+03  0.10100000352E+00 0.  1.
</event>
<event>
 5   0  0.1990948E-05  0.1599289E+04  0.7818609E-02  0.8820985E-01
        2   -1    0    0  501    0  0.00000000000E+00  0.00000000000E+00  0.18643006225E+04  0.18643006225E+04  0.25500000920E-02 0. -1.
       -2   -1    0    0    0  501  0.00000000000E+00  0.00000000000E+00 -0.34298742039E+03  0.34298742040E+03  0.25500000920E-02 0.  1.
    10030    2    1    2    0    0  0.00000000000E+00  0.00000000000E+00  0.15213132022E+04  0.22072880429E+04  0.15992894189E+04 0.  0.
        4    1    3    3  502    0  0.57653459997E+03 -0.51544604244E+03  0.10413207444E+04  0.12970841427E+04  0.12699999809E+01 0.  1.
       -4    1    3    3    0  502 -0.57653459997E+03  0.51544604244E+03  0.47999245779E+03  0.91020390027E+03  0.12699999809E+01 0. -1.
</event>
<event>
 5   0  0.7597000E-06  0.1599352E+04  0.7818609E-02  0.8820946E-01
        4   -1    0    0  501    0  0.00000000000E+00  0.00000000000E+00  0.10050733498E+04  0.10050741522E+04  0.12699999809E+01 0. -1.
       -4   -1    0    0    0  501  0.00000000000E+00  0.00000000000E+00 -0.63625175231E+03  0.63625301981E+03  0.12699999809E+01 0.  1.
    10030    2    1    2    0    0  0.00000000000E+00  0.00000000000E+00  0.36882159752E+03  0.16413271720E+04  0.15993515920E+04 0.  0.
        4    1    3    3  502    0 -0.32886320613E+03  0.60320299532E+03  0.60438835380E+03  0.91503647852E+03  0.12699999809E+01 0. -1.
       -4    1    3    3    0  502  0.32886320613E+03 -0.60320299532E+03 -0.23556675628E+03  0.72629069351E+03  0.12699999809E+01 0.  1.
</event>
<event>
 5   0  0.7597000E-06  0.1600157E+04  0.7818609E-02  0.8820452E-01
        3   -1    0    0  501    0  0.00000000000E+00  0.00000000000E+00  0.48536963439E+03  0.48536964489E+03  0.10100000352E+00 0.  1.
       -3   -1    0    0    0  501  0.00000000000E+00  0.00000000000E+00 -0.13188411440E+04  0.13188411479E+04  0.10100000352E+00 0. -1.
    10030    2    1    2    0    0  0.00000000000E+00  0.00000000000E+00 -0.83347150963E+03  0.18042107928E+04  0.16001568134E+04 0.  0.
        5    1    3    3  502    0  0.42623178331E+03 -0.64736328231E+03 -0.64040202241E+03  0.10054300536E+04  0.46999998093E+01 0. -1.
       -5    1    3    3    0  502 -0.42623178331E+03  0.64736328231E+03 -0.19306948721E+03  0.79878073917E+03  0.46999998093E+01 0.  1.
</event>
<event>
 5   0  0.2046108E-05  0.1600184E+04  0.7818609E-02  0.8820435E-01
       -2   -1    0    0    0  501  0.00000000000E+00  0.00000000000E+00  0.72164959548E+03  0.72164959548E+03  0.25500000920E-02 0. -1.
        2   -1    0    0  501    0  0.00000000000E+00  0.00000000000E+00 -0.88706108932E+03  0.88706108933E+03  0.25500000920E-02 0.  1.
    10030    2    1    2    0    0  0.00000000000E+00  0.00000000000E+00 -0.16541149385E+03  0.16087106848E+04  0.16001840848E+04 0.  0.
        1    1    3    3  502    0 -0.72696633520E+02  0.36642688597E+03  0.62859086251E+03  0.73121811776E+03  0.50400001928E-02 0. -1.
       -1    1    3    3    0  502  0.72696633520E+02 -0.36642688597E+03 -0.79400235636E+03  0.87749256704E+03  0.50400001928E-02 0.  1.
</event>
<event>
 5   0  0.1994525E-05  0.1599846E+04  0.7818609E-02  0.8820643E-01
       -2   -1    0    0    0  501  0.00000000000E+00  0.00000000000E+00  0.11806974372E+04  0.11806974372E+04  0.25500000920E-02 0.  1.
        2   -1    0    0  501    0  0.00000000000E+00  0.00000000000E+00 -0.54194827644E+03  0.54194827645E+03  0.25500000920E-02 0. -1.
    10030    2    1    2    0    0  0.00000000000E+00  0.00000000000E+00  0.63874916077E+03  0.17226457137E+04  0.15998461690E+04 0.  0.
        5    1    3    3  502    0 -0.57772414291E+03  0.54252249971E+03  0.43613697542E+03  0.90461781948E+03  0.46999998093E+01 0. -1.
       -5    1    3    3    0  502  0.57772414291E+03 -0.54252249971E+03  0.20261218535E+03  0.81802789417E+03  0.46999998093E+01 0.  1.
</event>
<event>
 5   0  0.1990948E-05  0.1600138E+04  0.7818609E-02  0.8820463E-01
       -2   -1    0    0    0  501  0.00000000000E+00  0.00000000000E+00  0.15985827762E+04  0.15985827762E+04  0.25500000920E-02 0. -1.
        2   -1    0    0  501    0  0.00000000000E+00  0.00000000000E+00 -0.40042378856E+03  0.40042378856E+03  0.25500000920E-02 0.  1.
    10030    2    1    2    0    0  0.00000000000E+00  0.00000000000E+00  0.11981589876E+04  0.19990065647E+04  0.16001382085E+04 0.  0.
        4    1    3    3  502    0  0.36370869060E+03 -0.71190249780E+03  0.55918526139E+03  0.97559158845E+03  0.12699999809E+01 0. -1.
       -4    1    3    3    0  502 -0.36370869060E+03  0.71190249780E+03  0.63897372623E+03  0.10234149763E+04  0.12699999809E+01 0.  1.
</event>
<event>
 5   0  0.1081831E-05  0.1599418E+04  0.7818609E-02  0.8820905E-01
        1   -1    0    0  501    0  0.00000000000E+00  0.00000000000E+00  0.20003656754E+04  0.20003656754E+04  0.50400001928E-02 0.  1.
       -1   -1    0    0    0  501  0.00000000000E+00  0.00000000000E+00 -0.31970891017E+03  0.31970891021E+03  0.50400001928E-02 0. -1.
    10030    2    1    2    0    0  0.00000000000E+00  0.00000000000E+00  0.16806567652E+04  0.23200745856E+04  0.15994183069E+04 0.  0.
        3    1    3    3  502    0 -0.65985436066E+03 -0.11294217682E+03  0.14748960727E+04  0.16197166876E+04  0.10100000352E+00 0. -1.
       -3    1    3    3    0  502  0.65985436066E+03  0.11294217682E+03  0.20576069256E+03  0.70035789807E+03  0.10100000352E+00 0.  1.
</event>
<event>
 5   0  0.1081831E-05  0.1598841E+04  0.7818609E-02  0.8821260E-01
       -1   -1    0    0    0  501  0.00000000000E+00  0.00000000000E+00  0.47939580948E+03  0.47939580951E+03  0.50400001928E-02 0. -1.
        1   -1    0    0  501    0  0.00000000000E+00  0.00000000000E+00 -0.13330804338E+04  0.13330804338E+04  0.50400001928E-02 0.  1.
    10030    2    1    2    0    0  0.00000000000E+00  0.00000000000E+00 -0.85368462428E+03  0.18124762433E+04  0.15988410474E+04 0.  0.
        3    1    3    3  502    0 -0.63071418157E+03  0.48132243231E+03 -0.31576212709E+03  0.85391884497E+03  0.10100000352E+00 0. -1.
       -3    1    3    3    0  502  0.63071418157E+03 -0.48132243231E+03 -0.53792249720E+03  0.95855739832E+03  0.10100000352E+00 0.  1.
</event>
<event>
 5   0  0.2125803E-05  0.1599925E+04  0.7818609E-02  0.8820594E-01
       -2   -1    0    0    0  501  0.00000000000E+00  0.00000000000E+00  0.40623106748E+03  0.40623106749E+03  0.25500000920E-02 0.  1.
        2   -1    0    0  501    0  0.00000000000E+00  0.00000000000E+00 -0.15753110779E+04  0.15753110779E+04  0.25500000920E-02 0. -1.
    10030    2    1    2    0    0  0.00000000000E+00  0.00000000000E+00 -0.11690800104E+04  0.19815421454E+04  0.15999253742E+04 0.  0.
        3    1    3    3  502    0 -0.20597740641E+03 -0.61988338253E+03 -0.12592134244E+02  0.65333044620E+03  0.10100000352E+00 0.  1.
       -3    1    3    3    0  502  0.20597740641E+03  0.61988338253E+03 -0.11564878761E+04  0.13282116991E+04  0.10100000352E+00 0. -1.
</event>
<event>
 5   0  0.1990948E-05  0.1600756E+04  0.7818609E-02  0.8820084E-01
       -2   -1    0    0    0  501  0.00000000000E+00  0.00000000000E+00  0.48931919854E+03  0.48931919854E+03  0.25500000920E-02 0.  1.
        2   -1    0    0  501    0  0.00000000000E+00  0.00000000000E+00 -0.13091757805E+04  0.13091757805E+04  0.25500000920E-02 0. -1.
    10030    2    1    2    0    0  0.00000000000E+00  0.00000000000E+00 -0.81985658197E+03  0.17984949791E+04  0.16007558760E+04 0.  0.
        4    1    3    3  502    0  0.11921599998E+03 -0.20828111038E+03  0.44794280562E+03  0.50818091818E+03  0.12699999809E+01 0.  1.
       -4    1    3    3    0  502 -0.11921599998E+03  0.20828111038E+03 -0.12677993876E+04  0.12903140609E+04  0.12699999809E+01 0. -1.
</event>
<event>
 5   0  0.1126485E-05  0.1599944E+04  0.7818609E-02  0.8820582E-01
        1   -1    0    0  501    0  0.00000000000E+00  0.00000000000E+00  0.67105693879E+03  0.67105693881E+03  0.50400001928E-02 0. -1.
       -1   -1    0    0    0  501  0.00000000000E+00  0.00000000000E+00 -0.95365246152E+03  0.95365246154E+03  0.50400001928E-02 0.  1.
    10030    2    1    2    0    0  0.00000000000E+00  0.00000000000E+00 -0.28259552273E+03  0.16247094003E+04  0.15999438759E+04 0.  0.
        2    1    3    3  502    0  0.11915922132E+03 -0.72927605486E+03 -0.45249298097E+03  0.86648276501E+03  0.25500000920E-02 0.  1.
       -2    1    3    3    0  502 -0.11915922132E+03  0.72927605486E+03  0.16989745824E+03  0.75822663534E+03  0.25500000920E-02 0. -1.
</event>
<event>
 5   0  0.1060251E-05  0.1596924E+04  0.7818609E-02  0.8822440E-01
        1   -1    0    0  501    0  0.00000000000E+00  0.00000000000E+00  0.18044411057E+04  0.18044411057E+04  0.50400001928E-02 0.  1.
       -1   -1    0    0    0  501  0.00000000000E+00  0.00000000000E+00 -0.35331810785E+03  0.35331810789E+03  0.50400001928E-02 0. -1.
    10030    2    1    2    0    0  0.00000000000E+00  0.00000000000E+00  0.14511229978E+04  0.21577592136E+04  0.15969241901E+04 0.  0.
        1    1    3    3  502    0 -0.17451725382E+03 -0.42953825178E+03 -0.15280214081E+03  0.48816787675E+03  0.50400001928E-02 0. -1.
       -1    1    3    3    0  502  0.17451725382E+03  0.42953825178E+03  0.16039251386E+04  0.16695913368E+04  0.50400001928E-02 0.  1.
</event>
<event>
 5   0  0.1126485E-05  0.1600098E+04  0.7818609E-02  0.8820488E-01
       -1   -1    0    0    0  501  0.00000000000E+00  0.00000000000E+00  0.39735983156E+03  0.39735983159E+03  0.50400001928E-02 0. -1.
        1   -1    0    0  501    0  0.00000000000E+00  0.00000000000E+00 -0.16108280342E+04  0.16108280342E+04  0.50400001928E-02 0.  1.
    10030    2    1    2    0    0  0.00000000000E+00  0.00000000000E+00 -0.12134682026E+04  0.20081878658E+04  0.16000979425E+04 0.  0.
        2    1    3    3  502    0 -0.63132417720E+03  0.49364456845E+02  0.69169524649E+01  0.63328896292E+03  0.25500000920E-02 0. -1.
       -2    1    3    3    0  502  0.63132417720E+03 -0.49364456845E+02 -0.12203851551E+04  0.13748989029E+04  0.25500000920E-02 0.  1.
</event>
<event>
 5   0  0.1990948E-05  0.1601406E+04  0.7818609E-02  0.8819685E-01
        2   -1    0    0  501    0  0.00000000000E+00  0.00000000000E+00  0.12151298346E+04  0.12151298346E+04  0.25500000920E-02 0. -1.
       -2   -1    0    0    0  501  0.00000000000E+00  0.00000000000E+00 -0.52761881296E+03  0.52761881297E+03  0.25500000920E-02 0.  1.
    10030    2    1    2    0    0  0.00000000000E+00  0.00000000000E+00  0.68751102162E+03  0.17427486476E+04  0.16014060833E+04 0.  0.
        4    1    3    3  502    0  0.91936323837E+01 -0.75586464986E+03  0.56430028840E+02  0.75802496848E+03  0.12699999809E+01 0. -1.
       -4    1    3    3    0  502 -0.91936323837E+01  0.75586464986E+03  0.63108099278E+03  0.98472367907E+03  0.12699999809E+01 0.  1.
</event>
<event>
 5   0  0.1990948E-05  0.1599997E+04  0.7818609E-02  0.8820550E-01
       -2   -1    0    0    0  501  0.00000000000E+00  0.00000000000E+00  0.64405965795E+03  0.64405965795E+03  0.25500000920E-02 0.  1.
        2   -1    0    0  501    0  0.00000000000E+00  0.00000000000E+00 -0.99369257694E+03  0.99369257694E+03  0.25500000920E-02 0. -1.
    10030    2    1    2    0    0  0.00000000000E+00  0.00000000000E+00 -0.34963291899E+03  0.16377522349E+04  0.15999966265E+04 0.  0.
        4    1    3    3  502    0  0.43125410943E+03  0.25956578159E+03 -0.81129415819E+03  0.95475354196E+03  0.12699999809E+01 0. -1.
       -4    1    3    3    0  502 -0.43125410943E+03 -0.25956578159E+03  0.46166123920E+03  0.68299869294E+03  0.12699999809E+01 0.  1.
</event>
<event>
 5   0  0.1994525E-05  0.1598949E+04  0.7818609E-02  0.8821194E-01
        2   -1    0    0  501    0  0.00000000000E+00  0.00000000000E+00  0.20586596475E+04  0.20586596475E+04  0.25500000920E-02 0. -1.
       -2   -1    0    0    0  501  0.00000000000E+00  0.00000000000E+00 -0.31047376849E+03  0.31047376850E+03  0.25500000920E-02 0.  1.
    10030    2    1    2    0    0  0.00000000000E+00  0.00000000000E+00  0.17481858790E+04  0.23691334160E+04  0.15989494286E+04 0.  0.
        5    1    3    3  502    0  0.60849820488E+03  0.85035172296E+01  0.10590821145E+03  0.61772244123E+03  0.46999998093E+01 0.  1.
       -5    1    3    3    0  502 -0.60849820488E+03 -0.85035172296E+01  0.16422776675E+04  0.17514109747E+04  0.46999998093E+01 0. -1.
</event>
<event>
 5   0  0.1081831E-05  0.1599801E+04  0.7818609E-02  0.8820670E-01
       -1   -1    0    0    0  501  0.00000000000E+00  0.00000000000E+00  0.61978799430E+03  0.61978799432E+03  0.50400001928E-02 0. -1.
        1   -1    0    0  501    0  0.00000000000E+00  0.00000000000E+00 -0.10323547336E+04  0.10323547336E+04  0.50400001928E-02 0.  1.
    10030    2    1    2    0    0  0.00000000000E+00  0.00000000000E+00 -0.41256673933E+03  0.16521427280E+04  0.15998013249E+04 0.  0.
        3    1    3    3  502    0  0.48504250917E+03 -0.31816636093E+03  0.36250397483E+03  0.68403597193E+03  0.10100000352E+00 0. -1.
       -3    1    3    3    0  502 -0.48504250917E+03  0.31816636093E+03 -0.77507071416E+03  0.96810675603E+03  0.10100000352E+00 0.  1.
</event>
<event>
 5   0  0.1126485E-05  0.1599999E+04  0.7818609E-02  0.8820549E-01
       -1   -1    0    0    0  501  0.00000000000E+00  0.00000000000E+00  0.48113025322E+03  0.48113025325E+03  0.50400001928E-02 0. -1.
        1   -1    0    0  501    0  0.00000000000E+00  0.00000000000E+00 -0.13301993183E+04  0.13301993183E+04  0.50400001928E-02 0.  1.
    10030    2    1    2    0    0  0.00000000000E+00  0.00000000000E+00 -0.84906906506E+03  0.18113295715E+04  0.15999989186E+04 0.  0.
        2    1    3    3  502    0  0.10756430759E+03  0.37344901468E+03 -0.12161542908E+04  0.12767401873E+04  0.25500000920E-02 0.  1.
       -2    1    3    3    0  502 -0.10756430759E+03 -0.37344901468E+03  0.36708522571E+03  0.53458938427E+03  0.25500000920E-02 0. -1.
</event>
<event>
 5   0  0.2046108E-05  0.1599540E+04  0.7818609E-02  0.8820831E-01
        2   -1    0    0  501    0  0.00000000000E+00  0.00000000000E+00  0.60151325661E+03  0.60151325662E+03  0.25500000920E-02 0. -1.
       -2   -1    0    0    0  501  0.00000000000E+00  0.00000000000E+00 -0.10633711620E+04  0.10633711620E+04  0.25500000920E-02 0.  1.
    10030    2    1    2    0    0  0.00000000000E+00  0.00000000000E+00 -0.46185790543E+03  0.16648844187E+04  0.15995397471E+04 0.  0.
        1    1    3    3  502    0  0.20535485105E+03 -0.14736152901E+02 -0.10353158354E+04  0.10555882948E+04  0.50400001928E-02 0.  1.
       -1    1    3    3    0  502 -0.20535485105E+03  0.14736152901E+02  0.57345792999E+03  0.60929612385E+03  0.50400001928E-02 0. -1.
</event>
<event>
 5   0  0.1090674E-05  0.1603807E+04  0.7818609E-02  0.8818213E-01
       -1   -1    0    0    0  501  0.00000000000E+00  0.00000000000E+00  0.49932114082E+03  0.49932114085E+03  0.50400001928E-02 0. -1.
        1   -1    0    0  501    0  0.00000000000E+00  0.00000000000E+00 -0.12878467240E+04  0.12878467241E+04  0.50400001928E-02 0.  1.
    10030    2    1    2    0    0  0.00000000000E+00  0.00000000000E+00 -0.78852558323E+03  0.17871678649E+04  0.16038068406E+04 0.  0.
        4    1    3    3  502    0 -0.31337842699E+03 -0.72413810965E+03 -0.23484974856E+03  0.82324847868E+03  0.12699999809E+01 0. -1.
       -4    1    3    3    0  502  0.31337842699E+03  0.72413810965E+03 -0.55367583467E+03  0.96391938623E+03  0.12699999809E+01 0.  1.
</event>
<event>
 5   0  0.2046108E-05  0.1599917E+04  0.7818609E-02  0.8820599E-01
       -2   -1    0    0    0  501  0.00000000000E+00  0.00000000000E+00  0.36420657362E+03  0.36420657363E+03  0.25500000920E-02 0. -1.
        2   -1    0    0  501    0  0.00000000000E+00  0.00000000000E+00 -0.17570627009E+04  0.17570627009E+04  0.25500000920E-02 0.  1.
    10030    2    1    2    0    0  0.00000000000E+00  0.00000000000E+00 -0.13928561273E+04  0.21212692746E+04  0.15999172303E+04 0.  0.
        1    1    3    3  502    0 -0.48509170791E+03  0.12341082657E+03  0.13092418888E+03  0.51738316600E+03  0.50400001928E-02 0. -1.
       -1    1    3    3    0  502  0.48509170791E+03 -0.12341082657E+03 -0.15237803162E+04  0.16038861086E+04  0.50400001928E-02 0.  1.
</event>
<event>
 5   0  0.7597000E-06  0.1601267E+04  0.7818609E-02  0.8819770E-01
        3   -1    0    0  501    0  0.00000000000E+00  0.00000000000E+00  0.84572076503E+03  0.84572077106E+03  0.10100000352E+00 0. -1.
       -3   -1    0    0    0  501  0.00000000000E+00  0.00000000000E+00 -0.75794979264E+03  0.75794979936E+03  0.10100000352E+00 0.  1.
    10030    2    1    2    0    0  0.00000000000E+00  0.00000000000E+00  0.87770972397E+02  0.16036705704E+04  0.16012668594E+04 0.  0.
        3    1    3    3  502    0 -0.14961191801E+03 -0.26785787456E+03  0.78451051123E+03  0.84237065440E+03  0.10100000352E+00 0. -1.
       -3    1    3    3    0  502  0.14961191801E+03  0.26785787456E+03 -0.69673953883E+03  0.76129991603E+03  0.10100000352E+00 0.  1.
</event>
<event>
 5   0  0.2147844E-05  0.1599826E+04  0.7818609E-02  0.8820655E-01
       -2   -1    0    0    0  501  0.00000000000E+00  0.00000000000E+00  0.40575705307E+03  0.40575705307E+03  0.25500000920E-02 0. -1.
        2   -1    0    0  501    0  0.00000000000E+00  0.00000000000E+00 -0.15769550636E+04  0.15769550636E+04  0.25500000920E-02 0.  1.
    10030    2    1    2    0    0  0.00000000000E+00  0.00000000000E+00 -0.11711980105E+04  0.19827121167E+04  0.15998257898E+04 0.  0.
        2    1    3    3  502    0  0.39966708238E+03 -0.68861001094E+03 -0.49005706576E+03  0.93491895457E+03  0.25500000920E-02 0. -1.
       -2    1    3    3    0  502 -0.39966708238E+03  0.68861001094E+03 -0.68114094477E+03  0.10477931621E+04  0.25500000920E-02 0.  1.
</event>
<event>
 5   0  0.1090674E-05  0.1599804E+04  0.7818609E-02  0.8820669E-01
       -1   -1    0    0    0  501  0.00000000000E+00  0.00000000000E+00  0.70368332320E+03  0.70368332322E+03  0.50400001928E-02 0. -1.
        1   -1    0    0  501    0  0.00000000000E+00  0.00000000000E+00 -0.90927706472E+03  0.90927706474E+03  0.50400001928E-02 0.  1.
    10030    2    1    2    0    0  0.00000000000E+00  0.00000000000E+00 -0.20559374152E+03  0.16129603880E+04  0.15998038713E+04 0.  0.
        4    1    3    3  502    0 -0.67393826778E+03 -0.13580080465E+03  0.30947526817E+03  0.75393050199E+03  0.12699999809E+01 0. -1.
       -4    1    3    3    0  502  0.67393826778E+03  0.13580080465E+03 -0.51506900970E+03  0.85902988596E+03  0.12699999809E+01 0.  1.
</event>
<event>
 5   0  0.1990948E-05  0.1599491E+04  0.7818609E-02  0.8820861E-01
       -2   -1    0    0    0  501  0.00000000000E+00  0.00000000000E+00  0.47370367061E+03  0.47370367062E+03  0.25500000920E-02 0.  1.
        2   -1    0    0  501    0  0.00000000000E+00  0.00000000000E+00 -0.13501964963E+04  0.13501964963E+04  0.25500000920E-02 0. -1.
    10030    2    1    2    0    0  0.00000000000E+00  0.00000000000E+00 -0.87649282572E+03  0.18239001669E+04  0.15994912146E+04 0.  0.
        4    1    3    3  502    0 -0.75943774218E+03  0.20086489587E+03 -0.26720505772E+03  0.82975450973E+03  0.12699999809E+01 0.  1.
       -4    1    3    3    0  502  0.75943774218E+03 -0.20086489587E+03 -0.60928776800E+03  0.99414565722E+03  0.12699999809E+01 0. -1.
</event>
<event>
 5   0  0.1081831E-05  0.1600412E+04  0.7818609E-02  0.8820295E-01
        1   -1    0    0  501    0  0.00000000000E+00  0.00000000000E+00  0.57265752553E+03  0.57265752555E+03  0.50400001928E-02 0. -1.
       -1   -1    0    0    0  501  0.00000000000E+00  0.00000000000E+00 -0.11181714179E+04  0.11181714179E+04  0.50400001928E-02 0.  1.
    10030    2    1    2    0    0  0.00000000000E+00  0.00000000000E+00 -0.54551389235E+03  0.16908289434E+04  0.16004115437E+04 0.  0.
        3    1    3    3  502    0  0.19241828286E+03  0.76509004270E+03 -0.13124282774E+03  0.79975762519E+03  0.10100000352E+00 0.  1.
       -3    1    3    3    0  502 -0.19241828286E+03 -0.76509004270E+03 -0.41427106461E+03  0.89107131825E+03  0.10100000352E+00 0. -1.
</event>
<event>
 5   0  0.1994525E-05  0.1599857E+04  0.7818609E-02  0.8820636E-01
        2   -1    0    0  501    0  0.00000000000E+00  0.00000000000E+00  0.93935392727E+03  0.93935392728E+03  0.25500000920E-02 0.  1.
       -2   -1    0    0    0  501  0.00000000000E+00  0.00000000000E+00 -0.68119762163E+03  0.68119762163E+03  0.25500000920E-02 0. -1.
    10030    2    1    2    0    0  0.00000000000E+00  0.00000000000E+00  0.25815630565E+03  0.16205515489E+04  0.15998570700E+04 0.  0.
        5    1    3    3  502    0  0.78374739270E+03 -0.14826941278E+03  0.68135330621E+02  0.80056749097E+03  0.46999998093E+01 0. -1.
       -5    1    3    3    0  502 -0.78374739270E+03  0.14826941278E+03  0.19002097503E+03  0.81998405794E+03  0.46999998093E+01 0.  1.
</event>
<event>
 5   0  0.1994525E-05  0.1600147E+04  0.7818609E-02  0.8820458E-01
        2   -1    0    0  501    0  0.00000000000E+00  0.00000000000E+00  0.38743266611E+03  0.38743266612E+03  0.25500000920E-02 0.  1.
       -2   -1    0    0    0  501  0.00000000000E+00  0.00000000000E+00 -0.16522026470E+04  0.16522026470E+04  0.25500000920E-02 0. -1.
    10030    2    1    2    0    0  0.00000000000E+00  0.00000000000E+00 -0.12647699809E+04  0.20396353131E+04  0.16001465889E+04 0.  0.
        5    1    3    3  502    0 -0.56206096894E+03 -0.42603581254E+03 -0.15091588122E+03  0.72126052129E+03  0.46999998093E+01 0.  1.
       -5    1    3    3    0  502  0.56206096894E+03  0.42603581254E+03 -0.11138540996E+04  0.13183747918E+04  0.46999998093E+01 0. -1.
</event>
<event>
 5   0  0.2046108E-05  0.1598702E+04  0.7818609E-02  0.8821346E-01
       -2   -1    0    0    0  501  0.00000000000E+00  0.00000000000E+00  0.27870678182E+03  0.27870678183E+03  0.25500000920E-02 0. -1.
        2   -1    0    0  501    0  0.00000000000E+00  0.00000000000E+00 -0.22925968958E+04  0.22925968958E+04  0.25500000920E-02 0.  1.
    10030    2    1    2    0    0  0.00000000000E+00  0.00000000000E+00 -0.20138901139E+04  0.25713036776E+04  0.15987023523E+04 0.  0.
        1    1    3    3  502    0 -0.63199333806E+03  0.47732706891E+03 -0.11809583646E+04  0.14219421117E+04  0.50400001928E-02 0.  1.
       -1    1    3    3    0  502  0.63199333806E+03 -0.47732706891E+03 -0.83293174938E+03  0.11493615659E+04  0.50400001928E-02 0. -1.
</event>
<event>
 5   0  0.1090674E-05  0.1602643E+04  0.7818609E-02  0.8818926E-01
       -1   -1    0    0    0  501  0.00000000000E+00  0.00000000000E+00  0.71789274318E+03  0.71789274320E+03  0.50400001928E-02 0.  1.
        1   -1    0    0  501    0  0.00000000000E+00  0.00000000000E+00 -0.89444552282E+03  0.89444552283E+03  0.50400001928E-02 0. -1.
    10030    2    1    2    0    0  0.00000000000E+00  0.00000000000E+00 -0.17655277964E+03  0.16123382660E+04  0.16026427550E+04 0.  0.
        4    1    3    3  502    0 -0.18731980320E+03 -0.73170117666E+03 -0.35755027984E+03  0.83565491448E+03  0.12699999809E+01 0. -1.
       -4    1    3    3    0  502  0.18731980320E+03  0.73170117666E+03  0.18099750020E+03  0.77668335155E+03  0.12699999809E+01 0.  1.
</event>
<event>
 5   0  0.1081831E-05  0.1599900E+04  0.7818609E-02  0.8820610E-01
       -1   -1    0    0    0  501  0.00000000000E+00  0.00000000000E+00  0.97871264713E+03  0.97871264714E+03  0.50400001928E-02 0.  1.
        1   -1    0    0  501    0  0.00000000000E+00  0.00000000000E+00 -0.65383825894E+03  0.65383825896E+03  0.50400001928E-02 0. -1.
    10030    2    1    2    0    0  0.00000000000E+00  0.00000000000E+00  0.32487438819E+03  0.16325509061E+04  0.15998997134E+04 0.  0.
        3    1    3    3  502    0 -0.24668144903E+03  0.22121465787E+03  0.90539820428E+03  0.96412321862E+03  0.10100000352E+00 0.  1.
       -3    1    3    3    0  502  0.24668144903E+03 -0.22121465787E+03 -0.58052381610E+03  0.66842768749E+03  0.10100000352E+00 0. -1.
</event>
<event>
 5   0  0.1081831E-05  0.1598747E+04  0.7818609E-02  0.8821318E-01
        1   -1    0    0  501    0  0.00000000000E+00  0.00000000000E+00  0.22712044053E+04  0.22712044053E+04  0.50400001928E-02 0.  1.
       -1   -1    0    0    0  501  0.00000000000E+00  0.00000000000E+00 -0.28134762246E+03  0.28134762251E+03  0.50400001928E-02 0. -1.
    10030    2    1    2    0    0  0.00000000000E+00  0.00000000000E+00  0.19898567828E+04  0.25525520278E+04  0.15987469589E+04 0.  0.
        3    1    3    3  502    0  0.32007939107E+02  0.74263379152E+03  0.14644156565E+04  0.16422675426E+04  0.10100000352E+00 0. -1.
       -3    1    3    3    0  502 -0.32007939107E+02 -0.74263379152E+03  0.52544112636E+03  0.91028448518E+03  0.10100000352E+00 0.  1.
</event>
<event>
 5   0  0.1990948E-05  0.1599168E+04  0.7818609E-02  0.8821060E-01
        2   -1    0    0  501    0  0.00000000000E+00  0.00000000000E+00  0.21642969357E+04  0.21642969357E+04  0.25500000920E-02 0. -1.
       -2   -1    0    0    0  501  0.00000000000E+00  0.00000000000E+00 -0.29540043628E+03  0.29540043630E+03  0.25500000920E-02 0.  1.
    10030    2    1    2    0    0  0.00000000000E+00  0.00000000000E+00  0.18688964994E+04  0.24596973720E+04  0.15991676073E+04 0.  0.
        4    1    3    3  502    0 -0.21773663982E+03 -0.37737320429E+03  0.19656858903E+04  0.20133907748E+04  0.12699999809E+01 0. -1.
       -4    1    3    3    0  502  0.21773663982E+03  0.37737320429E+03 -0.96789390902E+02  0.44630659723E+03  0.12699999809E+01 0.  1.
</event>
<event>
 5   0  0.1057506E-05  0.1599353E+04  0.7818609E-02  0.8820946E-01
        1   -1    0    0  501    0  0.00000000000E+00  0.00000000000E+00  0.13966419826E+04  0.13966419826E+04  0.50400001928E-02 0. -1.
       -1   -1    0    0    0  501  0.00000000000E+00  0.00000000000E+00 -0.45787139631E+03  0.45787139634E+03  0.50400001928E-02 0.  1.
    10030    2    1    2    0    0  0.00000000000E+00  0.00000000000E+00  0.93877058626E+03  0.18545133789E+04  0.15993528876E+04 0.  0.
        5    1    3    3  502    0 -0.46974479705E+02 -0.99859690904E+02 -0.44898325856E+03  0.46237064794E+03  0.46999998093E+01 0.  1.
       -5    1    3    3    0  502  0.46974479705E+02  0.99859690904E+02  0.13877538448E+04  0.13921427310E+04  0.46999998093E+01 0. -1.
</event>
<event>
 5   0  0.1090674E-05  0.1597371E+04  0.7818609E-02  0.8822165E-01
       -1   -1    0    0    0  501  0.00000000000E+00  0.00000000000E+00  0.44903262179E+03  0.44903262182E+03  0.50400001928E-02 0.  1.
        1   -1    0    0  501    0  0.00000000000E+00  0.00000000000E+00 -0.14206064457E+04  0.14206064458E+04  0.50400001928E-02 0. -1.
    10030    2    1    2    0    0  0.00000000000E+00  0.00000000000E+00 -0.97157382396E+03  0.18696390676E+04  0.15973711365E+04 0.  0.
        4    1    3    3  502    0  0.42731772601E+03  0.23177506723E+03  0.25592679489E+03  0.54938170519E+03  0.12699999809E+01 0.  1.
       -4    1    3    3    0  502 -0.42731772601E+03 -0.23177506723E+03 -0.12275006189E+04  0.13202573624E+04  0.12699999809E+01 0. -1.
</event>
<event>
 5   0  0.1126485E-05  0.1598847E+04  0.7818609E-02  0.8821257E-01
       -1   -1    0    0    0  501  0.00000000000E+00  0.00000000000E+00  0.21406619735E+03  0.21406619741E+03  0.50400001928E-02 0. -1.
        1   -1    0    0  501    0  0.00000000000E+00  0.00000000000E+00 -0.29854203523E+04  0.29854203523E+04  0.50400001928E-02 0.  1.
    10030    2    1    2    0    0  0.00000000000E+00  0.00000000000E+00 -0.27713541549E+04  0.31994865497E+04  0.15988465622E+04 0.  0.
        2    1    3    3  502    0  0.13659487106E+03  0.59531459315E+03 -0.24177980721E+04  0.24937532238E+04  0.25500000920E-02 0.  1.
       -2    1    3    3    0  502 -0.13659487106E+03 -0.59531459315E+03 -0.35355608286E+03  0.70573332594E+03  0.25500000920E-02 0. -1.
</event>
<event>
 5   0  0.2125803E-05  0.1599976E+04  0.7818609E-02  0.8820562E-01
       -2   -1    0    0    0  501  0.00000000000E+00  0.00000000000E+00  0.11522165341E+04  0.11522165341E+04  0.25500000920E-02 0. -1.
        2   -1    0    0  501    0  0.00000000000E+00  0.00000000000E+00 -0.55543479714E+03  0.55543479715E+03  0.25500000920E-02 0.  1.
    10030    2    1    2    0    0  0.00000000000E+00  0.00000000000E+00  0.59678173698E+03  0.17076513313E+04  0.15999764460E+04 0.  0.
        3    1    3    3  502    0  0.35397814728E+03 -0.11512061911E+03 -0.45737946842E+03  0.58970269969E+03  0.10100000352E+00 0.  1.
       -3    1    3    3    0  502 -0.35397814728E+03  0.11512061911E+03  0.10541612054E+04  0.11179486316E+04  0.10100000352E+00 0. -1.
</event>
<event>
 5   0  0.1990948E-05  0.1599868E+04  0.7818609E-02  0.8820629E-01
        2   -1    0    0  501    0  0.00000000000E+00  0.00000000000E+00  0.82047941008E+03  0.82047941009E+03  0.25500000920E-02 0.  1.
       -2   -1    0    0    0  501  0.00000000000E+00  0.00000000000E+00 -0.77990294676E+03  0.77990294677E+03  0.25500000920E-02 0. -1.
    10030    2    1    2    0    0  0.00000000000E+00  0.00000000000E+00  0.40576463320E+02  0.16003823569E+04  0.15998678817E+04 0.  0.
        4    1    3    3  502    0  0.30084668629E+03  0.20923748456E+03 -0.69099854102E+03  0.78215704957E+03  0.12699999809E+01 0. -1.
       -4    1    3    3    0  502 -0.30084668629E+03 -0.20923748456E+03  0.73157500434E+03  0.81822530728E+03  0.12699999809E+01 0.  1.
</event>
<event>
 5   0  0.2046108E-05  0.1599820E+04  0.7818609E-02  0.8820659E-01
        2   -1    0    0  501    0  0.00000000000E+00  0.00000000000E+00  0.34820612348E+03  0.34820612349E+03  0.25500000920E-02 0. -1.
       -2   -1    0    0    0  501  0.00000000000E+00  0.00000000000E+00 -0.18375774605E+04  0.18375774605E+04  0.25500000920E-02 0.  1.
    10030    2    1    2    0    0  0.00000000000E+00  0.00000000000E+00 -0.14893713370E+04  0.21857835840E+04  0.15998196450E+04 0.  0.
        1    1    3    3  502    0  0.63840672688E+03 -0.29328198337E+03 -0.12672334612E+04  0.14489506948E+04  0.50400001928E-02 0.  1.
       -1    1    3    3    0  502 -0.63840672688E+03  0.29328198337E+03 -0.22213787578E+03  0.73683288918E+03  0.50400001928E-02 0. -1.
</event>
<event>
 5   0  0.2125803E-05  0.1600060E+04  0.7818609E-02  0.8820511E-01
       -2   -1    0    0    0  501  0.00000000000E+00  0.00000000000E+00  0.30960386785E+03  0.30960386786E+03  0.25500000920E-02 0. -1.
        2   -1    0    0  501    0  0.00000000000E+00  0.00000000000E+00 -0.20673137014E+04  0.20673137014E+04  0.25500000920E-02 0.  1.
    10030    2    1    2    0    0  0.00000000000E+00  0.00000000000E+00 -0.17577098336E+04  0.23769175693E+04  0.16000603964E+04 0.  0.
        3    1    3    3  502    0  0.56230631396E+03 -0.62078551083E+02 -0.38511269678E+02  0.56703197910E+03  0.10100000352E+00 0. -1.
       -3    1    3    3    0  502 -0.56230631396E+03  0.62078551083E+02 -0.17191985639E+04  0.18098855902E+04  0.10100000352E+00 0.  1.
</event>
<event>
 5   0  0.1057506E-05  0.1599447E+04  0.7818609E-02  0.8820888E-01
        1   -1    0    0  501    0  0.00000000000E+00  0.00000000000E+00  0.13599055695E+04  0.13599055695E+04  0.50400001928E-02 0. -1.
       -1   -1    0    0    0  501  0.00000000000E+00  0.00000000000E+00 -0.47029537425E+03  0.47029537428E+03  0.50400001928E-02 0.  1.
    10030    2    1    2    0    0  0.00000000000E+00  0.00000000000E+00  0.88961019526E+03  0.18302009438E+04  0.15994465278E+04 0.  0.
        5    1    3    3  502    0  0.67791503567E+03  0.33854949951E+03  0.73732404633E+03  0.10572858641E+04  0.46999998093E+01 0. -1.
       -5    1    3    3    0  502 -0.67791503567E+03 -0.33854949951E+03  0.15228614893E+03  0.77291507966E+03  0.46999998093E+01 0.  1.
</event>
<event>
 5   0  0.1090674E-05  0.1601036E+04  0.7818609E-02  0.8819912E-01
        1   -1    0    0  501    0  0.00000000000E+00  0.00000000000E+00  0.13138929452E+04  0.13138929452E+04  0.50400001928E-02 0.  1.
       -1   -1    0    0    0  501  0.00000000000E+00  0.00000000000E+00 -0.48773316868E+03  0.48773316871E+03  0.50400001928E-02 0. -1.
    10030    2    1    2    0    0  0.00000000000E+00  0.00000000000E+00  0.82615977648E+03  0.18016261139E+04  0.16010361264E+04 0.  0.
        4    1    3    3  502    0  0.24228071833E+02 -0.52764447387E+03 -0.26380831088E+03  0.59041691038E+03  0.12699999809E+01 0. -1.
       -4    1    3    3    0  502 -0.24228071833E+02  0.52764447387E+03  0.10899680874E+04  0.12112092035E+04  0.12699999809E+01 0.  1.
</event>
<event>
 5   0  0.1057506E-05  0.1597046E+04  0.7818609E-02  0.8822365E-01
        1   -1    0    0  501    0  0.00000000000E+00  0.00000000000E+00  0.15808358076E+04  0.15808358076E+04  0.50400001928E-02 0.  1.
       -1   -1    0    0    0  501  0.00000000000E+00  0.00000000000E+00 -0.40335573059E+03  0.40335573062E+03  0.50400001928E-02 0. -1.
    10030    2    1    2    0    0  0.00000000000E+00  0.00000000000E+00  0.11774800770E+04  0.19841915382E+04  0.15970462512E+04 0.  0.
        5    1    3    3  502    0 -0.35931395142E+03  0.62257878443E+02 -0.29384097991E+03  0.46834514045E+03  0.46999998093E+01 0. -1.
       -5    1    3    3    0  502  0.35931395142E+03 -0.62257878443E+02  0.14713210569E+04  0.15158463978E+04  0.46999998093E+01 0.  1.
</event>
<event>
 5   0  0.1060251E-05  0.1600231E+04  0.7818609E-02  0.8820406E-01
        1   -1    0    0  501    0  0.00000000000E+00  0.00000000000E+00  0.56470852255E+03  0.56470852257E+03  0.50400001928E-02 0. -1.
       -1   -1    0    0    0  501  0.00000000000E+00  0.00000000000E+00 -0.11336556081E+04  0.11336556081E+04  0.50400001928E-02 0.  1.
    10030    2    1    2    0    0  0.00000000000E+00  0.00000000000E+00 -0.56894708551E+03  0.16983641306E+04  0.16002312127E+04 0.  0.
        1    1    3    3  502    0  0.11508060329E+03  0.78599744546E+03 -0.18295493326E+03  0.81517362393E+03  0.50400001928E-02 0.  1.
       -1    1    3    3    0  502 -0.11508060329E+03 -0.78599744546E+03 -0.38599215226E+03  0.88319050672E+03  0.50400001928E-02 0. -1.
</event>
<event>
 5   0  0.1990948E-05  0.1604509E+04  0.7818609E-02  0.8817783E-01
        2   -1    0    0  501    0  0.00000000000E+00  0.00000000000E+00  0.14171378687E+04  0.14171378687E+04  0.25500000920E-02 0.  1.
       -2   -1    0    0    0  501  0.00000000000E+00  0.00000000000E+00 -0.45416358129E+03  0.45416358129E+03  0.25500000920E-02 0. -1.
    10030    2    1    2    0    0  0.00000000000E+00  0.00000000000E+00  0.96297428743E+03  0.18713014500E+04  0.16045091581E+04 0.  0.
        4    1    3    3  502    0 -0.65672236564E+03  0.44908268015E+03  0.60185274942E+03  0.99759103045E+03  0.12699999809E+01 0. -1.
       -4    1    3    3    0  502  0.65672236564E+03 -0.44908268015E+03  0.36112153801E+03  0.87371041956E+03  0.12699999809E+01 0.  1.
</event>
<event>
 5   0  0.2046108E-05  0.1599825E+04  0.7818609E-02  0.8820655E-01
        2   -1    0    0  501    0  0.00000000000E+00  0.00000000000E+00  0.16401675827E+04  0.16401675827E+04  0.25500000920E-02 0.  1.
       -2   -1    0    0    0  501  0.00000000000E+00  0.00000000000E+00 -0.39011879401E+03  0.39011879402E+03  0.25500000920E-02 0. -1.
    10030    2    1    2    0    0  0.00000000000E+00  0.00000000000E+00  0.12500487886E+04  0.20302863767E+04  0.15998252396E+04 0.  0.
        1    1    3    3  502    0  0.46204190356E+03  0.12150519199E+03 -0.18917318679E+03  0.51384114953E+03  0.50400001928E-02 0. -1.
       -1    1    3    3    0  502 -0.46204190356E+03 -0.12150519199E+03  0.14392219754E+04  0.15164452271E+04  0.50400001928E-02 0.  1.
</event>
<event>
 5   0  0.1990948E-05  0.1600004E+04  0.7818609E-02  0.8820546E-01
        2   -1    0    0  501    0  0.00000000000E+00  0.00000000000E+00  0.80414366418E+03  0.80414366418E+03  0.25500000920E-02 0. -1.
       -2   -1    0    0    0  501  0.00000000000E+00  0.00000000000E+00 -0.79588169597E+03  0.79588169597E+03  0.25500000920E-02 0.  1.
    10030    2    1    2    0    0  0.00000000000E+00  0.00000000000E+00  0.82619682110E+01  0.16000253602E+04  0.16000040291E+04 0.  0.
        4    1    3    3  502    0  0.52326224519E+03 -0.60290396581E+03  0.56141687351E+02  0.80028124506E+03  0.12699999809E+01 0. -1.
       -4    1    3    3    0  502 -0.52326224519E+03  0.60290396581E+03 -0.47879719140E+02  0.79974411510E+03  0.12699999809E+01 0.  1.
</event>
<event>
 5   0  0.1081831E-05  0.1599724E+04  0.7818609E-02  0.8820717E-01
       -1   -1    0    0    0  501  0.00000000000E+00  0.00000000000E+00  0.94143203347E+03  0.94143203349E+03  0.50400001928E-02 0.  1.
        1   -1    0    0  501    0  0.00000000000E+00  0.00000000000E+00 -0.67958123635E+03  0.67958123636E+03  0.50400001928E-02 0. -1.
    10030    2    1    2    0    0  0.00000000000E+00  0.00000000000E+00  0.26185079713E+03  0.16210132699E+04  0.15997244079E+04 0.  0.
        3    1    3    3  502    0 -0.63052900416E+03  0.12874108015E+03 -0.35041016112E+03  0.73275397100E+03  0.10100000352E+00 0. -1.
       -3    1    3    3    0  502  0.63052900416E+03 -0.12874108015E+03  0.61226095825E+03  0.88825929885E+03  0.10100000352E+00 0.  1.
</event>
<event>
 5   0  0.2125803E-05  0.1598692E+04  0.7818609E-02  0.8821352E-01
       -2   -1    0    0    0  501  0.00000000000E+00  0.00000000000E+00  0.84897220869E+03  0.84897220869E+03  0.25500000920E-02 0.  1.
        2   -1    0    0  501    0  0.00000000000E+00  0.00000000000E+00 -0.75262061537E+03  0.75262061537E+03  0.25500000920E-02 0. -1.
    10030    2    1    2    0    0  0.00000000000E+00  0.00000000000E+00  0.96351593322E+02  0.16015928241E+04  0.15986919480E+04 0.  0.
        3    1    3    3  502    0  0.41456292668E+03 -0.12751149739E+03  0.72083466771E+03  0.84126347271E+03  0.10100000352E+00 0.  1.
       -3    1    3    3    0  502 -0.41456292668E+03  0.12751149739E+03 -0.62448307438E+03  0.76032935136E+03  0.10100000352E+00 0. -1.
</event>
<event>
 5   0  0.1994525E-05  0.1598641E+04  0.7818609E-02  0.8821383E-01
        2   -1    0    0  501    0  0.00000000000E+00  0.00000000000E+00  0.63829885403E+03  0.63829885404E+03  0.25500000920E-02 0. -1.
       -2   -1    0    0    0  501  0.00000000000E+00  0.00000000000E+00 -0.10009627304E+04  0.10009627304E+04  0.25500000920E-02 0.  1.
    10030    2    1    2    0    0  0.00000000000E+00  0.00000000000E+00 -0.36266387640E+03  0.16392615845E+04  0.15986411277E+04 0.  0.
        5    1    3    3  502    0 -0.17063453783E+03 -0.71189999642E+03  0.14771667608E+03  0.74683335276E+03  0.46999998093E+01 0.  1.
       -5    1    3    3    0  502  0.17063453783E+03  0.71189999642E+03 -0.51038055248E+03  0.89242823171E+03  0.46999998093E+01 0. -1.
</event>
<event>
 5   0  0.2046108E-05  0.1602159E+04  0.7818609E-02  0.8819223E-01
       -2   -1    0    0    0  501  0.00000000000E+00  0.00000000000E+00  0.72006782161E+03  0.72006782161E+03  0.25500000920E-02 0.  1.
        2   -1    0    0  501    0  0.00000000000E+00  0.00000000000E+00 -0.89120548972E+03  0.89120548972E+03  0.25500000920E-02 0. -1.
    10030    2    1    2    0    0  0.00000000000E+00  0.00000000000E+00 -0.17113766811E+03  0.16112733113E+04  0.16021590378E+04 0.  0.
        1    1    3    3  502    0 -0.17357732566E+03  0.63101480563E+03 -0.55017050080E+03  0.85498324714E+03  0.50400001928E-02 0. -1.
       -1    1    3    3    0  502  0.17357732566E+03 -0.63101480563E+03  0.37903283269E+03  0.75629006419E+03  0.50400001928E-02 0.  1.
</event>
<event>
 5   0  0.1081831E-05  0.1600318E+04  0.7818609E-02  0.8820352E-01
        1   -1    0    0  501    0  0.00000000000E+00  0.00000000000E+00  0.82819371018E+03  0.82819371020E+03  0.50400001928E-02 0. -1.
       -1   -1    0    0    0  501  0.00000000000E+00  0.00000000000E+00 -0.77307369380E+03  0.77307369382E+03  0.50400001928E-02 0.  1.
    10030    2    1    2    0    0  0.00000000000E+00  0.00000000000E+00  0.55120016377E+02  0.16012674040E+04  0.16003184317E+04 0.  0.
        3    1    3    3  502    0 -0.48704034164E+03  0.29416246320E+03 -0.53537018538E+03  0.78125610061E+03  0.10100000352E+00 0.  1.
       -3    1    3    3    0  502  0.48704034164E+03 -0.29416246320E+03  0.59049020176E+03  0.82001130341E+03  0.10100000352E+00 0. -1.
</event>
<event>
 5   0  0.1090674E-05  0.1600343E+04  0.7818609E-02  0.8820337E-01
       -1   -1    0    0    0  501  0.00000000000E+00  0.00000000000E+00  0.88465117537E+03  0.88465117539E+03  0.50400001928E-02 0.  1.
        1   -1    0    0  501    0  0.00000000000E+00  0.00000000000E+00 -0.72375913275E+03  0.72375913277E+03  0.50400001928E-02 0. -1.
    10030    2    1    2    0    0  0.00000000000E+00  0.00000000000E+00  0.16089204262E+03  0.16084103082E+04  0.16003429226E+04 0.  0.
        4    1    3    3  502    0 -0.70283410845E+03  0.31256940735E+03  0.30200534281E+03  0.82636811313E+03  0.12699999809E+01 0.  1.
       -4    1    3    3    0  502  0.70283410845E+03 -0.31256940735E+03 -0.14111330019E+03  0.78204219503E+03  0.12699999809E+01 0. -1.
</event>
<event>
 5   0  0.1081831E-05  0.1599728E+04  0.7818609E-02  0.8820715E-01
       -1   -1    0    0    0  501  0.00000000000E+00  0.00000000000E+00  0.73129204267E+03  0.73129204268E+03  0.50400001928E-02 0.  1.
        1   -1    0    0  501    0  0.00000000000E+00  0.00000000000E+00 -0.87486588320E+03  0.87486588322E+03  0.50400001928E-02 0. -1.
    10030    2    1    2    0    0  0.00000000000E+00  0.00000000000E+00 -0.14357384054E+03  0.16061579259E+04  0.15997280504E+04 0.  0.
        3    1    3    3  502    0  0.22875090942E+03  0.52814050466E+03 -0.62946800243E+03  0.85292986084E+03  0.10100000352E+00 0. -1.
       -3    1    3    3    0  502 -0.22875090942E+03 -0.52814050466E+03  0.48589416190E+03  0.75322806506E+03  0.10100000352E+00 0.  1.
</event>
<event>
 5   0  0.1990948E-05  0.1600615E+04  0.7818609E-02  0.8820171E-01
       -2   -1    0    0    0  501  0.00000000000E+00  0.00000000000E+00  0.60735342575E+03  0.60735342576E+03  0.25500000920E-02 0.  1.
        2   -1    0    0  501    0  0.00000000000E+00  0.00000000000E+00 -0.10545618973E+04  0.10545618973E+04  0.25500000920E-02 0. -1.
    10030    2    1    2    0    0  0.00000000000E+00  0.00000000000E+00 -0.44720847156E+03  0.16619153231E+04  0.16006146082E+04 0.  0.
        4    1    3    3  502    0  0.16565669141E+03 -0.11118715458E+03  0.58111738607E+03  0.61441333973E+03  0.12699999809E+01 0.  1.
       -4    1    3    3    0  502 -0.16565669141E+03  0.11118715458E+03 -0.10283258576E+04  0.10475019833E+04  0.12699999809E+01 0. -1.
</event>
<event>
 5   0  0.1994525E-05  0.1601815E+04  0.7818609E-02  0.8819434E-01
       -2   -1    0    0    0  501  0.00000000000E+00  0.00000000000E+00  0.69119235967E+03  0.69119235967E+03  0.25500000920E-02 0. -1.
        2   -1    0    0  501    0  0.00000000000E+00  0.00000000000E+00 -0.92803773958E+03  0.92803773959E+03  0.25500000920E-02 0.  1.
    10030    2    1    2    0    0  0.00000000000E+00  0.00000000000E+00 -0.23684537992E+03  0.16192300993E+04  0.16018147147E+04 0.  0.
        5    1    3    3  502    0 -0.43577586437E+03 -0.10974803056E+03 -0.78856718059E+03  0.90763732982E+03  0.46999998093E+01 0.  1.
       -5    1    3    3    0  502  0.43577586437E+03  0.10974803056E+03  0.55172180068E+03  0.71159276944E+03  0.46999998093E+01 0. -1.
</event>
<event>
 5   0  0.2147844E-05  0.1599554E+04  0.7818609E-02  0.8820822E-01
        2   -1    0    0  501    0  0.00000000000E+00  0.00000000000E+00  0.67822130226E+03  0.67822130227E+03  0.25500000920E-02 0. -1.
       -2   -1    0    0    0  501  0.00000000000E+00  0.00000000000E+00 -0.94311876014E+03  0.94311876014E+03  0.25500000920E-02 0.  1.
    10030    2    1    2    0    0  0.00000000000E+00  0.00000000000E+00 -0.26489745787E+03  0.16213400624E+04  0.15995539800E+04 0.  0.
        2    1    3    3  502    0  0.74592845667E+03  0.88452690079E+02  0.14590045410E+03  0.76519284064E+03  0.25500000920E-02 0.  1.
       -2    1    3    3    0  502 -0.74592845667E+03 -0.88452690079E+02 -0.41079791197E+03  0.85614722177E+03  0.25500000920E-02 0. -1.
</event>
<event>
 5   0  0.2125803E-05  0.1599619E+04  0.7818609E-02  0.8820782E-01
        2   -1    0    0  501    0  0.00000000000E+00  0.00000000000E+00  0.10283585405E+04  0.10283585405E+04  0.25500000920E-02 0.  1.
       -2   -1    0    0    0  501  0.00000000000E+00  0.00000000000E+00 -0.62205467176E+03  0.62205467177E+03  0.25500000920E-02 0. -1.
    10030    2    1    2    0    0  0.00000000000E+00  0.00000000000E+00  0.40630386875E+03  0.16504132123E+04  0.15996189976E+04 0.  0.
        3    1    3    3  502    0 -0.58970843720E+03  0.42940294591E+03 -0.13521348799E+03  0.74190675182E+03  0.10100000352E+00 0. -1.
       -3    1    3    3    0  502  0.58970843720E+03 -0.42940294591E+03  0.54151735674E+03  0.90850646046E+03  0.10100000352E+00 0.  1.
</event>
<event>
 5   0  0.2147844E-05  0.1599914E+04  0.7818609E-02  0.8820601E-01
        2   -1    0    0  501    0  0.00000000000E+00  0.00000000000E+00  0.18521210394E+04  0.18521210394E+04  0.25500000920E-02 0.  1.
       -2   -1    0    0    0  501  0.00000000000E+00  0.00000000000E+00 -0.34551244310E+03  0.34551244311E+03  0.25500000920E-02 0. -1.
    10030    2    1    2    0    0  0.00000000000E+00  0.00000000000E+00  0.15066085963E+04  0.21976334825E+04  0.15999135792E+04 0.  0.
        2    1    3    3  502    0 -0.36943518353E+03  0.25172306719E+03  0.16645311990E+04  0.17235170350E+04  0.25500000920E-02 0.  1.
       -2    1    3    3    0  502  0.36943518353E+03 -0.25172306719E+03 -0.15792260269E+03  0.47411644755E+03  0.25500000920E-02 0. -1.
</event>
<event>
 5   0  0.2125803E-05  0.1600592E+04  0.7818609E-02  0.8820184E-01
       -2   -1    0    0    0  501  0.00000000000E+00  0.00000000000E+00  0.65645896574E+03  0.65645896574E+03  0.25500000920E-02 0.  1.
        2   -1    0    0  501    0  0.00000000000E+00  0.00000000000E+00 -0.97564925527E+03  0.97564925528E+03  0.25500000920E-02 0. -1.
    10030    2    1    2    0    0  0.00000000000E+00  0.00000000000E+00 -0.31919028953E+03  0.16321082210E+04  0.16005920168E+04 0.  0.
        3    1    3    3  502    0 -0.78163142510E+03  0.12786952990E+03 -0.27663938230E+03  0.83894437207E+03  0.10100000352E+00 0.  1.
       -3    1    3    3    0  502  0.78163142510E+03 -0.12786952990E+03 -0.42550907232E+02  0.79316384895E+03  0.10100000352E+00 0. -1.
</event>
<event>
 5   0  0.2125803E-05  0.1600291E+04  0.7818609E-02  0.8820369E-01
       -2   -1    0    0    0  501  0.00000000000E+00  0.00000000000E+00  0.10789896255E+04  0.10789896255E+04  0.25500000920E-02 0. -1.
        2   -1    0    0  501    0  0.00000000000E+00  0.00000000000E+00 -0.59336358477E+03  0.59336358477E+03  0.25500000920E-02 0.  1.
    10030    2    1    2    0    0  0.00000000000E+00  0.00000000000E+00  0.48562604074E+03  0.16723532103E+04  0.16002914136E+04 0.  0.
        3    1    3    3  502    0  0.18758748258E+03  0.14090755940E+03 -0.55661075691E+03  0.60403604928E+03  0.10100000352E+00 0.  1.
       -3    1    3    3    0  502 -0.18758748258E+03 -0.14090755940E+03  0.10422367977E+04  0.10683171610E+04  0.10100000352E+00 0. -1.
</event>
<event>
 5   0  0.1990948E-05  0.1600203E+04  0.7818609E-02  0.8820423E-01
        2   -1    0    0  501    0  0.00000000000E+00  0.00000000000E+00  0.11139764893E+04  0.11139764893E+04  0.25500000920E-02 0. -1.
       -2   -1    0    0    0  501  0.00000000000E+00  0.00000000000E+00 -0.57466447279E+03  0.57466447280E+03  0.25500000920E-02 0.  1.
    10030    2    1    2    0    0  0.00000000000E+00  0.00000000000E+00  0.53931201646E+03  0.16886409621E+04  0.16002033770E+04 0.  0.
        4    1    3    3  502    0  0.65888068551E+03  0.36839565085E+03 -0.10182643784E+02  0.75494662886E+03  0.12699999809E+01 0.  1.
       -4    1    3    3    0  502 -0.65888068551E+03 -0.36839565085E+03  0.54949466025E+03  0.93369433319E+03  0.12699999809E+01 0. -1.
</event>
<event>
 5   0  0.1057506E-05  0.1599897E+04  0.7818609E-02  0.8820612E-01
       -1   -1    0    0    0  501  0.00000000000E+00  0.00000000000E+00  0.49531339926E+03  0.49531339928E+03  0.50400001928E-02 0. -1.
        1   -1    0    0  501    0  0.00000000000E+00  0.00000000000E+00 -0.12919441831E+04  0.12919441831E+04  0.50400001928E-02 0.  1.
    10030    2    1    2    0    0  0.00000000000E+00  0.00000000000E+00 -0.79663078381E+03  0.17872575824E+04  0.15998965779E+04 0.  0.
        5    1    3    3  502    0  0.26941581818E+03  0.70933627859E+03 -0.68126003475E+03  0.10197451467E+04  0.46999998093E+01 0. -1.
       -5    1    3    3    0  502 -0.26941581818E+03 -0.70933627859E+03 -0.11537074906E+03  0.76751243569E+03  0.46999998093E+01 0.  1.
</event>
<event>
 5   0  0.1126485E-05  0.1601989E+04  0.7818609E-02  0.8819327E-01
        1   -1    0    0  501    0  0.00000000000E+00  0.00000000000E+00  0.10414757606E+04  0.10414757606E+04  0.50400001928E-02 0.  1.
       -1   -1    0    0    0  501  0.00000000000E+00  0.00000000000E+00 -0.61604151339E+03  0.61604151341E+03  0.50400001928E-02 0. -1.
    10030    2    1    2    0    0  0.00000000000E+00  0.00000000000E+00  0.42543424725E+03  0.16575172741E+04  0.16019891432E+04 0.  0.
        2    1    3    3  502    0  0.17617052983E+03  0.11547775248E+03  0.10123047772E+04  0.10339884569E+04  0.25500000920E-02 0.  1.
       -2    1    3    3    0  502 -0.17617052983E+03 -0.11547775248E+03 -0.58687052999E+03  0.62352881720E+03  0.25500000920E-02 0. -1.
</event>
<event>
 5   0  0.1126485E-05  0.1599769E+04  0.7818609E-02  0.8820690E-01
        1   -1    0    0  501    0  0.00000000000E+00  0.00000000000E+00  0.60843440184E+03  0.60843440186E+03  0.50400001928E-02 0.  1.
       -1   -1    0    0    0  501  0.00000000000E+00  0.00000000000E+00 -0.10515767014E+04  0.10515767014E+04  0.50400001928E-02 0. -1.
    10030    2    1    2    0    0  0.00000000000E+00  0.00000000000E+00 -0.44314229953E+03  0.16600111032E+04  0.15997692850E+04 0.  0.
        2    1    3    3  502    0  0.49069257499E+03 -0.34619286871E+03  0.32670711446E+03  0.68364189759E+03  0.25500000920E-02 0.  1.
       -2    1    3    3    0  502 -0.49069257499E+03  0.34619286871E+03 -0.76984941399E+03  0.97636920564E+03  0.25500000920E-02 0. -1.
</event>
<event>
 5   0  0.1081831E-05  0.1599904E+04  0.7818609E-02  0.8820607E-01
        1   -1    0    0  501    0  0.00000000000E+00  0.00000000000E+00  0.96173085815E+03  0.96173085816E+03  0.50400001928E-02 0.  1.
       -1   -1    0    0    0  501  0.00000000000E+00  0.00000000000E+00 -0.66538711185E+03  0.66538711187E+03  0.50400001928E-02 0. -1.
    10030    2    1    2    0    0  0.00000000000E+00  0.00000000000E+00  0.29634374629E+03  0.16271179700E+04  0.15999041448E+04 0.  0.
        3    1    3    3  502    0  0.26444349879E+03 -0.32301847716E+03  0.84216603607E+03  0.93995475590E+03  0.10100000352E+00 0.  1.
       -3    1    3    3    0  502 -0.26444349879E+03  0.32301847716E+03 -0.54582228977E+03  0.68716321413E+03  0.10100000352E+00 0. -1.
</event>
<event>
 5   0  0.2046108E-05  0.1599606E+04  0.7818609E-02  0.8820790E-01
       -2   -1    0    0    0  501  0.00000000000E+00  0.00000000000E+00  0.40282459775E+03  0.40282459776E+03  0.25500000920E-02 0.  1.
        2   -1    0    0  501    0  0.00000000000E+00  0.00000000000E+00 -0.15879984863E+04  0.15879984863E+04  0.25500000920E-02 0. -1.
    10030    2    1    2    0    0  0.00000000000E+00  0.00000000000E+00 -0.11851738886E+04  0.19908230841E+04  0.15996060159E+04 0.  0.
        1    1    3    3  502    0  0.77628269655E+03 -0.12534117271E+03 -0.41069378385E+03  0.88712717164E+03  0.50400001928E-02 0. -1.
       -1    1    3    3    0  502 -0.77628269655E+03  0.12534117271E+03 -0.77448010474E+03  0.11036959125E+04  0.50400001928E-02 0.  1.
</event>
<event>
 5   0  0.1081831E-05  0.1600715E+04  0.7818609E-02  0.8820109E-01
       -1   -1    0    0    0  501  0.00000000000E+00  0.00000000000E+00  0.77074530732E+03  0.77074530733E+03  0.50400001928E-02 0.  1.
        1   -1    0    0  501    0  0.00000000000E+00  0.00000000000E+00 -0.83110748683E+03  0.83110748685E+03  0.50400001928E-02 0. -1.
    10030    2    1    2    0    0  0.00000000000E+00  0.00000000000E+00 -0.60362179514E+02  0.16018527942E+04  0.16007150844E+04 0.  0.
        3    1    3    3  502    0  0.74461283222E+03 -0.28277630042E+03  0.48369790955E+02  0.79796638580E+03  0.10100000352E+00 0. -1.
       -3    1    3    3    0  502 -0.74461283222E+03  0.28277630042E+03 -0.10873197047E+03  0.80388640838E+03  0.10100000352E+00 0.  1.
</event>
<event>
 5   0  0.2125803E-05  0.1599091E+04  0.7818609E-02  0.8821106E-01
        2   -1    0    0  501    0  0.00000000000E+00  0.00000000000E+00  0.24620383153E+04  0.24620383153E+04  0.25500000920E-02 0.  1.
       -2   -1    0    0    0  501  0.00000000000E+00  0.00000000000E+00 -0.25965208352E+03  0.25965208354E+03  0.25500000920E-02 0. -1.
    10030    2    1    2    0    0  0.00000000000E+00  0.00000000000E+00  0.22023862318E+04  0.27216903988E+04  0.15990914649E+04 0.  0.
        3    1    3    3  502    0 -0.68071055476E+03 -0.89548445190E+02  0.17985814955E+04  0.19251704313E+04  0.10100000352E+00 0.  1.
       -3    1    3    3    0  502  0.68071055476E+03  0.89548445190E+02  0.40380473622E+03  0.79651996748E+03  0.10100000352E+00 0. -1.
</event>
<event>
 5   0  0.1060251E-05  0.1600242E+04  0.7818609E-02  0.8820400E-01
       -1   -1    0    0    0  501  0.00000000000E+00  0.00000000000E+00  0.64745317754E+03  0.64745317756E+03  0.50400001928E-02 0.  1.
        1   -1    0    0  501    0  0.00000000000E+00  0.00000000000E+00 -0.98878707132E+03  0.98878707133E+03  0.50400001928E-02 0. -1.
    10030    2    1    2    0    0  0.00000000000E+00  0.00000000000E+00 -0.34133389377E+03  0.16362402489E+04  0.16002416458E+04 0.  0.
        1    1    3    3  502    0  0.34267843907E+03  0.71730799210E+03 -0.26344998701E+03  0.83747547057E+03  0.50400001928E-02 0. -1.
       -1    1    3    3    0  502 -0.34267843907E+03 -0.71730799210E+03 -0.77883906767E+02  0.79876477832E+03  0.50400001928E-02 0.  1.
</event>
<event>
 5   0  0.1990948E-05  0.1596743E+04  0.7818609E-02  0.8822551E-01
        2   -1    0    0  501    0  0.00000000000E+00  0.00000000000E+00  0.11583565232E+04  0.11583565232E+04  0.25500000920E-02 0. -1.
       -2   -1    0    0    0  501  0.00000000000E+00  0.00000000000E+00 -0.55025991860E+03  0.55025991860E+03  0.25500000920E-02 0.  1.
    10030    2    1    2    0    0  0.00000000000E+00  0.00000000000E+00  0.60809660458E+03  0.17086164418E+04  0.15967431430E+04 0.  0.
        4    1    3    3  502    0 -0.34109558610E+03 -0.11836278035E+03 -0.45790869882E+03  0.58312771842E+03  0.12699999809E+01 0.  1.
       -4    1    3    3    0  502  0.34109558610E+03  0.11836278035E+03  0.10660053034E+04  0.11254887234E+04  0.12699999809E+01 0. -1.
</event>
<event>
 5   0  0.1990948E-05  0.1599732E+04  0.7818609E-02  0.8820713E-01
       -2   -1    0    0    0  501  0.00000000000E+00  0.00000000000E+00  0.58334044915E+03  0.58334044916E+03  0.25500000920E-02 0.  1.
        2   -1    0    0  501    0  0.00000000000E+00  0.00000000000E+00 -0.10967614626E+04  0.10967614626E+04  0.25500000920E-02 0. -1.
    10030    2    1    2    0    0  0.00000000000E+00  0.00000000000E+00 -0.51342101346E+03  0.16801019118E+04  0.15997316328E+04 0.  0.
        4    1    3    3  502    0 -0.42064307593E+03 -0.47260114774E+03 -0.77067525913E+03  0.99711303778E+03  0.12699999809E+01 0. -1.
       -4    1    3    3    0  502  0.42064307593E+03  0.47260114774E+03  0.25725424567E+03  0.68298887399E+03  0.12699999809E+01 0.  1.
</event>
<event>
 5   0  0.1057506E-05  0.1599906E+04  0.7818609E-02  0.8820606E-01
       -1   -1    0    0    0  501  0.00000000000E+00  0.00000000000E+00  0.72711972452E+03  0.72711972454E+03  0.50400001928E-02 0.  1.
        1   -1    0    0  501    0  0.00000000000E+00  0.00000000000E+00 -0.88008204448E+03  0.88008204450E+03  0.50400001928E-02 0. -1.
    10030    2    1    2    0    0  0.00000000000E+00  0.00000000000E+00 -0.15296231996E+03  0.16072017690E+04  0.15999062645E+04 0.  0.
        5    1    3    3  502    0  0.35589919900E+03  0.37885714152E+03 -0.68728826902E+03  0.86173326979E+03  0.46999998093E+01 0. -1.
       -5    1    3    3    0  502 -0.35589919900E+03 -0.37885714152E+03  0.53432594906E+03  0.74546849925E+03  0.46999998093E+01 0.  1.
</event>
<event>
 5   0  0.1081831E-05  0.1599955E+04  0.7818609E-02  0.8820576E-01
        1   -1    0    0  501    0  0.00000000000E+00  0.00000000000E+00  0.56955063302E+03  0.56955063304E+03  0.50400001928E-02 0. -1.
       -1   -1    0    0    0  501  0.00000000000E+00  0.00000000000E+00 -0.11236293371E+04  0.11236293371E+04  0.50400001928E-02 0.  1.
    10030    2    1    2    0    0  0.00000000000E+00  0.00000000000E+00 -0.55407870409E+03  0.16931799702E+04  0.15999547497E+04 0.  0.
        3    1    3    3  502    0 -0.60166743402E+03 -0.33953951491E+03  0.14978891105E+03  0.70691407641E+03  0.10100000352E+00 0. -1.
       -3    1    3    3    0  502  0.60166743402E+03  0.33953951491E+03 -0.70386761514E+03  0.98626589376E+03  0.10100000352E+00 0.  1.
</event>
<event>
 5   0  0.1126485E-05  0.1599741E+04  0.7818609E-02  0.8820707E-01
        1   -1    0    0  501    0  0.00000000000E+00  0.00000000000E+00  0.79255259955E+03  0.79255259957E+03  0.50400001928E-02 0.  1.
       -1   -1    0    0    0  501  0.00000000000E+00  0.00000000000E+00 -0.80725570693E+03  0.80725570695E+03  0.50400001928E-02 0. -1.
    10030    2    1    2    0    0  0.00000000000E+00  0.00000000000E+00 -0.14703107380E+02  0.15998083065E+04  0.15997407403E+04 0.  0.
        2    1    3    3  502    0  0.18967767492E+03 -0.74127352423E+02  0.76619267022E+03  0.79279486164E+03  0.25500000920E-02 0.  1.
       -2    1    3    3    0  502 -0.18967767492E+03  0.74127352423E+02 -0.78089577760E+03  0.80701344488E+03  0.25500000920E-02 0. -1.
</event>
<event>
 5   0  0.1990948E-05  0.1599928E+04  0.7818609E-02  0.8820592E-01
       -2   -1    0    0    0  501  0.00000000000E+00  0.00000000000E+00  0.57156708192E+03  0.57156708193E+03  0.25500000920E-02 0. -1.
        2   -1    0    0  501    0  0.00000000000E+00  0.00000000000E+00 -0.11196279214E+04  0.11196279214E+04  0.25500000920E-02 0.  1.
    10030    2    1    2    0    0  0.00000000000E+00  0.00000000000E+00 -0.54806083951E+03  0.16911950034E+04  0.15999280783E+04 0.  0.
        4    1    3    3  502    0 -0.11442164521E+03 -0.60920333819E+03 -0.80856453837E+03  0.10188224800E+04  0.12699999809E+01 0.  1.
       -4    1    3    3    0  502  0.11442164521E+03  0.60920333819E+03  0.26050369886E+03  0.67237252336E+03  0.12699999809E+01 0. -1.
</event>
<event>
 5   0  0.1081831E-05  0.1600332E+04  0.7818609E-02  0.8820344E-01
        1   -1    0    0  501    0  0.00000000000E+00  0.00000000000E+00  0.11150830034E+04  0.11150830034E+04  0.50400001928E-02 0.  1.
       -1   -1    0    0    0  501  0.00000000000E+00  0.00000000000E+00 -0.57418621488E+03  0.57418621490E+03  0.50400001928E-02 0. -1.
    10030    2    1    2    0    0  0.00000000000E+00  0.00000000000E+00  0.54089678853E+03  0.16892692183E+04  0.16003315769E+04 0.  0.
        3    1    3    3  502    0 -0.12684724694E+03 -0.31303283414E+03  0.10361478383E+04  0.10898083007E+04  0.10100000352E+00 0.  1.
       -3    1    3    3    0  502  0.12684724694E+03  0.31303283414E+03 -0.49525104973E+03  0.59946091763E+03  0.10100000352E+00 0. -1.
</event>
<event>
 5   0  0.2147844E-05  0.1597926E+04  0.7818609E-02  0.8821823E-01
        2   -1    0    0  501    0  0.00000000000E+00  0.00000000000E+00  0.15834029179E+04  0.15834029179E+04  0.25500000920E-02 0. -1.
       -2   -1    0    0    0  501  0.00000000000E+00  0.00000000000E+00 -0.40314544020E+03  0.40314544021E+03  0.25500000920E-02 0.  1.
    10030    2    1    2    0    0  0.00000000000E+00  0.00000000000E+00  0.11802574777E+04  0.19865483582E+04  0.15979257384E+04 0.  0.
        2    1    3    3  502    0  0.37391527108E+03 -0.58980798997E+03  0.10726707698E+04  0.12799643259E+04  0.25500000920E-02 0. -1.
       -2    1    3    3    0  502 -0.37391527108E+03  0.58980798997E+03  0.10758670789E+03  0.70658403230E+03  0.25500000920E-02 0.  1.
</event>
<event>
 5   0  0.1990948E-05  0.1601399E+04  0.7818609E-02  0.8819689E-01
        2   -1    0    0  501    0  0.00000000000E+00  0.00000000000E+00  0.12297293456E+04  0.12297293456E+04  0.25500000920E-02 0.  1.
       -2   -1    0    0    0  501  0.00000000000E+00  0.00000000000E+00 -0.52135027840E+03  0.52135027840E+03  0.25500000920E-02 0. -1.
    10030    2    1    2    0    0  0.00000000000E+00  0.00000000000E+00  0.70837906725E+03  0.17510796240E+04  0.16013990592E+04 0.  0.
        4    1    3    3  502    0 -0.31350311769E+02  0.57917450238E+03 -0.24939343646E+03  0.63136728241E+03  0.12699999809E+01 0. -1.
       -4    1    3    3    0  502  0.31350311769E+02 -0.57917450238E+03  0.95777250371E+03  0.11197123416E+04  0.12699999809E+01 0.  1.
</event>
<event>
 5   0  0.1057506E-05  0.1600875E+04  0.7818609E-02  0.8820010E-01
        1   -1    0    0  501    0  0.00000000000E+00  0.00000000000E+00  0.13505960120E+04  0.13505960120E+04  0.50400001928E-02 0. -1.
       -1   -1    0    0    0  501  0.00000000000E+00  0.00000000000E+00 -0.47438352419E+03  0.47438352422E+03  0.50400001928E-02 0.  1.
    10030    2    1    2    0    0  0.00000000000E+00  0.00000000000E+00  0.87621248780E+03  0.18249795362E+04  0.16008753805E+04 0.  0.
        5    1    3    3  502    0 -0.19772102123E+03 -0.46718191981E+03 -0.26769843201E+03  0.57361754587E+03  0.46999998093E+01 0.  1.
       -5    1    3    3    0  502  0.19772102123E+03  0.46718191981E+03  0.11439109198E+04  0.12513619903E+04  0.46999998093E+01 0. -1.
</event>
<event>
 5   0  0.1126485E-05  0.1599003E+04  0.7818609E-02  0.8821161E-01
       -1   -1    0    0    0  501  0.00000000000E+00  0.00000000000E+00  0.50780717317E+03  0.50780717319E+03  0.50400001928E-02 0.  1.
        1   -1    0    0  501    0  0.00000000000E+00  0.00000000000E+00 -0.12587504850E+04  0.12587504850E+04  0.50400001928E-02 0. -1.
    10030    2    1    2    0    0  0.00000000000E+00  0.00000000000E+00 -0.75094331180E+03  0.17665576582E+04  0.15990028462E+04 0.  0.
        2    1    3    3  502    0  0.13608988320E+03 -0.26917979199E+03  0.44253667059E+03  0.53555291200E+03  0.25500000920E-02 0.  1.
       -2    1    3    3    0  502 -0.13608988320E+03  0.26917979199E+03 -0.11934799824E+04  0.12310047462E+04  0.25500000920E-02 0. -1.
</event>
<event>
 5   0  0.2147844E-05  0.1599746E+04  0.7818609E-02  0.8820704E-01
       -2   -1    0    0    0  501  0.00000000000E+00  0.00000000000E+00  0.30638778704E+03  0.30638778705E+03  0.25500000920E-02 0.  1.
        2   -1    0    0  501    0  0.00000000000E+00  0.00000000000E+00 -0.20881933863E+04  0.20881933863E+04  0.25500000920E-02 0. -1.
    10030    2    1    2    0    0  0.00000000000E+00  0.00000000000E+00 -0.17818055992E+04  0.23945811733E+04  0.15997461680E+04 0.  0.
        2    1    3    3  502    0  0.45312068210E+03 -0.19817026370E+03  0.50099920240E+02  0.49709134772E+03  0.25500000920E-02 0.  1.
       -2    1    3    3    0  502 -0.45312068210E+03  0.19817026370E+03 -0.18319055195E+04  0.18974898256E+04  0.25500000920E-02 0. -1.
</event>
<event>
 5   0  0.2125803E-05  0.1599774E+04  0.7818609E-02  0.8820687E-01
       -2   -1    0    0    0  501  0.00000000000E+00  0.00000000000E+00  0.10535260904E+04  0.10535260905E+04  0.25500000920E-02 0.  1.
        2   -1    0    0  501    0  0.00000000000E+00  0.00000000000E+00 -0.60731234128E+03  0.60731234128E+03  0.25500000920E-02 0. -1.
    10030    2    1    2    0    0  0.00000000000E+00  0.00000000000E+00  0.44621374917E+03  0.16608384317E+04  0.15997742298E+04 0.  0.
        3    1    3    3  502    0  0.86291940284E+02 -0.39162219539E+03 -0.49541298715E+03  0.63737609064E+03  0.10100000352E+00 0. -1.
       -3    1    3    3    0  502 -0.86291940284E+02  0.39162219539E+03  0.94162673632E+03  0.10234623411E+04  0.10100000352E+00 0.  1.
</event>
<event>
 5   0  0.1994525E-05  0.1599346E+04  0.7818609E-02  0.8820950E-01
       -2   -1    0    0    0  501  0.00000000000E+00  0.00000000000E+00  0.53361719305E+03  0.53361719305E+03  0.25500000920E-02 0. -1.
        2   -1    0    0  501    0  0.00000000000E+00  0.00000000000E+00 -0.11983807580E+04  0.11983807580E+04  0.25500000920E-02 0.  1.
    10030    2    1    2    0    0  0.00000000000E+00  0.00000000000E+00 -0.66476356491E+03  0.17319979510E+04  0.15993455865E+04 0.  0.
        5    1    3    3  502    0  0.28312886956E+02 -0.78820397402E+02  0.52883958292E+03  0.53545090258E+03  0.46999998093E+01 0. -1.
       -5    1    3    3    0  502 -0.28312886956E+02  0.78820397402E+02 -0.11936031478E+04  0.11965470484E+04  0.46999998093E+01 0.  1.
</event>
<event>
 5   0  0.1126485E-05  0.1600623E+04  0.7818609E-02  0.8820166E-01
       -1   -1    0    0    0  501  0.00000000000E+00  0.00000000000E+00  0.32562428581E+03  0.32562428585E+03  0.50400001928E-02 0.  1.
        1   -1    0    0  501    0  0.00000000000E+00  0.00000000000E+00 -0.19669851863E+04  0.19669851863E+04  0.50400001928E-02 0. -1.
    10030    2    1    2    0    0  0.00000000000E+00  0.00000000000E+00 -0.16413609005E+04  0.22926094721E+04  0.16006225620E+04 0.  0.
        2    1    3    3  502    0 -0.44649961849E+03  0.62487950154E+03 -0.11430705170E+04  0.13771152848E+04  0.25500000920E-02 0. -1.
       -2    1    3    3    0  502  0.44649961849E+03 -0.62487950154E+03 -0.49829038341E+03  0.91549418729E+03  0.25500000920E-02 0.  1.
</event>
<event>
 5   0  0.2147844E-05  0.1601384E+04  0.7818609E-02  0.8819698E-01
        2   -1    0    0  501    0  0.00000000000E+00  0.00000000000E+00  0.15934723525E+04  0.15934723525E+04  0.25500000920E-02 0.  1.
       -2   -1    0    0    0  501  0.00000000000E+00  0.00000000000E+00 -0.40233360094E+03  0.40233360095E+03  0.25500000920E-02 0. -1.
    10030    2    1    2    0    0  0.00000000000E+00  0.00000000000E+00  0.11911387516E+04  0.19958059534E+04  0.16013837386E+04 0.  0.
        2    1    3    3  502    0 -0.45429517757E+03  0.55816275890E+03  0.15815914417E+03  0.73684739850E+03  0.25500000920E-02 0. -1.
       -2    1    3    3    0  502  0.45429517757E+03 -0.55816275890E+03  0.10329796074E+04  0.12589585549E+04  0.25500000920E-02 0.  1.
</event>
<event>
 5   0  0.1126485E-05  0.1600751E+04  0.7818609E-02  0.8820087E-01
       -1   -1    0    0    0  501  0.00000000000E+00  0.00000000000E+00  0.10723787340E+04  0.10723787340E+04  0.50400001928E-02 0.  1.
        1   -1    0    0  501    0  0.00000000000E+00  0.00000000000E+00 -0.59736471749E+03  0.59736471751E+03  0.50400001928E-02 0. -1.
    10030    2    1    2    0    0  0.00000000000E+00  0.00000000000E+00  0.47501401652E+03  0.16697434515E+04  0.16007513480E+04 0.  0.
        2    1    3    3  502    0  0.58593303136E+03  0.21066983668E+03  0.76207518198E+03  0.98410257611E+03  0.25500000920E-02 0.  1.
       -2    1    3    3    0  502 -0.58593303136E+03 -0.21066983668E+03 -0.28706116545E+03  0.68564087542E+03  0.25500000920E-02 0. -1.
</event>
<event>
 5   0  0.1994525E-05  0.1600005E+04  0.7818609E-02  0.8820545E-01
        2   -1    0    0  501    0  0.00000000000E+00  0.00000000000E+00  0.18352450585E+04  0.18352450585E+04  0.25500000920E-02 0. -1.
       -2   -1    0    0    0  501  0.00000000000E+00  0.00000000000E+00 -0.34872942175E+03  0.34872942176E+03  0.25500000920E-02 0.  1.
    10030    2    1    2    0    0  0.00000000000E+00  0.00000000000E+00  0.14865156367E+04  0.21839744803E+04  0.16000049350E+04 0.  0.
        5    1    3    3  502    0  0.78964992806E+02  0.24111559403E+02 -0.34287939603E+03  0.35271122410E+03  0.46999998093E+01 0.  1.
       -5    1    3    3    0  502 -0.78964992806E+02 -0.24111559403E+02  0.18293950328E+04  0.18312632562E+04  0.46999998093E+01 0. -1.
</event>
<event>
 5   0  0.1060251E-05  0.1599798E+04  0.7818609E-02  0.8820672E-01
       -1   -1    0    0    0  501  0.00000000000E+00  0.00000000000E+00  0.63784765157E+03  0.63784765159E+03  0.50400001928E-02 0.  1.
        1   -1    0    0  501    0  0.00000000000E+00  0.00000000000E+00 -0.10031214946E+04  0.10031214947E+04  0.50400001928E-02 0. -1.
    10030    2    1    2    0    0  0.00000000000E+00  0.00000000000E+00 -0.36527384307E+03  0.16409691462E+04  0.15997983493E+04 0.  0.
        1    1    3    3  502    0 -0.91684198821E+01  0.17178561939E+03  0.61864814295E+03  0.64212139331E+03  0.50400001928E-02 0.  1.
       -1    1    3    3    0  502  0.91684198821E+01 -0.17178561939E+03 -0.98392198601E+03  0.99884775293E+03  0.50400001928E-02 0. -1.
</event>
<event>
 5   0  0.1126485E-05  0.1600766E+04  0.7818609E-02  0.8820077E-01
       -1   -1    0    0    0  501  0.00000000000E+00  0.00000000000E+00  0.71639799678E+03  0.71639799680E+03  0.50400001928E-02 0.  1.
        1   -1    0    0  501    0  0.00000000000E+00  0.00000000000E+00 -0.89421424973E+03  0.89421424975E+03  0.50400001928E-02 0. -1.
    10030    2    1    2    0    0  0.00000000000E+00  0.00000000000E+00 -0.17781625295E+03  0.16106122465E+04  0.16007664380E+04 0.  0.
        2    1    3    3  502    0 -0.55395775514E+03  0.54527717902E+03  0.10309774886E+03  0.78410811899E+03  0.25500000920E-02 0.  1.
       -2    1    3    3    0  502  0.55395775514E+03 -0.54527717902E+03 -0.28091400182E+03  0.82650412755E+03  0.25500000920E-02 0. -1.
</event>
<event>
 5   0  0.1060251E-05  0.1599929E+04  0.7818609E-02  0.8820591E-01
        1   -1    0    0  501    0  0.00000000000E+00  0.00000000000E+00  0.10140897238E+04  0.10140897238E+04  0.50400001928E-02 0. -1.
       -1   -1    0    0    0  501  0.00000000000E+00  0.00000000000E+00 -0.63105211704E+03  0.63105211706E+03  0.50400001928E-02 0.  1.
    10030    2    1    2    0    0  0.00000000000E+00  0.00000000000E+00  0.38303760673E+03  0.16451418409E+04  0.15999293323E+04 0.  0.
        1    1    3    3  502    0  0.76510043202E+03 -0.19624823623E+03  0.61244321493E+02  0.79223917363E+03  0.50400001928E-02 0.  1.
       -1    1    3    3    0  502 -0.76510043202E+03  0.19624823623E+03  0.32179328524E+03  0.85290266722E+03  0.50400001928E-02 0. -1.
</event>
<event>
 5   0  0.1994525E-05  0.1599889E+04  0.7818609E-02  0.8820616E-01
       -2   -1    0    0    0  501  0.00000000000E+00  0.00000000000E+00  0.34363979726E+03  0.34363979727E+03  0.25500000920E-02 0.  1.
        2   -1    0    0  501    0  0.00000000000E+00  0.00000000000E+00 -0.18621575587E+04  0.18621575587E+04  0.25500000920E-02 0. -1.
    10030    2    1    2    0    0  0.00000000000E+00  0.00000000000E+00 -0.15185177614E+04  0.22057973559E+04  0.15998893036E+04 0.  0.
        5    1    3    3  502    0  0.65150554480E+03  0.13462492616E+03 -0.14684385959E+03  0.68129916684E+03  0.46999998093E+01 0.  1.
       -5    1    3    3    0  502 -0.65150554480E+03 -0.13462492616E+03 -0.13716739018E+04  0.15244981891E+04  0.46999998093E+01 0. -1.
</event>
<event>
 5   0  0.1057506E-05  0.1599931E+04  0.7818609E-02  0.8820590E-01
       -1   -1    0    0    0  501  0.00000000000E+00  0.00000000000E+00  0.51234320947E+03  0.51234320950E+03  0.50400001928E-02 0.  1.
        1   -1    0    0  501    0  0.00000000000E+00  0.00000000000E+00 -0.12490554547E+04  0.12490554547E+04  0.50400001928E-02 0. -1.
    10030    2    1    2    0    0  0.00000000000E+00  0.00000000000E+00 -0.73671224521E+03  0.17613986642E+04  0.15999313491E+04 0.  0.
        5    1    3    3  502    0 -0.66846399154E+03 -0.16930857382E+03  0.78044753007E+02  0.69399032747E+03  0.46999998093E+01 0.  1.
       -5    1    3    3    0  502  0.66846399154E+03  0.16930857382E+03 -0.81475699821E+03  0.10674083367E+04  0.46999998093E+01 0. -1.
</event>
<event>
 5   0  0.1081831E-05  0.1599440E+04  0.7818609E-02  0.8820892E-01
       -1   -1    0    0    0  501  0.00000000000E+00  0.00000000000E+00  0.22718866092E+03  0.22718866097E+03  0.50400001928E-02 0.  1.
        1   -1    0    0  501    0  0.00000000000E+00  0.00000000000E+00 -0.28150706663E+04  0.28150706663E+04  0.50400001928E-02 0. -1.
    10030    2    1    2    0    0  0.00000000000E+00  0.00000000000E+00 -0.25878820054E+04  0.30422593273E+04  0.15994400710E+04 0.  0.
        3    1    3    3  502    0  0.54781985455E+03  0.47692475400E+03 -0.19304647433E+04  0.20625852587E+04  0.10100000352E+00 0. -1.
       -3    1    3    3    0  502 -0.54781985455E+03 -0.47692475400E+03 -0.65741726213E+03  0.97967406863E+03  0.10100000352E+00 0.  1.
</event>
<event>
 5   0  0.2046108E-05  0.1600274E+04  0.7818609E-02  0.8820380E-01
        2   -1    0    0  501    0  0.00000000000E+00  0.00000000000E+00  0.12240094192E+04  0.12240094192E+04  0.25500000920E-02 0. -1.
       -2   -1    0    0    0  501  0.00000000000E+00  0.00000000000E+00 -0.52305091710E+03  0.52305091711E+03  0.25500000920E-02 0.  1.
    10030    2    1    2    0    0  0.00000000000E+00  0.00000000000E+00  0.70095850207E+03  0.17470603363E+04  0.16002740381E+04 0.  0.
        1    1    3    3  502    0 -0.45691085035E+03 -0.32845603620E+03 -0.27052784942E+03  0.62436864929E+03  0.50400001928E-02 0.  1.
       -1    1    3    3    0  502  0.45691085035E+03  0.32845603620E+03  0.97148635149E+03  0.11226916870E+04  0.50400001928E-02 0. -1.
</event>
<event>
 5   0  0.1081831E-05  0.1599999E+04  0.7818609E-02  0.8820549E-01
        1   -1    0    0  501    0  0.00000000000E+00  0.00000000000E+00  0.17164931122E+04  0.17164931122E+04  0.50400001928E-02 0. -1.
       -1   -1    0    0    0  501  0.00000000000E+00  0.00000000000E+00 -0.37285262016E+03  0.37285262020E+03  0.50400001928E-02 0.  1.
    10030    2    1    2    0    0  0.00000000000E+00  0.00000000000E+00  0.13436404920E+04  0.20893457324E+04  0.15999986930E+04 0.  0.
        3    1    3    3  502    0 -0.36265361207E+03  0.68619219137E+02 -0.25502664806E+03  0.44862550195E+03  0.10100000352E+00 0.  1.
       -3    1    3    3    0  502  0.36265361207E+03 -0.68619219137E+02  0.15986671401E+04  0.16407202304E+04  0.10100000352E+00 0. -1.
</event>
<event>
 5   0  0.2125803E-05  0.1600501E+04  0.7818609E-02  0.8820240E-01
        2   -1    0    0  501    0  0.00000000000E+00  0.00000000000E+00  0.10440192629E+04  0.10440192629E+04  0.25500000920E-02 0. -1.
       -2   -1    0    0    0  501  0.00000000000E+00  0.00000000000E+00 -0.61339972539E+03  0.61339972539E+03  0.25500000920E-02 0.  1.
    10030    2    1    2    0    0  0.00000000000E+00  0.00000000000E+00  0.43061953750E+03  0.16574189883E+04  0.16005013329E+04 0.  0.
        3    1    3    3  502    0  0.41015785481E+03  0.47626581465E+03  0.72824518544E+03  0.96197695003E+03  0.10100000352E+00 0.  1.
       -3    1    3    3    0  502 -0.41015785481E+03 -0.47626581465E+03 -0.29762564794E+03  0.69544203826E+03  0.10100000352E+00 0. -1.
</event>
<event>
 5   0  0.1060251E-05  0.1600056E+04  0.7818609E-02  0.8820513E-01
       -1   -1    0    0    0  501  0.00000000000E+00  0.00000000000E+00  0.45106879330E+03  0.45106879332E+03  0.50400001928E-02 0.  1.
        1   -1    0    0  501    0  0.00000000000E+00  0.00000000000E+00 -0.14189520372E+04  0.14189520372E+04  0.50400001928E-02 0. -1.
    10030    2    1    2    0    0  0.00000000000E+00  0.00000000000E+00 -0.96788324393E+03  0.18700208306E+04  0.16000562280E+04 0.  0.
        1    1    3    3  502    0 -0.56284785961E+03 -0.17643206916E+03  0.14772961039E+03  0.60807074088E+03  0.50400001928E-02 0.  1.
       -1    1    3    3    0  502  0.56284785961E+03  0.17643206916E+03 -0.11156128543E+04  0.12619500897E+04  0.50400001928E-02 0. -1.
</event>
<event>
 5   0  0.1060251E-05  0.1600055E+04  0.7818609E-02  0.8820514E-01
       -1   -1    0    0    0  501  0.00000000000E+00  0.00000000000E+00  0.78715247769E+03  0.78715247771E+03  0.50400001928E-02 0.  1.
        1   -1    0    0  501    0  0.00000000000E+00  0.00000000000E+00 -0.81311345859E+03  0.81311345861E+03  0.50400001928E-02 0. -1.
    10030    2    1    2    0    0  0.00000000000E+00  0.00000000000E+00 -0.25960980900E+02  0.16002659363E+04  0.16000553410E+04 0.  0.
        1    1    3    3  502    0  0.69234134804E+03 -0.40084123707E+03 -0.18815128491E+02  0.80022762301E+03  0.50400001928E-02 0. -1.
       -1    1    3    3    0  502 -0.69234134804E+03  0.40084123707E+03 -0.71458524091E+01  0.80003831331E+03  0.50400001928E-02 0.  1.
</event>
<event>
 5   0  0.2046108E-05  0.1599911E+04  0.7818609E-02  0.8820603E-01
        2   -1    0    0  501    0  0.00000000000E+00  0.00000000000E+00  0.13447676172E+04  0.13447676172E+04  0.25500000920E-02 0. -1.
       -2   -1    0    0    0  501  0.00000000000E+00  0.00000000000E+00 -0.47586555259E+03  0.47586555259E+03  0.25500000920E-02 0.  1.
    10030    2    1    2    0    0  0.00000000000E+00  0.00000000000E+00  0.86890206463E+03  0.18206331698E+04  0.15999107291E+04 0.  0.
        1    1    3    3  502    0 -0.60300903931E+02 -0.29071943177E+03  0.12797445755E+04  0.13137351961E+04  0.50400001928E-02 0. -1.
       -1    1    3    3    0  502  0.60300903931E+02  0.29071943177E+03 -0.41084251083E+03  0.50689797371E+03  0.50400001928E-02 0.  1.
</event>
<event>
 5   0  0.1081831E-05  0.1599799E+04  0.7818609E-02  0.8820671E-01
        1   -1    0    0  501    0  0.00000000000E+00  0.00000000000E+00  0.38490312434E+03  0.38490312437E+03  0.50400001928E-02 0. -1.
       -1   -1    0    0    0  501  0.00000000000E+00  0.00000000000E+00 -0.16623392957E+04  0.16623392957E+04  0.50400001928E-02 0.  1.
    10030    2    1    2    0    0  0.00000000000E+00  0.00000000000E+00 -0.12774361714E+04  0.20472424201E+04  0.15997994733E+04 0.  0.
        3    1    3    3  502    0  0.12816080735E+03  0.23976283748E+03  0.32396729695E+03  0.42292579783E+03  0.10100000352E+00 0. -1.
       -3    1    3    3    0  502 -0.12816080735E+03 -0.23976283748E+03 -0.16014034684E+04  0.16243166223E+04  0.10100000352E+00 0.  1.
</event>
<event>
 5   0  0.1060251E-05  0.1599961E+04  0.7818609E-02  0.8820572E-01
        1   -1    0    0  501    0  0.00000000000E+00  0.00000000000E+00  0.63585263509E+03  0.63585263511E+03  0.50400001928E-02 0. -1.
       -1   -1    0    0    0  501  0.00000000000E+00  0.00000000000E+00 -0.10064732416E+04  0.10064732416E+04  0.50400001928E-02 0.  1.
    10030    2    1    2    0    0  0.00000000000E+00  0.00000000000E+00 -0.37062060652E+03  0.16423258767E+04  0.15999608281E+04 0.  0.
        1    1    3    3  502    0 -0.78336411074E+03 -0.68672163405E+02 -0.33614844462E+03  0.85520229939E+03  0.50400001928E-02 0.  1.
       -1    1    3    3    0  502  0.78336411074E+03  0.68672163405E+02 -0.34472161901E+02  0.78712357734E+03  0.50400001928E-02 0. -1.
</event>
<event>
 5   0  0.2125803E-05  0.1600914E+04  0.7818609E-02  0.8819987E-01
        2   -1    0    0  501    0  0.00000000000E+00  0.00000000000E+00  0.22463651663E+04  0.22463651663E+04  0.25500000920E-02 0. -1.
       -2   -1    0    0    0  501  0.00000000000E+00  0.00000000000E+00 -0.28523017831E+03  0.28523017832E+03  0.25500000920E-02 0.  1.
    10030    2    1    2    0    0  0.00000000000E+00  0.00000000000E+00  0.19611349880E+04  0.25315953446E+04  0.16009136603E+04 0.  0.
        3    1    3    3  502    0  0.19775440483E+03  0.28451046880E+03  0.21216342166E+04  0.21497406287E+04  0.10100000352E+00 0. -1.
       -3    1    3    3    0  502 -0.19775440483E+03 -0.28451046880E+03 -0.16049922861E+03  0.38185471592E+03  0.10100000352E+00 0.  1.
</event>
<event>
 5   0  0.1994525E-05  0.1600153E+04  0.7818609E-02  0.8820454E-01
       -2   -1    0    0    0  501  0.00000000000E+00  0.00000000000E+00  0.92965810530E+03  0.92965810531E+03  0.25500000920E-02 0.  1.
        2   -1    0    0  501    0  0.00000000000E+00  0.00000000000E+00 -0.68855698199E+03  0.68855698200E+03  0.25500000920E-02 0. -1.
    10030    2    1    2    0    0  0.00000000000E+00  0.00000000000E+00  0.24110112331E+03  0.16182150873E+04  0.16001532168E+04 0.  0.
        5    1    3    3  502    0 -0.65561768743E+03 -0.74332377619E+02 -0.33703962259E+03  0.74093026098E+03  0.46999998093E+01 0. -1.
       -5    1    3    3    0  502  0.65561768743E+03  0.74332377619E+02  0.57814074590E+03  0.87728482633E+03  0.46999998093E+01 0.  1.
</event>
<event>
 5   0  0.2147844E-05  0.1596861E+04  0.7818609E-02  0.8822479E-01
        2   -1    0    0  501    0  0.00000000000E+00  0.00000000000E+00  0.10161351703E+04  0.10161351703E+04  0.25500000920E-02 0.  1.
       -2   -1    0    0    0  501  0.00000000000E+00  0.00000000000E+00 -0.62736823787E+03  0.62736823788E+03  0.25500000920E-02 0. -1.
    10030    2    1    2    0    0  0.00000000000E+00  0.00000000000E+00  0.38876693243E+03  0.16435034082E+04  0.15968605841E+04 0.  0.
        2    1    3    3  502    0 -0.57027013901E+03 -0.37563663426E+03 -0.23144054115E+03  0.72102401939E+03  0.25500000920E-02 0. -1.
       -2    1    3    3    0  502  0.57027013901E+03  0.37563663426E+03  0.62020747358E+03  0.92247938879E+03  0.25500000920E-02 0.  1.
</event>
<event>
 5   0  0.2147844E-05  0.1599564E+04  0.7818609E-02  0.8820816E-01
        2   -1    0    0  501    0  0.00000000000E+00  0.00000000000E+00  0.11029162559E+04  0.11029162559E+04  0.25500000920E-02 0.  1.
       -2   -1    0    0    0  501  0.00000000000E+00  0.00000000000E+00 -0.57996352495E+03  0.57996352495E+03  0.25500000920E-02 0. -1.
    10030    2    1    2    0    0  0.00000000000E+00  0.00000000000E+00  0.52295273093E+03  0.16828797808E+04  0.15995639399E+04 0.  0.
        2    1    3    3  502    0  0.12654293987E+03  0.15134638650E+03 -0.55396361224E+03  0.58804296444E+03  0.25500000920E-02 0. -1.
       -2    1    3    3    0  502 -0.12654293987E+03 -0.15134638650E+03  0.10769163432E+04  0.10948368164E+04  0.25500000920E-02 0.  1.
</event>
<event>
 5   0  0.2125803E-05  0.1600249E+04  0.7818609E-02  0.8820395E-01
       -2   -1    0    0    0  501  0.00000000000E+00  0.00000000000E+00  0.34326574796E+03  0.34326574797E+03  0.25500000920E-02 0. -1.
        2   -1    0    0  501    0  0.00000000000E+00  0.00000000000E+00 -0.18650241151E+04  0.18650241151E+04  0.25500000920E-02 0.  1.
    10030    2    1    2    0    0  0.00000000000E+00  0.00000000000E+00 -0.15217583672E+04  0.22082898631E+04  0.16002486030E+04 0.  0.
        3    1    3    3  502    0 -0.66431143553E+03  0.14411023461E+03 -0.17847199547E+03  0.70280132787E+03  0.10100000352E+00 0. -1.
       -3    1    3    3    0  502  0.66431143553E+03 -0.14411023461E+03 -0.13432863717E+04  0.15054885352E+04  0.10100000352E+00 0.  1.
</event>
<event>
 5   0  0.1126485E-05  0.1601884E+04  0.7818609E-02  0.8819391E-01
       -1   -1    0    0    0  501  0.00000000000E+00  0.00000000000E+00  0.67785454269E+03  0.67785454271E+03  0.50400001928E-02 0. -1.
        1   -1    0    0  501    0  0.00000000000E+00  0.00000000000E+00 -0.94638067354E+03  0.94638067356E+03  0.50400001928E-02 0.  1.
    10030    2    1    2    0    0  0.00000000000E+00  0.00000000000E+00 -0.26852613086E+03  0.16242352163E+04  0.16018844387E+04 0.  0.
        2    1    3    3  502    0  0.77690342838E+03 -0.19425177344E+03 -0.12007677567E+03  0.80977226464E+03  0.25500000920E-02 0. -1.
       -2    1    3    3    0  502 -0.77690342838E+03  0.19425177344E+03 -0.14844935519E+03  0.81446295163E+03  0.25500000920E-02 0.  1.
</event>
<event>
 5   0  0.2046108E-05  0.1603611E+04  0.7818609E-02  0.8818333E-01
       -2   -1    0    0    0  501  0.00000000000E+00  0.00000000000E+00  0.38253631041E+03  0.38253631042E+03  0.25500000920E-02 0.  1.
        2   -1    0    0  501    0  0.00000000000E+00  0.00000000000E+00 -0.16806037315E+04  0.16806037315E+04  0.25500000920E-02 0. -1.
    10030    2    1    2    0    0  0.00000000000E+00  0.00000000000E+00 -0.12980674211E+04  0.20631400419E+04  0.16036108639E+04 0.  0.
        1    1    3    3  502    0 -0.66309483936E+03  0.14707626575E+03 -0.10082404254E+03  0.68665251875E+03  0.50400001928E-02 0.  1.
       -1    1    3    3    0  502  0.66309483936E+03 -0.14707626575E+03 -0.11972433786E+04  0.13764875232E+04  0.50400001928E-02 0. -1.
</event>
<event>
 5   0  0.1081831E-05  0.1599862E+04  0.7818609E-02  0.8820633E-01
        1   -1    0    0  501    0  0.00000000000E+00  0.00000000000E+00  0.68098757082E+03  0.68098757084E+03  0.50400001928E-02 0.  1.
       -1   -1    0    0    0  501  0.00000000000E+00  0.00000000000E+00 -0.93964910695E+03  0.93964910696E+03  0.50400001928E-02 0. -1.
    10030    2    1    2    0    0  0.00000000000E+00  0.00000000000E+00 -0.25866153613E+03  0.16206366778E+04  0.15998616975E+04 0.  0.
        3    1    3    3  502    0 -0.70230507636E+03  0.24039842511E+03 -0.43130500254E+03  0.85851490290E+03  0.10100000352E+00 0. -1.
       -3    1    3    3    0  502  0.70230507636E+03 -0.24039842511E+03  0.17264346641E+03  0.76212177490E+03  0.10100000352E+00 0.  1.
</event>
<event>
 5   0  0.1081831E-05  0.1598736E+04  0.7818609E-02  0.8821325E-01
        1   -1    0    0  501    0  0.00000000000E+00  0.00000000000E+00  0.42360632580E+03  0.42360632583E+03  0.50400001928E-02 0.  1.
       -1   -1    0    0    0  501  0.00000000000E+00  0.00000000000E+00 -0.15084513276E+04  0.15084513276E+04  0.50400001928E-02 0. -1.
    10030    2    1    2    0    0  0.00000000000E+00  0.00000000000E+00 -0.10848450018E+04  0.19320576534E+04  0.15987364068E+04 0.  0.
        3    1    3    3  502    0 -0.32416667621E+03  0.15848664714E+03  0.31958573971E+03  0.48201359577E+03  0.10100000352E+00 0.  1.
       -3    1    3    3    0  502  0.32416667621E+03 -0.15848664714E+03 -0.14044307415E+04  0.14500440577E+04  0.10100000352E+00 0. -1.
</event>
<event>
 5   0  0.1090674E-05  0.1600697E+04  0.7818609E-02  0.8820120E-01
        1   -1    0    0  501    0  0.00000000000E+00  0.00000000000E+00  0.62776330680E+03  0.62776330682E+03  0.50400001928E-02 0.  1.
       -1   -1    0    0    0  501  0.00000000000E+00  0.00000000000E+00 -0.10203804730E+04  0.10203804730E+04  0.50400001928E-02 0. -1.
    10030    2    1    2    0    0  0.00000000000E+00  0.00000000000E+00 -0.39261716622E+03  0.16481437799E+04  0.16006966233E+04 0.  0.
        4    1    3    3  502    0 -0.18855908928E+02 -0.75699297131E+03 -0.46314651380E+03  0.88763743164E+03  0.12699999809E+01 0. -1.
       -4    1    3    3    0  502  0.18855908928E+02  0.75699297131E+03  0.70529347576E+02  0.76050634822E+03  0.12699999809E+01 0.  1.
</event>
<event>
 5   0  0.1990948E-05  0.1600248E+04  0.7818609E-02  0.8820396E-01
       -2   -1    0    0    0  501  0.00000000000E+00  0.00000000000E+00  0.87674168797E+03  0.87674168797E+03  0.25500000920E-02 0.  1.
        2   -1    0    0  501    0  0.00000000000E+00  0.00000000000E+00 -0.73020203489E+03  0.73020203490E+03  0.25500000920E-02 0. -1.
    10030    2    1    2    0    0  0.00000000000E+00  0.00000000000E+00  0.14653965308E+03  0.16069437229E+04  0.16002481865E+04 0.  0.
        4    1    3    3  502    0 -0.58994667863E+03 -0.42342322324E+03  0.41064076514E+03  0.83423723274E+03  0.12699999809E+01 0.  1.
       -4    1    3    3    0  502  0.58994667863E+03  0.42342322324E+03 -0.26410111206E+03  0.77270649013E+03  0.12699999809E+01 0. -1.
</event>
<event>
 5   0  0.1081831E-05  0.1600105E+04  0.7818609E-02  0.8820483E-01
       -1   -1    0    0    0  501  0.00000000000E+00  0.00000000000E+00  0.66991500649E+03  0.66991500651E+03  0.50400001928E-02 0.  1.
        1   -1    0    0  501    0  0.00000000000E+00  0.00000000000E+00 -0.95547054131E+03  0.95547054133E+03  0.50400001928E-02 0. -1.
    10030    2    1    2    0    0  0.00000000000E+00  0.00000000000E+00 -0.28555553482E+03  0.16253855478E+04  0.16001050639E+04 0.  0.
        3    1    3    3  502    0  0.37124876058E+03  0.48442873991E+03 -0.66823885422E+03  0.90500829984E+03  0.10100000352E+00 0. -1.
       -3    1    3    3    0  502 -0.37124876058E+03 -0.48442873991E+03  0.38268331940E+03  0.72037724800E+03  0.10100000352E+00 0.  1.
</event>
<event>
 5   0  0.1994525E-05  0.1599786E+04  0.7818609E-02  0.8820680E-01
       -2   -1    0    0    0  501  0.00000000000E+00  0.00000000000E+00  0.14042172541E+04  0.14042172541E+04  0.25500000920E-02 0. -1.
        2   -1    0    0  501    0  0.00000000000E+00  0.00000000000E+00 -0.45564774851E+03  0.45564774852E+03  0.25500000920E-02 0.  1.
    10030    2    1    2    0    0  0.00000000000E+00  0.00000000000E+00  0.94856950562E+03  0.18598650027E+04  0.15997855235E+04 0.  0.
        5    1    3    3  502    0 -0.24831789095E+03 -0.34509676902E+03  0.12619668473E+04  0.13316666131E+04  0.46999998093E+01 0. -1.
       -5    1    3    3    0  502  0.24831789095E+03  0.34509676902E+03 -0.31339734164E+03  0.52819838952E+03  0.46999998093E+01 0.  1.
</event>
<event>
 5   0  0.1081831E-05  0.1599660E+04  0.7818609E-02  0.8820757E-01
        1   -1    0    0  501    0  0.00000000000E+00  0.00000000000E+00  0.14840420371E+04  0.14840420371E+04  0.50400001928E-02 0. -1.
       -1   -1    0    0    0  501  0.00000000000E+00  0.00000000000E+00 -0.43107162346E+03  0.43107162349E+03  0.50400001928E-02 0.  1.
    10030    2    1    2    0    0  0.00000000000E+00  0.00000000000E+00  0.10529704136E+04  0.19151136606E+04  0.15996604768E+04 0.  0.
        3    1    3    3  502    0 -0.16587731683E+02 -0.71471178283E+03  0.97091884451E+02  0.72146720618E+03  0.10100000352E+00 0.  1.
       -3    1    3    3    0  502  0.16587731683E+02  0.71471178283E+03  0.95587852917E+03  0.11936464544E+04  0.10100000352E+00 0. -1.
</event>
<event>
 5   0  0.2046108E-05  0.1595590E+04  0.7818609E-02  0.8823262E-01
        2   -1    0    0  501    0  0.00000000000E+00  0.00000000000E+00  0.11866644427E+04  0.11866644427E+04  0.25500000920E-02 0.  1.
       -2   -1    0    0    0  501  0.00000000000E+00  0.00000000000E+00 -0.53635775738E+03  0.53635775739E+03  0.25500000920E-02 0. -1.
    10030    2    1    2    0    0  0.00000000000E+00  0.00000000000E+00  0.65030668531E+03  0.17230222001E+04  0.15955897709E+04 0.  0.
        1    1    3    3  502    0 -0.21235024113E+03 -0.26305578915E+03 -0.45518351326E+03  0.56699471240E+03  0.50400001928E-02 0. -1.
       -1    1    3    3    0  502  0.21235024113E+03  0.26305578915E+03  0.11054901986E+04  0.11560274877E+04  0.50400001928E-02 0.  1.
</event>
<event>
 5   0  0.1081831E-05  0.1599205E+04  0.7818609E-02  0.8821036E-01
       -1   -1    0    0    0  501  0.00000000000E+00  0.00000000000E+00  0.85288139583E+03  0.85288139584E+03  0.50400001928E-02 0.  1.
        1   -1    0    0  501    0  0.00000000000E+00  0.00000000000E+00 -0.74965228767E+03  0.74965228769E+03  0.50400001928E-02 0. -1.
    10030    2    1    2    0    0  0.00000000000E+00  0.00000000000E+00  0.10322910816E+03  0.16025336835E+04  0.15992054146E+04 0.  0.
        3    1    3    3  502    0 -0.41190458729E+03 -0.35863319217E+03  0.63685170186E+03  0.83896558685E+03  0.10100000352E+00 0.  1.
       -3    1    3    3    0  502  0.41190458729E+03  0.35863319217E+03 -0.53362259370E+03  0.76356809668E+03  0.10100000352E+00 0. -1.
</event>
<event>
 5   0  0.1994525E-05  0.1600393E+04  0.7818609E-02  0.8820307E-01
       -2   -1    0    0    0  501  0.00000000000E+00  0.00000000000E+00  0.10920489048E+04  0.10920489048E+04  0.25500000920E-02 0. -1.
        2   -1    0    0  501    0  0.00000000000E+00  0.00000000000E+00 -0.58634197594E+03  0.58634197595E+03  0.25500000920E-02 0.  1.
    10030    2    1    2    0    0  0.00000000000E+00  0.00000000000E+00  0.50570692885E+03  0.16783908807E+04  0.16003925927E+04 0.  0.
        5    1    3    3  502    0 -0.36014378917E+03 -0.60224650682E+03 -0.15045049595E+03  0.71767809329E+03  0.46999998093E+01 0.  1.
       -5    1    3    3    0  502  0.36014378917E+03  0.60224650682E+03  0.65615742480E+03  0.96071278745E+03  0.46999998093E+01 0. -1.
</event>
<event>
 5   0  0.2125803E-05  0.1599906E+04  0.7818609E-02  0.8820606E-01
        2   -1    0    0  501    0  0.00000000000E+00  0.00000000000E+00  0.96495746135E+03  0.96495746136E+03  0.25500000920E-02 0. -1.
       -2   -1    0    0    0  501  0.00000000000E+00  0.00000000000E+00 -0.66316340299E+03  0.66316340299E+03  0.25500000920E-02 0.  1.
    10030    2    1    2    0    0  0.00000000000E+00  0.00000000000E+00  0.30179405837E+03  0.16281208643E+04  0.15999055895E+04 0.  0.
        3    1    3    3  502    0  0.44892814951E+03 -0.55961164382E+03 -0.20921196706E+03  0.74730939556E+03  0.10100000352E+00 0.  1.
       -3    1    3    3    0  502 -0.44892814951E+03  0.55961164382E+03  0.51100602543E+03  0.88081146879E+03  0.10100000352E+00 0. -1.
</event>
<event>
 5   0  0.2125803E-05  0.1599362E+04  0.7818609E-02  0.8820940E-01
       -2   -1    0    0    0  501  0.00000000000E+00  0.00000000000E+00  0.68170042497E+03  0.68170042497E+03  0.25500000920E-02 0.  1.
        2   -1    0    0  501    0  0.00000000000E+00  0.00000000000E+00 -0.93808004535E+03  0.93808004536E+03  0.25500000920E-02 0. -1.
    10030    2    1    2    0    0  0.00000000000E+00  0.00000000000E+00 -0.25637962039E+03  0.16197804703E+04  0.15993618297E+04 0.  0.
        3    1    3    3  502    0 -0.59615970936E+03  0.42783234488E+03 -0.45012005209E+03  0.86084550640E+03  0.10100000352E+00 0. -1.
       -3    1    3    3    0  502  0.59615970936E+03 -0.42783234488E+03  0.19374043171E+03  0.75893496393E+03  0.10100000352E+00 0.  1.
</event>
<event>
 5   0  0.1060251E-05  0.1599156E+04  0.7818609E-02  0.8821067E-01
       -1   -1    0    0    0  501  0.00000000000E+00  0.00000000000E+00  0.11438857882E+04  0.11438857882E+04  0.50400001928E-02 0. -1.
        1   -1    0    0  501    0  0.00000000000E+00  0.00000000000E+00 -0.55890631700E+03  0.55890631702E+03  0.50400001928E-02 0.  1.
    10030    2    1    2    0    0  0.00000000000E+00  0.00000000000E+00  0.58497947118E+03  0.17027921052E+04  0.15991560186E+04 0.  0.
        1    1    3    3  502    0  0.41804567364E+02 -0.61142899752E+03 -0.25434005417E+03  0.66353741721E+03  0.50400001928E-02 0.  1.
       -1    1    3    3    0  502 -0.41804567364E+02  0.61142899752E+03  0.83931952536E+03  0.10392546880E+04  0.50400001928E-02 0. -1.
</event>
<event>
 5   0  0.1090674E-05  0.1599622E+04  0.7818609E-02  0.8820780E-01
        1   -1    0    0  501    0  0.00000000000E+00  0.00000000000E+00  0.56314858904E+03  0.56314858906E+03  0.50400001928E-02 0.  1.
       -1   -1    0    0    0  501  0.00000000000E+00  0.00000000000E+00 -0.11359306035E+04  0.11359306035E+04  0.50400001928E-02 0. -1.
    10030    2    1    2    0    0  0.00000000000E+00  0.00000000000E+00 -0.57278201441E+03  0.16990791925E+04  0.15996221011E+04 0.  0.
        4    1    3    3  502    0 -0.12518468861E+03  0.35548085026E+03 -0.10357015359E+04  0.11021420623E+04  0.12699999809E+01 0. -1.
       -4    1    3    3    0  502  0.12518468861E+03 -0.35548085026E+03  0.46291952148E+03  0.59693713022E+03  0.12699999809E+01 0.  1.
</event>
<event>
 5   0  0.1060251E-05  0.1600102E+04  0.7818609E-02  0.8820485E-01
        1   -1    0    0  501    0  0.00000000000E+00  0.00000000000E+00  0.93818861439E+03  0.93818861440E+03  0.50400001928E-02 0.  1.
       -1   -1    0    0    0  501  0.00000000000E+00  0.00000000000E+00 -0.68225245031E+03  0.68225245033E+03  0.50400001928E-02 0. -1.
    10030    2    1    2    0    0  0.00000000000E+00  0.00000000000E+00  0.25593616407E+03  0.16204410647E+04  0.16001018481E+04 0.  0.
        1    1    3    3  502    0  0.52484601130E+03 -0.46718849622E+03  0.51539207155E+03  0.87141116244E+03  0.50400001928E-02 0.  1.
       -1    1    3    3    0  502 -0.52484601130E+03  0.46718849622E+03 -0.25945590747E+03  0.74902990229E+03  0.50400001928E-02 0. -1.
</event>
<event>
 5   0  0.7597000E-06  0.1599885E+04  0.7818609E-02  0.8820619E-01
        3   -1    0    0  501    0  0.00000000000E+00  0.00000000000E+00  0.16189372233E+04  0.16189372264E+04  0.10100000352E+00 0.  1.
       -3   -1    0    0    0  501  0.00000000000E+00  0.00000000000E+00 -0.39526431557E+03  0.39526432848E+03  0.10100000352E+00 0. -1.
    10030    2    1    2    0    0  0.00000000000E+00  0.00000000000E+00  0.12236729077E+04  0.20142015549E+04  0.15998851580E+04 0.  0.
        2    1    3    3  502    0 -0.15717918276E+03  0.21364919440E+03  0.15619656408E+04  0.15843257042E+04  0.25500000920E-02 0.  1.
       -2    1    3    3    0  502  0.15717918276E+03 -0.21364919440E+03 -0.33829273312E+03  0.42987585074E+03  0.25500000920E-02 0. -1.
</event>
<event>
 5   0  0.1081831E-05  0.1599131E+04  0.7818609E-02  0.8821082E-01
        1   -1    0    0  501    0  0.00000000000E+00  0.00000000000E+00  0.66311275646E+03  0.66311275648E+03  0.50400001928E-02 0. -1.
       -1   -1    0    0    0  501  0.00000000000E+00  0.00000000000E+00 -0.96409730983E+03  0.96409730984E+03  0.50400001928E-02 0.  1.
    10030    2    1    2    0    0  0.00000000000E+00  0.00000000000E+00 -0.30098455337E+03  0.16272100663E+04  0.15991312950E+04 0.  0.
        3    1    3    3  502    0 -0.38192401566E+03  0.70032948398E+03 -0.94964191160E+02  0.80333401999E+03  0.10100000352E+00 0. -1.
       -3    1    3    3    0  502  0.38192401566E+03 -0.70032948398E+03 -0.20602036221E+03  0.82387604633E+03  0.10100000352E+00 0.  1.
</event>
<event>
 5   0  0.1090674E-05  0.1599935E+04  0.7818609E-02  0.8820588E-01
       -1   -1    0    0    0  501  0.00000000000E+00  0.00000000000E+00  0.72495377528E+03  0.72495377530E+03  0.50400001928E-02 0. -1.
        1   -1    0    0  501    0  0.00000000000E+00  0.00000000000E+00 -0.88274372438E+03  0.88274372439E+03  0.50400001928E-02 0.  1.
    10030    2    1    2    0    0  0.00000000000E+00  0.00000000000E+00 -0.15778994910E+03  0.16076974997E+04  0.15999354932E+04 0.  0.
        4    1    3    3  502    0  0.38867330439E+03 -0.21118972271E+03  0.59088110364E+03  0.73811254430E+03  0.12699999809E+01 0. -1.
       -4    1    3    3    0  502 -0.38867330439E+03  0.21118972271E+03 -0.74867105274E+03  0.86958495539E+03  0.12699999809E+01 0.  1.
</event>
<event>
 5   0  0.1126485E-05  0.1600939E+04  0.7818609E-02  0.8819971E-01
       -1   -1    0    0    0  501  0.00000000000E+00  0.00000000000E+00  0.14946831257E+04  0.14946831257E+04  0.50400001928E-02 0. -1.
        1   -1    0    0  501    0  0.00000000000E+00  0.00000000000E+00 -0.42868715739E+03  0.42868715742E+03  0.50400001928E-02 0.  1.
    10030    2    1    2    0    0  0.00000000000E+00  0.00000000000E+00  0.10659959683E+04  0.19233702832E+04  0.16009390499E+04 0.  0.
        2    1    3    3  502    0  0.14552348352E+03  0.59932016339E+03  0.11460538035E+04  0.13014611262E+04  0.25500000920E-02 0. -1.
       -2    1    3    3    0  502 -0.14552348352E+03 -0.59932016339E+03 -0.80057835177E+02  0.62190915694E+03  0.25500000920E-02 0.  1.
</event>
<event>
 5   0  0.2147844E-05  0.1599496E+04  0.7818609E-02  0.8820857E-01
       -2   -1    0    0    0  501  0.00000000000E+00  0.00000000000E+00  0.27249437015E+03  0.27249437016E+03  0.25500000920E-02 0.  1.
        2   -1    0    0  501    0  0.00000000000E+00  0.00000000000E+00 -0.23471942142E+04  0.23471942142E+04  0.25500000920E-02 0. -1.
    10030    2    1    2    0    0  0.00000000000E+00  0.00000000000E+00 -0.20746998441E+04  0.26196885844E+04  0.15994964321E+04 0.  0.
        2    1    3    3  502    0  0.60595147340E+03  0.43240527149E+03 -0.55859692762E+03  0.93068901061E+03  0.25500000920E-02 0.  1.
       -2    1    3    3    0  502 -0.60595147340E+03 -0.43240527149E+03 -0.15161029165E+04  0.16889995738E+04  0.25500000920E-02 0. -1.
</event>
<event>
 5   0  0.1057506E-05  0.1600121E+04  0.7818609E-02  0.8820474E-01
       -1   -1    0    0    0  501  0.00000000000E+00  0.00000000000E+00  0.31618381191E+03  0.31618381195E+03  0.50400001928E-02 0.  1.
        1   -1    0    0  501    0  0.00000000000E+00  0.00000000000E+00 -0.20244443109E+04  0.20244443109E+04  0.50400001928E-02 0. -1.
    10030    2    1    2    0    0  0.00000000000E+00  0.00000000000E+00 -0.17082604990E+04  0.23406281228E+04  0.16001206445E+04 0.  0.
        5    1    3    3  502    0  0.45368473817E+03  0.65646012069E+03 -0.77004001745E+03  0.11089424918E+04  0.46999998093E+01 0. -1.
       -5    1    3    3    0  502 -0.45368473817E+03 -0.65646012069E+03 -0.93822048151E+03  0.12316856310E+04  0.46999998093E+01 0.  1.
</event>
<event>
 5   0  0.1081831E-05  0.1600192E+04  0.7818609E-02  0.8820430E-01
        1   -1    0    0  501    0  0.00000000000E+00  0.00000000000E+00  0.12176051031E+04  0.12176051032E+04  0.50400001928E-02 0.  1.
       -1   -1    0    0    0  501  0.00000000000E+00  0.00000000000E+00 -0.52574786065E+03  0.52574786068E+03  0.50400001928E-02 0. -1.
    10030    2    1    2    0    0  0.00000000000E+00  0.00000000000E+00  0.69185724249E+03  0.17433529638E+04  0.16001915862E+04 0.  0.
        3    1    3    3  502    0 -0.59534725727E+03 -0.39500301706E+03 -0.46411251988E+02  0.71597468862E+03  0.10100000352E+00 0. -1.
       -3    1    3    3    0  502  0.59534725727E+03  0.39500301706E+03  0.73826849448E+03  0.10273782752E+04  0.10100000352E+00 0.  1.
</event>
<event>
 5   0  0.2147844E-05  0.1599950E+04  0.7818609E-02  0.8820579E-01
        2   -1    0    0  501    0  0.00000000000E+00  0.00000000000E+00  0.11838570904E+04  0.11838570904E+04  0.25500000920E-02 0.  1.
       -2   -1    0    0    0  501  0.00000000000E+00  0.00000000000E+00 -0.54057173572E+03  0.54057173573E+03  0.25500000920E-02 0. -1.
    10030    2    1    2    0    0  0.00000000000E+00  0.00000000000E+00  0.64328535466E+03  0.17244288261E+04  0.15999496020E+04 0.  0.
        2    1    3    3  502    0 -0.23634110704E+03  0.29677806082E+03 -0.43744318980E+03  0.57904307316E+03  0.25500000920E-02 0. -1.
       -2    1    3    3    0  502  0.23634110704E+03 -0.29677806082E+03  0.10807285445E+04  0.11453857530E+04  0.25500000920E-02 0.  1.
</event>
<event>
 5   0  0.1126485E-05  0.1599863E+04  0.7818609E-02  0.8820632E-01
        1   -1    0    0  501    0  0.00000000000E+00  0.00000000000E+00  0.12844819204E+04  0.12844819204E+04  0.50400001928E-02 0.  1.
       -1   -1    0    0    0  501  0.00000000000E+00  0.00000000000E+00 -0.49817033043E+03  0.49817033045E+03  0.50400001928E-02 0. -1.
    10030    2    1    2    0    0  0.00000000000E+00  0.00000000000E+00  0.78631159001E+03  0.17826522509E+04  0.15998634726E+04 0.  0.
        2    1    3    3  502    0  0.21034271660E+03  0.26087924562E+03 -0.41618507049E+03  0.53433327814E+03  0.25500000920E-02 0. -1.
       -2    1    3    3    0  502 -0.21034271660E+03 -0.26087924562E+03  0.12024966605E+04  0.12483189728E+04  0.25500000920E-02 0.  1.
</event>
<event>
 5   0  0.1057506E-05  0.1599952E+04  0.7818609E-02  0.8820577E-01
        1   -1    0    0  501    0  0.00000000000E+00  0.00000000000E+00  0.21765034881E+03  0.21765034887E+03  0.50400001928E-02 0.  1.
       -1   -1    0    0    0  501  0.00000000000E+00  0.00000000000E+00 -0.29403204274E+04  0.29403204274E+04  0.50400001928E-02 0. -1.
    10030    2    1    2    0    0  0.00000000000E+00  0.00000000000E+00 -0.27226700785E+04  0.31579707762E+04  0.15999522077E+04 0.  0.
        5    1    3    3  502    0  0.36497343216E+03  0.52842622531E+03 -0.41989730498E+03  0.76731722157E+03  0.46999998093E+01 0. -1.
       -5    1    3    3    0  502 -0.36497343216E+03 -0.52842622531E+03 -0.23027727736E+04  0.23906535547E+04  0.46999998093E+01 0.  1.
</event>
<event>
 5   0  0.2046108E-05  0.1598695E+04  0.7818609E-02  0.8821350E-01
       -2   -1    0    0    0  501  0.00000000000E+00  0.00000000000E+00  0.74918604972E+03  0.74918604973E+03  0.25500000920E-02 0. -1.
        2   -1    0    0  501    0  0.00000000000E+00  0.00000000000E+00 -0.85286758777E+03  0.85286758778E+03  0.25500000920E-02 0.  1.
    10030    2    1    2    0    0  0.00000000000E+00  0.00000000000E+00 -0.10368153805E+03  0.16020536375E+04  0.15986950917E+04 0.  0.
        1    1    3    3  502    0 -0.40285634769E+03 -0.36462550297E+02 -0.74273367601E+03  0.84573995291E+03  0.50400001928E-02 0.  1.
       -1    1    3    3    0  502  0.40285634769E+03  0.36462550297E+02  0.63905213796E+03  0.75631368459E+03  0.50400001928E-02 0. -1.
</event>
<event>
 5   0  0.2147844E-05  0.1599389E+04  0.7818609E-02  0.8820924E-01
        2   -1    0    0  501    0  0.00000000000E+00  0.00000000000E+00  0.17824640993E+04  0.17824640993E+04  0.25500000920E-02 0.  1.
       -2   -1    0    0    0  501  0.00000000000E+00  0.00000000000E+00 -0.35877913621E+03  0.35877913622E+03  0.25500000920E-02 0. -1.
    10030    2    1    2    0    0  0.00000000000E+00  0.00000000000E+00  0.14236849631E+04  0.21412432356E+04  0.15993885455E+04 0.  0.
        2    1    3    3  502    0 -0.27473991174E+03  0.23477463194E+03  0.16669063655E+04  0.17056312551E+04  0.25500000920E-02 0.  1.
       -2    1    3    3    0  502  0.27473991174E+03 -0.23477463194E+03 -0.24322140242E+03  0.43561198045E+03  0.25500000920E-02 0. -1.
</event>
<event>
 5   0  0.1990948E-05  0.1598377E+04  0.7818609E-02  0.8821545E-01
       -2   -1    0    0    0  501  0.00000000000E+00  0.00000000000E+00  0.27269148651E+03  0.27269148652E+03  0.25500000920E-02 0. -1.
        2   -1    0    0  501    0  0.00000000000E+00  0.00000000000E+00 -0.23422166827E+04  0.23422166827E+04  0.25500000920E-02 0.  1.
    10030    2    1    2    0    0  0.00000000000E+00  0.00000000000E+00 -0.20695251962E+04  0.26149081692E+04  0.15983773634E+04 0.  0.
        4    1    3    3  502    0 -0.67697723016E+02 -0.74128156081E+03 -0.55886598880E+03  0.93081369803E+03  0.12699999809E+01 0. -1.
       -4    1    3    3    0  502  0.67697723016E+02  0.74128156081E+03 -0.15106592074E+04  0.16840944712E+04  0.12699999809E+01 0.  1.
</event>
<event>
 5   0  0.1994525E-05  0.1600193E+04  0.7818609E-02  0.8820429E-01
       -2   -1    0    0    0  501  0.00000000000E+00  0.00000000000E+00  0.10274874828E+04  0.10274874828E+04  0.25500000920E-02 0.  1.
        2   -1    0    0  501    0  0.00000000000E+00  0.00000000000E+00 -0.62302930015E+03  0.62302930016E+03  0.25500000920E-02 0. -1.
    10030    2    1    2    0    0  0.00000000000E+00  0.00000000000E+00  0.40445818262E+03  0.16505167829E+04  0.16001934974E+04 0.  0.
        5    1    3    3  502    0  0.75539458231E+03  0.24106421799E+03  0.92101592337E+02  0.79827171157E+03  0.46999998093E+01 0.  1.
       -5    1    3    3    0  502 -0.75539458231E+03 -0.24106421799E+03  0.31235659028E+03  0.85224507137E+03  0.46999998093E+01 0. -1.
</event>
<event>
 5   0  0.1990948E-05  0.1599844E+04  0.7818609E-02  0.8820644E-01
       -2   -1    0    0    0  501  0.00000000000E+00  0.00000000000E+00  0.58708616544E+03  0.58708616544E+03  0.25500000920E-02 0. -1.
        2   -1    0    0  501    0  0.00000000000E+00  0.00000000000E+00 -0.10899172873E+04  0.10899172873E+04  0.25500000920E-02 0.  1.
    10030    2    1    2    0    0  0.00000000000E+00  0.00000000000E+00 -0.50283112183E+03  0.16770034527E+04  0.15998441935E+04 0.  0.
        4    1    3    3  502    0  0.42806900826E+03 -0.38329268865E+03  0.33194768117E+03  0.66358664614E+03  0.12699999809E+01 0. -1.
       -4    1    3    3    0  502 -0.42806900826E+03  0.38329268865E+03 -0.83477880300E+03  0.10134168066E+04  0.12699999809E+01 0.  1.
</event>
<event>
 5   0  0.2046108E-05  0.1599763E+04  0.7818609E-02  0.8820694E-01
        2   -1    0    0  501    0  0.00000000000E+00  0.00000000000E+00  0.12062698770E+04  0.12062698770E+04  0.25500000920E-02 0.  1.
       -2   -1    0    0    0  501  0.00000000000E+00  0.00000000000E+00 -0.53040414041E+03  0.53040414042E+03  0.25500000920E-02 0. -1.
    10030    2    1    2    0    0  0.00000000000E+00  0.00000000000E+00  0.67586573659E+03  0.17366740174E+04  0.15997631540E+04 0.  0.
        1    1    3    3  502    0  0.64504980447E+03  0.46730718845E+03  0.25856443842E+03  0.83744899991E+03  0.50400001928E-02 0.  1.
       -1    1    3    3    0  502 -0.64504980447E+03 -0.46730718845E+03  0.41730129817E+03  0.89922501750E+03  0.50400001928E-02 0. -1.
</event>
<event>
 5   0  0.1126485E-05  0.1600089E+04  0.7818609E-02  0.8820493E-01
        1   -1    0    0  501    0  0.00000000000E+00  0.00000000000E+00  0.12374581432E+04  0.12374581433E+04  0.50400001928E-02 0. -1.
       -1   -1    0    0    0  501  0.00000000000E+00  0.00000000000E+00 -0.51724684764E+03  0.51724684766E+03  0.50400001928E-02 0.  1.
    10030    2    1    2    0    0  0.00000000000E+00  0.00000000000E+00  0.72021129560E+03  0.17547049909E+04  0.16000891522E+04 0.  0.
        2    1    3    3  502    0 -0.71839589110E+03  0.13294938704E+03  0.71765249438E+03  0.10241060973E+04  0.25500000920E-02 0. -1.
       -2    1    3    3    0  502  0.71839589110E+03 -0.13294938704E+03  0.25588012218E+01  0.73059889360E+03  0.25500000920E-02 0.  1.
</event>
<event>
 5   0  0.2147844E-05  0.1600497E+04  0.7818609E-02  0.8820243E-01
        2   -1    0    0  501    0  0.00000000000E+00  0.00000000000E+00  0.10208317748E+04  0.10208317748E+04  0.25500000920E-02 0.  1.
       -2   -1    0    0    0  501  0.00000000000E+00  0.00000000000E+00 -0.62732903355E+03  0.62732903356E+03  0.25500000920E-02 0. -1.
    10030    2    1    2    0    0  0.00000000000E+00  0.00000000000E+00  0.39350274123E+03  0.16481608083E+04  0.16004966863E+04 0.  0.
        2    1    3    3  502    0 -0.23992477590E+03 -0.49151809934E+03 -0.40480589791E+03  0.68045701926E+03  0.25500000920E-02 0. -1.
       -2    1    3    3    0  502  0.23992477590E+03  0.49151809934E+03  0.79830863914E+03  0.96770378908E+03  0.25500000920E-02 0.  1.
</event>
<event>
 5   0  0.2125803E-05  0.1600234E+04  0.7818609E-02  0.8820404E-01
       -2   -1    0    0    0  501  0.00000000000E+00  0.00000000000E+00  0.49473153493E+03  0.49473153494E+03  0.25500000920E-02 0. -1.
        2   -1    0    0  501    0  0.00000000000E+00  0.00000000000E+00 -0.12940100994E+04  0.12940100994E+04  0.25500000920E-02 0.  1.
    10030    2    1    2    0    0  0.00000000000E+00  0.00000000000E+00 -0.79927856451E+03  0.17887416344E+04  0.16002344862E+04 0.  0.
        3    1    3    3  502    0  0.48055830224E+03  0.48780884321E+03  0.62991862771E+02  0.68764942692E+03  0.10100000352E+00 0. -1.
       -3    1    3    3    0  502 -0.48055830224E+03 -0.48780884321E+03 -0.86227042729E+03  0.11010922075E+04  0.10100000352E+00 0.  1.
</event>
<event>
 5   0  0.7597000E-06  0.1599365E+04  0.7818609E-02  0.8820938E-01
       -4   -1    0    0    0  501  0.00000000000E+00  0.00000000000E+00  0.86801618236E+03  0.86801711144E+03  0.12699999809E+01 0.  1.
        4   -1    0    0  501    0  0.00000000000E+00  0.00000000000E+00 -0.73672623230E+03  0.73672732694E+03  0.12699999809E+01 0. -1.
    10030    2    1    2    0    0  0.00000000000E+00  0.00000000000E+00  0.13128995006E+03  0.16047444384E+04  0.15993647681E+04 0.  0.
        2    1    3    3  502    0 -0.25635517484E+03  0.75594903097E+03  0.17368665237E+02  0.79842255957E+03  0.25500000920E-02 0. -1.
       -2    1    3    3    0  502  0.25635517484E+03 -0.75594903097E+03  0.11392128482E+03  0.80632187881E+03  0.25500000920E-02 0.  1.
</event>
<event>
 5   0  0.2046108E-05  0.1598934E+04  0.7818609E-02  0.8821203E-01
       -2   -1    0    0    0  501  0.00000000000E+00  0.00000000000E+00  0.51885000993E+03  0.51885000993E+03  0.25500000920E-02 0. -1.
        2   -1    0    0  501    0  0.00000000000E+00  0.00000000000E+00 -0.12318537447E+04  0.12318537447E+04  0.25500000920E-02 0.  1.
    10030    2    1    2    0    0  0.00000000000E+00  0.00000000000E+00 -0.71300373478E+03  0.17507037546E+04  0.15989338044E+04 0.  0.
        1    1    3    3  502    0  0.14232800708E+03  0.68402132803E+03 -0.78198042938E+03  0.10486352229E+04  0.50400001928E-02 0.  1.
       -1    1    3    3    0  502 -0.14232800708E+03 -0.68402132803E+03  0.68976694605E+02  0.70206853171E+03  0.50400001928E-02 0. -1.
</event>
<event>
 5   0  0.1060251E-05  0.1588738E+04  0.7818609E-02  0.8827497E-01
        1   -1    0    0  501    0  0.00000000000E+00  0.00000000000E+00  0.68111308567E+03  0.68111308568E+03  0.50400001928E-02 0.  1.
       -1   -1    0    0    0  501  0.00000000000E+00  0.00000000000E+00 -0.92645754281E+03  0.92645754283E+03  0.50400001928E-02 0. -1.
    10030    2    1    2    0    0  0.00000000000E+00  0.00000000000E+00 -0.24534445715E+03  0.16075706285E+04  0.15887383117E+04 0.  0.
        1    1    3    3  502    0 -0.25569344675E+03 -0.23681156214E+03  0.59962650045E+03  0.69354941766E+03  0.50400001928E-02 0.  1.
       -1    1    3    3    0  502  0.25569344675E+03  0.23681156214E+03 -0.84497095760E+03  0.91402121085E+03  0.50400001928E-02 0. -1.
</event>
<event>
 5   0  0.2147844E-05  0.1600095E+04  0.7818609E-02  0.8820490E-01
       -2   -1    0    0    0  501  0.00000000000E+00  0.00000000000E+00  0.53026089507E+03  0.53026089508E+03  0.25500000920E-02 0. -1.
        2   -1    0    0  501    0  0.00000000000E+00  0.00000000000E+00 -0.12070959208E+04  0.12070959208E+04  0.25500000920E-02 0.  1.
    10030    2    1    2    0    0  0.00000000000E+00  0.00000000000E+00 -0.67683502570E+03  0.17373568158E+04  0.16000947014E+04 0.  0.
        2    1    3    3  502    0  0.40027088583E+03  0.39061356380E+01 -0.10905480894E+04  0.11616915146E+04  0.25500000920E-02 0.  1.
       -2    1    3    3    0  502 -0.40027088583E+03 -0.39061356380E+01  0.41371306369E+03  0.57566530120E+03  0.25500000920E-02 0. -1.
</event>
<event>
 5   0  0.1057506E-05  0.1600065E+04  0.7818609E-02  0.8820508E-01
        1   -1    0    0  501    0  0.00000000000E+00  0.00000000000E+00  0.17797476170E+04  0.17797476170E+04  0.50400001928E-02 0. -1.
       -1   -1    0    0    0  501  0.00000000000E+00  0.00000000000E+00 -0.35963094282E+03  0.35963094285E+03  0.50400001928E-02 0.  1.
    10030    2    1    2    0    0  0.00000000000E+00  0.00000000000E+00  0.14201166742E+04  0.21393785599E+04  0.16000653906E+04 0.  0.
        5    1    3    3  502    0  0.36937743041E+03  0.24396772790E+03  0.16010543576E+04  0.16611312665E+04  0.46999998093E+01 0. -1.
       -5    1    3    3    0  502 -0.36937743041E+03 -0.24396772790E+03 -0.18093768345E+03  0.47824729339E+03  0.46999998093E+01 0.  1.
</event>
<event>
 5   0  0.1994525E-05  0.1599965E+04  0.7818609E-02  0.8820570E-01
       -2   -1    0    0    0  501  0.00000000000E+00  0.00000000000E+00  0.60174734568E+03  0.60174734568E+03  0.25500000920E-02 0.  1.
        2   -1    0    0  501    0  0.00000000000E+00  0.00000000000E+00 -0.10635227064E+04  0.10635227064E+04  0.25500000920E-02 0. -1.
    10030    2    1    2    0    0  0.00000000000E+00  0.00000000000E+00 -0.46177536072E+03  0.16652700521E+04  0.15999649567E+04 0.  0.
        5    1    3    3  502    0 -0.11446388973E+03 -0.48014898002E+02 -0.10534241961E+04  0.10607224139E+04  0.46999998093E+01 0. -1.
       -5    1    3    3    0  502  0.11446388973E+03  0.48014898002E+02  0.59164883534E+03  0.60454763819E+03  0.46999998093E+01 0.  1.
</event>
<event>
 5   0  0.1090674E-05  0.1600180E+04  0.7818609E-02  0.8820438E-01
        1   -1    0    0  501    0  0.00000000000E+00  0.00000000000E+00  0.14362677401E+04  0.14362677401E+04  0.50400001928E-02 0. -1.
       -1   -1    0    0    0  501  0.00000000000E+00  0.00000000000E+00 -0.44569956396E+03  0.44569956399E+03  0.50400001928E-02 0.  1.
    10030    2    1    2    0    0  0.00000000000E+00  0.00000000000E+00  0.99056817615E+03  0.18819673041E+04  0.16001798718E+04 0.  0.
        4    1    3    3  502    0 -0.59439987006E+03  0.18367012452E+02  0.11247914874E+04  0.12723230941E+04  0.12699999809E+01 0.  1.
       -4    1    3    3    0  502  0.59439987006E+03 -0.18367012452E+02 -0.13422331124E+03  0.60964421005E+03  0.12699999809E+01 0. -1.
</event>
<event>
 5   0  0.1990948E-05  0.1599891E+04  0.7818609E-02  0.8820615E-01
        2   -1    0    0  501    0  0.00000000000E+00  0.00000000000E+00  0.98892902736E+03  0.98892902736E+03  0.25500000920E-02 0.  1.
       -2   -1    0    0    0  501  0.00000000000E+00  0.00000000000E+00 -0.64707683203E+03  0.64707683203E+03  0.25500000920E-02 0. -1.
    10030    2    1    2    0    0  0.00000000000E+00  0.00000000000E+00  0.34185219533E+03  0.16360058594E+04  0.15998913240E+04 0.  0.
        4    1    3    3  502    0  0.35871309180E+03  0.76982380929E+02  0.89782389417E+03  0.96989212134E+03  0.12699999809E+01 0.  1.
       -4    1    3    3    0  502 -0.35871309180E+03 -0.76982380929E+02 -0.55597169885E+03  0.66611373805E+03  0.12699999809E+01 0. -1.
</event>
<event>
 5   0  0.1060251E-05  0.1600807E+04  0.7818609E-02  0.8820053E-01
       -1   -1    0    0    0  501  0.00000000000E+00  0.00000000000E+00  0.43700347106E+03  0.43700347109E+03  0.50400001928E-02 0. -1.
        1   -1    0    0  501    0  0.00000000000E+00  0.00000000000E+00 -0.14659963491E+04  0.14659963491E+04  0.50400001928E-02 0.  1.
    10030    2    1    2    0    0  0.00000000000E+00  0.00000000000E+00 -0.10289928780E+04  0.19029998202E+04  0.16008066631E+04 0.  0.
        1    1    3    3  502    0  0.28830404017E+03  0.47902207588E+03  0.16639713290E+03  0.58332613059E+03  0.50400001928E-02 0. -1.
       -1    1    3    3    0  502 -0.28830404017E+03 -0.47902207588E+03 -0.11953900109E+04  0.13196736896E+04  0.50400001928E-02 0.  1.
</event>
<event>
 5   0  0.2046108E-05  0.1599803E+04  0.7818609E-02  0.8820669E-01
       -2   -1    0    0    0  501  0.00000000000E+00  0.00000000000E+00  0.98558765802E+03  0.98558765802E+03  0.25500000920E-02 0. -1.
        2   -1    0    0  501    0  0.00000000000E+00  0.00000000000E+00 -0.64919882366E+03  0.64919882367E+03  0.25500000920E-02 0.  1.
    10030    2    1    2    0    0  0.00000000000E+00  0.00000000000E+00  0.33638883436E+03  0.16347864817E+04  0.15998029231E+04 0.  0.
        1    1    3    3  502    0 -0.15191379758E+03  0.70978930385E+03 -0.17525595221E+03  0.74672170624E+03  0.50400001928E-02 0.  1.
       -1    1    3    3    0  502  0.15191379758E+03 -0.70978930385E+03  0.51164478657E+03  0.88806477545E+03  0.50400001928E-02 0. -1.
</event>
<event>
 5   0  0.1090674E-05  0.1598762E+04  0.7818609E-02  0.8821309E-01
        1   -1    0    0  501    0  0.00000000000E+00  0.00000000000E+00  0.10616866542E+04  0.10616866542E+04  0.50400001928E-02 0.  1.
       -1   -1    0    0    0  501  0.00000000000E+00  0.00000000000E+00 -0.60188159513E+03  0.60188159515E+03  0.50400001928E-02 0. -1.
    10030    2    1    2    0    0  0.00000000000E+00  0.00000000000E+00  0.45980505904E+03  0.16635682493E+04  0.15987615919E+04 0.  0.
        4    1    3    3  502    0  0.38512447219E+03  0.66701832567E+03  0.72820534089E+01  0.77025252162E+03  0.12699999809E+01 0. -1.
       -4    1    3    3    0  502 -0.38512447219E+03 -0.66701832567E+03  0.45252300563E+03  0.89331572771E+03  0.12699999809E+01 0.  1.
</event>
<event>
 5   0  0.2125803E-05  0.1599467E+04  0.7818609E-02  0.8820875E-01
       -2   -1    0    0    0  501  0.00000000000E+00  0.00000000000E+00  0.37752474549E+03  0.37752474550E+03  0.25500000920E-02 0.  1.
        2   -1    0    0  501    0  0.00000000000E+00  0.00000000000E+00 -0.16941240931E+04  0.16941240931E+04  0.25500000920E-02 0. -1.
    10030    2    1    2    0    0  0.00000000000E+00  0.00000000000E+00 -0.13165993476E+04  0.20716488386E+04  0.15994671201E+04 0.  0.
        3    1    3    3  502    0 -0.52236862866E+03  0.60168527905E+03 -0.74690199105E+03  0.10921340365E+04  0.10100000352E+00 0. -1.
       -3    1    3    3    0  502  0.52236862866E+03 -0.60168527905E+03 -0.56969735652E+03  0.97951480206E+03  0.10100000352E+00 0.  1.
</event>
<event>
 5   0  0.1081831E-05  0.1601475E+04  0.7818609E-02  0.8819643E-01
       -1   -1    0    0    0  501  0.00000000000E+00  0.00000000000E+00  0.58839329494E+03  0.58839329496E+03  0.50400001928E-02 0. -1.
        1   -1    0    0  501    0  0.00000000000E+00  0.00000000000E+00 -0.10897136895E+04  0.10897136895E+04  0.50400001928E-02 0.  1.
    10030    2    1    2    0    0  0.00000000000E+00  0.00000000000E+00 -0.50132039457E+03  0.16781069845E+04  0.16014746059E+04 0.  0.
        3    1    3    3  502    0  0.38386328891E+03 -0.60837560192E+03 -0.61921242777E+03  0.94915538164E+03  0.10100000352E+00 0.  1.
       -3    1    3    3    0  502 -0.38386328891E+03  0.60837560192E+03  0.11789203320E+03  0.72895160284E+03  0.10100000352E+00 0. -1.
</event>
<event>
 5   0  0.2046108E-05  0.1599918E+04  0.7818609E-02  0.8820598E-01
        2   -1    0    0  501    0  0.00000000000E+00  0.00000000000E+00  0.81345159611E+03  0.81345159612E+03  0.25500000920E-02 0.  1.
       -2   -1    0    0    0  501  0.00000000000E+00  0.00000000000E+00 -0.78669002482E+03  0.78669002482E+03  0.25500000920E-02 0. -1.
    10030    2    1    2    0    0  0.00000000000E+00  0.00000000000E+00  0.26761571294E+02  0.16001416209E+04  0.15999178183E+04 0.  0.
        1    1    3    3  502    0  0.47554314793E+03  0.64216613382E+03  0.51010872294E+02  0.80070015492E+03  0.50400001928E-02 0.  1.
       -1    1    3    3    0  502 -0.47554314793E+03 -0.64216613382E+03 -0.24249300999E+02  0.79944146602E+03  0.50400001928E-02 0. -1.
</event>
<event>
 5   0  0.1090674E-05  0.1600705E+04  0.7818609E-02  0.8820115E-01
        1   -1    0    0  501    0  0.00000000000E+00  0.00000000000E+00  0.13983304282E+04  0.13983304282E+04  0.50400001928E-02 0.  1.
       -1   -1    0    0    0  501  0.00000000000E+00  0.00000000000E+00 -0.45809207114E+03  0.45809207117E+03  0.50400001928E-02 0. -1.
    10030    2    1    2    0    0  0.00000000000E+00  0.00000000000E+00  0.94023835705E+03  0.18564224994E+04  0.16007049472E+04 0.  0.
        4    1    3    3  502    0  0.54005256768E+03  0.59027501410E+03  0.44468113764E+03  0.91532742513E+03  0.12699999809E+01 0.  1.
       -4    1    3    3    0  502 -0.54005256768E+03 -0.59027501410E+03  0.49555721941E+03  0.94109507423E+03  0.12699999809E+01 0. -1.
</event>
<event>
 5   0  0.2125803E-05  0.1599385E+04  0.7818609E-02  0.8820926E-01
        2   -1    0    0  501    0  0.00000000000E+00  0.00000000000E+00  0.11014368536E+04  0.11014368536E+04  0.25500000920E-02 0. -1.
       -2   -1    0    0    0  501  0.00000000000E+00  0.00000000000E+00 -0.58061279881E+03  0.58061279882E+03  0.25500000920E-02 0.  1.
    10030    2    1    2    0    0  0.00000000000E+00  0.00000000000E+00  0.52082405479E+03  0.16820496524E+04  0.15993852998E+04 0.  0.
        3    1    3    3  502    0 -0.44613058657E+03 -0.29202971905E+03  0.88719733484E+03  0.10351004677E+04  0.10100000352E+00 0. -1.
       -3    1    3    3    0  502  0.44613058657E+03  0.29202971905E+03 -0.36637328005E+03  0.64694918473E+03  0.10100000352E+00 0.  1.
</event>
<event>
 5   0  0.1090674E-05  0.1600185E+04  0.7818609E-02  0.8820434E-01
       -1   -1    0    0    0  501  0.00000000000E+00  0.00000000000E+00  0.71541544889E+03  0.71541544891E+03  0.50400001928E-02 0. -1.
        1   -1    0    0  501    0  0.00000000000E+00  0.00000000000E+00 -0.89479173851E+03  0.89479173852E+03  0.50400001928E-02 0.  1.
    10030    2    1    2    0    0  0.00000000000E+00  0.00000000000E+00 -0.17937628962E+03  0.16102071874E+04  0.16001847809E+04 0.  0.
        4    1    3    3  502    0 -0.63284484120E+02  0.49484685219E+03  0.53974372402E+03  0.73498519275E+03  0.12699999809E+01 0. -1.
       -4    1    3    3    0  502  0.63284484120E+02 -0.49484685219E+03 -0.71912001363E+03  0.87522199467E+03  0.12699999809E+01 0.  1.
</event>
<event>
 5   0  0.7597000E-06  0.1601704E+04  0.7818609E-02  0.8819502E-01
       -3   -1    0    0    0  501  0.00000000000E+00  0.00000000000E+00  0.54267452672E+03  0.54267453612E+03  0.10100000352E+00 0.  1.
        3   -1    0    0  501    0  0.00000000000E+00  0.00000000000E+00 -0.11818579837E+04  0.11818579880E+04  0.10100000352E+00 0. -1.
    10030    2    1    2    0    0  0.00000000000E+00  0.00000000000E+00 -0.63918345695E+03  0.17245325241E+04  0.16017043844E+04 0.  0.
        2    1    3    3  502    0  0.36009405292E+03  0.22508906297E+03 -0.10506538584E+04  0.11332282839E+04  0.25500000920E-02 0. -1.
       -2    1    3    3    0  502 -0.36009405292E+03 -0.22508906297E+03  0.41147040145E+03  0.59130424021E+03  0.25500000920E-02 0.  1.
</event>
<event>
 5   0  0.1090674E-05  0.1599667E+04  0.7818609E-02  0.8820753E-01
        1   -1    0    0  501    0  0.00000000000E+00  0.00000000000E+00  0.41351236833E+03  0.41351236836E+03  0.50400001928E-02 0.  1.
       -1   -1    0    0    0  501  0.00000000000E+00  0.00000000000E+00 -0.15470718287E+04  0.15470718287E+04  0.50400001928E-02 0. -1.
    10030    2    1    2    0    0  0.00000000000E+00  0.00000000000E+00 -0.11335594603E+04  0.19605841970E+04  0.15996666351E+04 0.  0.
        4    1    3    3  502    0 -0.25079148680E+03 -0.43858987599E+03 -0.13267378398E+04  0.14196803716E+04  0.12699999809E+01 0. -1.
       -4    1    3    3    0  502  0.25079148680E+03  0.43858987599E+03  0.19317837943E+03  0.54090382542E+03  0.12699999809E+01 0.  1.
</event>
<event>
 5   0  0.1057506E-05  0.1600404E+04  0.7818609E-02  0.8820300E-01
       -1   -1    0    0    0  501  0.00000000000E+00  0.00000000000E+00  0.30077167036E+03  0.30077167040E+03  0.50400001928E-02 0.  1.
        1   -1    0    0  501    0  0.00000000000E+00  0.00000000000E+00 -0.21289348762E+04  0.21289348762E+04  0.50400001928E-02 0. -1.
    10030    2    1    2    0    0  0.00000000000E+00  0.00000000000E+00 -0.18281632058E+04  0.24297065466E+04  0.16004040725E+04 0.  0.
        5    1    3    3  502    0  0.76032493856E+03 -0.23480123833E+03 -0.10417857643E+04  0.13109406174E+04  0.46999998093E+01 0.  1.
       -5    1    3    3    0  502 -0.76032493856E+03  0.23480123833E+03 -0.78637744151E+03  0.11187659292E+04  0.46999998093E+01 0. -1.
</event>
<event>
 5   0  0.2147844E-05  0.1600715E+04  0.7818609E-02  0.8820109E-01
       -2   -1    0    0    0  501  0.00000000000E+00  0.00000000000E+00  0.88254008630E+03  0.88254008630E+03  0.25500000920E-02 0.  1.
        2   -1    0    0  501    0  0.00000000000E+00  0.00000000000E+00 -0.72582740999E+03  0.72582741000E+03  0.25500000920E-02 0. -1.
    10030    2    1    2    0    0  0.00000000000E+00  0.00000000000E+00  0.15671267630E+03  0.16083674963E+04  0.16007145718E+04 0.  0.
        2    1    3    3  502    0  0.34667343294E+03 -0.71485714602E+03 -0.18897824366E+02  0.79470770482E+03  0.25500000920E-02 0.  1.
       -2    1    3    3    0  502 -0.34667343294E+03  0.71485714602E+03  0.17561050067E+03  0.81365979148E+03  0.25500000920E-02 0. -1.
</event>
<event>
 5   0  0.1990948E-05  0.1600035E+04  0.7818609E-02  0.8820527E-01
        2   -1    0    0  501    0  0.00000000000E+00  0.00000000000E+00  0.13625303874E+04  0.13625303874E+04  0.25500000920E-02 0.  1.
       -2   -1    0    0    0  501  0.00000000000E+00  0.00000000000E+00 -0.46973476430E+03  0.46973476431E+03  0.25500000920E-02 0. -1.
    10030    2    1    2    0    0  0.00000000000E+00  0.00000000000E+00  0.89279562311E+03  0.18322651517E+04  0.16000348626E+04 0.  0.
        4    1    3    3  502    0 -0.67465880058E+03  0.42847113579E+03  0.40551987758E+03  0.89621425754E+03  0.12699999809E+01 0. -1.
       -4    1    3    3    0  502  0.67465880058E+03 -0.42847113579E+03  0.48727574553E+03  0.93605089418E+03  0.12699999809E+01 0.  1.
</event>
<event>
 5   0  0.1994525E-05  0.1600061E+04  0.7818609E-02  0.8820511E-01
       -2   -1    0    0    0  501  0.00000000000E+00  0.00000000000E+00  0.28027089386E+03  0.28027089387E+03  0.25500000920E-02 0. -1.
        2   -1    0    0  501    0  0.00000000000E+00  0.00000000000E+00 -0.22836792093E+04  0.22836792093E+04  0.25500000920E-02 0.  1.
    10030    2    1    2    0    0  0.00000000000E+00  0.00000000000E+00 -0.20034083155E+04  0.25639501032E+04  0.16000610155E+04 0.  0.
        5    1    3    3  502    0  0.11604720674E+03  0.31348514188E+03  0.16297933232E+03  0.37191967027E+03  0.46999998093E+01 0. -1.
       -5    1    3    3    0  502 -0.11604720674E+03 -0.31348514188E+03 -0.21663876478E+04  0.21920304329E+04  0.46999998093E+01 0.  1.
</event>
<event>
 5   0  0.1994525E-05  0.1599147E+04  0.7818609E-02  0.8821072E-01
        2   -1    0    0  501    0  0.00000000000E+00  0.00000000000E+00  0.17862558595E+04  0.17862558595E+04  0.25500000920E-02 0. -1.
       -2   -1    0    0    0  501  0.00000000000E+00  0.00000000000E+00 -0.35790924858E+03  0.35790924858E+03  0.25500000920E-02 0.  1.
    10030    2    1    2    0    0  0.00000000000E+00  0.00000000000E+00  0.14283466109E+04  0.21441651081E+04  0.15991466380E+04 0.  0.
        5    1    3    3  502    0  0.43726302820E+02 -0.79069660207E+03  0.56618257448E+03  0.97349776771E+03  0.46999998093E+01 0.  1.
       -5    1    3    3    0  502 -0.43726302820E+02  0.79069660207E+03  0.86216403645E+03  0.11706673404E+04  0.46999998093E+01 0. -1.
</event>
<event>
 5   0  0.1090674E-05  0.1598698E+04  0.7818609E-02  0.8821348E-01
        1   -1    0    0  501    0  0.00000000000E+00  0.00000000000E+00  0.10155416118E+04  0.10155416118E+04  0.50400001928E-02 0.  1.
       -1   -1    0    0    0  501  0.00000000000E+00  0.00000000000E+00 -0.62918064153E+03  0.62918064155E+03  0.50400001928E-02 0. -1.
    10030    2    1    2    0    0  0.00000000000E+00  0.00000000000E+00  0.38636097029E+03  0.16447222534E+04  0.15986983741E+04 0.  0.
        4    1    3    3  502    0 -0.28727685902E+03  0.10973343387E+03  0.95224789000E+03  0.10006733119E+04  0.12699999809E+01 0.  1.
       -4    1    3    3    0  502  0.28727685902E+03 -0.10973343387E+03 -0.56588691970E+03  0.64404894148E+03  0.12699999809E+01 0. -1.
</event>
<event>
 5   0  0.1060251E-05  0.1602686E+04  0.7818609E-02  0.8818900E-01
       -1   -1    0    0    0  501  0.00000000000E+00  0.00000000000E+00  0.32019516188E+03  0.32019516192E+03  0.50400001928E-02 0. -1.
        1   -1    0    0  501    0  0.00000000000E+00  0.00000000000E+00 -0.20054970009E+04  0.20054970009E+04  0.50400001928E-02 0.  1.
    10030    2    1    2    0    0  0.00000000000E+00  0.00000000000E+00 -0.16853018390E+04  0.23256921628E+04  0.16026857919E+04 0.  0.
        1    1    3    3  502    0 -0.41087170787E+03  0.38692445947E+03 -0.17136942407E+02  0.56464127770E+03  0.50400001928E-02 0. -1.
       -1    1    3    3    0  502  0.41087170787E+03 -0.38692445947E+03 -0.16681648966E+04  0.17610508851E+04  0.50400001928E-02 0.  1.
</event>
<event>
 5   0  0.2125803E-05  0.1599035E+04  0.7818609E-02  0.8821141E-01
       -2   -1    0    0    0  501  0.00000000000E+00  0.00000000000E+00  0.10618263244E+04  0.10618263244E+04  0.25500000920E-02 0.  1.
        2   -1    0    0  501    0  0.00000000000E+00  0.00000000000E+00 -0.60200812448E+03  0.60200812448E+03  0.25500000920E-02 0. -1.
    10030    2    1    2    0    0  0.00000000000E+00  0.00000000000E+00  0.45981819991E+03  0.16638344489E+04  0.15990348015E+04 0.  0.
        3    1    3    3  502    0 -0.16562777103E+03  0.11890062360E+03 -0.57450304341E+03  0.60960944376E+03  0.10100000352E+00 0. -1.
       -3    1    3    3    0  502  0.16562777103E+03 -0.11890062360E+03  0.10343212433E+04  0.10542250051E+04  0.10100000352E+00 0.  1.
</event>
<event>
 5   0  0.2046108E-05  0.1601590E+04  0.7818609E-02  0.8819572E-01
        2   -1    0    0  501    0  0.00000000000E+00  0.00000000000E+00  0.64324635293E+03  0.64324635294E+03  0.25500000920E-02 0. -1.
       -2   -1    0    0    0  501  0.00000000000E+00  0.00000000000E+00 -0.99693214977E+03  0.99693214977E+03  0.25500000920E-02 0.  1.
    10030    2    1    2    0    0  0.00000000000E+00  0.00000000000E+00 -0.35368579683E+03  0.16401785027E+04  0.16015904214E+04 0.  0.
        1    1    3    3  502    0  0.77008332129E+03 -0.21953897780E+03 -0.16980081611E+03  0.81857070658E+03  0.50400001928E-02 0. -1.
       -1    1    3    3    0  502 -0.77008332129E+03  0.21953897780E+03 -0.18388498072E+03  0.82160779613E+03  0.50400001928E-02 0.  1.
</event>
<event>
 5   0  0.7597000E-06  0.1601261E+04  0.7818609E-02  0.8819774E-01
       -3   -1    0    0    0  501  0.00000000000E+00  0.00000000000E+00  0.44595578346E+03  0.44595579490E+03  0.10100000352E+00 0. -1.
        3   -1    0    0  501    0  0.00000000000E+00  0.00000000000E+00 -0.14373820663E+04  0.14373820699E+04  0.10100000352E+00 0.  1.
    10030    2    1    2    0    0  0.00000000000E+00  0.00000000000E+00 -0.99142628289E+03  0.18833378648E+04  0.16012605780E+04 0.  0.
        5    1    3    3  502    0  0.73952529735E+02 -0.51489459713E+03  0.22010467713E+03  0.56484828202E+03  0.46999998093E+01 0. -1.
       -5    1    3    3    0  502 -0.73952529735E+02  0.51489459713E+03 -0.12115309600E+04  0.13184895828E+04  0.46999998093E+01 0.  1.
</event>
<event>
 5   0  0.1994525E-05  0.1603680E+04  0.7818609E-02  0.8818290E-01
       -2   -1    0    0    0  501  0.00000000000E+00  0.00000000000E+00  0.57947664043E+03  0.57947664044E+03  0.25500000920E-02 0.  1.
        2   -1    0    0  501    0  0.00000000000E+00  0.00000000000E+00 -0.11095310664E+04  0.11095310664E+04  0.25500000920E-02 0. -1.
    10030    2    1    2    0    0  0.00000000000E+00  0.00000000000E+00 -0.53005442600E+03  0.16890077069E+04  0.16036799367E+04 0.  0.
        5    1    3    3  502    0 -0.34298490010E+03  0.56039069095E+03 -0.74910052473E+03  0.99641861401E+03  0.46999998093E+01 0. -1.
       -5    1    3    3    0  502  0.34298490010E+03 -0.56039069095E+03  0.21904609873E+03  0.69258909287E+03  0.46999998093E+01 0.  1.
</event>
<event>
 5   0  0.1081831E-05  0.1600298E+04  0.7818609E-02  0.8820365E-01
        1   -1    0    0  501    0  0.00000000000E+00  0.00000000000E+00  0.16687844535E+04  0.16687844535E+04  0.50400001928E-02 0. -1.
       -1   -1    0    0    0  501  0.00000000000E+00  0.00000000000E+00 -0.38365542898E+03  0.38365542902E+03  0.50400001928E-02 0.  1.
    10030    2    1    2    0    0  0.00000000000E+00  0.00000000000E+00  0.12851290245E+04  0.20524398825E+04  0.16002977416E+04 0.  0.
        3    1    3    3  502    0  0.11009248537E+03 -0.70825997851E+03  0.18643278042E+03  0.74061443701E+03  0.10100000352E+00 0.  1.
       -3    1    3    3    0  502 -0.11009248537E+03  0.70825997851E+03  0.10986962441E+04  0.13118254455E+04  0.10100000352E+00 0. -1.
</event>
<event>
 5   0  0.2147844E-05  0.1600090E+04  0.7818609E-02  0.8820493E-01
       -2   -1    0    0    0  501  0.00000000000E+00  0.00000000000E+00  0.31443282976E+03  0.31443282977E+03  0.25500000920E-02 0. -1.
        2   -1    0    0  501    0  0.00000000000E+00  0.00000000000E+00 -0.20356404510E+04  0.20356404510E+04  0.25500000920E-02 0.  1.
    10030    2    1    2    0    0  0.00000000000E+00  0.00000000000E+00 -0.17212076213E+04  0.23500732808E+04  0.16000902317E+04 0.  0.
        2    1    3    3  502    0 -0.63602439377E+03  0.45769622765E+03 -0.62351094832E+03  0.10013884206E+04  0.25500000920E-02 0. -1.
       -2    1    3    3    0  502  0.63602439377E+03 -0.45769622765E+03 -0.10976966729E+04  0.13486848602E+04  0.25500000920E-02 0.  1.
</event>
<event>
 5   0  0.1060251E-05  0.1599909E+04  0.7818609E-02  0.8820604E-01
        1   -1    0    0  501    0  0.00000000000E+00  0.00000000000E+00  0.88815397192E+03  0.88815397194E+03  0.50400001928E-02 0.  1.
       -1   -1    0    0    0  501  0.00000000000E+00  0.00000000000E+00 -0.72051414593E+03  0.72051414595E+03  0.50400001928E-02 0. -1.
    10030    2    1    2    0    0  0.00000000000E+00  0.00000000000E+00  0.16763982599E+03  0.16086681179E+04  0.15999093731E+04 0.  0.
        1    1    3    3  502    0 -0.57188840074E+03  0.34244879770E+03 -0.36086815180E+03  0.75799297157E+03  0.50400001928E-02 0. -1.
       -1    1    3    3    0  502  0.57188840074E+03 -0.34244879770E+03  0.52850797779E+03  0.85067514632E+03  0.50400001928E-02 0.  1.
</event>
<event>
 5   0  0.2125803E-05  0.1599725E+04  0.7818609E-02  0.8820717E-01
       -2   -1    0    0    0  501  0.00000000000E+00  0.00000000000E+00  0.72334483040E+03  0.72334483040E+03  0.25500000920E-02 0.  1.
        2   -1    0    0  501    0  0.00000000000E+00  0.00000000000E+00 -0.88447456342E+03  0.88447456343E+03  0.25500000920E-02 0. -1.
    10030    2    1    2    0    0  0.00000000000E+00  0.00000000000E+00 -0.16112973303E+03  0.16078193938E+04  0.15997251052E+04 0.  0.
        3    1    3    3  502    0 -0.74696107570E+03 -0.11930083870E+02  0.20669050342E+03  0.77512202260E+03  0.10100000352E+00 0.  1.
       -3    1    3    3    0  502  0.74696107570E+03  0.11930083870E+02 -0.36782023644E+03  0.83269737123E+03  0.10100000352E+00 0. -1.
</event>
<event>
 5   0  0.2147844E-05  0.1599808E+04  0.7818609E-02  0.8820666E-01
        2   -1    0    0  501    0  0.00000000000E+00  0.00000000000E+00  0.36216537078E+03  0.36216537079E+03  0.25500000920E-02 0. -1.
       -2   -1    0    0    0  501  0.00000000000E+00  0.00000000000E+00 -0.17667237232E+04  0.17667237232E+04  0.25500000920E-02 0.  1.
    10030    2    1    2    0    0  0.00000000000E+00  0.00000000000E+00 -0.14045583525E+04  0.21288890940E+04  0.15998076788E+04 0.  0.
        2    1    3    3  502    0 -0.22614954997E+02 -0.28042385411E+03 -0.16987152581E+04  0.17218543789E+04  0.25500000920E-02 0.  1.
       -2    1    3    3    0  502  0.22614954997E+02  0.28042385411E+03  0.29415690564E+03  0.40703471509E+03  0.25500000920E-02 0. -1.
</event>
<event>
 5   0  0.1060251E-05  0.1600601E+04  0.7818609E-02  0.8820179E-01
        1   -1    0    0  501    0  0.00000000000E+00  0.00000000000E+00  0.10444761298E+04  0.10444761298E+04  0.50400001928E-02 0.  1.
       -1   -1    0    0    0  501  0.00000000000E+00  0.00000000000E+00 -0.61320777680E+03  0.61320777682E+03  0.50400001928E-02 0. -1.
    10030    2    1    2    0    0  0.00000000000E+00  0.00000000000E+00  0.43126835299E+03  0.16576839066E+04  0.16006009940E+04 0.  0.
        1    1    3    3  502    0 -0.75150821687E+03  0.25391605309E+03  0.10582003638E+03  0.80027235500E+03  0.50400001928E-02 0. -1.
       -1    1    3    3    0  502  0.75150821687E+03 -0.25391605309E+03  0.32544831661E+03  0.85741155162E+03  0.50400001928E-02 0.  1.
</event>
<event>
 5   0  0.1994525E-05  0.1599644E+04  0.7818609E-02  0.8820767E-01
        2   -1    0    0  501    0  0.00000000000E+00  0.00000000000E+00  0.60945196078E+03  0.60945196079E+03  0.25500000920E-02 0.  1.
       -2   -1    0    0    0  501  0.00000000000E+00  0.00000000000E+00 -0.10496560017E+04  0.10496560017E+04  0.25500000920E-02 0. -1.
    10030    2    1    2    0    0  0.00000000000E+00  0.00000000000E+00 -0.44020404090E+03  0.16591079625E+04  0.15996435958E+04 0.  0.
        5    1    3    3  502    0 -0.38988721067E+03 -0.64696332507E+03  0.52576472302E+02  0.75720535951E+03  0.46999998093E+01 0.  1.
       -5    1    3    3    0  502  0.38988721067E+03  0.64696332507E+03 -0.49278051320E+03  0.90190260296E+03  0.46999998093E+01 0. -1.
</event>
<event>
 5   0  0.2147844E-05  0.1599496E+04  0.7818609E-02  0.8820858E-01
        2   -1    0    0  501    0  0.00000000000E+00  0.00000000000E+00  0.12494188455E+04  0.12494188455E+04  0.25500000920E-02 0.  1.
       -2   -1    0    0    0  501  0.00000000000E+00  0.00000000000E+00 -0.51191558570E+03  0.51191558571E+03  0.25500000920E-02 0. -1.
    10030    2    1    2    0    0  0.00000000000E+00  0.00000000000E+00  0.73750325981E+03  0.17613344312E+04  0.15994961458E+04 0.  0.
        2    1    3    3  502    0 -0.37253395430E+02 -0.71802760053E+03 -0.16890513715E+02  0.71919172691E+03  0.25500000920E-02 0. -1.
       -2    1    3    3    0  502  0.37253395430E+02  0.71802760053E+03  0.75439377352E+03  0.10421427043E+04  0.25500000920E-02 0.  1.
</event>
<event>
 5   0  0.1994525E-05  0.1603818E+04  0.7818609E-02  0.8818206E-01
       -2   -1    0    0    0  501  0.00000000000E+00  0.00000000000E+00  0.34135674921E+03  0.34135674922E+03  0.25500000920E-02 0. -1.
        2   -1    0    0  501    0  0.00000000000E+00  0.00000000000E+00 -0.18838290485E+04  0.18838290485E+04  0.25500000920E-02 0.  1.
    10030    2    1    2    0    0  0.00000000000E+00  0.00000000000E+00 -0.15424722992E+04  0.22251857977E+04  0.16038176456E+04 0.  0.
        5    1    3    3  502    0  0.62030899769E+03 -0.78034085934E+02 -0.14679461727E+04  0.15955439910E+04  0.46999998093E+01 0.  1.
       -5    1    3    3    0  502 -0.62030899769E+03  0.78034085934E+02 -0.74526126505E+02  0.62964180667E+03  0.46999998093E+01 0. -1.
</event>
<event>
 5   0  0.1060251E-05  0.1599174E+04  0.7818609E-02  0.8821056E-01
        1   -1    0    0  501    0  0.00000000000E+00  0.00000000000E+00  0.62345372391E+03  0.62345372393E+03  0.50400001928E-02 0.  1.
       -1   -1    0    0    0  501  0.00000000000E+00  0.00000000000E+00 -0.10254798617E+04  0.10254798617E+04  0.50400001928E-02 0. -1.
    10030    2    1    2    0    0  0.00000000000E+00  0.00000000000E+00 -0.40202613781E+03  0.16489335857E+04  0.15991738350E+04 0.  0.
        1    1    3    3  502    0 -0.32910224576E+03 -0.60070726012E+03  0.22435409911E+03  0.72075811639E+03  0.50400001928E-02 0.  1.
       -1    1    3    3    0  502  0.32910224576E+03  0.60070726012E+03 -0.62638023692E+03  0.92817546928E+03  0.50400001928E-02 0. -1.
</event>
<event>
 5   0  0.1990948E-05  0.1600293E+04  0.7818609E-02  0.8820368E-01
       -2   -1    0    0    0  501  0.00000000000E+00  0.00000000000E+00  0.86440961113E+03  0.86440961113E+03  0.25500000920E-02 0.  1.
        2   -1    0    0  501    0  0.00000000000E+00  0.00000000000E+00 -0.74066107254E+03  0.74066107254E+03  0.25500000920E-02 0. -1.
    10030    2    1    2    0    0  0.00000000000E+00  0.00000000000E+00  0.12374853859E+03  0.16050706837E+04  0.16002931603E+04 0.  0.
        4    1    3    3  502    0  0.47640579209E+02  0.61927620920E+03  0.56782079883E+03  0.84154305924E+03  0.12699999809E+01 0. -1.
       -4    1    3    3    0  502 -0.47640579209E+02 -0.61927620920E+03 -0.44407226024E+03  0.76352762444E+03  0.12699999809E+01 0.  1.
</event>
<event>
 5   0  0.2125803E-05  0.1600278E+04  0.7818609E-02  0.8820377E-01
       -2   -1    0    0    0  501  0.00000000000E+00  0.00000000000E+00  0.39891849003E+03  0.39891849004E+03  0.25500000920E-02 0.  1.
        2   -1    0    0  501    0  0.00000000000E+00  0.00000000000E+00 -0.16048947784E+04  0.16048947784E+04  0.25500000920E-02 0. -1.
    10030    2    1    2    0    0  0.00000000000E+00  0.00000000000E+00 -0.12059762883E+04  0.20038132684E+04  0.16002777280E+04 0.  0.
        3    1    3    3  502    0 -0.71036299410E+03 -0.34662722070E+03 -0.44731527081E+03  0.90821637026E+03  0.10100000352E+00 0. -1.
       -3    1    3    3    0  502  0.71036299410E+03  0.34662722070E+03 -0.75866101753E+03  0.10955968981E+04  0.10100000352E+00 0.  1.
</event>
<event>
 5   0  0.1994525E-05  0.1600420E+04  0.7818609E-02  0.8820290E-01
       -2   -1    0    0    0  501  0.00000000000E+00  0.00000000000E+00  0.10904853339E+04  0.10904853339E+04  0.25500000920E-02 0. -1.
        2   -1    0    0  501    0  0.00000000000E+00  0.00000000000E+00 -0.58720264634E+03  0.58720264634E+03  0.25500000920E-02 0.  1.
    10030    2    1    2    0    0  0.00000000000E+00  0.00000000000E+00  0.50328268759E+03  0.16776879803E+04  0.16004197873E+04 0.  0.
        5    1    3    3  502    0  0.26141847746E+03 -0.27600974343E+02 -0.54063388037E+03  0.60117261810E+03  0.46999998093E+01 0.  1.
       -5    1    3    3    0  502 -0.26141847746E+03  0.27600974343E+02  0.10439165680E+04  0.10765153622E+04  0.46999998093E+01 0. -1.
</event>
<event>
 5   0  0.2125803E-05  0.1600077E+04  0.7818609E-02  0.8820501E-01
        2   -1    0    0  501    0  0.00000000000E+00  0.00000000000E+00  0.16505866877E+04  0.16505866877E+04  0.25500000920E-02 0. -1.
       -2   -1    0    0    0  501  0.00000000000E+00  0.00000000000E+00 -0.38777831824E+03  0.38777831825E+03  0.25500000920E-02 0.  1.
    10030    2    1    2    0    0  0.00000000000E+00  0.00000000000E+00  0.12628083695E+04  0.20383650060E+04  0.16000771605E+04 0.  0.
        3    1    3    3  502    0  0.66373283242E+03  0.28707037596E+03  0.10673574742E+04  0.12892643877E+04  0.10100000352E+00 0. -1.
       -3    1    3    3    0  502 -0.66373283242E+03 -0.28707037596E+03  0.19545089531E+03  0.74910061825E+03  0.10100000352E+00 0.  1.
</event>
<event>
 5   0  0.1081831E-05  0.1596092E+04  0.7818609E-02  0.8822953E-01
       -1   -1    0    0    0  501  0.00000000000E+00  0.00000000000E+00  0.37271552263E+03  0.37271552266E+03  0.50400001928E-02 0. -1.
        1   -1    0    0  501    0  0.00000000000E+00  0.00000000000E+00 -0.17087486713E+04  0.17087486713E+04  0.50400001928E-02 0.  1.
    10030    2    1    2    0    0  0.00000000000E+00  0.00000000000E+00 -0.13360331486E+04  0.20814641939E+04  0.15960916692E+04 0.  0.
        3    1    3    3  502    0 -0.19815145032E+03 -0.52426920538E+03 -0.14088960560E+04  0.15162817363E+04  0.10100000352E+00 0.  1.
       -3    1    3    3    0  502  0.19815145032E+03  0.52426920538E+03  0.72862907361E+02  0.56518245765E+03  0.10100000352E+00 0. -1.
</event>
<event>
 5   0  0.1081831E-05  0.1599397E+04  0.7818609E-02  0.8820919E-01
        1   -1    0    0  501    0  0.00000000000E+00  0.00000000000E+00  0.10714339711E+04  0.10714339711E+04  0.50400001928E-02 0.  1.
       -1   -1    0    0    0  501  0.00000000000E+00  0.00000000000E+00 -0.59687989888E+03  0.59687989890E+03  0.50400001928E-02 0. -1.
    10030    2    1    2    0    0  0.00000000000E+00  0.00000000000E+00  0.47455407223E+03  0.16683138700E+04  0.15993966367E+04 0.  0.
        3    1    3    3  502    0  0.76157685529E+03  0.95195044677E+02  0.29739895682E+01  0.76750912559E+03  0.10100000352E+00 0. -1.
       -3    1    3    3    0  502 -0.76157685529E+03 -0.95195044677E+02  0.47158008266E+03  0.90080474444E+03  0.10100000352E+00 0.  1.
</event>
<event>
 5   0  0.1990948E-05  0.1603429E+04  0.7818609E-02  0.8818444E-01
        2   -1    0    0  501    0  0.00000000000E+00  0.00000000000E+00  0.33802266844E+03  0.33802266845E+03  0.25500000920E-02 0.  1.
       -2   -1    0    0    0  501  0.00000000000E+00  0.00000000000E+00 -0.19014886302E+04  0.19014886302E+04  0.25500000920E-02 0. -1.
    10030    2    1    2    0    0  0.00000000000E+00  0.00000000000E+00 -0.15634659617E+04  0.22395112986E+04  0.16034291513E+04 0.  0.
        4    1    3    3  502    0  0.37492775323E+03  0.33391241081E+03 -0.16547285355E+04  0.17292184528E+04  0.12699999809E+01 0. -1.
       -4    1    3    3    0  502 -0.37492775323E+03 -0.33391241081E+03  0.91262573796E+02  0.51029284584E+03  0.12699999809E+01 0.  1.
</event>
<event>
 5   0  0.1057506E-05  0.1598696E+04  0.7818609E-02  0.8821349E-01
        1   -1    0    0  501    0  0.00000000000E+00  0.00000000000E+00  0.93627894829E+03  0.93627894830E+03  0.50400001928E-02 0. -1.
       -1   -1    0    0    0  501  0.00000000000E+00  0.00000000000E+00 -0.68244323621E+03  0.68244323623E+03  0.50400001928E-02 0.  1.
    10030    2    1    2    0    0  0.00000000000E+00  0.00000000000E+00  0.25383571208E+03  0.16187221845E+04  0.15986960130E+04 0.  0.
        5    1    3    3  502    0 -0.81132036504E+02 -0.49931783215E+03 -0.49973257048E+03  0.71109453439E+03  0.46999998093E+01 0.  1.
       -5    1    3    3    0  502  0.81132036504E+02  0.49931783215E+03  0.75356828255E+03  0.90762765015E+03  0.46999998093E+01 0. -1.
</event>
<event>
 5   0  0.7597000E-06  0.1599801E+04  0.7818609E-02  0.8820671E-01
        3   -1    0    0  501    0  0.00000000000E+00  0.00000000000E+00  0.49937380059E+03  0.49937381081E+03  0.10100000352E+00 0.  1.
       -3   -1    0    0    0  501  0.00000000000E+00  0.00000000000E+00 -0.12812856719E+04  0.12812856758E+04  0.10100000352E+00 0. -1.
    10030    2    1    2    0    0  0.00000000000E+00  0.00000000000E+00 -0.78191187126E+03  0.17806594866E+04  0.15998006229E+04 0.  0.
        3    1    3    3  502    0  0.65604444064E+03  0.43244000104E+03 -0.55769762718E+03  0.96354829467E+03  0.10100000352E+00 0.  1.
       -3    1    3    3    0  502 -0.65604444064E+03 -0.43244000104E+03 -0.22421424408E+03  0.81711119197E+03  0.10100000352E+00 0. -1.
</event>
<event>
 5   0  0.1081831E-05  0.1600031E+04  0.7818609E-02  0.8820529E-01
        1   -1    0    0  501    0  0.00000000000E+00  0.00000000000E+00  0.79032934331E+03  0.79032934333E+03  0.50400001928E-02 0.  1.
       -1   -1    0    0    0  501  0.00000000000E+00  0.00000000000E+00 -0.80982081635E+03  0.80982081636E+03  0.50400001928E-02 0. -1.
    10030    2    1    2    0    0  0.00000000000E+00  0.00000000000E+00 -0.19491473035E+02  0.16001501597E+04  0.16000314422E+04 0.  0.
        3    1    3    3  502    0  0.71720626165E+03 -0.30422895087E+03  0.17216077056E+03  0.79785927169E+03  0.10100000352E+00 0.  1.
       -3    1    3    3    0  502 -0.71720626165E+03  0.30422895087E+03 -0.19165224359E+03  0.80229088800E+03  0.10100000352E+00 0. -1.
</event>
<event>
 5   0  0.7597000E-06  0.1601597E+04  0.7818609E-02  0.8819567E-01
        3   -1    0    0  501    0  0.00000000000E+00  0.00000000000E+00  0.89954998994E+03  0.89954999561E+03  0.10100000352E+00 0.  1.
       -3   -1    0    0    0  501  0.00000000000E+00  0.00000000000E+00 -0.71288821285E+03  0.71288822001E+03  0.10100000352E+00 0. -1.
    10030    2    1    2    0    0  0.00000000000E+00  0.00000000000E+00  0.18666177709E+03  0.16124382156E+04  0.16015974463E+04 0.  0.
        4    1    3    3  502    0  0.47077996744E+03  0.33330798657E+03 -0.46590080946E+03  0.74148039004E+03  0.12699999809E+01 0. -1.
       -4    1    3    3    0  502 -0.47077996744E+03 -0.33330798657E+03  0.65256258655E+03  0.87095782557E+03  0.12699999809E+01 0.  1.
</event>
<event>
 5   0  0.1081831E-05  0.1604674E+04  0.7818609E-02  0.8817682E-01
        1   -1    0    0  501    0  0.00000000000E+00  0.00000000000E+00  0.67152399351E+03  0.67152399353E+03  0.50400001928E-02 0.  1.
       -1   -1    0    0    0  501  0.00000000000E+00  0.00000000000E+00 -0.95863230411E+03  0.95863230413E+03  0.50400001928E-02 0. -1.
    10030    2    1    2    0    0  0.00000000000E+00  0.00000000000E+00 -0.28710831060E+03  0.16301562977E+04  0.16046739148E+04 0.  0.
        3    1    3    3  502    0  0.30259120142E+03  0.18542158996E+03  0.58745750998E+03  0.68633004992E+03  0.10100000352E+00 0.  1.
       -3    1    3    3    0  502 -0.30259120142E+03 -0.18542158996E+03 -0.87456582058E+03  0.94382624774E+03  0.10100000352E+00 0. -1.
</event>
<event>
 5   0  0.2046108E-05  0.1602732E+04  0.7818609E-02  0.8818872E-01
        2   -1    0    0  501    0  0.00000000000E+00  0.00000000000E+00  0.11819059951E+04  0.11819059951E+04  0.25500000920E-02 0. -1.
       -2   -1    0    0    0  501  0.00000000000E+00  0.00000000000E+00 -0.54334881913E+03  0.54334881913E+03  0.25500000920E-02 0.  1.
    10030    2    1    2    0    0  0.00000000000E+00  0.00000000000E+00  0.63855717599E+03  0.17252548142E+04  0.16027317015E+04 0.  0.
        1    1    3    3  502    0 -0.79316308223E+03 -0.43773891307E+02  0.43301267051E+03  0.90472305233E+03  0.50400001928E-02 0.  1.
       -1    1    3    3    0  502  0.79316308223E+03  0.43773891307E+02  0.20554450547E+03  0.82053176192E+03  0.50400001928E-02 0. -1.
</event>
<event>
 5   0  0.1126485E-05  0.1600621E+04  0.7818609E-02  0.8820166E-01
        1   -1    0    0  501    0  0.00000000000E+00  0.00000000000E+00  0.14259192087E+04  0.14259192087E+04  0.50400001928E-02 0. -1.
       -1   -1    0    0    0  501  0.00000000000E+00  0.00000000000E+00 -0.44918194388E+03  0.44918194391E+03  0.50400001928E-02 0.  1.
    10030    2    1    2    0    0  0.00000000000E+00  0.00000000000E+00  0.97673726478E+03  0.18751011526E+04  0.16006213319E+04 0.  0.
        2    1    3    3  502    0 -0.35225476332E+03  0.28266180483E+03  0.12623601612E+04  0.13407215561E+04  0.25500000920E-02 0. -1.
       -2    1    3    3    0  502  0.35225476332E+03 -0.28266180483E+03 -0.28562289646E+03  0.53437959652E+03  0.25500000920E-02 0.  1.
</event>
<event>
 5   0  0.1081831E-05  0.1599624E+04  0.7818609E-02  0.8820779E-01
        1   -1    0    0  501    0  0.00000000000E+00  0.00000000000E+00  0.13462261992E+04  0.13462261992E+04  0.50400001928E-02 0. -1.
       -1   -1    0    0    0  501  0.00000000000E+00  0.00000000000E+00 -0.47517934727E+03  0.47517934730E+03  0.50400001928E-02 0.  1.
    10030    2    1    2    0    0  0.00000000000E+00  0.00000000000E+00  0.87104685190E+03  0.18214055465E+04  0.15996235640E+04 0.  0.
        3    1    3    3  502    0 -0.26655522427E+02 -0.42365990565E+03 -0.33632482401E+03  0.54158344692E+03  0.10100000352E+00 0.  1.
       -3    1    3    3    0  502  0.26655522427E+02  0.42365990565E+03  0.12073716759E+04  0.12798220996E+04  0.10100000352E+00 0. -1.
</event>
<event>
 5   0  0.1126485E-05  0.1599329E+04  0.7818609E-02  0.8820960E-01
       -1   -1    0    0    0  501  0.00000000000E+00  0.00000000000E+00  0.95829792030E+03  0.95829792031E+03  0.50400001928E-02 0.  1.
        1   -1    0    0  501    0  0.00000000000E+00  0.00000000000E+00 -0.66729052811E+03  0.66729052813E+03  0.50400001928E-02 0. -1.
    10030    2    1    2    0    0  0.00000000000E+00  0.00000000000E+00  0.29100739218E+03  0.16255884484E+04  0.15993287659E+04 0.  0.
        2    1    3    3  502    0 -0.27160747570E+02  0.54029959808E+01 -0.66680299592E+03  0.66737780451E+03  0.25500000920E-02 0. -1.
       -2    1    3    3    0  502  0.27160747570E+02 -0.54029959808E+01  0.95781038811E+03  0.95821064393E+03  0.25500000920E-02 0.  1.
</event>
<event>
 5   0  0.1081831E-05  0.1606509E+04  0.7818609E-02  0.8816559E-01
        1   -1    0    0  501    0  0.00000000000E+00  0.00000000000E+00  0.20508743534E+04  0.20508743534E+04  0.50400001928E-02 0. -1.
       -1   -1    0    0    0  501  0.00000000000E+00  0.00000000000E+00 -0.31460617046E+03  0.31460617050E+03  0.50400001928E-02 0.  1.
    10030    2    1    2    0    0  0.00000000000E+00  0.00000000000E+00  0.17362681829E+04  0.23654805239E+04  0.16065089187E+04 0.  0.
        3    1    3    3  502    0 -0.21169947660E+03 -0.80368030168E+02  0.20029051851E+04  0.20156648727E+04  0.10100000352E+00 0. -1.
       -3    1    3    3    0  502  0.21169947660E+03  0.80368030168E+02 -0.26663700215E+03  0.34981565114E+03  0.10100000352E+00 0.  1.
</event>
<event>
 5   0  0.1994525E-05  0.1601799E+04  0.7818609E-02  0.8819443E-01
        2   -1    0    0  501    0  0.00000000000E+00  0.00000000000E+00  0.42557715020E+03  0.42557715021E+03  0.25500000920E-02 0.  1.
       -2   -1    0    0    0  501  0.00000000000E+00  0.00000000000E+00 -0.15072241256E+04  0.15072241256E+04  0.25500000920E-02 0. -1.
    10030    2    1    2    0    0  0.00000000000E+00  0.00000000000E+00 -0.10816469754E+04  0.19328012758E+04  0.16017991735E+04 0.  0.
        5    1    3    3  502    0 -0.47460586322E+03  0.74419210044E+02 -0.13140451406E+04  0.13991160301E+04  0.46999998093E+01 0. -1.
       -5    1    3    3    0  502  0.47460586322E+03 -0.74419210044E+02  0.23239816523E+03  0.53368524565E+03  0.46999998093E+01 0.  1.
</event>
<event>
 5   0  0.2046108E-05  0.1599179E+04  0.7818609E-02  0.8821053E-01
       -2   -1    0    0    0  501  0.00000000000E+00  0.00000000000E+00  0.36617887416E+03  0.36617887417E+03  0.25500000920E-02 0.  1.
        2   -1    0    0  501    0  0.00000000000E+00  0.00000000000E+00 -0.17459863578E+04  0.17459863578E+04  0.25500000920E-02 0. -1.
    10030    2    1    2    0    0  0.00000000000E+00  0.00000000000E+00 -0.13798074837E+04  0.21121652320E+04  0.15991789379E+04 0.  0.
        1    1    3    3  502    0  0.24403349482E+03 -0.75705994069E+03 -0.79762004320E+03  0.11264501026E+04  0.50400001928E-02 0.  1.
       -1    1    3    3    0  502 -0.24403349482E+03  0.75705994069E+03 -0.58218744046E+03  0.98571512936E+03  0.50400001928E-02 0. -1.
</event>
<event>
 5   0  0.1060251E-05  0.1599652E+04  0.7818609E-02  0.8820762E-01
       -1   -1    0    0    0  501  0.00000000000E+00  0.00000000000E+00  0.90167787603E+03  0.90167787604E+03  0.50400001928E-02 0.  1.
        1   -1    0    0  501    0  0.00000000000E+00  0.00000000000E+00 -0.70947939000E+03  0.70947939002E+03  0.50400001928E-02 0. -1.
    10030    2    1    2    0    0  0.00000000000E+00  0.00000000000E+00  0.19219848603E+03  0.16111572661E+04  0.15996522991E+04 0.  0.
        1    1    3    3  502    0 -0.49730636412E+03  0.57591816077E+03 -0.15210062320E+03  0.77597032630E+03  0.50400001928E-02 0.  1.
       -1    1    3    3    0  502  0.49730636412E+03 -0.57591816077E+03  0.34429910923E+03  0.83518693976E+03  0.50400001928E-02 0. -1.
</event>
<event>
 5   0  0.2147844E-05  0.1599983E+04  0.7818609E-02  0.8820559E-01
       -2   -1    0    0    0  501  0.00000000000E+00  0.00000000000E+00  0.37444581868E+03  0.37444581868E+03  0.25500000920E-02 0. -1.
        2   -1    0    0  501    0  0.00000000000E+00  0.00000000000E+00 -0.17091554927E+04  0.17091554927E+04  0.25500000920E-02 0.  1.
    10030    2    1    2    0    0  0.00000000000E+00  0.00000000000E+00 -0.13347096740E+04  0.20836013113E+04  0.15999826595E+04 0.  0.
        2    1    3    3  502    0  0.45370412019E+03  0.15970523551E+02 -0.15251547235E+04  0.15912886026E+04  0.25500000920E-02 0.  1.
       -2    1    3    3    0  502 -0.45370412019E+03 -0.15970523551E+02  0.19044504948E+03  0.49231270873E+03  0.25500000920E-02 0. -1.
</event>
<event>
 5   0  0.1994525E-05  0.1603526E+04  0.7818609E-02  0.8818385E-01
        2   -1    0    0  501    0  0.00000000000E+00  0.00000000000E+00  0.58232124036E+03  0.58232124036E+03  0.25500000920E-02 0. -1.
       -2   -1    0    0    0  501  0.00000000000E+00  0.00000000000E+00 -0.11038985690E+04  0.11038985690E+04  0.25500000920E-02 0.  1.
    10030    2    1    2    0    0  0.00000000000E+00  0.00000000000E+00 -0.52157732863E+03  0.16862198093E+04  0.16035255956E+04 0.  0.
        5    1    3    3  502    0  0.16603487709E+03  0.22378643081E+03 -0.10513244227E+04  0.10876364645E+04  0.46999998093E+01 0.  1.
       -5    1    3    3    0  502 -0.16603487709E+03 -0.22378643081E+03  0.52974709411E+03  0.59858334486E+03  0.46999998093E+01 0. -1.
</event>
<event>
 5   0  0.1126485E-05  0.1600057E+04  0.7818609E-02  0.8820513E-01
        1   -1    0    0  501    0  0.00000000000E+00  0.00000000000E+00  0.73364200436E+03  0.73364200438E+03  0.50400001928E-02 0.  1.
       -1   -1    0    0    0  501  0.00000000000E+00  0.00000000000E+00 -0.87242247448E+03  0.87242247450E+03  0.50400001928E-02 0. -1.
    10030    2    1    2    0    0  0.00000000000E+00  0.00000000000E+00 -0.13878047012E+03  0.16060644789E+04  0.16000572150E+04 0.  0.
        2    1    3    3  502    0 -0.37645218187E+03 -0.22800412399E+03 -0.73998806441E+03  0.86097878097E+03  0.25500000920E-02 0. -1.
       -2    1    3    3    0  502  0.37645218187E+03  0.22800412399E+03  0.60120759429E+03  0.74508569791E+03  0.25500000920E-02 0.  1.
</event>
<event>
 5   0  0.2147844E-05  0.1600004E+04  0.7818609E-02  0.8820545E-01
        2   -1    0    0  501    0  0.00000000000E+00  0.00000000000E+00  0.11669828991E+04  0.11669828992E+04  0.25500000920E-02 0. -1.
       -2   -1    0    0    0  501  0.00000000000E+00  0.00000000000E+00 -0.54842559423E+03  0.54842559424E+03  0.25500000920E-02 0.  1.
    10030    2    1    2    0    0  0.00000000000E+00  0.00000000000E+00  0.61855730492E+03  0.17154084934E+04  0.16000041124E+04 0.  0.
        2    1    3    3  502    0  0.92720968224E+02  0.25900751298E+03 -0.49611768037E+03  0.56728724868E+03  0.25500000920E-02 0.  1.
       -2    1    3    3    0  502 -0.92720968224E+02 -0.25900751298E+03  0.11146749853E+04  0.11481212447E+04  0.25500000920E-02 0. -1.
</event>
<event>
 5   0  0.2125803E-05  0.1599316E+04  0.7818609E-02  0.8820968E-01
        2   -1    0    0  501    0  0.00000000000E+00  0.00000000000E+00  0.12453996639E+04  0.12453996639E+04  0.25500000920E-02 0.  1.
       -2   -1    0    0    0  501  0.00000000000E+00  0.00000000000E+00 -0.51345215537E+03  0.51345215537E+03  0.25500000920E-02 0. -1.
    10030    2    1    2    0    0  0.00000000000E+00  0.00000000000E+00  0.73194750856E+03  0.17588518193E+04  0.15993162811E+04 0.  0.
        3    1    3    3  502    0 -0.57256027171E+01 -0.77950414873E+03  0.16987945897E+03  0.79782112105E+03  0.10100000352E+00 0. -1.
       -3    1    3    3    0  502  0.57256027171E+01  0.77950414873E+03  0.56206804960E+03  0.96103069826E+03  0.10100000352E+00 0.  1.
</event>
<event>
 5   0  0.7597000E-06  0.1599388E+04  0.7818609E-02  0.8820924E-01
       -3   -1    0    0    0  501  0.00000000000E+00  0.00000000000E+00  0.12291603516E+04  0.12291603557E+04  0.10100000352E+00 0. -1.
        3   -1    0    0  501    0  0.00000000000E+00  0.00000000000E+00 -0.52028221191E+03  0.52028222171E+03  0.10100000352E+00 0.  1.
    10030    2    1    2    0    0  0.00000000000E+00  0.00000000000E+00  0.70887813969E+03  0.17494425775E+04  0.15993877313E+04 0.  0.
        2    1    3    3  502    0 -0.10981501258E+03 -0.29916601410E+03 -0.44782463571E+03  0.54964219756E+03  0.25500000920E-02 0.  1.
       -2    1    3    3    0  502  0.10981501258E+03  0.29916601410E+03  0.11567027754E+04  0.11998003799E+04  0.25500000920E-02 0. -1.
</event>
<event>
 5   0  0.1057506E-05  0.1600608E+04  0.7818609E-02  0.8820175E-01
       -1   -1    0    0    0  501  0.00000000000E+00  0.00000000000E+00  0.51617677930E+03  0.51617677933E+03  0.50400001928E-02 0.  1.
        1   -1    0    0  501    0  0.00000000000E+00  0.00000000000E+00 -0.12408270370E+04  0.12408270370E+04  0.50400001928E-02 0. -1.
    10030    2    1    2    0    0  0.00000000000E+00  0.00000000000E+00 -0.72465025773E+03  0.17570038164E+04  0.16006075143E+04 0.  0.
        5    1    3    3  502    0 -0.60236334722E+03 -0.26410721497E+03 -0.86280145924E+03  0.10849159742E+04  0.46999998093E+01 0. -1.
       -5    1    3    3    0  502  0.60236334722E+03  0.26410721497E+03  0.13815120151E+03  0.67208784214E+03  0.46999998093E+01 0.  1.
</event>
<event>
 5   0  0.2046108E-05  0.1599764E+04  0.7818609E-02  0.8820693E-01
        2   -1    0    0  501    0  0.00000000000E+00  0.00000000000E+00  0.78949629224E+03  0.78949629224E+03  0.25500000920E-02 0. -1.
       -2   -1    0    0    0  501  0.00000000000E+00  0.00000000000E+00 -0.81040448706E+03  0.81040448706E+03  0.25500000920E-02 0.  1.
    10030    2    1    2    0    0  0.00000000000E+00  0.00000000000E+00 -0.20908194817E+02  0.15999007793E+04  0.15997641548E+04 0.  0.
        1    1    3    3  502    0  0.29075083109E+03 -0.15139461550E+03 -0.74014300067E+03  0.80948627959E+03  0.50400001928E-02 0.  1.
       -1    1    3    3    0  502 -0.29075083109E+03  0.15139461550E+03  0.71923480585E+03  0.79041449971E+03  0.50400001928E-02 0. -1.
</event>
<event>
 5   0  0.1090674E-05  0.1600651E+04  0.7818609E-02  0.8820148E-01
        1   -1    0    0  501    0  0.00000000000E+00  0.00000000000E+00  0.66760108102E+03  0.66760108104E+03  0.50400001928E-02 0.  1.
       -1   -1    0    0    0  501  0.00000000000E+00  0.00000000000E+00 -0.95943610989E+03  0.95943610990E+03  0.50400001928E-02 0. -1.
    10030    2    1    2    0    0  0.00000000000E+00  0.00000000000E+00 -0.29183502887E+03  0.16270371909E+04  0.16006505979E+04 0.  0.
        4    1    3    3  502    0  0.69363983729E+03  0.69371487594E+02 -0.54555298295E+03  0.88519958048E+03  0.12699999809E+01 0. -1.
       -4    1    3    3    0  502 -0.69363983729E+03 -0.69371487594E+02  0.25371795409E+03  0.74183761046E+03  0.12699999809E+01 0.  1.
</event>
<event>
 5   0  0.1126485E-05  0.1599650E+04  0.7818609E-02  0.8820763E-01
        1   -1    0    0  501    0  0.00000000000E+00  0.00000000000E+00  0.10753952696E+04  0.10753952696E+04  0.50400001928E-02 0.  1.
       -1   -1    0    0    0  501  0.00000000000E+00  0.00000000000E+00 -0.59487002679E+03  0.59487002681E+03  0.50400001928E-02 0. -1.
    10030    2    1    2    0    0  0.00000000000E+00  0.00000000000E+00  0.48052524276E+03  0.16702652964E+04  0.15996504779E+04 0.  0.
        2    1    3    3  502    0  0.13654539473E+03  0.37850600207E+03  0.96201381195E+03  0.10427761087E+04  0.25500000920E-02 0.  1.
       -2    1    3    3    0  502 -0.13654539473E+03 -0.37850600207E+03 -0.48148856919E+03  0.62748918771E+03  0.25500000920E-02 0. -1.
</event>
<event>
 5   0  0.1990948E-05  0.1598236E+04  0.7818609E-02  0.8821633E-01
        2   -1    0    0  501    0  0.00000000000E+00  0.00000000000E+00  0.24024882828E+04  0.24024882828E+04  0.25500000920E-02 0.  1.
       -2   -1    0    0    0  501  0.00000000000E+00  0.00000000000E+00 -0.26580324510E+03  0.26580324511E+03  0.25500000920E-02 0. -1.
    10030    2    1    2    0    0  0.00000000000E+00  0.00000000000E+00  0.21366850377E+04  0.26682915279E+04  0.15982355044E+04 0.  0.
        4    1    3    3  502    0  0.61506295309E+03  0.22732939545E+03  0.18308715787E+04  0.19447553679E+04  0.12699999809E+01 0.  1.
       -4    1    3    3    0  502 -0.61506295309E+03 -0.22732939545E+03  0.30581345904E+03  0.72353616007E+03  0.12699999809E+01 0. -1.
</event>
<event>
 5   0  0.2147844E-05  0.1600221E+04  0.7818609E-02  0.8820412E-01
       -2   -1    0    0    0  501  0.00000000000E+00  0.00000000000E+00  0.60579972026E+03  0.60579972026E+03  0.25500000920E-02 0.  1.
        2   -1    0    0  501    0  0.00000000000E+00  0.00000000000E+00 -0.10567464308E+04  0.10567464308E+04  0.25500000920E-02 0. -1.
    10030    2    1    2    0    0  0.00000000000E+00  0.00000000000E+00 -0.45094671054E+03  0.16625461511E+04  0.16002208500E+04 0.  0.
        2    1    3    3  502    0 -0.42249908910E+02  0.78423200927E+03 -0.38430601217E+03  0.87435462494E+03  0.25500000920E-02 0.  1.
       -2    1    3    3    0  502  0.42249908910E+02 -0.78423200927E+03 -0.66640698374E+02  0.78819152612E+03  0.25500000920E-02 0. -1.
</event>
<event>
 5   0  0.1994525E-05  0.1600379E+04  0.7818609E-02  0.8820315E-01
       -2   -1    0    0    0  501  0.00000000000E+00  0.00000000000E+00  0.41922597180E+03  0.41922597181E+03  0.25500000920E-02 0.  1.
        2   -1    0    0  501    0  0.00000000000E+00  0.00000000000E+00 -0.15273465325E+04  0.15273465325E+04  0.25500000920E-02 0. -1.
    10030    2    1    2    0    0  0.00000000000E+00  0.00000000000E+00 -0.11081205607E+04  0.19465725043E+04  0.16003791230E+04 0.  0.
        5    1    3    3  502    0  0.53517176543E+03 -0.43725915873E+02 -0.12756571687E+04  0.13840679450E+04  0.46999998093E+01 0. -1.
       -5    1    3    3    0  502 -0.53517176543E+03  0.43725915873E+02  0.16753660802E+03  0.56250455932E+03  0.46999998093E+01 0.  1.
</event>
<event>
 5   0  0.7597000E-06  0.1600482E+04  0.7818609E-02  0.8820252E-01
       -4   -1    0    0    0  501  0.00000000000E+00  0.00000000000E+00  0.64342433848E+03  0.64342559185E+03  0.12699999809E+01 0.  1.
        4   -1    0    0  501    0  0.00000000000E+00  0.00000000000E+00 -0.99527471354E+03  0.99527552381E+03  0.12699999809E+01 0. -1.
    10030    2    1    2    0    0  0.00000000000E+00  0.00000000000E+00 -0.35185037506E+03  0.16387011157E+04  0.16004820087E+04 0.  0.
        5    1    3    3  502    0 -0.39586055914E+03  0.47633484662E+03  0.34289308545E+03  0.70795354822E+03  0.46999998093E+01 0.  1.
       -5    1    3    3    0  502  0.39586055914E+03 -0.47633484662E+03 -0.69474346051E+03  0.93074756744E+03  0.46999998093E+01 0. -1.
</event>
<event>
 5   0  0.1990948E-05  0.1599471E+04  0.7818609E-02  0.8820873E-01
       -2   -1    0    0    0  501  0.00000000000E+00  0.00000000000E+00  0.20212083843E+04  0.20212083843E+04  0.25500000920E-02 0.  1.
        2   -1    0    0  501    0  0.00000000000E+00  0.00000000000E+00 -0.31643278409E+03  0.31643278410E+03  0.25500000920E-02 0. -1.
    10030    2    1    2    0    0  0.00000000000E+00  0.00000000000E+00  0.17047756002E+04  0.23376411684E+04  0.15994706578E+04 0.  0.
        4    1    3    3  502    0  0.59618810835E+02  0.25508580876E+03 -0.25194837078E+03  0.36345944323E+03  0.12699999809E+01 0. -1.
       -4    1    3    3    0  502 -0.59618810835E+02 -0.25508580876E+03  0.19567239710E+04  0.19741817252E+04  0.12699999809E+01 0.  1.
</event>
<event>
 5   0  0.2125803E-05  0.1599368E+04  0.7818609E-02  0.8820936E-01
       -2   -1    0    0    0  501  0.00000000000E+00  0.00000000000E+00  0.53894196179E+03  0.53894196180E+03  0.25500000920E-02 0. -1.
        2   -1    0    0  501    0  0.00000000000E+00  0.00000000000E+00 -0.11865741741E+04  0.11865741741E+04  0.25500000920E-02 0.  1.
    10030    2    1    2    0    0  0.00000000000E+00  0.00000000000E+00 -0.64763221228E+03  0.17255161359E+04  0.15993681417E+04 0.  0.
        3    1    3    3  502    0  0.42624933396E+03 -0.83955637922E+02 -0.10481554797E+04  0.11346219475E+04  0.10100000352E+00 0.  1.
       -3    1    3    3    0  502 -0.42624933396E+03  0.83955637922E+02  0.40052326747E+03  0.59089418835E+03  0.10100000352E+00 0. -1.
</event>
<event>
 5   0  0.1081831E-05  0.1600098E+04  0.7818609E-02  0.8820488E-01
       -1   -1    0    0    0  501  0.00000000000E+00  0.00000000000E+00  0.65360730276E+03  0.65360730278E+03  0.50400001928E-02 0.  1.
        1   -1    0    0  501    0  0.00000000000E+00  0.00000000000E+00 -0.97930066819E+03  0.97930066821E+03  0.50400001928E-02 0. -1.
    10030    2    1    2    0    0  0.00000000000E+00  0.00000000000E+00 -0.32569336543E+03  0.16329079710E+04  0.16000975825E+04 0.  0.
        3    1    3    3  502    0  0.72228249147E+03 -0.20212369540E+03  0.12130873215E+03  0.75977747033E+03  0.10100000352E+00 0. -1.
       -3    1    3    3    0  502 -0.72228249147E+03  0.20212369540E+03 -0.44700209758E+03  0.87313050066E+03  0.10100000352E+00 0.  1.
</event>
<event>
 5   0  0.2125803E-05  0.1600359E+04  0.7818609E-02  0.8820328E-01
        2   -1    0    0  501    0  0.00000000000E+00  0.00000000000E+00  0.68533754891E+03  0.68533754892E+03  0.25500000920E-02 0. -1.
       -2   -1    0    0    0  501  0.00000000000E+00  0.00000000000E+00 -0.93426502748E+03  0.93426502748E+03  0.25500000920E-02 0.  1.
    10030    2    1    2    0    0  0.00000000000E+00  0.00000000000E+00 -0.24892747857E+03  0.16196025764E+04  0.16003585898E+04 0.  0.
        3    1    3    3  502    0 -0.27792176904E+02  0.53525974727E+03  0.47682846788E+03  0.71738469465E+03  0.10100000352E+00 0. -1.
       -3    1    3    3    0  502  0.27792176904E+02 -0.53525974727E+03 -0.72575594645E+03  0.90221788175E+03  0.10100000352E+00 0.  1.
</event>
<event>
 5   0  0.1126485E-05  0.1600082E+04  0.7818609E-02  0.8820498E-01
       -1   -1    0    0    0  501  0.00000000000E+00  0.00000000000E+00  0.37390914165E+03  0.37390914168E+03  0.50400001928E-02 0. -1.
        1   -1    0    0  501    0  0.00000000000E+00  0.00000000000E+00 -0.17118216097E+04  0.17118216097E+04  0.50400001928E-02 0.  1.
    10030    2    1    2    0    0  0.00000000000E+00  0.00000000000E+00 -0.13379124680E+04  0.20857307514E+04  0.16000821839E+04 0.  0.
        2    1    3    3  502    0 -0.55082406137E+03 -0.35005607791E+03 -0.65780436225E+02  0.65595233825E+03  0.25500000920E-02 0. -1.
       -2    1    3    3    0  502  0.55082406137E+03  0.35005607791E+03 -0.12721320318E+04  0.14297784131E+04  0.25500000920E-02 0.  1.
</event>
<event>
 5   0  0.1060251E-05  0.1598748E+04  0.7818609E-02  0.8821317E-01
        1   -1    0    0  501    0  0.00000000000E+00  0.00000000000E+00  0.86985503950E+03  0.86985503952E+03  0.50400001928E-02 0.  1.
       -1   -1    0    0    0  501  0.00000000000E+00  0.00000000000E+00 -0.73460401033E+03  0.73460401035E+03  0.50400001928E-02 0. -1.
    10030    2    1    2    0    0  0.00000000000E+00  0.00000000000E+00  0.13525102917E+03  0.16044590499E+04  0.15987482609E+04 0.  0.
        1    1    3    3  502    0 -0.37920897256E+03  0.49500201438E+02  0.77209397435E+03  0.86161407838E+03  0.50400001928E-02 0.  1.
       -1    1    3    3    0  502  0.37920897256E+03 -0.49500201438E+02 -0.63684294518E+03  0.74284497149E+03  0.50400001928E-02 0. -1.
</event>
<event>
 5   0  0.1990948E-05  0.1599981E+04  0.7818609E-02  0.8820560E-01
       -2   -1    0    0    0  501  0.00000000000E+00  0.00000000000E+00  0.56750913739E+03  0.56750913739E+03  0.25500000920E-02 0. -1.
        2   -1    0    0  501    0  0.00000000000E+00  0.00000000000E+00 -0.11277083508E+04  0.11277083508E+04  0.25500000920E-02 0.  1.
    10030    2    1    2    0    0  0.00000000000E+00  0.00000000000E+00 -0.56019921341E+03  0.16952174882E+04  0.15999809916E+04 0.  0.
        4    1    3    3  502    0 -0.69772363187E+03 -0.63995710978E+02 -0.68917649557E+03  0.98279172384E+03  0.12699999809E+01 0.  1.
       -4    1    3    3    0  502  0.69772363187E+03  0.63995710978E+02  0.12897728217E+03  0.71242576435E+03  0.12699999809E+01 0. -1.
</event>
<event>
 5   0  0.1990948E-05  0.1599595E+04  0.7818609E-02  0.8820797E-01
       -2   -1    0    0    0  501  0.00000000000E+00  0.00000000000E+00  0.57839259945E+03  0.57839259945E+03  0.25500000920E-02 0. -1.
        2   -1    0    0  501    0  0.00000000000E+00  0.00000000000E+00 -0.11059547930E+04  0.11059547930E+04  0.25500000920E-02 0.  1.
    10030    2    1    2    0    0  0.00000000000E+00  0.00000000000E+00 -0.52756219354E+03  0.16843473924E+04  0.15995950332E+04 0.  0.
        4    1    3    3  502    0 -0.38112089471E+03  0.67504141193E+03 -0.47103548306E+03  0.90708879577E+03  0.12699999809E+01 0.  1.
       -4    1    3    3    0  502  0.38112089471E+03 -0.67504141193E+03 -0.56526710484E+02  0.77725859668E+03  0.12699999809E+01 0. -1.
</event>
<event>
 5   0  0.1990948E-05  0.1600507E+04  0.7818609E-02  0.8820236E-01
       -2   -1    0    0    0  501  0.00000000000E+00  0.00000000000E+00  0.31334088145E+03  0.31334088146E+03  0.25500000920E-02 0.  1.
        2   -1    0    0  501    0  0.00000000000E+00  0.00000000000E+00 -0.20437994224E+04  0.20437994224E+04  0.25500000920E-02 0. -1.
    10030    2    1    2    0    0  0.00000000000E+00  0.00000000000E+00 -0.17304585409E+04  0.23571403039E+04  0.16005073102E+04 0.  0.
        4    1    3    3  502    0  0.34456214411E+03 -0.67404040897E+03 -0.12474365969E+04  0.14591618212E+04  0.12699999809E+01 0. -1.
       -4    1    3    3    0  502 -0.34456214411E+03  0.67404040897E+03 -0.48302194400E+03  0.89797848269E+03  0.12699999809E+01 0.  1.
</event>
<event>
 5   0  0.7597000E-06  0.1599423E+04  0.7818609E-02  0.8820902E-01
       -3   -1    0    0    0  501  0.00000000000E+00  0.00000000000E+00  0.24746983942E+04  0.24746983963E+04  0.10100000352E+00 0.  1.
        3   -1    0    0  501    0  0.00000000000E+00  0.00000000000E+00 -0.25843092734E+03  0.25843094708E+03  0.10100000352E+00 0. -1.
    10030    2    1    2    0    0  0.00000000000E+00  0.00000000000E+00  0.22162674669E+04  0.27331293434E+04  0.15994231844E+04 0.  0.
        5    1    3    3  502    0  0.20812181937E+03  0.14042440943E+03  0.24055818138E+04  0.24186524470E+04  0.46999998093E+01 0.  1.
       -5    1    3    3    0  502 -0.20812181937E+03 -0.14042440943E+03 -0.18931434686E+03  0.31447689643E+03  0.46999998093E+01 0. -1.
</event>
<event>
 5   0  0.1060251E-05  0.1599705E+04  0.7818609E-02  0.8820729E-01
       -1   -1    0    0    0  501  0.00000000000E+00  0.00000000000E+00  0.89565059556E+03  0.89565059557E+03  0.50400001928E-02 0. -1.
        1   -1    0    0  501    0  0.00000000000E+00  0.00000000000E+00 -0.71430129046E+03  0.71430129048E+03  0.50400001928E-02 0.  1.
    10030    2    1    2    0    0  0.00000000000E+00  0.00000000000E+00  0.18134930509E+03  0.16099518861E+04  0.15997054432E+04 0.  0.
        1    1    3    3  502    0  0.63429489988E+03  0.22529674197E+03 -0.34415265340E+03  0.75599582725E+03  0.50400001928E-02 0.  1.
       -1    1    3    3    0  502 -0.63429489988E+03 -0.22529674197E+03  0.52550195850E+03  0.85395605880E+03  0.50400001928E-02 0. -1.
</event>
<event>
 5   0  0.2125803E-05  0.1599548E+04  0.7818609E-02  0.8820826E-01
        2   -1    0    0  501    0  0.00000000000E+00  0.00000000000E+00  0.91665755411E+03  0.91665755411E+03  0.25500000920E-02 0.  1.
       -2   -1    0    0    0  501  0.00000000000E+00  0.00000000000E+00 -0.69779413555E+03  0.69779413556E+03  0.25500000920E-02 0. -1.
    10030    2    1    2    0    0  0.00000000000E+00  0.00000000000E+00  0.21886341855E+03  0.16144516897E+04  0.15995477681E+04 0.  0.
        3    1    3    3  502    0  0.29560224293E+03  0.73772517343E+03  0.19047684031E+02  0.79497291904E+03  0.10100000352E+00 0. -1.
       -3    1    3    3    0  502 -0.29560224293E+03 -0.73772517343E+03  0.19981573452E+03  0.81947877063E+03  0.10100000352E+00 0.  1.
</event>
<event>
 5   0  0.2046108E-05  0.1600839E+04  0.7818609E-02  0.8820033E-01
        2   -1    0    0  501    0  0.00000000000E+00  0.00000000000E+00  0.15910470941E+04  0.15910470941E+04  0.25500000920E-02 0. -1.
       -2   -1    0    0    0  501  0.00000000000E+00  0.00000000000E+00 -0.40267262466E+03  0.40267262467E+03  0.25500000920E-02 0.  1.
    10030    2    1    2    0    0  0.00000000000E+00  0.00000000000E+00  0.11883744694E+04  0.19937197188E+04  0.16008386669E+04 0.  0.
        1    1    3    3  502    0 -0.52412101511E+03  0.25769909247E+03  0.12758319150E+04  0.14031602674E+04  0.50400001928E-02 0. -1.
       -1    1    3    3    0  502  0.52412101511E+03 -0.25769909247E+03 -0.87457445573E+02  0.59055945133E+03  0.50400001928E-02 0.  1.
</event>
<event>
 5   0  0.1126485E-05  0.1599569E+04  0.7818609E-02  0.8820813E-01
       -1   -1    0    0    0  501  0.00000000000E+00  0.00000000000E+00  0.39057329678E+03  0.39057329681E+03  0.50400001928E-02 0.  1.
        1   -1    0    0  501    0  0.00000000000E+00  0.00000000000E+00 -0.16377348640E+04  0.16377348640E+04  0.50400001928E-02 0. -1.
    10030    2    1    2    0    0  0.00000000000E+00  0.00000000000E+00 -0.12471615672E+04  0.20283081608E+04  0.15995693234E+04 0.  0.
        2    1    3    3  502    0  0.14801526812E+03 -0.61244729529E+03 -0.12482149829E+04  0.13982277542E+04  0.25500000920E-02 0. -1.
       -2    1    3    3    0  502 -0.14801526812E+03  0.61244729529E+03  0.10534156719E+01  0.63008040661E+03  0.25500000920E-02 0.  1.
</event>
<event>
 5   0  0.1060251E-05  0.1597852E+04  0.7818609E-02  0.8821869E-01
        1   -1    0    0  501    0  0.00000000000E+00  0.00000000000E+00  0.18786147687E+04  0.18786147687E+04  0.50400001928E-02 0. -1.
       -1   -1    0    0    0  501  0.00000000000E+00  0.00000000000E+00 -0.33976242448E+03  0.33976242451E+03  0.50400001928E-02 0.  1.
    10030    2    1    2    0    0  0.00000000000E+00  0.00000000000E+00  0.15388523442E+04  0.22183771932E+04  0.15978519437E+04 0.  0.
        1    1    3    3  502    0  0.61965627691E+03  0.49801894490E+03  0.87949995323E+03  0.11855449965E+04  0.50400001928E-02 0.  1.
       -1    1    3    3    0  502 -0.61965627691E+03 -0.49801894490E+03  0.65935239096E+03  0.10328321967E+04  0.50400001928E-02 0. -1.
</event>
<event>
 5   0  0.1126485E-05  0.1599881E+04  0.7818609E-02  0.8820621E-01
       -1   -1    0    0    0  501  0.00000000000E+00  0.00000000000E+00  0.13540886930E+04  0.13540886930E+04  0.50400001928E-02 0.  1.
        1   -1    0    0  501    0  0.00000000000E+00  0.00000000000E+00 -0.47257209300E+03  0.47257209303E+03  0.50400001928E-02 0. -1.
    10030    2    1    2    0    0  0.00000000000E+00  0.00000000000E+00  0.88151659998E+03  0.18266607860E+04  0.15998806553E+04 0.  0.
        2    1    3    3  502    0  0.23853318205E+03 -0.49953895343E+03 -0.21856273820E+03  0.59515285051E+03  0.25500000920E-02 0. -1.
       -2    1    3    3    0  502 -0.23853318205E+03  0.49953895343E+03  0.11000793382E+04  0.12315079355E+04  0.25500000920E-02 0.  1.
</event>
<event>
 5   0  0.2125803E-05  0.1599871E+04  0.7818609E-02  0.8820627E-01
        2   -1    0    0  501    0  0.00000000000E+00  0.00000000000E+00  0.14603783921E+04  0.14603783921E+04  0.25500000920E-02 0.  1.
       -2   -1    0    0    0  501  0.00000000000E+00  0.00000000000E+00 -0.43817190505E+03  0.43817190506E+03  0.25500000920E-02 0. -1.
    10030    2    1    2    0    0  0.00000000000E+00  0.00000000000E+00  0.10222064870E+04  0.18985502972E+04  0.15998709725E+04 0.  0.
        3    1    3    3  502    0  0.38478434129E+02 -0.33977763334E+03 -0.34706893905E+03  0.48722303790E+03  0.10100000352E+00 0. -1.
       -3    1    3    3    0  502 -0.38478434129E+02  0.33977763334E+03  0.13692754261E+04  0.14113272592E+04  0.10100000352E+00 0.  1.
</event>
<event>
 5   0  0.1126485E-05  0.1599506E+04  0.7818609E-02  0.8820852E-01
       -1   -1    0    0    0  501  0.00000000000E+00  0.00000000000E+00  0.26947787789E+03  0.26947787794E+03  0.50400001928E-02 0.  1.
        1   -1    0    0  501    0  0.00000000000E+00  0.00000000000E+00 -0.23734965278E+04  0.23734965278E+04  0.50400001928E-02 0. -1.
    10030    2    1    2    0    0  0.00000000000E+00  0.00000000000E+00 -0.21040186499E+04  0.26429744057E+04  0.15995059332E+04 0.  0.
        2    1    3    3  502    0  0.12461021307E+03  0.71831271343E+03 -0.50872411818E+03  0.88898880077E+03  0.25500000920E-02 0. -1.
       -2    1    3    3    0  502 -0.12461021307E+03 -0.71831271343E+03 -0.15952945317E+04  0.17539856049E+04  0.25500000920E-02 0.  1.
</event>
<event>
 5   0  0.1990948E-05  0.1600663E+04  0.7818609E-02  0.8820141E-01
       -2   -1    0    0    0  501  0.00000000000E+00  0.00000000000E+00  0.47796545483E+03  0.47796545484E+03  0.25500000920E-02 0. -1.
        2   -1    0    0  501    0  0.00000000000E+00  0.00000000000E+00 -0.13401194767E+04  0.13401194767E+04  0.25500000920E-02 0.  1.
    10030    2    1    2    0    0  0.00000000000E+00  0.00000000000E+00 -0.86215402185E+03  0.18180849315E+04  0.16006633815E+04 0.  0.
        4    1    3    3  502    0 -0.32843963535E+03  0.39402719424E+03  0.26669674788E+03  0.57815118447E+03  0.12699999809E+01 0. -1.
       -4    1    3    3    0  502  0.32843963535E+03 -0.39402719424E+03 -0.11288507697E+04  0.12399337471E+04  0.12699999809E+01 0.  1.
</event>
<event>
 5   0  0.1081831E-05  0.1601119E+04  0.7818609E-02  0.8819861E-01
       -1   -1    0    0    0  501  0.00000000000E+00  0.00000000000E+00  0.72991465218E+03  0.72991465220E+03  0.50400001928E-02 0. -1.
        1   -1    0    0  501    0  0.00000000000E+00  0.00000000000E+00 -0.87804208880E+03  0.87804208882E+03  0.50400001928E-02 0.  1.
    10030    2    1    2    0    0  0.00000000000E+00  0.00000000000E+00 -0.14812743662E+03  0.16079567410E+04  0.16011193408E+04 0.  0.
        3    1    3    3  502    0  0.28332627551E+03  0.13658015304E+01  0.67787942183E+03  0.73470821728E+03  0.10100000352E+00 0. -1.
       -3    1    3    3    0  502 -0.28332627551E+03 -0.13658015304E+01 -0.82600685844E+03  0.87324852374E+03  0.10100000352E+00 0.  1.
</event>
<event>
 5   0  0.1060251E-05  0.1600795E+04  0.7818609E-02  0.8820060E-01
       -1   -1    0    0    0  501  0.00000000000E+00  0.00000000000E+00  0.64812210836E+03  0.64812210838E+03  0.50400001928E-02 0.  1.
        1   -1    0    0  501    0  0.00000000000E+00  0.00000000000E+00 -0.98845028462E+03  0.98845028463E+03  0.50400001928E-02 0. -1.
    10030    2    1    2    0    0  0.00000000000E+00  0.00000000000E+00 -0.34032817626E+03  0.16365723930E+04  0.16007954054E+04 0.  0.
        1    1    3    3  502    0  0.44348169928E+03  0.50200314821E+03 -0.61808071890E+03  0.91143126648E+03  0.50400001928E-02 0. -1.
       -1    1    3    3    0  502 -0.44348169928E+03 -0.50200314821E+03  0.27775254265E+03  0.72514112653E+03  0.50400001928E-02 0.  1.
</event>
<event>
 5   0  0.1990948E-05  0.1600201E+04  0.7818609E-02  0.8820424E-01
        2   -1    0    0  501    0  0.00000000000E+00  0.00000000000E+00  0.45852839480E+03  0.45852839480E+03  0.25500000920E-02 0. -1.
       -2   -1    0    0    0  501  0.00000000000E+00  0.00000000000E+00 -0.13961210934E+04  0.13961210934E+04  0.25500000920E-02 0.  1.
    10030    2    1    2    0    0  0.00000000000E+00  0.00000000000E+00 -0.93759269856E+03  0.18546494882E+04  0.16002014422E+04 0.  0.
        4    1    3    3  502    0 -0.14712073827E+03  0.62335752794E+02  0.43984775703E+03  0.46797213589E+03  0.12699999809E+01 0. -1.
       -4    1    3    3    0  502  0.14712073827E+03 -0.62335752794E+02 -0.13774404556E+04  0.13866773523E+04  0.12699999809E+01 0.  1.
</event>
<event>
 5   0  0.1994525E-05  0.1598279E+04  0.7818609E-02  0.8821606E-01
        2   -1    0    0  501    0  0.00000000000E+00  0.00000000000E+00  0.45758576122E+03  0.45758576123E+03  0.25500000920E-02 0.  1.
       -2   -1    0    0    0  501  0.00000000000E+00  0.00000000000E+00 -0.13956372470E+04  0.13956372470E+04  0.25500000920E-02 0. -1.
    10030    2    1    2    0    0  0.00000000000E+00  0.00000000000E+00 -0.93805148581E+03  0.18532230083E+04  0.15982787392E+04 0.  0.
        5    1    3    3  502    0 -0.71990149177E+02  0.62340925532E+03 -0.10426970011E+04  0.12169884170E+04  0.46999998093E+01 0. -1.
       -5    1    3    3    0  502  0.71990149177E+02 -0.62340925532E+03  0.10464551525E+03  0.63623459122E+03  0.46999998093E+01 0.  1.
</event>
<event>
 5   0  0.1126485E-05  0.1600464E+04  0.7818609E-02  0.8820263E-01
       -1   -1    0    0    0  501  0.00000000000E+00  0.00000000000E+00  0.35835858092E+03  0.35835858095E+03  0.50400001928E-02 0.  1.
        1   -1    0    0  501    0  0.00000000000E+00  0.00000000000E+00 -0.17869555736E+04  0.17869555736E+04  0.50400001928E-02 0. -1.
    10030    2    1    2    0    0  0.00000000000E+00  0.00000000000E+00 -0.14285969927E+04  0.21453141546E+04  0.16004635123E+04 0.  0.
        2    1    3    3  502    0 -0.62968217311E+03 -0.75725839757E+02 -0.60177036725E+02  0.63706774969E+03  0.25500000920E-02 0.  1.
       -2    1    3    3    0  502  0.62968217311E+03  0.75725839757E+02 -0.13684199560E+04  0.15082464049E+04  0.25500000920E-02 0. -1.
</event>
<event>
 5   0  0.1126485E-05  0.1599512E+04  0.7818609E-02  0.8820848E-01
        1   -1    0    0  501    0  0.00000000000E+00  0.00000000000E+00  0.10840352453E+04  0.10840352454E+04  0.50400001928E-02 0. -1.
       -1   -1    0    0    0  501  0.00000000000E+00  0.00000000000E+00 -0.59002676719E+03  0.59002676721E+03  0.50400001928E-02 0.  1.
    10030    2    1    2    0    0  0.00000000000E+00  0.00000000000E+00  0.49400847816E+03  0.16740620126E+04  0.15995121898E+04 0.  0.
        2    1    3    3  502    0 -0.37061952897E+03 -0.36319329166E+03 -0.38991628233E+03  0.64907850803E+03  0.25500000920E-02 0.  1.
       -2    1    3    3    0  502  0.37061952897E+03  0.36319329166E+03  0.88392476048E+03  0.10249835045E+04  0.25500000920E-02 0. -1.
</event>
<event>
 5   0  0.1060251E-05  0.1599972E+04  0.7818609E-02  0.8820565E-01
        1   -1    0    0  501    0  0.00000000000E+00  0.00000000000E+00  0.96181676158E+03  0.96181676160E+03  0.50400001928E-02 0. -1.
       -1   -1    0    0    0  501  0.00000000000E+00  0.00000000000E+00 -0.66538448687E+03  0.66538448689E+03  0.50400001928E-02 0.  1.
    10030    2    1    2    0    0  0.00000000000E+00  0.00000000000E+00  0.29643227472E+03  0.16272012485E+04  0.15999724403E+04 0.  0.
        1    1    3    3  502    0  0.75576105975E+03  0.47485954433E+02  0.41057582770E+03  0.86139549895E+03  0.50400001928E-02 0.  1.
       -1    1    3    3    0  502 -0.75576105975E+03 -0.47485954433E+02 -0.11414355298E+03  0.76580574953E+03  0.50400001928E-02 0. -1.
</event>
<event>
 5   0  0.1057506E-05  0.1600300E+04  0.7818609E-02  0.8820364E-01
        1   -1    0    0  501    0  0.00000000000E+00  0.00000000000E+00  0.24751490335E+04  0.24751490335E+04  0.50400001928E-02 0.  1.
       -1   -1    0    0    0  501  0.00000000000E+00  0.00000000000E+00 -0.25866729864E+03  0.25866729869E+03  0.50400001928E-02 0. -1.
    10030    2    1    2    0    0  0.00000000000E+00  0.00000000000E+00  0.22164817348E+04  0.27338163322E+04  0.16003001147E+04 0.  0.
        5    1    3    3  502    0  0.33331587596E+03  0.31334068502E+03  0.22296765462E+04  0.22761286099E+04  0.46999998093E+01 0.  1.
       -5    1    3    3    0  502 -0.33331587596E+03 -0.31334068502E+03 -0.13194811402E+02  0.45768772226E+03  0.46999998093E+01 0. -1.
</event>
<event>
 5   0  0.1081831E-05  0.1599746E+04  0.7818609E-02  0.8820704E-01
       -1   -1    0    0    0  501  0.00000000000E+00  0.00000000000E+00  0.68176530821E+03  0.68176530823E+03  0.50400001928E-02 0. -1.
        1   -1    0    0  501    0  0.00000000000E+00  0.00000000000E+00 -0.93844188088E+03  0.93844188089E+03  0.50400001928E-02 0.  1.
    10030    2    1    2    0    0  0.00000000000E+00  0.00000000000E+00 -0.25667657267E+03  0.16202071891E+04  0.15997463776E+04 0.  0.
        3    1    3    3  502    0 -0.49810477094E+03 -0.22316442254E+03  0.46385069577E+03  0.71628779167E+03  0.10100000352E+00 0. -1.
       -3    1    3    3    0  502  0.49810477094E+03  0.22316442254E+03 -0.72052726845E+03  0.90391939745E+03  0.10100000352E+00 0.  1.
</event>
<event>
 5   0  0.2046108E-05  0.1600063E+04  0.7818609E-02  0.8820509E-01
        2   -1    0    0  501    0  0.00000000000E+00  0.00000000000E+00  0.26038850192E+04  0.26038850192E+04  0.25500000920E-02 0.  1.
       -2   -1    0    0    0  501  0.00000000000E+00  0.00000000000E+00 -0.24580599649E+03  0.24580599650E+03  0.25500000920E-02 0. -1.
    10030    2    1    2    0    0  0.00000000000E+00  0.00000000000E+00  0.23580790227E+04  0.28496910157E+04  0.16000631886E+04 0.  0.
        1    1    3    3  502    0 -0.18272462418E+03 -0.66450560330E+03  0.19026869509E+04  0.20236535321E+04  0.50400001928E-02 0.  1.
       -1    1    3    3    0  502  0.18272462418E+03  0.66450560330E+03  0.45539207179E+03  0.82603748351E+03  0.50400001928E-02 0. -1.
</event>
<event>
 5   0  0.1057506E-05  0.1599792E+04  0.7818609E-02  0.8820676E-01
        1   -1    0    0  501    0  0.00000000000E+00  0.00000000000E+00  0.13157143013E+04  0.13157143013E+04  0.50400001928E-02 0.  1.
       -1   -1    0    0    0  501  0.00000000000E+00  0.00000000000E+00 -0.48630139708E+03  0.48630139710E+03  0.50400001928E-02 0. -1.
    10030    2    1    2    0    0  0.00000000000E+00  0.00000000000E+00  0.82941290424E+03  0.18020156984E+04  0.15997921151E+04 0.  0.
        5    1    3    3  502    0  0.12925934290E+03 -0.65000436693E+03  0.91920308519E+03  0.11332122734E+04  0.46999998093E+01 0.  1.
       -5    1    3    3    0  502 -0.12925934290E+03  0.65000436693E+03 -0.89790180943E+02  0.66880342504E+03  0.46999998093E+01 0. -1.
</event>
<event>
 5   0  0.1060251E-05  0.1599891E+04  0.7818609E-02  0.8820615E-01
        1   -1    0    0  501    0  0.00000000000E+00  0.00000000000E+00  0.20393902375E+04  0.20393902375E+04  0.50400001928E-02 0. -1.
       -1   -1    0    0    0  501  0.00000000000E+00  0.00000000000E+00 -0.31377646961E+03  0.31377646965E+03  0.50400001928E-02 0.  1.
    10030    2    1    2    0    0  0.00000000000E+00  0.00000000000E+00  0.17256137679E+04  0.23531667071E+04  0.15998908324E+04 0.  0.
        1    1    3    3  502    0  0.55077833472E+03  0.43006023411E+03  0.14354945164E+04  0.15965441070E+04  0.50400001928E-02 0. -1.
       -1    1    3    3    0  502 -0.55077833472E+03 -0.43006023411E+03  0.29011925149E+03  0.75662260015E+03  0.50400001928E-02 0.  1.
</event>
<event>
 5   0  0.1060251E-05  0.1600356E+04  0.7818609E-02  0.8820330E-01
        1   -1    0    0  501    0  0.00000000000E+00  0.00000000000E+00  0.15950548367E+04  0.15950548367E+04  0.50400001928E-02 0.  1.
       -1   -1    0    0    0  501  0.00000000000E+00  0.00000000000E+00 -0.40141847579E+03  0.40141847582E+03  0.50400001928E-02 0. -1.
    10030    2    1    2    0    0  0.00000000000E+00  0.00000000000E+00  0.11936363610E+04  0.19964733126E+04  0.16003555622E+04 0.  0.
        1    1    3    3  502    0  0.74932542455E+03 -0.21880531364E+03  0.37745302686E+03  0.86708427771E+03  0.50400001928E-02 0. -1.
       -1    1    3    3    0  502 -0.74932542455E+03  0.21880531364E+03  0.81618333409E+03  0.11293890348E+04  0.50400001928E-02 0.  1.
</event>
<event>
 5   0  0.1090674E-05  0.1600325E+04  0.7818609E-02  0.8820348E-01
        1   -1    0    0  501    0  0.00000000000E+00  0.00000000000E+00  0.67931938344E+03  0.67931938345E+03  0.50400001928E-02 0.  1.
       -1   -1    0    0    0  501  0.00000000000E+00  0.00000000000E+00 -0.94250236328E+03  0.94250236329E+03  0.50400001928E-02 0. -1.
    10030    2    1    2    0    0  0.00000000000E+00  0.00000000000E+00 -0.26318297984E+03  0.16218217467E+04  0.16003251224E+04 0.  0.
        4    1    3    3  502    0 -0.70634043332E+03  0.31998296653E+03  0.68423778340E+02  0.77845316683E+03  0.12699999809E+01 0.  1.
       -4    1    3    3    0  502  0.70634043332E+03 -0.31998296653E+03 -0.33160675818E+03  0.84336857991E+03  0.12699999809E+01 0. -1.
</event>
<event>
 5   0  0.1081831E-05  0.1600092E+04  0.7818609E-02  0.8820492E-01
        1   -1    0    0  501    0  0.00000000000E+00  0.00000000000E+00  0.14625956338E+04  0.14625956338E+04  0.50400001928E-02 0.  1.
       -1   -1    0    0    0  501  0.00000000000E+00  0.00000000000E+00 -0.43762830349E+03  0.43762830352E+03  0.50400001928E-02 0. -1.
    10030    2    1    2    0    0  0.00000000000E+00  0.00000000000E+00  0.10249673303E+04  0.19002239374E+04  0.16000915548E+04 0.  0.
        3    1    3    3  502    0  0.45602124084E+03 -0.65489686462E+03  0.44501159285E+03  0.91371801085E+03  0.10100000352E+00 0.  1.
       -3    1    3    3    0  502 -0.45602124084E+03  0.65489686462E+03  0.57995573750E+03  0.98650592651E+03  0.10100000352E+00 0. -1.
</event>
<event>
 5   0  0.2046108E-05  0.1599826E+04  0.7818609E-02  0.8820655E-01
        2   -1    0    0  501    0  0.00000000000E+00  0.00000000000E+00  0.30594016079E+04  0.30594016079E+04  0.25500000920E-02 0.  1.
       -2   -1    0    0    0  501  0.00000000000E+00  0.00000000000E+00 -0.20914573129E+03  0.20914573131E+03  0.25500000920E-02 0. -1.
    10030    2    1    2    0    0  0.00000000000E+00  0.00000000000E+00  0.28502558766E+04  0.32685473392E+04  0.15998259738E+04 0.  0.
        1    1    3    3  502    0  0.74178022319E+03 -0.20536894697E+03  0.18701525678E+04  0.20223463924E+04  0.50400001928E-02 0.  1.
       -1    1    3    3    0  502 -0.74178022319E+03  0.20536894697E+03  0.98010330877E+03  0.12462009468E+04  0.50400001928E-02 0. -1.
</event>
<event>
 5   0  0.2125803E-05  0.1600746E+04  0.7818609E-02  0.8820090E-01
        2   -1    0    0  501    0  0.00000000000E+00  0.00000000000E+00  0.19344807384E+04  0.19344807384E+04  0.25500000920E-02 0. -1.
       -2   -1    0    0    0  501  0.00000000000E+00  0.00000000000E+00 -0.33114691757E+03  0.33114691758E+03  0.25500000920E-02 0.  1.
    10030    2    1    2    0    0  0.00000000000E+00  0.00000000000E+00  0.16033338209E+04  0.22656276560E+04  0.16007464929E+04 0.  0.
        3    1    3    3  502    0  0.31798075134E+03  0.73449649610E+03  0.80262938431E+03  0.11334949492E+04  0.10100000352E+00 0.  1.
       -3    1    3    3    0  502 -0.31798075134E+03 -0.73449649610E+03  0.80070443655E+03  0.11321327069E+04  0.10100000352E+00 0. -1.
</event>
<event>
 5   0  0.1081831E-05  0.1599782E+04  0.7818609E-02  0.8820682E-01
       -1   -1    0    0    0  501  0.00000000000E+00  0.00000000000E+00  0.61570945418E+03  0.61570945420E+03  0.50400001928E-02 0.  1.
        1   -1    0    0  501    0  0.00000000000E+00  0.00000000000E+00 -0.10391679277E+04  0.10391679277E+04  0.50400001928E-02 0. -1.
    10030    2    1    2    0    0  0.00000000000E+00  0.00000000000E+00 -0.42345847350E+03  0.16548773819E+04  0.15997818821E+04 0.  0.
        3    1    3    3  502    0  0.54374146995E+03 -0.53719825920E+03  0.32163297544E+02  0.76503022407E+03  0.10100000352E+00 0.  1.
       -3    1    3    3    0  502 -0.54374146995E+03  0.53719825920E+03 -0.45562177104E+03  0.88984715782E+03  0.10100000352E+00 0. -1.
</event>
<event>
 5   0  0.7597000E-06  0.1599848E+04  0.7818609E-02  0.8820641E-01
       -4   -1    0    0    0  501  0.00000000000E+00  0.00000000000E+00  0.16642162232E+04  0.16642167078E+04  0.12699999809E+01 0.  1.
        4   -1    0    0  501    0  0.00000000000E+00  0.00000000000E+00 -0.38449099443E+03  0.38449309187E+03  0.12699999809E+01 0. -1.
    10030    2    1    2    0    0  0.00000000000E+00  0.00000000000E+00  0.12797252288E+04  0.20487097996E+04  0.15998484872E+04 0.  0.
        4    1    3    3  502    0 -0.41631324272E+03 -0.46231977368E+03 -0.40220339874E+01  0.62215277775E+03  0.12699999809E+01 0. -1.
       -4    1    3    3    0  502  0.41631324272E+03  0.46231977368E+03  0.12837472628E+04  0.14265570219E+04  0.12699999809E+01 0.  1.
</event>
<event>
 5   0  0.1090674E-05  0.1592497E+04  0.7818609E-02  0.8825170E-01
       -1   -1    0    0    0  501  0.00000000000E+00  0.00000000000E+00  0.58632648312E+03  0.58632648315E+03  0.50400001928E-02 0.  1.
        1   -1    0    0  501    0  0.00000000000E+00  0.00000000000E+00 -0.10813293110E+04  0.10813293110E+04  0.50400001928E-02 0. -1.
    10030    2    1    2    0    0  0.00000000000E+00  0.00000000000E+00 -0.49500282785E+03  0.16676557941E+04  0.15924974248E+04 0.  0.
        4    1    3    3  502    0  0.50757461277E+03 -0.26391896610E+03  0.33246440787E+03  0.66167923014E+03  0.12699999809E+01 0.  1.
       -4    1    3    3    0  502 -0.50757461277E+03  0.26391896610E+03 -0.82746723572E+03  0.10059765640E+04  0.12699999809E+01 0. -1.
</event>
<event>
 5   0  0.1126485E-05  0.1599717E+04  0.7818609E-02  0.8820722E-01
        1   -1    0    0  501    0  0.00000000000E+00  0.00000000000E+00  0.70839060016E+03  0.70839060018E+03  0.50400001928E-02 0.  1.
       -1   -1    0    0    0  501  0.00000000000E+00  0.00000000000E+00 -0.90313664498E+03  0.90313664500E+03  0.50400001928E-02 0. -1.
    10030    2    1    2    0    0  0.00000000000E+00  0.00000000000E+00 -0.19474604482E+03  0.16115272452E+04  0.15997168624E+04 0.  0.
        2    1    3    3  502    0 -0.41007402710E+03 -0.37899715526E+03  0.47954513857E+03  0.73604557694E+03  0.25500000920E-02 0.  1.
       -2    1    3    3    0  502  0.41007402710E+03  0.37899715526E+03 -0.67429118340E+03  0.87548166823E+03  0.25500000920E-02 0. -1.
</event>
<event>
 5   0  0.1060251E-05  0.1593959E+04  0.7818609E-02  0.8824268E-01
        1   -1    0    0  501    0  0.00000000000E+00  0.00000000000E+00  0.87982411932E+03  0.87982411933E+03  0.50400001928E-02 0.  1.
       -1   -1    0    0    0  501  0.00000000000E+00  0.00000000000E+00 -0.72193521321E+03  0.72193521323E+03  0.50400001928E-02 0. -1.
    10030    2    1    2    0    0  0.00000000000E+00  0.00000000000E+00  0.15788890610E+03  0.16017593326E+04  0.15939586107E+04 0.  0.
        1    1    3    3  502    0 -0.43346268047E+03  0.35916961582E+03 -0.48798256195E+03  0.74499643562E+03  0.50400001928E-02 0. -1.
       -1    1    3    3    0  502  0.43346268047E+03 -0.35916961582E+03  0.64587146806E+03  0.85676289694E+03  0.50400001928E-02 0.  1.
</event>
<event>
 5   0  0.1057506E-05  0.1600860E+04  0.7818609E-02  0.8820020E-01
       -1   -1    0    0    0  501  0.00000000000E+00  0.00000000000E+00  0.63621650229E+03  0.63621650231E+03  0.50400001928E-02 0.  1.
        1   -1    0    0  501    0  0.00000000000E+00  0.00000000000E+00 -0.10070286616E+04  0.10070286616E+04  0.50400001928E-02 0. -1.
    10030    2    1    2    0    0  0.00000000000E+00  0.00000000000E+00 -0.37081215928E+03  0.16432451639E+04  0.16008600848E+04 0.  0.
        5    1    3    3  502    0  0.63984662267E+03 -0.33047022445E+03 -0.54401513047E+03  0.90254574508E+03  0.46999998093E+01 0. -1.
       -5    1    3    3    0  502 -0.63984662267E+03  0.33047022445E+03  0.17320297119E+03  0.74069941880E+03  0.46999998093E+01 0.  1.
</event>
<event>
 5   0  0.1994525E-05  0.1600125E+04  0.7818609E-02  0.8820471E-01
        2   -1    0    0  501    0  0.00000000000E+00  0.00000000000E+00  0.14446638339E+04  0.14446638339E+04  0.25500000920E-02 0.  1.
       -2   -1    0    0    0  501  0.00000000000E+00  0.00000000000E+00 -0.44307909495E+03  0.44307909495E+03  0.25500000920E-02 0. -1.
    10030    2    1    2    0    0  0.00000000000E+00  0.00000000000E+00  0.10015847389E+04  0.18877429288E+04  0.16001254251E+04 0.  0.
        5    1    3    3  502    0 -0.92020252404E+02 -0.14512394038E+03 -0.42103434697E+03  0.45477543497E+03  0.46999998093E+01 0. -1.
       -5    1    3    3    0  502  0.92020252404E+02  0.14512394038E+03  0.14226190859E+04  0.14329674939E+04  0.46999998093E+01 0.  1.
</event>
<event>
 5   0  0.1990948E-05  0.1600591E+04  0.7818609E-02  0.8820185E-01
        2   -1    0    0  501    0  0.00000000000E+00  0.00000000000E+00  0.13224355947E+04  0.13224355947E+04  0.25500000920E-02 0.  1.
       -2   -1    0    0    0  501  0.00000000000E+00  0.00000000000E+00 -0.48431333707E+03  0.48431333708E+03  0.25500000920E-02 0. -1.
    10030    2    1    2    0    0  0.00000000000E+00  0.00000000000E+00  0.83812225765E+03  0.18067489318E+04  0.16005913856E+04 0.  0.
        4    1    3    3  502    0 -0.37553395551E+03  0.35739288391E+03  0.11072744128E+04  0.12226257250E+04  0.12699999809E+01 0.  1.
       -4    1    3    3    0  502  0.37553395551E+03 -0.35739288391E+03 -0.26915215517E+03  0.58412320682E+03  0.12699999809E+01 0. -1.
</event>
<event>
 5   0  0.1057506E-05  0.1602104E+04  0.7818609E-02  0.8819257E-01
       -1   -1    0    0    0  501  0.00000000000E+00  0.00000000000E+00  0.93450067592E+03  0.93450067594E+03  0.50400001928E-02 0.  1.
        1   -1    0    0  501    0  0.00000000000E+00  0.00000000000E+00 -0.68666004635E+03  0.68666004637E+03  0.50400001928E-02 0. -1.
    10030    2    1    2    0    0  0.00000000000E+00  0.00000000000E+00  0.24784062957E+03  0.16211607223E+04  0.16021039635E+04 0.  0.
        5    1    3    3  502    0 -0.38398358983E+03  0.29491340790E+03 -0.52182786467E+03  0.71185934409E+03  0.46999998093E+01 0. -1.
       -5    1    3    3    0  502  0.38398358983E+03 -0.29491340790E+03  0.76966849424E+03  0.90930137822E+03  0.46999998093E+01 0.  1.
</event>
<event>
 5   0  0.7597000E-06  0.1599323E+04  0.7818609E-02  0.8820964E-01
       -3   -1    0    0    0  501  0.00000000000E+00  0.00000000000E+00  0.71048843681E+03  0.71048844399E+03  0.10100000352E+00 0.  1.
        3   -1    0    0  501    0  0.00000000000E+00  0.00000000000E+00 -0.90002635798E+03  0.90002636364E+03  0.10100000352E+00 0. -1.
    10030    2    1    2    0    0  0.00000000000E+00  0.00000000000E+00 -0.18953792117E+03  0.16105148076E+04  0.15993227698E+04 0.  0.
        4    1    3    3  502    0  0.10181570185E+03 -0.59134431536E+03 -0.62705306602E+03  0.86790074142E+03  0.12699999809E+01 0. -1.
       -4    1    3    3    0  502 -0.10181570185E+03  0.59134431536E+03  0.43751514486E+03  0.74261406621E+03  0.12699999809E+01 0.  1.
</event>
<event>
 5   0  0.2046108E-05  0.1602295E+04  0.7818609E-02  0.8819139E-01
        2   -1    0    0  501    0  0.00000000000E+00  0.00000000000E+00  0.10273084085E+04  0.10273084085E+04  0.25500000920E-02 0. -1.
       -2   -1    0    0    0  501  0.00000000000E+00  0.00000000000E+00 -0.62477565215E+03  0.62477565216E+03  0.25500000920E-02 0.  1.
    10030    2    1    2    0    0  0.00000000000E+00  0.00000000000E+00  0.40253275634E+03  0.16520840607E+04  0.16022949552E+04 0.  0.
        1    1    3    3  502    0 -0.36638858229E+03 -0.40122196156E+03 -0.40577038995E+03  0.67813661238E+03  0.50400001928E-02 0. -1.
       -1    1    3    3    0  502  0.36638858229E+03  0.40122196156E+03  0.80830314630E+03  0.97394744828E+03  0.50400001928E-02 0.  1.
</event>
<event>
 5   0  0.1990948E-05  0.1600244E+04  0.7818609E-02  0.8820398E-01
       -2   -1    0    0    0  501  0.00000000000E+00  0.00000000000E+00  0.46685011650E+03  0.46685011651E+03  0.25500000920E-02 0.  1.
        2   -1    0    0  501    0  0.00000000000E+00  0.00000000000E+00 -0.13713083887E+04  0.13713083887E+04  0.25500000920E-02 0. -1.
    10030    2    1    2    0    0  0.00000000000E+00  0.00000000000E+00 -0.90445827221E+03  0.18381585052E+04  0.16002443326E+04 0.  0.
        4    1    3    3  502    0 -0.71062662939E+03 -0.14848148427E+03 -0.83862921032E+03  0.11092058073E+04  0.12699999809E+01 0. -1.
       -4    1    3    3    0  502  0.71062662939E+03  0.14848148427E+03 -0.65829061897E+02  0.72895269796E+03  0.12699999809E+01 0.  1.
</event>
<event>
 5   0  0.1990948E-05  0.1602048E+04  0.7818609E-02  0.8819291E-01
       -2   -1    0    0    0  501  0.00000000000E+00  0.00000000000E+00  0.76178421104E+03  0.76178421105E+03  0.25500000920E-02 0. -1.
        2   -1    0    0  501    0  0.00000000000E+00  0.00000000000E+00 -0.84228536570E+03  0.84228536571E+03  0.25500000920E-02 0.  1.
    10030    2    1    2    0    0  0.00000000000E+00  0.00000000000E+00 -0.80501154660E+02  0.16040695768E+04  0.16020483049E+04 0.  0.
        4    1    3    3  502    0 -0.41369495873E+03 -0.14027249946E+03 -0.71252766372E+03  0.83577340077E+03  0.12699999809E+01 0.  1.
       -4    1    3    3    0  502  0.41369495873E+03  0.14027249946E+03  0.63202650906E+03  0.76829617598E+03  0.12699999809E+01 0. -1.
</event>
<event>
 5   0  0.1060251E-05  0.1600295E+04  0.7818609E-02  0.8820367E-01
        1   -1    0    0  501    0  0.00000000000E+00  0.00000000000E+00  0.10079628521E+04  0.10079628521E+04  0.50400001928E-02 0.  1.
       -1   -1    0    0    0  501  0.00000000000E+00  0.00000000000E+00 -0.63517800601E+03  0.63517800603E+03  0.50400001928E-02 0. -1.
    10030    2    1    2    0    0  0.00000000000E+00  0.00000000000E+00  0.37278484609E+03  0.16431408581E+04  0.16002947660E+04 0.  0.
        1    1    3    3  502    0 -0.44164700380E+03 -0.21225277321E+03  0.83588880187E+03  0.96892383850E+03  0.50400001928E-02 0.  1.
       -1    1    3    3    0  502  0.44164700380E+03  0.21225277321E+03 -0.46310395578E+03  0.67421701965E+03  0.50400001928E-02 0. -1.
</event>
<event>
 5   0  0.1081831E-05  0.1600381E+04  0.7818609E-02  0.8820314E-01
        1   -1    0    0  501    0  0.00000000000E+00  0.00000000000E+00  0.15635589254E+04  0.15635589254E+04  0.50400001928E-02 0.  1.
       -1   -1    0    0    0  501  0.00000000000E+00  0.00000000000E+00 -0.40951736337E+03  0.40951736340E+03  0.50400001928E-02 0. -1.
    10030    2    1    2    0    0  0.00000000000E+00  0.00000000000E+00  0.11540415621E+04  0.19730762888E+04  0.16003806155E+04 0.  0.
        3    1    3    3  502    0  0.45498765584E+03 -0.62224217121E+03  0.84174680830E+03  0.11413749542E+04  0.10100000352E+00 0.  1.
       -3    1    3    3    0  502 -0.45498765584E+03  0.62224217121E+03  0.31229475375E+03  0.83170133463E+03  0.10100000352E+00 0. -1.
</event>
<event>
 5   0  0.1081831E-05  0.1599867E+04  0.7818609E-02  0.8820629E-01
        1   -1    0    0  501    0  0.00000000000E+00  0.00000000000E+00  0.11230820979E+04  0.11230820979E+04  0.50400001928E-02 0.  1.
       -1   -1    0    0    0  501  0.00000000000E+00  0.00000000000E+00 -0.56976592183E+03  0.56976592186E+03  0.50400001928E-02 0. -1.
    10030    2    1    2    0    0  0.00000000000E+00  0.00000000000E+00  0.55331617605E+03  0.16928480198E+04  0.15998673780E+04 0.  0.
        3    1    3    3  502    0 -0.78056449663E+03  0.20691466454E+02  0.46049314258E+03  0.90651145318E+03  0.10100000352E+00 0.  1.
       -3    1    3    3    0  502  0.78056449663E+03 -0.20691466454E+02  0.92823033470E+02  0.78633656657E+03  0.10100000352E+00 0. -1.
</event>
<event>
 5   0  0.1990948E-05  0.1600302E+04  0.7818609E-02  0.8820363E-01
       -2   -1    0    0    0  501  0.00000000000E+00  0.00000000000E+00  0.56623234865E+03  0.56623234866E+03  0.25500000920E-02 0. -1.
        2   -1    0    0  501    0  0.00000000000E+00  0.00000000000E+00 -0.11307042719E+04  0.11307042719E+04  0.25500000920E-02 0.  1.
    10030    2    1    2    0    0  0.00000000000E+00  0.00000000000E+00 -0.56447192322E+03  0.16969366205E+04  0.16003016409E+04 0.  0.
        4    1    3    3  502    0  0.76282028237E+03 -0.21898975514E+03 -0.39031429974E+03  0.88441967501E+03  0.12699999809E+01 0. -1.
       -4    1    3    3    0  502 -0.76282028237E+03  0.21898975514E+03 -0.17415762348E+03  0.81251694553E+03  0.12699999809E+01 0.  1.
</event>
<event>
 5   0  0.1090674E-05  0.1600773E+04  0.7818609E-02  0.8820073E-01
       -1   -1    0    0    0  501  0.00000000000E+00  0.00000000000E+00  0.51049732900E+03  0.51049732903E+03  0.50400001928E-02 0. -1.
        1   -1    0    0  501    0  0.00000000000E+00  0.00000000000E+00 -0.12548906022E+04  0.12548906023E+04  0.50400001928E-02 0.  1.
    10030    2    1    2    0    0  0.00000000000E+00  0.00000000000E+00 -0.74439327324E+03  0.17653879313E+04  0.16007726893E+04 0.  0.
        4    1    3    3  502    0 -0.45356108782E+03  0.37861007026E+03 -0.96767991905E+03  0.11337853784E+04  0.12699999809E+01 0.  1.
       -4    1    3    3    0  502  0.45356108782E+03 -0.37861007026E+03  0.22328664581E+03  0.63160255286E+03  0.12699999809E+01 0. -1.
</event>
<event>
 5   0  0.2125803E-05  0.1598429E+04  0.7818609E-02  0.8821514E-01
       -2   -1    0    0    0  501  0.00000000000E+00  0.00000000000E+00  0.32588751618E+03  0.32588751619E+03  0.25500000920E-02 0.  1.
        2   -1    0    0  501    0  0.00000000000E+00  0.00000000000E+00 -0.19600130250E+04  0.19600130250E+04  0.25500000920E-02 0. -1.
    10030    2    1    2    0    0  0.00000000000E+00  0.00000000000E+00 -0.16341255088E+04  0.22859005412E+04  0.15984289492E+04 0.  0.
        3    1    3    3  502    0  0.63927327546E+03  0.23295807998E+03 -0.14166858380E+04  0.15716038183E+04  0.10100000352E+00 0. -1.
       -3    1    3    3    0  502 -0.63927327546E+03 -0.23295807998E+03 -0.21743967080E+03  0.71429672293E+03  0.10100000352E+00 0.  1.
</event>
<event>
 5   0  0.1057506E-05  0.1600000E+04  0.7818609E-02  0.8820548E-01
        1   -1    0    0  501    0  0.00000000000E+00  0.00000000000E+00  0.61407252417E+03  0.61407252419E+03  0.50400001928E-02 0. -1.
       -1   -1    0    0    0  501  0.00000000000E+00  0.00000000000E+00 -0.10422215266E+04  0.10422215267E+04  0.50400001928E-02 0.  1.
    10030    2    1    2    0    0  0.00000000000E+00  0.00000000000E+00 -0.42814900247E+03  0.16562940509E+04  0.15999995046E+04 0.  0.
        5    1    3    3  502    0 -0.18903690632E+03 -0.77703285097E+03 -0.19181177959E+03  0.82239215233E+03  0.46999998093E+01 0. -1.
       -5    1    3    3    0  502  0.18903690632E+03  0.77703285097E+03 -0.23633722289E+03  0.83390189852E+03  0.46999998093E+01 0.  1.
</event>
<event>
 5   0  0.2125803E-05  0.1600110E+04  0.7818609E-02  0.8820480E-01
        2   -1    0    0  501    0  0.00000000000E+00  0.00000000000E+00  0.22655265922E+04  0.22655265922E+04  0.25500000920E-02 0.  1.
       -2   -1    0    0    0  501  0.00000000000E+00  0.00000000000E+00 -0.28253404678E+03  0.28253404679E+03  0.25500000920E-02 0. -1.
    10030    2    1    2    0    0  0.00000000000E+00  0.00000000000E+00  0.19829925454E+04  0.25480606390E+04  0.16001104914E+04 0.  0.
        3    1    3    3  502    0 -0.97791843805E+02 -0.40139669674E+03  0.20825195776E+04  0.21231039433E+04  0.10100000352E+00 0.  1.
       -3    1    3    3    0  502  0.97791843805E+02  0.40139669674E+03 -0.99527032167E+02  0.42495669568E+03  0.10100000352E+00 0. -1.
</event>
<event>
 5   0  0.2046108E-05  0.1600130E+04  0.7818609E-02  0.8820468E-01
        2   -1    0    0  501    0  0.00000000000E+00  0.00000000000E+00  0.19663735891E+04  0.19663735891E+04  0.25500000920E-02 0. -1.
       -2   -1    0    0    0  501  0.00000000000E+00  0.00000000000E+00 -0.32552527168E+03  0.32552527169E+03  0.25500000920E-02 0.  1.
    10030    2    1    2    0    0  0.00000000000E+00  0.00000000000E+00  0.16408483174E+04  0.22918988608E+04  0.16001303657E+04 0.  0.
        1    1    3    3  502    0  0.22940763718E+03 -0.65925725826E+03  0.26043224782E+03  0.74503218206E+03  0.50400001928E-02 0.  1.
       -1    1    3    3    0  502 -0.22940763718E+03  0.65925725826E+03  0.13804160696E+04  0.15468666788E+04  0.50400001928E-02 0. -1.
</event>
<event>
 5   0  0.1057506E-05  0.1600433E+04  0.7818609E-02  0.8820282E-01
       -1   -1    0    0    0  501  0.00000000000E+00  0.00000000000E+00  0.19990648441E+04  0.19990648441E+04  0.50400001928E-02 0. -1.
        1   -1    0    0  501    0  0.00000000000E+00  0.00000000000E+00 -0.32032288672E+03  0.32032288676E+03  0.50400001928E-02 0.  1.
    10030    2    1    2    0    0  0.00000000000E+00  0.00000000000E+00  0.16787419573E+04  0.23193877308E+04  0.16004327185E+04 0.  0.
        5    1    3    3  502    0 -0.64481269252E+03  0.26832500079E+03  0.27335167060E+03  0.75001662668E+03  0.46999998093E+01 0. -1.
       -5    1    3    3    0  502  0.64481269252E+03 -0.26832500079E+03  0.14053902867E+04  0.15693711041E+04  0.46999998093E+01 0.  1.
</event>
<event>
 5   0  0.1126485E-05  0.1599880E+04  0.7818609E-02  0.8820622E-01
       -1   -1    0    0    0  501  0.00000000000E+00  0.00000000000E+00  0.55305352976E+03  0.55305352979E+03  0.50400001928E-02 0.  1.
        1   -1    0    0  501    0  0.00000000000E+00  0.00000000000E+00 -0.11570374713E+04  0.11570374713E+04  0.50400001928E-02 0. -1.
    10030    2    1    2    0    0  0.00000000000E+00  0.00000000000E+00 -0.60398394151E+03  0.17100910011E+04  0.15998795675E+04 0.  0.
        2    1    3    3  502    0 -0.11354374913E+03  0.67231450714E+01 -0.11483498069E+04  0.11539690908E+04  0.25500000920E-02 0. -1.
       -2    1    3    3    0  502  0.11354374913E+03 -0.67231450714E+01  0.54436586537E+03  0.55612191023E+03  0.25500000920E-02 0.  1.
</event>
<event>
 5   0  0.2147844E-05  0.1600256E+04  0.7818609E-02  0.8820391E-01
       -2   -1    0    0    0  501  0.00000000000E+00  0.00000000000E+00  0.57804658748E+03  0.57804658748E+03  0.25500000920E-02 0.  1.
        2   -1    0    0  501    0  0.00000000000E+00  0.00000000000E+00 -0.11075319277E+04  0.11075319277E+04  0.25500000920E-02 0. -1.
    10030    2    1    2    0    0  0.00000000000E+00  0.00000000000E+00 -0.52948534024E+03  0.16855785152E+04  0.16002562937E+04 0.  0.
        2    1    3    3  502    0  0.65651250119E+03  0.45735884484E+03 -0.26011835657E+03  0.84133663691E+03  0.25500000920E-02 0.  1.
       -2    1    3    3    0  502 -0.65651250119E+03 -0.45735884484E+03 -0.26936698367E+03  0.84424187830E+03  0.25500000920E-02 0. -1.
</event>
<event>
 5   0  0.2147844E-05  0.1600182E+04  0.7818609E-02  0.8820436E-01
       -2   -1    0    0    0  501  0.00000000000E+00  0.00000000000E+00  0.65613153413E+03  0.65613153413E+03  0.25500000920E-02 0.  1.
        2   -1    0    0  501    0  0.00000000000E+00  0.00000000000E+00 -0.97563561272E+03  0.97563561273E+03  0.25500000920E-02 0. -1.
    10030    2    1    2    0    0  0.00000000000E+00  0.00000000000E+00 -0.31950407859E+03  0.16317671469E+04  0.16001816039E+04 0.  0.
        2    1    3    3  502    0  0.34838281503E+03  0.54861790941E+03 -0.63564684543E+03  0.90906496382E+03  0.25500000920E-02 0. -1.
       -2    1    3    3    0  502 -0.34838281503E+03 -0.54861790941E+03  0.31614276684E+03  0.72270218304E+03  0.25500000920E-02 0.  1.
</event>
<event>
 5   0  0.1081831E-05  0.1599845E+04  0.7818609E-02  0.8820643E-01
        1   -1    0    0  501    0  0.00000000000E+00  0.00000000000E+00  0.56563671596E+03  0.56563671598E+03  0.50400001928E-02 0. -1.
       -1   -1    0    0    0  501  0.00000000000E+00  0.00000000000E+00 -0.11312486785E+04  0.11312486785E+04  0.50400001928E-02 0.  1.
    10030    2    1    2    0    0  0.00000000000E+00  0.00000000000E+00 -0.56561196253E+03  0.16968853945E+04  0.15998447268E+04 0.  0.
        3    1    3    3  502    0  0.65682347235E+03  0.48355946802E+02  0.19873712718E+03  0.68793301079E+03  0.10100000352E+00 0. -1.
       -3    1    3    3    0  502 -0.65682347235E+03 -0.48355946802E+02 -0.76434908971E+03  0.10089523837E+04  0.10100000352E+00 0.  1.
</event>
<event>
 5   0  0.1126485E-05  0.1600428E+04  0.7818609E-02  0.8820285E-01
        1   -1    0    0  501    0  0.00000000000E+00  0.00000000000E+00  0.66740693397E+03  0.66740693399E+03  0.50400001928E-02 0.  1.
       -1   -1    0    0    0  501  0.00000000000E+00  0.00000000000E+00 -0.95944882000E+03  0.95944882001E+03  0.50400001928E-02 0. -1.
    10030    2    1    2    0    0  0.00000000000E+00  0.00000000000E+00 -0.29204188603E+03  0.16268557540E+04  0.16004284367E+04 0.  0.
        2    1    3    3  502    0 -0.33855941405E+03  0.71623333578E+03 -0.31329990665E+02  0.79283935097E+03  0.25500000920E-02 0.  1.
       -2    1    3    3    0  502  0.33855941405E+03 -0.71623333578E+03 -0.26071189537E+03  0.83401640303E+03  0.25500000920E-02 0. -1.
</event>
<event>
 5   0  0.2046108E-05  0.1599385E+04  0.7818609E-02  0.8820926E-01
        2   -1    0    0  501    0  0.00000000000E+00  0.00000000000E+00  0.97433034210E+03  0.97433034210E+03  0.25500000920E-02 0.  1.
       -2   -1    0    0    0  501  0.00000000000E+00  0.00000000000E+00 -0.65635617421E+03  0.65635617421E+03  0.25500000920E-02 0. -1.
    10030    2    1    2    0    0  0.00000000000E+00  0.00000000000E+00  0.31797416789E+03  0.16306865163E+04  0.15993845513E+04 0.  0.
        1    1    3    3  502    0  0.84882833618E+02  0.62602269033E+03  0.65888717697E+03  0.91282080183E+03  0.50400001928E-02 0.  1.
       -1    1    3    3    0  502 -0.84882833618E+02 -0.62602269033E+03 -0.34091300908E+03  0.71786571449E+03  0.50400001928E-02 0. -1.
</event>
<event>
 5   0  0.1090674E-05  0.1606204E+04  0.7818609E-02  0.8816745E-01
        1   -1    0    0  501    0  0.00000000000E+00  0.00000000000E+00  0.10164549310E+04  0.10164549311E+04  0.50400001928E-02 0.  1.
       -1   -1    0    0    0  501  0.00000000000E+00  0.00000000000E+00 -0.63453203316E+03  0.63453203318E+03  0.50400001928E-02 0. -1.
    10030    2    1    2    0    0  0.00000000000E+00  0.00000000000E+00  0.38192289789E+03  0.16509869642E+04  0.16062044876E+04 0.  0.
        4    1    3    3  502    0  0.51191166879E+03 -0.11239809844E+03  0.81643752080E+03  0.97018489343E+03  0.12699999809E+01 0.  1.
       -4    1    3    3    0  502 -0.51191166879E+03  0.11239809844E+03 -0.43451462292E+03  0.68080207080E+03  0.12699999809E+01 0. -1.
</event>
<event>
 5   0  0.2046108E-05  0.1599787E+04  0.7818609E-02  0.8820679E-01
        2   -1    0    0  501    0  0.00000000000E+00  0.00000000000E+00  0.21718257359E+04  0.21718257359E+04  0.25500000920E-02 0.  1.
       -2   -1    0    0    0  501  0.00000000000E+00  0.00000000000E+00 -0.29460439041E+03  0.29460439042E+03  0.25500000920E-02 0. -1.
    10030    2    1    2    0    0  0.00000000000E+00  0.00000000000E+00  0.18772213455E+04  0.24664301263E+04  0.15997867320E+04 0.  0.
        1    1    3    3  502    0  0.31759942794E+03 -0.59565144285E+03  0.27699829264E+03  0.72965614652E+03  0.50400001928E-02 0. -1.
       -1    1    3    3    0  502 -0.31759942794E+03  0.59565144285E+03  0.16002230528E+04  0.17367739798E+04  0.50400001928E-02 0.  1.
</event>
<event>
 5   0  0.1060251E-05  0.1598813E+04  0.7818609E-02  0.8821277E-01
       -1   -1    0    0    0  501  0.00000000000E+00  0.00000000000E+00  0.76506167731E+03  0.76506167733E+03  0.50400001928E-02 0.  1.
        1   -1    0    0  501    0  0.00000000000E+00  0.00000000000E+00 -0.83529325266E+03  0.83529325268E+03  0.50400001928E-02 0. -1.
    10030    2    1    2    0    0  0.00000000000E+00  0.00000000000E+00 -0.70231575350E+02  0.16003549300E+04  0.15988131310E+04 0.  0.
        1    1    3    3  502    0 -0.74825552609E+03 -0.30606982716E+02 -0.31507772472E+03  0.81246359448E+03  0.50400001928E-02 0. -1.
       -1    1    3    3    0  502  0.74825552609E+03  0.30606982716E+02  0.24484614937E+03  0.78789133553E+03  0.50400001928E-02 0.  1.
</event>
<event>
 5   0  0.1990948E-05  0.1602452E+04  0.7818609E-02  0.8819043E-01
        2   -1    0    0  501    0  0.00000000000E+00  0.00000000000E+00  0.22916149535E+04  0.22916149535E+04  0.25500000920E-02 0. -1.
       -2   -1    0    0    0  501  0.00000000000E+00  0.00000000000E+00 -0.28013569859E+03  0.28013569860E+03  0.25500000920E-02 0.  1.
    10030    2    1    2    0    0  0.00000000000E+00  0.00000000000E+00  0.20114792549E+04  0.25717506521E+04  0.16024520660E+04 0.  0.
        4    1    3    3  502    0  0.30985454154E+03  0.71332348553E+02  0.21860265877E+04  0.22090296503E+04  0.12699999809E+01 0. -1.
       -4    1    3    3    0  502 -0.30985454154E+03 -0.71332348553E+02 -0.17454733279E+03  0.36272100180E+03  0.12699999809E+01 0.  1.
</event>
<event>
 5   0  0.7597000E-06  0.1599848E+04  0.7818609E-02  0.8820641E-01
        3   -1    0    0  501    0  0.00000000000E+00  0.00000000000E+00  0.12974475451E+04  0.12974475490E+04  0.10100000352E+00 0.  1.
       -3   -1    0    0    0  501  0.00000000000E+00  0.00000000000E+00 -0.49318257186E+03  0.49318258220E+03  0.10100000352E+00 0. -1.
    10030    2    1    2    0    0  0.00000000000E+00  0.00000000000E+00  0.80426497325E+03  0.17906301312E+04  0.15998481552E+04 0.  0.
        4    1    3    3  502    0 -0.36409816309E+03  0.17060724709E+03  0.11761184690E+04  0.12429523607E+04  0.12699999809E+01 0.  1.
       -4    1    3    3    0  502  0.36409816309E+03 -0.17060724709E+03 -0.37185349572E+03  0.54767777050E+03  0.12699999809E+01 0. -1.
</event>
<event>
 5   0  0.2125803E-05  0.1600121E+04  0.7818609E-02  0.8820474E-01
        2   -1    0    0  501    0  0.00000000000E+00  0.00000000000E+00  0.15950956216E+04  0.15950956216E+04  0.25500000920E-02 0. -1.
       -2   -1    0    0    0  501  0.00000000000E+00  0.00000000000E+00 -0.40129045551E+03  0.40129045552E+03  0.25500000920E-02 0.  1.
    10030    2    1    2    0    0  0.00000000000E+00  0.00000000000E+00  0.11938051661E+04  0.19963860771E+04  0.16001208062E+04 0.  0.
        3    1    3    3  502    0 -0.76582270544E+03 -0.14927169740E+03  0.81774028690E+03  0.11302502567E+04  0.10100000352E+00 0. -1.
       -3    1    3    3    0  502  0.76582270544E+03  0.14927169740E+03  0.37606487919E+03  0.86613582039E+03  0.10100000352E+00 0.  1.
</event>
<event>
 5   0  0.2147844E-05  0.1600360E+04  0.7818609E-02  0.8820327E-01
       -2   -1    0    0    0  501  0.00000000000E+00  0.00000000000E+00  0.19344944776E+04  0.19344944776E+04  0.25500000920E-02 0.  1.
        2   -1    0    0  501    0  0.00000000000E+00  0.00000000000E+00 -0.33098448757E+03  0.33098448758E+03  0.25500000920E-02 0. -1.
    10030    2    1    2    0    0  0.00000000000E+00  0.00000000000E+00  0.16035099900E+04  0.22654789652E+04  0.16003595389E+04 0.  0.
        2    1    3    3  502    0  0.57979930253E+03 -0.53941576376E+03  0.96409402628E+03  0.12476433340E+04  0.25500000920E-02 0.  1.
       -2    1    3    3    0  502 -0.57979930253E+03  0.53941576376E+03  0.63941596377E+03  0.10178356312E+04  0.25500000920E-02 0. -1.
</event>
<event>
 5   0  0.2046108E-05  0.1603267E+04  0.7818609E-02  0.8818544E-01
       -2   -1    0    0    0  501  0.00000000000E+00  0.00000000000E+00  0.32932748217E+03  0.32932748218E+03  0.25500000920E-02 0. -1.
        2   -1    0    0  501    0  0.00000000000E+00  0.00000000000E+00 -0.19512976190E+04  0.19512976190E+04  0.25500000920E-02 0.  1.
    10030    2    1    2    0    0  0.00000000000E+00  0.00000000000E+00 -0.16219701368E+04  0.22806251012E+04  0.16032665802E+04 0.  0.
        1    1    3    3  502    0 -0.36327020518E+03  0.48461092325E+02 -0.18251513331E+04  0.18615829577E+04  0.50400001928E-02 0.  1.
       -1    1    3    3    0  502  0.36327020518E+03 -0.48461092325E+02  0.20318119633E+03  0.41904214348E+03  0.50400001928E-02 0. -1.
</event>
<event>
 5   0  0.1090674E-05  0.1599740E+04  0.7818609E-02  0.8820708E-01
        1   -1    0    0  501    0  0.00000000000E+00  0.00000000000E+00  0.17005902330E+04  0.17005902330E+04  0.50400001928E-02 0.  1.
       -1   -1    0    0    0  501  0.00000000000E+00  0.00000000000E+00 -0.37621775928E+03  0.37621775931E+03  0.50400001928E-02 0. -1.
    10030    2    1    2    0    0  0.00000000000E+00  0.00000000000E+00  0.13243724737E+04  0.20768079923E+04  0.15997402876E+04 0.  0.
        4    1    3    3  502    0  0.60816091720E+02  0.20008021506E+03 -0.34010015362E+03  0.39924981761E+03  0.12699999809E+01 0. -1.
       -4    1    3    3    0  502 -0.60816091720E+02 -0.20008021506E+03  0.16644726273E+04  0.16775581747E+04  0.12699999809E+01 0.  1.
</event>
<event>
 5   0  0.2147844E-05  0.1599701E+04  0.7818609E-02  0.8820732E-01
        2   -1    0    0  501    0  0.00000000000E+00  0.00000000000E+00  0.67477406575E+03  0.67477406576E+03  0.25500000920E-02 0.  1.
       -2   -1    0    0    0  501  0.00000000000E+00  0.00000000000E+00 -0.94811102826E+03  0.94811102826E+03  0.25500000920E-02 0. -1.
    10030    2    1    2    0    0  0.00000000000E+00  0.00000000000E+00 -0.27333696251E+03  0.16228850940E+04  0.15997008887E+04 0.  0.
        2    1    3    3  502    0 -0.46640417991E+02 -0.79083898160E+03 -0.24853493672E+03  0.83028382989E+03  0.25500000920E-02 0. -1.
       -2    1    3    3    0  502  0.46640417991E+02  0.79083898160E+03 -0.24802025792E+02  0.79260126413E+03  0.25500000920E-02 0.  1.
</event>
<event>
 5   0  0.1081831E-05  0.1600003E+04  0.7818609E-02  0.8820546E-01
       -1   -1    0    0    0  501  0.00000000000E+00  0.00000000000E+00  0.41360611359E+03  0.41360611362E+03  0.50400001928E-02 0.  1.
        1   -1    0    0  501    0  0.00000000000E+00  0.00000000000E+00 -0.15473714019E+04  0.15473714019E+04  0.50400001928E-02 0. -1.
    10030    2    1    2    0    0  0.00000000000E+00  0.00000000000E+00 -0.11337652883E+04  0.19609775156E+04  0.16000028398E+04 0.  0.
        3    1    3    3  502    0  0.85120396702E+02 -0.61470096029E+03 -0.11856627754E+04  0.13382447383E+04  0.10100000352E+00 0. -1.
       -3    1    3    3    0  502 -0.85120396702E+02  0.61470096029E+03  0.51897487017E+02  0.62273277726E+03  0.10100000352E+00 0.  1.
</event>
<event>
 5   0  0.1090674E-05  0.1599861E+04  0.7818609E-02  0.8820633E-01
        1   -1    0    0  501    0  0.00000000000E+00  0.00000000000E+00  0.71062046030E+03  0.71062046032E+03  0.50400001928E-02 0. -1.
       -1   -1    0    0    0  501  0.00000000000E+00  0.00000000000E+00 -0.90046530996E+03  0.90046530998E+03  0.50400001928E-02 0.  1.
    10030    2    1    2    0    0  0.00000000000E+00  0.00000000000E+00 -0.18984484966E+03  0.16110857703E+04  0.15998613353E+04 0.  0.
        4    1    3    3  502    0  0.94705198706E+01  0.27859320108E+03 -0.84997189013E+03  0.89451533768E+03  0.12699999809E+01 0.  1.
       -4    1    3    3    0  502 -0.94705198706E+01 -0.27859320108E+03  0.66012704047E+03  0.71657043261E+03  0.12699999809E+01 0. -1.
</event>
<event>
 5   0  0.1126485E-05  0.1600957E+04  0.7818609E-02  0.8819960E-01
       -1   -1    0    0    0  501  0.00000000000E+00  0.00000000000E+00  0.10359508538E+04  0.10359508538E+04  0.50400001928E-02 0. -1.
        1   -1    0    0  501    0  0.00000000000E+00  0.00000000000E+00 -0.61852906487E+03  0.61852906489E+03  0.50400001928E-02 0.  1.
    10030    2    1    2    0    0  0.00000000000E+00  0.00000000000E+00  0.41742178890E+03  0.16544799187E+04  0.16009568550E+04 0.  0.
        2    1    3    3  502    0  0.30678531603E+00 -0.44744024479E+03  0.89465038531E+03  0.10003010440E+04  0.25500000920E-02 0. -1.
       -2    1    3    3    0  502 -0.30678531603E+00  0.44744024479E+03 -0.47722859641E+03  0.65417887463E+03  0.25500000920E-02 0.  1.
</event>
<event>
 5   0  0.1057506E-05  0.1604657E+04  0.7818609E-02  0.8817692E-01
       -1   -1    0    0    0  501  0.00000000000E+00  0.00000000000E+00  0.48229174723E+03  0.48229174725E+03  0.50400001928E-02 0. -1.
        1   -1    0    0  501    0  0.00000000000E+00  0.00000000000E+00 -0.13347339848E+04  0.13347339848E+04  0.50400001928E-02 0.  1.
    10030    2    1    2    0    0  0.00000000000E+00  0.00000000000E+00 -0.85244223756E+03  0.18170257320E+04  0.16046572041E+04 0.  0.
        5    1    3    3  502    0 -0.10427410932E+03 -0.36423833672E+03 -0.12270432774E+04  0.12842118012E+04  0.46999998093E+01 0.  1.
       -5    1    3    3    0  502  0.10427410932E+03  0.36423833672E+03  0.37460103985E+03  0.53281393081E+03  0.46999998093E+01 0. -1.
</event>
<event>
 5   0  0.2125803E-05  0.1599559E+04  0.7818609E-02  0.8820819E-01
        2   -1    0    0  501    0  0.00000000000E+00  0.00000000000E+00  0.23410843407E+04  0.23410843407E+04  0.25500000920E-02 0. -1.
       -2   -1    0    0    0  501  0.00000000000E+00  0.00000000000E+00 -0.27322690828E+03  0.27322690829E+03  0.25500000920E-02 0.  1.
    10030    2    1    2    0    0  0.00000000000E+00  0.00000000000E+00  0.20678574324E+04  0.26143112490E+04  0.15995589848E+04 0.  0.
        3    1    3    3  502    0 -0.35806345404E+03  0.23226757926E+03 -0.71542976484E+02  0.43275405623E+03  0.10100000352E+00 0.  1.
       -3    1    3    3    0  502  0.35806345404E+03 -0.23226757926E+03  0.21394004089E+04  0.21815571927E+04  0.10100000352E+00 0. -1.
</event>
<event>
 5   0  0.1990948E-05  0.1595755E+04  0.7818609E-02  0.8823160E-01
       -2   -1    0    0    0  501  0.00000000000E+00  0.00000000000E+00  0.60351827074E+03  0.60351827074E+03  0.25500000920E-02 0. -1.
        2   -1    0    0  501    0  0.00000000000E+00  0.00000000000E+00 -0.10548293889E+04  0.10548293890E+04  0.25500000920E-02 0.  1.
    10030    2    1    2    0    0  0.00000000000E+00  0.00000000000E+00 -0.45131111821E+03  0.16583476597E+04  0.15957553807E+04 0.  0.
        4    1    3    3  502    0 -0.58762929731E+03 -0.52436147086E+03 -0.35851399683E+03  0.86533059694E+03  0.12699999809E+01 0. -1.
       -4    1    3    3    0  502  0.58762929731E+03  0.52436147086E+03 -0.92797121381E+02  0.79301706275E+03  0.12699999809E+01 0.  1.
</event>
<event>
 5   0  0.1994525E-05  0.1599780E+04  0.7818609E-02  0.8820683E-01
       -2   -1    0    0    0  501  0.00000000000E+00  0.00000000000E+00  0.67214517614E+03  0.67214517615E+03  0.25500000920E-02 0.  1.
        2   -1    0    0  501    0  0.00000000000E+00  0.00000000000E+00 -0.95191304688E+03  0.95191304688E+03  0.25500000920E-02 0. -1.
    10030    2    1    2    0    0  0.00000000000E+00  0.00000000000E+00 -0.27976787073E+03  0.16240582230E+04  0.15997796880E+04 0.  0.
        5    1    3    3  502    0  0.28354882005E+03  0.28364052446E+03 -0.84244877426E+03  0.93305621894E+03  0.46999998093E+01 0. -1.
       -5    1    3    3    0  502 -0.28354882005E+03 -0.28364052446E+03  0.56268090352E+03  0.69100200409E+03  0.46999998093E+01 0.  1.
</event>
<event>
 5   0  0.1126485E-05  0.1599796E+04  0.7818609E-02  0.8820673E-01
        1   -1    0    0  501    0  0.00000000000E+00  0.00000000000E+00  0.95056019747E+03  0.95056019749E+03  0.50400001928E-02 0. -1.
       -1   -1    0    0    0  501  0.00000000000E+00  0.00000000000E+00 -0.67311538124E+03  0.67311538126E+03  0.50400001928E-02 0.  1.
    10030    2    1    2    0    0  0.00000000000E+00  0.00000000000E+00  0.27744481624E+03  0.16236755787E+04  0.15997958491E+04 0.  0.
        2    1    3    3  502    0  0.12328125174E+03  0.43648865425E+03 -0.52998729981E+03  0.69757232621E+03  0.25500000920E-02 0.  1.
       -2    1    3    3    0  502 -0.12328125174E+03 -0.43648865425E+03  0.80743211605E+03  0.92610325254E+03  0.25500000920E-02 0. -1.
</event>
<event>
 5   0  0.1126485E-05  0.1600299E+04  0.7818609E-02  0.8820364E-01
       -1   -1    0    0    0  501  0.00000000000E+00  0.00000000000E+00  0.36311223685E+03  0.36311223689E+03  0.50400001928E-02 0. -1.
        1   -1    0    0  501    0  0.00000000000E+00  0.00000000000E+00 -0.17631993765E+04  0.17631993765E+04  0.50400001928E-02 0.  1.
    10030    2    1    2    0    0  0.00000000000E+00  0.00000000000E+00 -0.14000871396E+04  0.21263116134E+04  0.16002990591E+04 0.  0.
        2    1    3    3  502    0  0.16045195365E+03 -0.13382581198E+03 -0.17263143401E+04  0.17389121249E+04  0.25500000920E-02 0.  1.
       -2    1    3    3    0  502 -0.16045195365E+03  0.13382581198E+03  0.32622720043E+03  0.38739948849E+03  0.25500000920E-02 0. -1.
</event>
<event>
 5   0  0.7597000E-06  0.1599279E+04  0.7818609E-02  0.8820991E-01
       -3   -1    0    0    0  501  0.00000000000E+00  0.00000000000E+00  0.91143688130E+03  0.91143688690E+03  0.10100000352E+00 0.  1.
        3   -1    0    0  501    0  0.00000000000E+00  0.00000000000E+00 -0.70155499294E+03  0.70155500021E+03  0.10100000352E+00 0. -1.
    10030    2    1    2    0    0  0.00000000000E+00  0.00000000000E+00  0.20988188837E+03  0.16129918871E+04  0.15992787189E+04 0.  0.
        1    1    3    3  502    0  0.11163148345E+03  0.79064111687E+03  0.61582307193E+02  0.80085413427E+03  0.50400001928E-02 0. -1.
       -1    1    3    3    0  502 -0.11163148345E+03 -0.79064111687E+03  0.14829958118E+03  0.81213775284E+03  0.50400001928E-02 0.  1.
</event>
<event>
 5   0  0.7597000E-06  0.1599262E+04  0.7818609E-02  0.8821002E-01
       -3   -1    0    0    0  501  0.00000000000E+00  0.00000000000E+00  0.60818828089E+03  0.60818828927E+03  0.10100000352E+00 0.  1.
        3   -1    0    0  501    0  0.00000000000E+00  0.00000000000E+00 -0.10513346809E+04  0.10513346857E+04  0.10100000352E+00 0. -1.
    10030    2    1    2    0    0  0.00000000000E+00  0.00000000000E+00 -0.44314639998E+03  0.16595229750E+04  0.15992616336E+04 0.  0.
        4    1    3    3  502    0 -0.10321035993E+03  0.47459754994E+01  0.60123166989E+03  0.61004592979E+03  0.12699999809E+01 0.  1.
       -4    1    3    3    0  502  0.10321035993E+03 -0.47459754994E+01 -0.10443780699E+04  0.10494770452E+04  0.12699999809E+01 0. -1.
</event>
<event>
 5   0  0.1090674E-05  0.1600145E+04  0.7818609E-02  0.8820459E-01
       -1   -1    0    0    0  501  0.00000000000E+00  0.00000000000E+00  0.12006561326E+04  0.12006561326E+04  0.50400001928E-02 0. -1.
        1   -1    0    0  501    0  0.00000000000E+00  0.00000000000E+00 -0.53313822431E+03  0.53313822434E+03  0.50400001928E-02 0.  1.
    10030    2    1    2    0    0  0.00000000000E+00  0.00000000000E+00  0.66751790826E+03  0.17337943569E+04  0.16001445917E+04 0.  0.
        4    1    3    3  502    0 -0.30305478915E+03 -0.39405505952E+03 -0.34549233595E+03  0.60538265771E+03  0.12699999809E+01 0.  1.
       -4    1    3    3    0  502  0.30305478915E+03  0.39405505952E+03  0.10130102442E+04  0.11284116992E+04  0.12699999809E+01 0. -1.
</event>
<event>
 5   0  0.1060251E-05  0.1602831E+04  0.7818609E-02  0.8818811E-01
       -1   -1    0    0    0  501  0.00000000000E+00  0.00000000000E+00  0.62691178140E+03  0.62691178142E+03  0.50400001928E-02 0.  1.
        1   -1    0    0  501    0  0.00000000000E+00  0.00000000000E+00 -0.10244926490E+04  0.10244926490E+04  0.50400001928E-02 0. -1.
    10030    2    1    2    0    0  0.00000000000E+00  0.00000000000E+00 -0.39758086762E+03  0.16514044305E+04  0.16028306357E+04 0.  0.
        1    1    3    3  502    0  0.36483448914E+03  0.71140267283E+03 -0.14171726236E+03  0.81196166773E+03  0.50400001928E-02 0. -1.
       -1    1    3    3    0  502 -0.36483448914E+03 -0.71140267283E+03 -0.25586360526E+03  0.83944276273E+03  0.50400001928E-02 0.  1.
</event>
<event>
 5   0  0.1990948E-05  0.1599693E+04  0.7818609E-02  0.8820737E-01
       -2   -1    0    0    0  501  0.00000000000E+00  0.00000000000E+00  0.41233512713E+03  0.41233512713E+03  0.25500000920E-02 0.  1.
        2   -1    0    0  501    0  0.00000000000E+00  0.00000000000E+00 -0.15515390998E+04  0.15515390998E+04  0.25500000920E-02 0. -1.
    10030    2    1    2    0    0  0.00000000000E+00  0.00000000000E+00 -0.11392039726E+04  0.19638742269E+04  0.15996925604E+04 0.  0.
        4    1    3    3  502    0 -0.64436529225E+02 -0.75434889536E+03 -0.25288035644E+03  0.79821326086E+03  0.12699999809E+01 0.  1.
       -4    1    3    3    0  502  0.64436529225E+02  0.75434889536E+03 -0.88632361619E+03  0.11656609660E+04  0.12699999809E+01 0. -1.
</event>
<event>
 5   0  0.1994525E-05  0.1602684E+04  0.7818609E-02  0.8818901E-01
        2   -1    0    0  501    0  0.00000000000E+00  0.00000000000E+00  0.51679082381E+03  0.51679082382E+03  0.25500000920E-02 0.  1.
       -2   -1    0    0    0  501  0.00000000000E+00  0.00000000000E+00 -0.12425707822E+04  0.12425707822E+04  0.25500000920E-02 0. -1.
    10030    2    1    2    0    0  0.00000000000E+00  0.00000000000E+00 -0.72577995834E+03  0.17593616060E+04  0.16026842211E+04 0.  0.
        5    1    3    3  502    0 -0.61012795027E+03  0.32798906784E+03 -0.80513054156E+03  0.10621159180E+04  0.46999998093E+01 0. -1.
       -5    1    3    3    0  502  0.61012795027E+03 -0.32798906784E+03  0.79350583223E+02  0.69724568796E+03  0.46999998093E+01 0.  1.
</event>
<event>
 5   0  0.1057506E-05  0.1595661E+04  0.7818609E-02  0.8823218E-01
        1   -1    0    0  501    0  0.00000000000E+00  0.00000000000E+00  0.21200727358E+04  0.21200727358E+04  0.50400001928E-02 0. -1.
       -1   -1    0    0    0  501  0.00000000000E+00  0.00000000000E+00 -0.30024116628E+03  0.30024116632E+03  0.50400001928E-02 0.  1.
    10030    2    1    2    0    0  0.00000000000E+00  0.00000000000E+00  0.18198315695E+04  0.24203139021E+04  0.15956605038E+04 0.  0.
        5    1    3    3  502    0  0.22773036835E+03  0.54048016292E+03  0.17302998521E+04  0.18270028997E+04  0.46999998093E+01 0. -1.
       -5    1    3    3    0  502 -0.22773036835E+03 -0.54048016292E+03  0.89531717369E+02  0.59331100242E+03  0.46999998093E+01 0.  1.
</event>
<event>
 5   0  0.2046108E-05  0.1594827E+04  0.7818609E-02  0.8823732E-01
        2   -1    0    0  501    0  0.00000000000E+00  0.00000000000E+00  0.49544125153E+03  0.49544125153E+03  0.25500000920E-02 0.  1.
       -2   -1    0    0    0  501  0.00000000000E+00  0.00000000000E+00 -0.12834378466E+04  0.12834378466E+04  0.25500000920E-02 0. -1.
    10030    2    1    2    0    0  0.00000000000E+00  0.00000000000E+00 -0.78799659505E+03  0.17788790981E+04  0.15948267028E+04 0.  0.
        1    1    3    3  502    0  0.24236380183E+03  0.59435099294E+02 -0.12387629419E+04  0.12636480403E+04  0.50400001928E-02 0. -1.
       -1    1    3    3    0  502 -0.24236380183E+03 -0.59435099294E+02  0.45076634685E+03  0.51523105782E+03  0.50400001928E-02 0.  1.
</event>
<event>
 5   0  0.2147844E-05  0.1600487E+04  0.7818609E-02  0.8820249E-01
       -2   -1    0    0    0  501  0.00000000000E+00  0.00000000000E+00  0.74261504618E+03  0.74261504619E+03  0.25500000920E-02 0. -1.
        2   -1    0    0  501    0  0.00000000000E+00  0.00000000000E+00 -0.86234445635E+03  0.86234445636E+03  0.25500000920E-02 0.  1.
    10030    2    1    2    0    0  0.00000000000E+00  0.00000000000E+00 -0.11972941017E+03  0.16049595025E+04  0.16004873861E+04 0.  0.
        2    1    3    3  502    0  0.50334035101E+03  0.31502914722E+03 -0.59782908056E+03  0.84261170306E+03  0.25500000920E-02 0.  1.
       -2    1    3    3    0  502 -0.50334035101E+03 -0.31502914722E+03  0.47809967039E+03  0.76234779949E+03  0.25500000920E-02 0. -1.
</event>
<event>
 5   0  0.2147844E-05  0.1599103E+04  0.7818609E-02  0.8821099E-01
       -2   -1    0    0    0  501  0.00000000000E+00  0.00000000000E+00  0.22472944590E+04  0.22472944590E+04  0.25500000920E-02 0.  1.
        2   -1    0    0  501    0  0.00000000000E+00  0.00000000000E+00 -0.28446757900E+03  0.28446757901E+03  0.25500000920E-02 0. -1.
    10030    2    1    2    0    0  0.00000000000E+00  0.00000000000E+00  0.19628268800E+04  0.25317620380E+04  0.15991027660E+04 0.  0.
        2    1    3    3  502    0 -0.28866352924E+03 -0.54239037581E+03  0.17914510230E+04  0.18938877265E+04  0.25500000920E-02 0.  1.
       -2    1    3    3    0  502  0.28866352924E+03  0.54239037581E+03  0.17137585699E+03  0.63787431148E+03  0.25500000920E-02 0. -1.
</event>
<event>
 5   0  0.1090674E-05  0.1599848E+04  0.7818609E-02  0.8820642E-01
       -1   -1    0    0    0  501  0.00000000000E+00  0.00000000000E+00  0.73394290451E+03  0.73394290453E+03  0.50400001928E-02 0.  1.
        1   -1    0    0  501    0  0.00000000000E+00  0.00000000000E+00 -0.87183645369E+03  0.87183645370E+03  0.50400001928E-02 0. -1.
    10030    2    1    2    0    0  0.00000000000E+00  0.00000000000E+00 -0.13789354918E+03  0.16057793582E+04  0.15998477166E+04 0.  0.
        4    1    3    3  502    0 -0.72715479477E+03 -0.30161949874E+02 -0.40216066722E+03  0.83150385083E+03  0.12699999809E+01 0. -1.
       -4    1    3    3    0  502  0.72715479477E+03  0.30161949874E+02  0.26426711804E+03  0.77427550740E+03  0.12699999809E+01 0.  1.
</event>
<event>
 5   0  0.1060251E-05  0.1599269E+04  0.7818609E-02  0.8820997E-01
       -1   -1    0    0    0  501  0.00000000000E+00  0.00000000000E+00  0.67899348259E+03  0.67899348261E+03  0.50400001928E-02 0.  1.
        1   -1    0    0  501    0  0.00000000000E+00  0.00000000000E+00 -0.94171055899E+03  0.94171055900E+03  0.50400001928E-02 0. -1.
    10030    2    1    2    0    0  0.00000000000E+00  0.00000000000E+00 -0.26271707640E+03  0.16207040416E+04  0.15992689981E+04 0.  0.
        1    1    3    3  502    0 -0.30481871869E+03  0.30976114206E+03  0.54886737292E+03  0.70008700136E+03  0.50400001928E-02 0.  1.
       -1    1    3    3    0  502  0.30481871869E+03 -0.30976114206E+03 -0.81158444932E+03  0.92061704025E+03  0.50400001928E-02 0. -1.
</event>
<event>
 5   0  0.1994525E-05  0.1596727E+04  0.7818609E-02  0.8822561E-01
        2   -1    0    0  501    0  0.00000000000E+00  0.00000000000E+00  0.44611988663E+03  0.44611988663E+03  0.25500000920E-02 0.  1.
       -2   -1    0    0    0  501  0.00000000000E+00  0.00000000000E+00 -0.14287281425E+04  0.14287281425E+04  0.25500000920E-02 0. -1.
    10030    2    1    2    0    0  0.00000000000E+00  0.00000000000E+00 -0.98260825587E+03  0.18748480291E+04  0.15967266979E+04 0.  0.
        5    1    3    3  502    0  0.62642082797E+02 -0.18939107126E+03  0.41636902705E+03  0.46171231854E+03  0.46999998093E+01 0.  1.
       -5    1    3    3    0  502 -0.62642082797E+02  0.18939107126E+03 -0.13989772829E+04  0.14131357106E+04  0.46999998093E+01 0. -1.
</event>
<event>
 5   0  0.1057506E-05  0.1599944E+04  0.7818609E-02  0.8820582E-01
        1   -1    0    0  501    0  0.00000000000E+00  0.00000000000E+00  0.79505967744E+03  0.79505967746E+03  0.50400001928E-02 0. -1.
       -1   -1    0    0    0  501  0.00000000000E+00  0.00000000000E+00 -0.80491506240E+03  0.80491506241E+03  0.50400001928E-02 0.  1.
    10030    2    1    2    0    0  0.00000000000E+00  0.00000000000E+00 -0.98553849550E+01  0.15999747399E+04  0.15999443864E+04 0.  0.
        5    1    3    3  502    0 -0.22969254733E+03 -0.61482468338E+03  0.45242698256E+03  0.79717019647E+03  0.46999998093E+01 0. -1.
       -5    1    3    3    0  502  0.22969254733E+03  0.61482468338E+03 -0.46228236752E+03  0.80280454340E+03  0.46999998093E+01 0.  1.
</event>
<event>
 5   0  0.2147844E-05  0.1599352E+04  0.7818609E-02  0.8820946E-01
       -2   -1    0    0    0  501  0.00000000000E+00  0.00000000000E+00  0.28582655168E+03  0.28582655169E+03  0.25500000920E-02 0.  1.
        2   -1    0    0  501    0  0.00000000000E+00  0.00000000000E+00 -0.22373077843E+04  0.22373077843E+04  0.25500000920E-02 0. -1.
    10030    2    1    2    0    0  0.00000000000E+00  0.00000000000E+00 -0.19514812327E+04  0.25231343360E+04  0.15993523302E+04 0.  0.
        2    1    3    3  502    0  0.26027099011E+02 -0.75720870432E+03 -0.13793082573E+04  0.15737006387E+04  0.25500000920E-02 0. -1.
       -2    1    3    3    0  502 -0.26027099011E+02  0.75720870432E+03 -0.57217297540E+03  0.94943369730E+03  0.25500000920E-02 0.  1.
</event>
<event>
 5   0  0.1990948E-05  0.1600385E+04  0.7818609E-02  0.8820311E-01
       -2   -1    0    0    0  501  0.00000000000E+00  0.00000000000E+00  0.60554945471E+03  0.60554945471E+03  0.25500000920E-02 0.  1.
        2   -1    0    0  501    0  0.00000000000E+00  0.00000000000E+00 -0.10574006716E+04  0.10574006716E+04  0.25500000920E-02 0. -1.
    10030    2    1    2    0    0  0.00000000000E+00  0.00000000000E+00 -0.45185121685E+03  0.16629501263E+04  0.16003854537E+04 0.  0.
        4    1    3    3  502    0 -0.83562613119E+02 -0.94796504048E+02 -0.10469657846E+04  0.10545653392E+04  0.12699999809E+01 0. -1.
       -4    1    3    3    0  502  0.83562613119E+02  0.94796504048E+02  0.59511456778E+03  0.60838478710E+03  0.12699999809E+01 0.  1.
</event>
<event>
 5   0  0.1090674E-05  0.1600912E+04  0.7818609E-02  0.8819988E-01
       -1   -1    0    0    0  501  0.00000000000E+00  0.00000000000E+00  0.52995416839E+03  0.52995416841E+03  0.50400001928E-02 0.  1.
        1   -1    0    0  501    0  0.00000000000E+00  0.00000000000E+00 -0.12090286393E+04  0.12090286393E+04  0.50400001928E-02 0. -1.
    10030    2    1    2    0    0  0.00000000000E+00  0.00000000000E+00 -0.67907447087E+03  0.17389828077E+04  0.16009119490E+04 0.  0.
        4    1    3    3  502    0 -0.35987301830E+03 -0.44360948952E+03  0.26956467038E+03  0.63163651961E+03  0.12699999809E+01 0.  1.
       -4    1    3    3    0  502  0.35987301830E+03  0.44360948952E+03 -0.94863914126E+03  0.11073462881E+04  0.12699999809E+01 0. -1.
</event>
<event>
 5   0  0.1994525E-05  0.1599183E+04  0.7818609E-02  0.8821050E-01
        2   -1    0    0  501    0  0.00000000000E+00  0.00000000000E+00  0.75764682883E+03  0.75764682883E+03  0.25500000920E-02 0.  1.
       -2   -1    0    0    0  501  0.00000000000E+00  0.00000000000E+00 -0.84385796613E+03  0.84385796613E+03  0.25500000920E-02 0. -1.
    10030    2    1    2    0    0  0.00000000000E+00  0.00000000000E+00 -0.86211137297E+02  0.16015047950E+04  0.15991826813E+04 0.  0.
        5    1    3    3  502    0 -0.38955720551E+03 -0.18120891639E+03 -0.71842348938E+03  0.83710566109E+03  0.46999998093E+01 0. -1.
       -5    1    3    3    0  502  0.38955720551E+03  0.18120891639E+03  0.63221235208E+03  0.76439913387E+03  0.46999998093E+01 0.  1.
</event>
<event>
 5   0  0.2125803E-05  0.1600071E+04  0.7818609E-02  0.8820505E-01
       -2   -1    0    0    0  501  0.00000000000E+00  0.00000000000E+00  0.75923845236E+03  0.75923845236E+03  0.25500000920E-02 0. -1.
        2   -1    0    0  501    0  0.00000000000E+00  0.00000000000E+00 -0.84302426480E+03  0.84302426480E+03  0.25500000920E-02 0.  1.
    10030    2    1    2    0    0  0.00000000000E+00  0.00000000000E+00 -0.83785812440E+02  0.16022627172E+04  0.16000705461E+04 0.  0.
        3    1    3    3  502    0 -0.29583828995E+03  0.10161804737E+03  0.69546496475E+03  0.76257330713E+03  0.10100000352E+00 0. -1.
       -3    1    3    3    0  502  0.29583828995E+03 -0.10161804737E+03 -0.77925077719E+03  0.83968941003E+03  0.10100000352E+00 0.  1.
</event>
<event>
 5   0  0.1990948E-05  0.1600117E+04  0.7818609E-02  0.8820476E-01
       -2   -1    0    0    0  501  0.00000000000E+00  0.00000000000E+00  0.56071831607E+03  0.56071831608E+03  0.25500000920E-02 0. -1.
        2   -1    0    0  501    0  0.00000000000E+00  0.00000000000E+00 -0.11415606788E+04  0.11415606788E+04  0.25500000920E-02 0.  1.
    10030    2    1    2    0    0  0.00000000000E+00  0.00000000000E+00 -0.58084236271E+03  0.17022789949E+04  0.16001174726E+04 0.  0.
        4    1    3    3  502    0  0.41204657424E+03 -0.51705424672E+02  0.43707897533E+03  0.60290585820E+03  0.12699999809E+01 0. -1.
       -4    1    3    3    0  502 -0.41204657424E+03  0.51705424672E+02 -0.10179213380E+04  0.10993731367E+04  0.12699999809E+01 0.  1.
</event>
<event>
 5   0  0.1126485E-05  0.1599995E+04  0.7818609E-02  0.8820551E-01
       -1   -1    0    0    0  501  0.00000000000E+00  0.00000000000E+00  0.28906297628E+03  0.28906297633E+03  0.50400001928E-02 0. -1.
        1   -1    0    0  501    0  0.00000000000E+00  0.00000000000E+00 -0.22140378002E+04  0.22140378002E+04  0.50400001928E-02 0.  1.
    10030    2    1    2    0    0  0.00000000000E+00  0.00000000000E+00 -0.19249748239E+04  0.25031007765E+04  0.15999954452E+04 0.  0.
        2    1    3    3  502    0 -0.48186269735E+03  0.12259622045E+03 -0.19429509148E+04  0.20055622029E+04  0.25500000920E-02 0.  1.
       -2    1    3    3    0  502  0.48186269735E+03 -0.12259622045E+03  0.17976090922E+02  0.49753857360E+03  0.25500000920E-02 0. -1.
</event>
<event>
 5   0  0.1994525E-05  0.1600185E+04  0.7818609E-02  0.8820434E-01
        2   -1    0    0  501    0  0.00000000000E+00  0.00000000000E+00  0.71927240113E+03  0.71927240114E+03  0.25500000920E-02 0.  1.
       -2   -1    0    0    0  501  0.00000000000E+00  0.00000000000E+00 -0.88999402278E+03  0.88999402279E+03  0.25500000920E-02 0. -1.
    10030    2    1    2    0    0  0.00000000000E+00  0.00000000000E+00 -0.17072162165E+03  0.16092664239E+04  0.16001851615E+04 0.  0.
        5    1    3    3  502    0  0.64696909120E+03 -0.95118379829E+02 -0.54896454290E+03  0.85381536090E+03  0.46999998093E+01 0. -1.
       -5    1    3    3    0  502 -0.64696909120E+03  0.95118379829E+02  0.37824292125E+03  0.75545106302E+03  0.46999998093E+01 0.  1.
</event>
<event>
 5   0  0.1057506E-05  0.1600394E+04  0.7818609E-02  0.8820306E-01
        1   -1    0    0  501    0  0.00000000000E+00  0.00000000000E+00  0.18270852670E+04  0.18270852670E+04  0.50400001928E-02 0. -1.
       -1   -1    0    0    0  501  0.00000000000E+00  0.00000000000E+00 -0.35045718644E+03  0.35045718648E+03  0.50400001928E-02 0.  1.
    10030    2    1    2    0    0  0.00000000000E+00  0.00000000000E+00  0.14766280805E+04  0.21775424534E+04  0.16003939041E+04 0.  0.
        5    1    3    3  502    0 -0.30542859922E+03 -0.66405099840E+03  0.29523606723E+03  0.78831261762E+03  0.46999998093E+01 0.  1.
       -5    1    3    3    0  502  0.30542859922E+03  0.66405099840E+03  0.11813920133E+04  0.13892298358E+04  0.46999998093E+01 0. -1.
</event>
<event>
 5   0  0.1990948E-05  0.1599393E+04  0.7818609E-02  0.8820921E-01
        2   -1    0    0  501    0  0.00000000000E+00  0.00000000000E+00  0.21805834619E+04  0.21805834620E+04  0.25500000920E-02 0. -1.
       -2   -1    0    0    0  501  0.00000000000E+00  0.00000000000E+00 -0.29327691683E+03  0.29327691684E+03  0.25500000920E-02 0.  1.
    10030    2    1    2    0    0  0.00000000000E+00  0.00000000000E+00  0.18873065451E+04  0.24738603788E+04  0.15993933783E+04 0.  0.
        4    1    3    3  502    0  0.40367586500E+03  0.41517922506E+02  0.20094916719E+04  0.20500576417E+04  0.12699999809E+01 0. -1.
       -4    1    3    3    0  502 -0.40367586500E+03 -0.41517922506E+02 -0.12218512678E+03  0.42380273711E+03  0.12699999809E+01 0.  1.
</event>
<event>
 5   0  0.1060251E-05  0.1600380E+04  0.7818609E-02  0.8820314E-01
        1   -1    0    0  501    0  0.00000000000E+00  0.00000000000E+00  0.16862650031E+04  0.16862650031E+04  0.50400001928E-02 0.  1.
       -1   -1    0    0    0  501  0.00000000000E+00  0.00000000000E+00 -0.37971745082E+03  0.37971745085E+03  0.50400001928E-02 0. -1.
    10030    2    1    2    0    0  0.00000000000E+00  0.00000000000E+00  0.13065475523E+04  0.20659824540E+04  0.16003802654E+04 0.  0.
        1    1    3    3  502    0 -0.41602557647E+03 -0.25266507665E+03 -0.16663317167E+03  0.51447403740E+03  0.50400001928E-02 0. -1.
       -1    1    3    3    0  502  0.41602557647E+03  0.25266507665E+03  0.14731807240E+04  0.15515084166E+04  0.50400001928E-02 0.  1.
</event>
<event>
 5   0  0.1994525E-05  0.1600193E+04  0.7818609E-02  0.8820430E-01
       -2   -1    0    0    0  501  0.00000000000E+00  0.00000000000E+00  0.12588610366E+04  0.12588610366E+04  0.25500000920E-02 0.  1.
        2   -1    0    0  501    0  0.00000000000E+00  0.00000000000E+00 -0.50851843953E+03  0.50851843953E+03  0.25500000920E-02 0. -1.
    10030    2    1    2    0    0  0.00000000000E+00  0.00000000000E+00  0.75034259706E+03  0.17673794761E+04  0.16001925508E+04 0.  0.
        5    1    3    3  502    0  0.17409276131E+03  0.63875542916E+03 -0.12100323416E+03  0.67303837966E+03  0.46999998093E+01 0. -1.
       -5    1    3    3    0  502 -0.17409276131E+03 -0.63875542916E+03  0.87134583122E+03  0.10943410965E+04  0.46999998093E+01 0.  1.
</event>
<event>
 5   0  0.1057506E-05  0.1599120E+04  0.7818609E-02  0.8821089E-01
       -1   -1    0    0    0  501  0.00000000000E+00  0.00000000000E+00  0.10539886639E+04  0.10539886639E+04  0.50400001928E-02 0.  1.
        1   -1    0    0  501    0  0.00000000000E+00  0.00000000000E+00 -0.60654958625E+03  0.60654958627E+03  0.50400001928E-02 0. -1.
    10030    2    1    2    0    0  0.00000000000E+00  0.00000000000E+00  0.44743907766E+03  0.16605382502E+04  0.15991202432E+04 0.  0.
        5    1    3    3  502    0  0.50707543075E+03  0.31584591349E+03 -0.32809424695E+03  0.68158055901E+03  0.46999998093E+01 0. -1.
       -5    1    3    3    0  502 -0.50707543075E+03 -0.31584591349E+03  0.77553332461E+03  0.97895769117E+03  0.46999998093E+01 0.  1.
</event>
<event>
 5   0  0.1057506E-05  0.1599905E+04  0.7818609E-02  0.8820607E-01
       -1   -1    0    0    0  501  0.00000000000E+00  0.00000000000E+00  0.48072918705E+03  0.48072918708E+03  0.50400001928E-02 0.  1.
        1   -1    0    0  501    0  0.00000000000E+00  0.00000000000E+00 -0.13311522229E+04  0.13311522229E+04  0.50400001928E-02 0. -1.
    10030    2    1    2    0    0  0.00000000000E+00  0.00000000000E+00 -0.85042303582E+03  0.18118814100E+04  0.15999046546E+04 0.  0.
        5    1    3    3  502    0 -0.52633244349E+03 -0.15286802294E+02 -0.11071964555E+04  0.12260365445E+04  0.46999998093E+01 0. -1.
       -5    1    3    3    0  502  0.52633244349E+03  0.15286802294E+02  0.25677341964E+03  0.58584486550E+03  0.46999998093E+01 0.  1.
</event>
<event>
 5   0  0.1994525E-05  0.1599107E+04  0.7818609E-02  0.8821097E-01
       -2   -1    0    0    0  501  0.00000000000E+00  0.00000000000E+00  0.45878231617E+03  0.45878231617E+03  0.25500000920E-02 0. -1.
        2   -1    0    0  501    0  0.00000000000E+00  0.00000000000E+00 -0.13934396246E+04  0.13934396246E+04  0.25500000920E-02 0.  1.
    10030    2    1    2    0    0  0.00000000000E+00  0.00000000000E+00 -0.93465730840E+03  0.18522219407E+04  0.15991065736E+04 0.  0.
        5    1    3    3  502    0 -0.62597787364E+03 -0.20664137896E+03  0.56741978069E+02  0.66165753971E+03  0.46999998093E+01 0. -1.
       -5    1    3    3    0  502  0.62597787364E+03  0.20664137896E+03 -0.99139928647E+03  0.11905644010E+04  0.46999998093E+01 0.  1.
</event>
<event>
 5   0  0.1090674E-05  0.1599848E+04  0.7818609E-02  0.8820641E-01
        1   -1    0    0  501    0  0.00000000000E+00  0.00000000000E+00  0.11420752223E+04  0.11420752223E+04  0.50400001928E-02 0.  1.
       -1   -1    0    0    0  501  0.00000000000E+00  0.00000000000E+00 -0.56027724668E+03  0.56027724670E+03  0.50400001928E-02 0. -1.
    10030    2    1    2    0    0  0.00000000000E+00  0.00000000000E+00  0.58179797558E+03  0.17023524690E+04  0.15998484441E+04 0.  0.
        4    1    3    3  502    0 -0.22429763964E+03 -0.67893179426E+03  0.67251252548E+03  0.98159692452E+03  0.12699999809E+01 0.  1.
       -4    1    3    3    0  502  0.22429763964E+03  0.67893179426E+03 -0.90714549900E+02  0.72075554446E+03  0.12699999809E+01 0. -1.
</event>
<event>
 5   0  0.1090674E-05  0.1601009E+04  0.7818609E-02  0.8819929E-01
        1   -1    0    0  501    0  0.00000000000E+00  0.00000000000E+00  0.17332855400E+04  0.17332855400E+04  0.50400001928E-02 0.  1.
       -1   -1    0    0    0  501  0.00000000000E+00  0.00000000000E+00 -0.36970664034E+03  0.36970664037E+03  0.50400001928E-02 0. -1.
    10030    2    1    2    0    0  0.00000000000E+00  0.00000000000E+00  0.13635788997E+04  0.21029921804E+04  0.16010086493E+04 0.  0.
        4    1    3    3  502    0 -0.10443408784E+03 -0.32222711427E+03 -0.27093045668E+03  0.43375306008E+03  0.12699999809E+01 0. -1.
       -4    1    3    3    0  502  0.10443408784E+03  0.32222711427E+03  0.16345093563E+04  0.16692391203E+04  0.12699999809E+01 0.  1.
</event>
<event>
 5   0  0.1057506E-05  0.1600899E+04  0.7818609E-02  0.8819996E-01
        1   -1    0    0  501    0  0.00000000000E+00  0.00000000000E+00  0.13068422036E+04  0.13068422036E+04  0.50400001928E-02 0. -1.
       -1   -1    0    0    0  501  0.00000000000E+00  0.00000000000E+00 -0.49028052216E+03  0.49028052219E+03  0.50400001928E-02 0.  1.
    10030    2    1    2    0    0  0.00000000000E+00  0.00000000000E+00  0.81656168144E+03  0.17971227258E+04  0.16008988450E+04 0.  0.
        5    1    3    3  502    0  0.13114829734E+03 -0.58445796518E+03  0.10043081483E+04  0.11693792951E+04  0.46999998093E+01 0. -1.
       -5    1    3    3    0  502 -0.13114829734E+03  0.58445796518E+03 -0.18774646690E+03  0.62774343071E+03  0.46999998093E+01 0.  1.
</event>
<event>
 5   0  0.1090674E-05  0.1600448E+04  0.7818609E-02  0.8820273E-01
        1   -1    0    0  501    0  0.00000000000E+00  0.00000000000E+00  0.10572669668E+04  0.10572669668E+04  0.50400001928E-02 0. -1.
       -1   -1    0    0    0  501  0.00000000000E+00  0.00000000000E+00 -0.60567321236E+03  0.60567321238E+03  0.50400001928E-02 0.  1.
    10030    2    1    2    0    0  0.00000000000E+00  0.00000000000E+00  0.45159375444E+03  0.16629401792E+04  0.16004477875E+04 0.  0.
        4    1    3    3  502    0  0.28087242116E+02 -0.22054192194E+03 -0.57293824321E+03  0.61456283319E+03  0.12699999809E+01 0.  1.
       -4    1    3    3    0  502 -0.28087242116E+02  0.22054192194E+03  0.10245319977E+04  0.10483773460E+04  0.12699999809E+01 0. -1.
</event>
<event>
 5   0  0.1090674E-05  0.1599287E+04  0.7818609E-02  0.8820986E-01
        1   -1    0    0  501    0  0.00000000000E+00  0.00000000000E+00  0.10692145754E+04  0.10692145754E+04  0.50400001928E-02 0. -1.
       -1   -1    0    0    0  501  0.00000000000E+00  0.00000000000E+00 -0.59803703055E+03  0.59803703057E+03  0.50400001928E-02 0.  1.
    10030    2    1    2    0    0  0.00000000000E+00  0.00000000000E+00  0.47117754481E+03  0.16672516059E+04  0.15992872284E+04 0.  0.
        4    1    3    3  502    0  0.74890556203E+03  0.27552627995E+03  0.28929531315E+03  0.84880366570E+03  0.12699999809E+01 0.  1.
       -4    1    3    3    0  502 -0.74890556203E+03 -0.27552627995E+03  0.18188223166E+03  0.81844794024E+03  0.12699999809E+01 0. -1.
</event>
<event>
 5   0  0.1090674E-05  0.1599798E+04  0.7818609E-02  0.8820672E-01
        1   -1    0    0  501    0  0.00000000000E+00  0.00000000000E+00  0.93367853580E+03  0.93367853581E+03  0.50400001928E-02 0.  1.
       -1   -1    0    0    0  501  0.00000000000E+00  0.00000000000E+00 -0.68528806493E+03  0.68528806494E+03  0.50400001928E-02 0. -1.
    10030    2    1    2    0    0  0.00000000000E+00  0.00000000000E+00  0.24839047087E+03  0.16189666008E+04  0.15997984337E+04 0.  0.
        4    1    3    3  502    0  0.27604450889E+03 -0.27705080152E+03  0.83032307458E+03  0.91782119097E+03  0.12699999809E+01 0.  1.
       -4    1    3    3    0  502 -0.27604450889E+03  0.27705080152E+03 -0.58193260371E+03  0.70114540979E+03  0.12699999809E+01 0. -1.
</event>
<event>
 5   0  0.1060251E-05  0.1599991E+04  0.7818609E-02  0.8820554E-01
        1   -1    0    0  501    0  0.00000000000E+00  0.00000000000E+00  0.11607862147E+04  0.11607862147E+04  0.50400001928E-02 0.  1.
       -1   -1    0    0    0  501  0.00000000000E+00  0.00000000000E+00 -0.55134421568E+03  0.55134421571E+03  0.50400001928E-02 0. -1.
    10030    2    1    2    0    0  0.00000000000E+00  0.00000000000E+00  0.60944199897E+03  0.17121304304E+04  0.15999909564E+04 0.  0.
        1    1    3    3  502    0  0.65317146163E+03  0.30557941216E+03  0.67538090499E+03  0.98800359426E+03  0.50400001928E-02 0.  1.
       -1    1    3    3    0  502 -0.65317146163E+03 -0.30557941216E+03 -0.65938906021E+02  0.72412683611E+03  0.50400001928E-02 0. -1.
</event>
<event>
 5   0  0.2147844E-05  0.1600039E+04  0.7818609E-02  0.8820524E-01
        2   -1    0    0  501    0  0.00000000000E+00  0.00000000000E+00  0.20886375368E+04  0.20886375368E+04  0.25500000920E-02 0.  1.
       -2   -1    0    0    0  501  0.00000000000E+00  0.00000000000E+00 -0.30643481350E+03  0.30643481351E+03  0.25500000920E-02 0. -1.
    10030    2    1    2    0    0  0.00000000000E+00  0.00000000000E+00  0.17822027233E+04  0.23950723503E+04  0.16000390671E+04 0.  0.
        2    1    3    3  502    0  0.31922356507E+03 -0.58710657989E+03  0.23275593845E+03  0.70765326787E+03  0.25500000920E-02 0. -1.
       -2    1    3    3    0  502 -0.31922356507E+03  0.58710657989E+03  0.15494467848E+04  0.16874190824E+04  0.25500000920E-02 0.  1.
</event>
<event>
 5   0  0.1060251E-05  0.1599530E+04  0.7818609E-02  0.8820837E-01
       -1   -1    0    0    0  501  0.00000000000E+00  0.00000000000E+00  0.76375680909E+03  0.76375680911E+03  0.50400001928E-02 0.  1.
        1   -1    0    0  501    0  0.00000000000E+00  0.00000000000E+00 -0.83747121846E+03  0.83747121848E+03  0.50400001928E-02 0. -1.
    10030    2    1    2    0    0  0.00000000000E+00  0.00000000000E+00 -0.73714409371E+02  0.16012280276E+04  0.15995303630E+04 0.  0.
        1    1    3    3  502    0  0.51038234621E+03  0.72306208779E+02 -0.64898474964E+03  0.82879402292E+03  0.50400001928E-02 0. -1.
       -1    1    3    3    0  502 -0.51038234621E+03 -0.72306208779E+02  0.57527034027E+03  0.77243400467E+03  0.50400001928E-02 0.  1.
</event>
<event>
 5   0  0.1060251E-05  0.1602260E+04  0.7818609E-02  0.8819161E-01
        1   -1    0    0  501    0  0.00000000000E+00  0.00000000000E+00  0.87639227991E+03  0.87639227993E+03  0.50400001928E-02 0.  1.
       -1   -1    0    0    0  501  0.00000000000E+00  0.00000000000E+00 -0.73233092222E+03  0.73233092223E+03  0.50400001928E-02 0. -1.
    10030    2    1    2    0    0  0.00000000000E+00  0.00000000000E+00  0.14406135770E+03  0.16087232022E+04  0.16022598623E+04 0.  0.
        1    1    3    3  502    0 -0.52114511119E+03  0.15555839159E+03  0.66263694213E+03  0.85725046353E+03  0.50400001928E-02 0.  1.
       -1    1    3    3    0  502  0.52114511119E+03 -0.15555839159E+03 -0.51857558444E+03  0.75147273863E+03  0.50400001928E-02 0. -1.
</event>
<event>
 5   0  0.1994525E-05  0.1599727E+04  0.7818609E-02  0.8820716E-01
       -2   -1    0    0    0  501  0.00000000000E+00  0.00000000000E+00  0.51147578980E+03  0.51147578981E+03  0.25500000920E-02 0.  1.
        2   -1    0    0  501    0  0.00000000000E+00  0.00000000000E+00 -0.12508538075E+04  0.12508538075E+04  0.25500000920E-02 0. -1.
    10030    2    1    2    0    0  0.00000000000E+00  0.00000000000E+00 -0.73937801766E+03  0.17623295973E+04  0.15997267755E+04 0.  0.
        5    1    3    3  502    0  0.26940522181E+03 -0.70702238191E+03 -0.83898812245E+02  0.76126271599E+03  0.46999998093E+01 0. -1.
       -5    1    3    3    0  502 -0.26940522181E+03  0.70702238191E+03 -0.65547920542E+03  0.10010668813E+04  0.46999998093E+01 0.  1.
</event>
<event>
 5   0  0.7597000E-06  0.1601074E+04  0.7818609E-02  0.8819888E-01
       -4   -1    0    0    0  501  0.00000000000E+00  0.00000000000E+00  0.60450510864E+03  0.60450644270E+03  0.12699999809E+01 0. -1.
        4   -1    0    0  501    0  0.00000000000E+00  0.00000000000E+00 -0.10601363929E+04  0.10601371536E+04  0.12699999809E+01 0.  1.
    10030    2    1    2    0    0  0.00000000000E+00  0.00000000000E+00 -0.45563128427E+03  0.16646435963E+04  0.16010741505E+04 0.  0.
        1    1    3    3  502    0 -0.81612299934E+02  0.79582927559E+03 -0.19741775020E+03  0.82400156038E+03  0.50400001928E-02 0.  1.
       -1    1    3    3    0  502  0.81612299934E+02 -0.79582927559E+03 -0.25821353408E+03  0.84064203594E+03  0.50400001928E-02 0. -1.
</event>
<event>
 5   0  0.1081831E-05  0.1600478E+04  0.7818609E-02  0.8820254E-01
       -1   -1    0    0    0  501  0.00000000000E+00  0.00000000000E+00  0.54652699790E+03  0.54652699792E+03  0.50400001928E-02 0. -1.
        1   -1    0    0  501    0  0.00000000000E+00  0.00000000000E+00 -0.11717314222E+04  0.11717314222E+04  0.50400001928E-02 0.  1.
    10030    2    1    2    0    0  0.00000000000E+00  0.00000000000E+00 -0.62520442427E+03  0.17182584201E+04  0.16004784991E+04 0.  0.
        3    1    3    3  502    0 -0.44512668840E+03  0.41626188213E+02  0.39995161170E+03  0.59985982544E+03  0.10100000352E+00 0. -1.
       -3    1    3    3    0  502  0.44512668840E+03 -0.41626188213E+02 -0.10251560360E+04  0.11183985947E+04  0.10100000352E+00 0.  1.
</event>
<event>
 5   0  0.1090674E-05  0.1587425E+04  0.7818609E-02  0.8828311E-01
       -1   -1    0    0    0  501  0.00000000000E+00  0.00000000000E+00  0.77968364076E+03  0.77968364078E+03  0.50400001928E-02 0.  1.
        1   -1    0    0  501    0  0.00000000000E+00  0.00000000000E+00 -0.80799349785E+03  0.80799349786E+03  0.50400001928E-02 0. -1.
    10030    2    1    2    0    0  0.00000000000E+00  0.00000000000E+00 -0.28309857087E+02  0.15876771386E+04  0.15874247222E+04 0.  0.
        4    1    3    3  502    0 -0.53399840111E+03  0.23924793021E+03  0.52219877886E+03  0.78427485108E+03  0.12699999809E+01 0.  1.
       -4    1    3    3    0  502  0.53399840111E+03 -0.23924793021E+03 -0.55050863594E+03  0.80340228755E+03  0.12699999809E+01 0. -1.
</event>
<event>
 5   0  0.1090674E-05  0.1600207E+04  0.7818609E-02  0.8820421E-01
       -1   -1    0    0    0  501  0.00000000000E+00  0.00000000000E+00  0.46995133128E+03  0.46995133130E+03  0.50400001928E-02 0.  1.
        1   -1    0    0  501    0  0.00000000000E+00  0.00000000000E+00 -0.13621949226E+04  0.13621949226E+04  0.50400001928E-02 0. -1.
    10030    2    1    2    0    0  0.00000000000E+00  0.00000000000E+00 -0.89224359135E+03  0.18321462539E+04  0.16002066334E+04 0.  0.
        4    1    3    3  502    0 -0.45922735910E+03 -0.84312888141E+02 -0.11900402390E+04  0.12783566849E+04  0.12699999809E+01 0. -1.
       -4    1    3    3    0  502  0.45922735910E+03  0.84312888141E+02  0.29779664770E+03  0.55378956901E+03  0.12699999809E+01 0.  1.
</event>
<event>
 5   0  0.1990948E-05  0.1599236E+04  0.7818609E-02  0.8821017E-01
       -2   -1    0    0    0  501  0.00000000000E+00  0.00000000000E+00  0.56358038251E+03  0.56358038251E+03  0.25500000920E-02 0. -1.
        2   -1    0    0  501    0  0.00000000000E+00  0.00000000000E+00 -0.11345130779E+04  0.11345130779E+04  0.25500000920E-02 0.  1.
    10030    2    1    2    0    0  0.00000000000E+00  0.00000000000E+00 -0.57093269542E+03  0.16980934604E+04  0.15992364608E+04 0.  0.
        4    1    3    3  502    0 -0.62921113445E+01  0.78230945979E+03 -0.46103554380E+03  0.90807657557E+03  0.12699999809E+01 0.  1.
       -4    1    3    3    0  502  0.62921113445E+01 -0.78230945979E+03 -0.10989715162E+03  0.79001688487E+03  0.12699999809E+01 0. -1.
</event>
<event>
 5   0  0.7597000E-06  0.1599451E+04  0.7818609E-02  0.8820885E-01
        3   -1    0    0  501    0  0.00000000000E+00  0.00000000000E+00  0.17932081066E+04  0.17932081094E+04  0.10100000352E+00 0.  1.
       -3   -1    0    0    0  501  0.00000000000E+00  0.00000000000E+00 -0.35665730128E+03  0.35665731558E+03  0.10100000352E+00 0. -1.
    10030    2    1    2    0    0  0.00000000000E+00  0.00000000000E+00  0.14365508053E+04  0.21498654250E+04  0.15994508837E+04 0.  0.
        1    1    3    3  502    0 -0.39894870063E+02 -0.20951622710E+03 -0.31772507863E+03  0.38267202104E+03  0.50400001928E-02 0. -1.
       -1    1    3    3    0  502  0.39894870063E+02  0.20951622710E+03  0.17542758839E+04  0.17671934039E+04  0.50400001928E-02 0.  1.
</event>
<event>
 5   0  0.1081831E-05  0.1598516E+04  0.7818609E-02  0.8821460E-01
        1   -1    0    0  501    0  0.00000000000E+00  0.00000000000E+00  0.16378983805E+04  0.16378983805E+04  0.50400001928E-02 0. -1.
       -1   -1    0    0    0  501  0.00000000000E+00  0.00000000000E+00 -0.39002012031E+03  0.39002012034E+03  0.50400001928E-02 0.  1.
    10030    2    1    2    0    0  0.00000000000E+00  0.00000000000E+00  0.12478782602E+04  0.20279185008E+04  0.15985159661E+04 0.  0.
        3    1    3    3  502    0  0.45941044487E+02 -0.79749339355E+03  0.59020654313E+03  0.99320192614E+03  0.10100000352E+00 0. -1.
       -3    1    3    3    0  502 -0.45941044487E+02  0.79749339355E+03  0.65767171703E+03  0.10347165747E+04  0.10100000352E+00 0.  1.
</event>
<event>
 5   0  0.2147844E-05  0.1599452E+04  0.7818609E-02  0.8820884E-01
        2   -1    0    0  501    0  0.00000000000E+00  0.00000000000E+00  0.79743840647E+03  0.79743840648E+03  0.25500000920E-02 0.  1.
       -2   -1    0    0    0  501  0.00000000000E+00  0.00000000000E+00 -0.80202065361E+03  0.80202065362E+03  0.25500000920E-02 0. -1.
    10030    2    1    2    0    0  0.00000000000E+00  0.00000000000E+00 -0.45822471389E+01  0.15994590601E+04  0.15994524963E+04 0.  0.
        2    1    3    3  502    0  0.42767038418E+03  0.66977073546E+03  0.87527263209E+02  0.79947221177E+03  0.25500000920E-02 0. -1.
       -2    1    3    3    0  502 -0.42767038418E+03 -0.66977073546E+03 -0.92109510348E+02  0.79998684832E+03  0.25500000920E-02 0.  1.
</event>
<event>
 5   0  0.1994525E-05  0.1600218E+04  0.7818609E-02  0.8820414E-01
        2   -1    0    0  501    0  0.00000000000E+00  0.00000000000E+00  0.16114830157E+04  0.16114830157E+04  0.25500000920E-02 0. -1.
       -2   -1    0    0    0  501  0.00000000000E+00  0.00000000000E+00 -0.39725801852E+03  0.39725801853E+03  0.25500000920E-02 0.  1.
    10030    2    1    2    0    0  0.00000000000E+00  0.00000000000E+00  0.12142249972E+04  0.20087410342E+04  0.16002181722E+04 0.  0.
        5    1    3    3  502    0 -0.61130597308E+03  0.12233414996E+03 -0.22403377988E+02  0.62384664647E+03  0.46999998093E+01 0.  1.
       -5    1    3    3    0  502  0.61130597308E+03 -0.12233414996E+03  0.12366283751E+04  0.13848943877E+04  0.46999998093E+01 0. -1.
</event>
<event>
 5   0  0.2125803E-05  0.1599843E+04  0.7818609E-02  0.8820645E-01
       -2   -1    0    0    0  501  0.00000000000E+00  0.00000000000E+00  0.42474372210E+03  0.42474372211E+03  0.25500000920E-02 0. -1.
        2   -1    0    0  501    0  0.00000000000E+00  0.00000000000E+00 -0.15064948024E+04  0.15064948024E+04  0.25500000920E-02 0.  1.
    10030    2    1    2    0    0  0.00000000000E+00  0.00000000000E+00 -0.10817510803E+04  0.19312385245E+04  0.15998427544E+04 0.  0.
        3    1    3    3  502    0  0.22646792021E+03 -0.30387166309E+02  0.38451025473E+03  0.44727982847E+03  0.10100000352E+00 0. -1.
       -3    1    3    3    0  502 -0.22646792021E+03  0.30387166309E+02 -0.14662613350E+04  0.14839586960E+04  0.10100000352E+00 0.  1.
</event>
<event>
 5   0  0.1126485E-05  0.1599502E+04  0.7818609E-02  0.8820854E-01
        1   -1    0    0  501    0  0.00000000000E+00  0.00000000000E+00  0.70668254907E+03  0.70668254909E+03  0.50400001928E-02 0. -1.
       -1   -1    0    0    0  501  0.00000000000E+00  0.00000000000E+00 -0.90507682178E+03  0.90507682180E+03  0.50400001928E-02 0.  1.
    10030    2    1    2    0    0  0.00000000000E+00  0.00000000000E+00 -0.19839427271E+03  0.16117593709E+04  0.15995024171E+04 0.  0.
        2    1    3    3  502    0 -0.59881313609E+03  0.49691309460E+03  0.86885779119E+02  0.78297441475E+03  0.25500000920E-02 0.  1.
       -2    1    3    3    0  502  0.59881313609E+03 -0.49691309460E+03 -0.28528005183E+03  0.82878495613E+03  0.25500000920E-02 0. -1.
</event>
<event>
 5   0  0.2125803E-05  0.1600070E+04  0.7818609E-02  0.8820505E-01
        2   -1    0    0  501    0  0.00000000000E+00  0.00000000000E+00  0.11048682394E+04  0.11048682394E+04  0.25500000920E-02 0.  1.
       -2   -1    0    0    0  501  0.00000000000E+00  0.00000000000E+00 -0.57930539720E+03  0.57930539721E+03  0.25500000920E-02 0. -1.
    10030    2    1    2    0    0  0.00000000000E+00  0.00000000000E+00  0.52556284223E+03  0.16841736366E+04  0.16000701663E+04 0.  0.
        3    1    3    3  502    0  0.22218479470E+03  0.76604701429E+03  0.19736983159E+03  0.82167449256E+03  0.10100000352E+00 0. -1.
       -3    1    3    3    0  502 -0.22218479470E+03 -0.76604701429E+03  0.32819301063E+03  0.86249914408E+03  0.10100000352E+00 0.  1.
</event>
<event>
 5   0  0.1057506E-05  0.1600076E+04  0.7818609E-02  0.8820501E-01
       -1   -1    0    0    0  501  0.00000000000E+00  0.00000000000E+00  0.58108375246E+03  0.58108375248E+03  0.50400001928E-02 0.  1.
        1   -1    0    0  501    0  0.00000000000E+00  0.00000000000E+00 -0.11014955789E+04  0.11014955789E+04  0.50400001928E-02 0. -1.
    10030    2    1    2    0    0  0.00000000000E+00  0.00000000000E+00 -0.52041182642E+03  0.16825793314E+04  0.16000764786E+04 0.  0.
        5    1    3    3  502    0 -0.18192580438E+03  0.38545729020E+03  0.45172922017E+03  0.62109234355E+03  0.46999998093E+01 0.  1.
       -5    1    3    3    0  502  0.18192580438E+03 -0.38545729020E+03 -0.97214104658E+03  0.10614869878E+04  0.46999998093E+01 0. -1.
</event>
<event>
 5   0  0.1081831E-05  0.1604009E+04  0.7818609E-02  0.8818089E-01
        1   -1    0    0  501    0  0.00000000000E+00  0.00000000000E+00  0.94682814955E+03  0.94682814956E+03  0.50400001928E-02 0.  1.
       -1   -1    0    0    0  501  0.00000000000E+00  0.00000000000E+00 -0.67933266014E+03  0.67933266016E+03  0.50400001928E-02 0. -1.
    10030    2    1    2    0    0  0.00000000000E+00  0.00000000000E+00  0.26749548941E+03  0.16261608097E+04  0.16040090842E+04 0.  0.
        3    1    3    3  502    0  0.78754938284E+03  0.15134124594E+03  0.14241402644E+03  0.81450596576E+03  0.10100000352E+00 0. -1.
       -3    1    3    3    0  502 -0.78754938284E+03 -0.15134124594E+03  0.12508146296E+03  0.81165484395E+03  0.10100000352E+00 0.  1.
</event>
<event>
 5   0  0.1090674E-05  0.1593346E+04  0.7818609E-02  0.8824647E-01
        1   -1    0    0  501    0  0.00000000000E+00  0.00000000000E+00  0.13975937209E+04  0.13975937210E+04  0.50400001928E-02 0.  1.
       -1   -1    0    0    0  501  0.00000000000E+00  0.00000000000E+00 -0.45412876626E+03  0.45412876629E+03  0.50400001928E-02 0. -1.
    10030    2    1    2    0    0  0.00000000000E+00  0.00000000000E+00  0.94346495469E+03  0.18517224872E+04  0.15933455523E+04 0.  0.
        4    1    3    3  502    0  0.60070230383E+02  0.68681027399E+03  0.77858651281E+01  0.68947735106E+03  0.12699999809E+01 0. -1.
       -4    1    3    3    0  502 -0.60070230383E+02 -0.68681027399E+03  0.93567908956E+03  0.11622451362E+04  0.12699999809E+01 0.  1.
</event>
<event>
 5   0  0.1990948E-05  0.1600103E+04  0.7818609E-02  0.8820485E-01
       -2   -1    0    0    0  501  0.00000000000E+00  0.00000000000E+00  0.96757653939E+03  0.96757653939E+03  0.25500000920E-02 0.  1.
        2   -1    0    0  501    0  0.00000000000E+00  0.00000000000E+00 -0.66153127124E+03  0.66153127125E+03  0.25500000920E-02 0. -1.
    10030    2    1    2    0    0  0.00000000000E+00  0.00000000000E+00  0.30604526815E+03  0.16291078106E+04  0.16001026694E+04 0.  0.
        4    1    3    3  502    0  0.44941747211E+03 -0.45590197761E+03 -0.33552756736E+03  0.72277454215E+03  0.12699999809E+01 0. -1.
       -4    1    3    3    0  502 -0.44941747211E+03  0.45590197761E+03  0.64157283550E+03  0.90633326849E+03  0.12699999809E+01 0.  1.
</event>
<event>
 5   0  0.1090674E-05  0.1600066E+04  0.7818609E-02  0.8820507E-01
        1   -1    0    0  501    0  0.00000000000E+00  0.00000000000E+00  0.29372750540E+04  0.29372750540E+04  0.50400001928E-02 0.  1.
       -1   -1    0    0    0  501  0.00000000000E+00  0.00000000000E+00 -0.21790705774E+03  0.21790705780E+03  0.50400001928E-02 0. -1.
    10030    2    1    2    0    0  0.00000000000E+00  0.00000000000E+00  0.27193679963E+04  0.31551821118E+04  0.16000662047E+04 0.  0.
        4    1    3    3  502    0  0.22759745506E+03 -0.34876127299E+03  0.27066804228E+04  0.27385316414E+04  0.12699999809E+01 0.  1.
       -4    1    3    3    0  502 -0.22759745506E+03  0.34876127299E+03  0.12687573535E+02  0.41665047043E+03  0.12699999809E+01 0. -1.
</event>
<event>
 5   0  0.7597000E-06  0.1597382E+04  0.7818609E-02  0.8822158E-01
        4   -1    0    0  501    0  0.00000000000E+00  0.00000000000E+00  0.65369187965E+03  0.65369311334E+03  0.12699999809E+01 0.  1.
       -4   -1    0    0    0  501  0.00000000000E+00  0.00000000000E+00 -0.97585017032E+03  0.97585099673E+03  0.12699999809E+01 0. -1.
    10030    2    1    2    0    0  0.00000000000E+00  0.00000000000E+00 -0.32215829067E+03  0.16295441101E+04  0.15973816208E+04 0.  0.
        2    1    3    3  502    0 -0.18044886840E+03 -0.17662256807E+02  0.63242109530E+03  0.65789831373E+03  0.25500000920E-02 0.  1.
       -2    1    3    3    0  502  0.18044886840E+03  0.17662256807E+02 -0.95457938597E+03  0.97164579634E+03  0.25500000920E-02 0. -1.
</event>
<event>
 5   0  0.1081831E-05  0.1600266E+04  0.7818609E-02  0.8820385E-01
       -1   -1    0    0    0  501  0.00000000000E+00  0.00000000000E+00  0.46496177114E+03  0.46496177117E+03  0.50400001928E-02 0. -1.
        1   -1    0    0  501    0  0.00000000000E+00  0.00000000000E+00 -0.13769145920E+04  0.13769145920E+04  0.50400001928E-02 0.  1.
    10030    2    1    2    0    0  0.00000000000E+00  0.00000000000E+00 -0.91195282087E+03  0.18418763632E+04  0.16002657872E+04 0.  0.
        3    1    3    3  502    0 -0.87728131431E+02 -0.20566244474E+03 -0.13402264415E+04  0.13587494953E+04  0.10100000352E+00 0.  1.
       -3    1    3    3    0  502  0.87728131431E+02  0.20566244474E+03  0.42827362060E+03  0.48312686794E+03  0.10100000352E+00 0. -1.
</event>
<event>
 5   0  0.2147844E-05  0.1600029E+04  0.7818609E-02  0.8820530E-01
        2   -1    0    0  501    0  0.00000000000E+00  0.00000000000E+00  0.16066969520E+04  0.16066969520E+04  0.25500000920E-02 0.  1.
       -2   -1    0    0    0  501  0.00000000000E+00  0.00000000000E+00 -0.39834709957E+03  0.39834709958E+03  0.25500000920E-02 0. -1.
    10030    2    1    2    0    0  0.00000000000E+00  0.00000000000E+00  0.12083498525E+04  0.20050440516E+04  0.16000288382E+04 0.  0.
        2    1    3    3  502    0  0.18865553995E+03 -0.72663729128E+03  0.25773400193E+03  0.79373766547E+03  0.25500000920E-02 0. -1.
       -2    1    3    3    0  502 -0.18865553995E+03  0.72663729128E+03  0.95061585053E+03  0.12113063861E+04  0.25500000920E-02 0.  1.
</event>
<event>
 5   0  0.1990948E-05  0.1599954E+04  0.7818609E-02  0.8820576E-01
       -2   -1    0    0    0  501  0.00000000000E+00  0.00000000000E+00  0.50768381324E+03  0.50768381325E+03  0.25500000920E-02 0. -1.
        2   -1    0    0  501    0  0.00000000000E+00  0.00000000000E+00 -0.12605541628E+04  0.12605541628E+04  0.25500000920E-02 0.  1.
    10030    2    1    2    0    0  0.00000000000E+00  0.00000000000E+00 -0.75287034957E+03  0.17682379761E+04  0.15999536796E+04 0.  0.
        4    1    3    3  502    0  0.63936134915E+03  0.35825948554E+03 -0.73083225369E+03  0.10350121689E+04  0.12699999809E+01 0.  1.
       -4    1    3    3    0  502 -0.63936134915E+03 -0.35825948554E+03 -0.22038095881E+02  0.73322580720E+03  0.12699999809E+01 0. -1.
</event>
<event>
 5   0  0.2147844E-05  0.1601010E+04  0.7818609E-02  0.8819928E-01
       -2   -1    0    0    0  501  0.00000000000E+00  0.00000000000E+00  0.78264022117E+03  0.78264022118E+03  0.25500000920E-02 0. -1.
        2   -1    0    0  501    0  0.00000000000E+00  0.00000000000E+00 -0.81877784616E+03  0.81877784616E+03  0.25500000920E-02 0.  1.
    10030    2    1    2    0    0  0.00000000000E+00  0.00000000000E+00 -0.36137624986E+02  0.16014180673E+04  0.16010102743E+04 0.  0.
        2    1    3    3  502    0 -0.59191653062E+03 -0.26386051804E+03 -0.48810437205E+03  0.81131586341E+03  0.25500000920E-02 0.  1.
       -2    1    3    3    0  502  0.59191653062E+03  0.26386051804E+03  0.45196674706E+03  0.79010220393E+03  0.25500000920E-02 0. -1.
</event>
<event>
 5   0  0.1090674E-05  0.1600325E+04  0.7818609E-02  0.8820349E-01
       -1   -1    0    0    0  501  0.00000000000E+00  0.00000000000E+00  0.51284771123E+03  0.51284771125E+03  0.50400001928E-02 0. -1.
        1   -1    0    0  501    0  0.00000000000E+00  0.00000000000E+00 -0.12484403329E+04  0.12484403329E+04  0.50400001928E-02 0.  1.
    10030    2    1    2    0    0  0.00000000000E+00  0.00000000000E+00 -0.73559262162E+03  0.17612880441E+04  0.16003246762E+04 0.  0.
        4    1    3    3  502    0  0.27943108464E+03 -0.37254467864E+03 -0.10839248574E+04  0.11797313160E+04  0.12699999809E+01 0.  1.
       -4    1    3    3    0  502 -0.27943108464E+03  0.37254467864E+03  0.34833223575E+03  0.58155672811E+03  0.12699999809E+01 0. -1.
</event>
<event>
 5   0  0.1994525E-05  0.1600483E+04  0.7818609E-02  0.8820251E-01
        2   -1    0    0  501    0  0.00000000000E+00  0.00000000000E+00  0.17920066572E+04  0.17920066572E+04  0.25500000920E-02 0.  1.
       -2   -1    0    0    0  501  0.00000000000E+00  0.00000000000E+00 -0.35735731405E+03  0.35735731406E+03  0.25500000920E-02 0. -1.
    10030    2    1    2    0    0  0.00000000000E+00  0.00000000000E+00  0.14346493431E+04  0.21493639712E+04  0.16004832842E+04 0.  0.
        5    1    3    3  502    0 -0.39811596452E+03  0.47034580916E+03  0.14029422337E+04  0.15323154057E+04  0.46999998093E+01 0.  1.
       -5    1    3    3    0  502  0.39811596452E+03 -0.47034580916E+03  0.31707109371E+02  0.61704856550E+03  0.46999998093E+01 0. -1.
</event>
<event>
 5   0  0.1126485E-05  0.1599621E+04  0.7818609E-02  0.8820781E-01
       -1   -1    0    0    0  501  0.00000000000E+00  0.00000000000E+00  0.74142449178E+03  0.74142449179E+03  0.50400001928E-02 0. -1.
        1   -1    0    0  501    0  0.00000000000E+00  0.00000000000E+00 -0.86279461717E+03  0.86279461719E+03  0.50400001928E-02 0.  1.
    10030    2    1    2    0    0  0.00000000000E+00  0.00000000000E+00 -0.12137012540E+03  0.16042191090E+04  0.15996212809E+04 0.  0.
        2    1    3    3  502    0 -0.34710496241E+03  0.63877255352E+03 -0.39508738221E+03  0.82740937247E+03  0.25500000920E-02 0.  1.
       -2    1    3    3    0  502  0.34710496241E+03 -0.63877255352E+03  0.27371725681E+03  0.77680973651E+03  0.25500000920E-02 0. -1.
</event>
<event>
 5   0  0.1060251E-05  0.1600209E+04  0.7818609E-02  0.8820420E-01
        1   -1    0    0  501    0  0.00000000000E+00  0.00000000000E+00  0.14197726512E+04  0.14197726513E+04  0.50400001928E-02 0.  1.
       -1   -1    0    0    0  501  0.00000000000E+00  0.00000000000E+00 -0.45089395308E+03  0.45089395311E+03  0.50400001928E-02 0. -1.
    10030    2    1    2    0    0  0.00000000000E+00  0.00000000000E+00  0.96887869816E+03  0.18706666044E+04  0.16002086154E+04 0.  0.
        1    1    3    3  502    0  0.62557149803E+03  0.26055421086E+03  0.98170164455E+03  0.11928815175E+04  0.50400001928E-02 0.  1.
       -1    1    3    3    0  502 -0.62557149803E+03 -0.26055421086E+03 -0.12822946391E+02  0.67778508683E+03  0.50400001928E-02 0. -1.
</event>
<event>
 5   0  0.1057506E-05  0.1599665E+04  0.7818609E-02  0.8820754E-01
       -1   -1    0    0    0  501  0.00000000000E+00  0.00000000000E+00  0.83693261597E+03  0.83693261598E+03  0.50400001928E-02 0.  1.
        1   -1    0    0  501    0  0.00000000000E+00  0.00000000000E+00 -0.76437716428E+03  0.76437716429E+03  0.50400001928E-02 0. -1.
    10030    2    1    2    0    0  0.00000000000E+00  0.00000000000E+00  0.72555451690E+02  0.16013097803E+04  0.15996651896E+04 0.  0.
        5    1    3    3  502    0  0.36228461533E+03 -0.43830410333E+03 -0.52675003760E+03  0.77514406507E+03  0.46999998093E+01 0. -1.
       -5    1    3    3    0  502 -0.36228461533E+03  0.43830410333E+03  0.59930548929E+03  0.82616571521E+03  0.46999998093E+01 0.  1.
</event>
<event>
 5   0  0.1090674E-05  0.1599771E+04  0.7818609E-02  0.8820689E-01
        1   -1    0    0  501    0  0.00000000000E+00  0.00000000000E+00  0.88062949766E+03  0.88062949768E+03  0.50400001928E-02 0. -1.
       -1   -1    0    0    0  501  0.00000000000E+00  0.00000000000E+00 -0.72654487839E+03  0.72654487841E+03  0.50400001928E-02 0.  1.
    10030    2    1    2    0    0  0.00000000000E+00  0.00000000000E+00  0.15408461927E+03  0.16071743761E+04  0.15997710478E+04 0.  0.
        4    1    3    3  502    0  0.18811435371E+03  0.29853597984E+03  0.79821144777E+03  0.87272783248E+03  0.12699999809E+01 0. -1.
       -4    1    3    3    0  502 -0.18811435371E+03 -0.29853597984E+03 -0.64412682850E+03  0.73444654361E+03  0.12699999809E+01 0.  1.
</event>
<event>
 5   0  0.2046108E-05  0.1594378E+04  0.7818609E-02  0.8824009E-01
       -2   -1    0    0    0  501  0.00000000000E+00  0.00000000000E+00  0.51645425554E+03  0.51645425554E+03  0.25500000920E-02 0. -1.
        2   -1    0    0  501    0  0.00000000000E+00  0.00000000000E+00 -0.12305256775E+04  0.12305256775E+04  0.25500000920E-02 0.  1.
    10030    2    1    2    0    0  0.00000000000E+00  0.00000000000E+00 -0.71407142196E+03  0.17469799330E+04  0.15943779009E+04 0.  0.
        1    1    3    3  502    0  0.12780545997E+03 -0.71788064862E+03 -0.39792259821E+01  0.72917946729E+03  0.50400001928E-02 0. -1.
       -1    1    3    3    0  502 -0.12780545997E+03  0.71788064862E+03 -0.71009219598E+03  0.10178004657E+04  0.50400001928E-02 0.  1.
</event>
<event>
 5   0  0.1060251E-05  0.1599643E+04  0.7818609E-02  0.8820767E-01
        1   -1    0    0  501    0  0.00000000000E+00  0.00000000000E+00  0.88746292706E+03  0.88746292708E+03  0.50400001928E-02 0.  1.
       -1   -1    0    0    0  501  0.00000000000E+00  0.00000000000E+00 -0.72083537029E+03  0.72083537030E+03  0.50400001928E-02 0. -1.
    10030    2    1    2    0    0  0.00000000000E+00  0.00000000000E+00  0.16662755677E+03  0.16082982974E+04  0.15996432948E+04 0.  0.
        1    1    3    3  502    0  0.53707725421E+03  0.57771935144E+03 -0.49701097966E+02  0.79036815800E+03  0.50400001928E-02 0. -1.
       -1    1    3    3    0  502 -0.53707725421E+03 -0.57771935144E+03  0.21632865474E+03  0.81793013938E+03  0.50400001928E-02 0.  1.
</event>
<event>
 5   0  0.2125803E-05  0.1599934E+04  0.7818609E-02  0.8820588E-01
       -2   -1    0    0    0  501  0.00000000000E+00  0.00000000000E+00  0.38073427854E+03  0.38073427855E+03  0.25500000920E-02 0.  1.
        2   -1    0    0  501    0  0.00000000000E+00  0.00000000000E+00 -0.16808244856E+04  0.16808244856E+04  0.25500000920E-02 0. -1.
    10030    2    1    2    0    0  0.00000000000E+00  0.00000000000E+00 -0.13000902070E+04  0.20615587641E+04  0.15999343710E+04 0.  0.
        3    1    3    3  502    0 -0.23782537329E+03  0.74204294085E+03 -0.88326086432E+03  0.11778533011E+04  0.10100000352E+00 0. -1.
       -3    1    3    3    0  502  0.23782537329E+03 -0.74204294085E+03 -0.41682934269E+03  0.88370546302E+03  0.10100000352E+00 0.  1.
</event>
<event>
 5   0  0.2046108E-05  0.1592201E+04  0.7818609E-02  0.8825354E-01
        2   -1    0    0  501    0  0.00000000000E+00  0.00000000000E+00  0.10786470960E+04  0.10786470960E+04  0.25500000920E-02 0.  1.
       -2   -1    0    0    0  501  0.00000000000E+00  0.00000000000E+00 -0.58756559771E+03  0.58756559771E+03  0.25500000920E-02 0. -1.
    10030    2    1    2    0    0  0.00000000000E+00  0.00000000000E+00  0.49108149827E+03  0.16662126937E+04  0.15922008990E+04 0.  0.
        1    1    3    3  502    0  0.45599895358E+03 -0.24003117647E+03 -0.38948267954E+03  0.64594641344E+03  0.50400001928E-02 0. -1.
       -1    1    3    3    0  502 -0.45599895358E+03  0.24003117647E+03  0.88056417781E+03  0.10202662802E+04  0.50400001928E-02 0.  1.
</event>
<event>
 5   0  0.2046108E-05  0.1599848E+04  0.7818609E-02  0.8820641E-01
        2   -1    0    0  501    0  0.00000000000E+00  0.00000000000E+00  0.11250251534E+04  0.11250251534E+04  0.25500000920E-02 0.  1.
       -2   -1    0    0    0  501  0.00000000000E+00  0.00000000000E+00 -0.56876832041E+03  0.56876832041E+03  0.25500000920E-02 0. -1.
    10030    2    1    2    0    0  0.00000000000E+00  0.00000000000E+00  0.55625683303E+03  0.16937934739E+04  0.15998483265E+04 0.  0.
        1    1    3    3  502    0 -0.48535514928E+03 -0.48830122973E+02 -0.39307471359E+03  0.62646766264E+03  0.50400001928E-02 0. -1.
       -1    1    3    3    0  502  0.48535514928E+03  0.48830122973E+02  0.94933154662E+03  0.10673258112E+04  0.50400001928E-02 0.  1.
</event>
<event>
 5   0  0.1994525E-05  0.1601268E+04  0.7818609E-02  0.8819769E-01
        2   -1    0    0  501    0  0.00000000000E+00  0.00000000000E+00  0.28339816158E+04  0.28339816158E+04  0.25500000920E-02 0.  1.
       -2   -1    0    0    0  501  0.00000000000E+00  0.00000000000E+00 -0.22618882906E+03  0.22618882907E+03  0.25500000920E-02 0. -1.
    10030    2    1    2    0    0  0.00000000000E+00  0.00000000000E+00  0.26077927867E+04  0.30601704448E+04  0.16012682265E+04 0.  0.
        5    1    3    3  502    0 -0.26027491302E+03 -0.47536723325E+03  0.17768782860E+03  0.57036136899E+03  0.46999998093E+01 0. -1.
       -5    1    3    3    0  502  0.26027491302E+03  0.47536723325E+03  0.24301049581E+04  0.24898090759E+04  0.46999998093E+01 0.  1.
</event>
<event>
 5   0  0.1057506E-05  0.1600445E+04  0.7818609E-02  0.8820274E-01
       -1   -1    0    0    0  501  0.00000000000E+00  0.00000000000E+00  0.58987741772E+03  0.58987741774E+03  0.50400001928E-02 0.  1.
        1   -1    0    0  501    0  0.00000000000E+00  0.00000000000E+00 -0.10855753718E+04  0.10855753718E+04  0.50400001928E-02 0. -1.
    10030    2    1    2    0    0  0.00000000000E+00  0.00000000000E+00 -0.49569795405E+03  0.16754527895E+04  0.16004454343E+04 0.  0.
        5    1    3    3  502    0 -0.25703728849E+03  0.37711275033E+01  0.54546033150E+03  0.60301861689E+03  0.46999998093E+01 0.  1.
       -5    1    3    3    0  502  0.25703728849E+03 -0.37711275033E+01 -0.10411582856E+04  0.10724341726E+04  0.46999998093E+01 0. -1.
</event>
<event>
 5   0  0.2125803E-05  0.1599606E+04  0.7818609E-02  0.8820790E-01
       -2   -1    0    0    0  501  0.00000000000E+00  0.00000000000E+00  0.36710109159E+03  0.36710109160E+03  0.25500000920E-02 0.  1.
        2   -1    0    0  501    0  0.00000000000E+00  0.00000000000E+00 -0.17425309047E+04  0.17425309047E+04  0.25500000920E-02 0. -1.
    10030    2    1    2    0    0  0.00000000000E+00  0.00000000000E+00 -0.13754298131E+04  0.21096319963E+04  0.15996061981E+04 0.  0.
        3    1    3    3  502    0 -0.60304093308E+03  0.38459349954E+03 -0.21565979906E+03  0.74704731175E+03  0.10100000352E+00 0.  1.
       -3    1    3    3    0  502  0.60304093308E+03 -0.38459349954E+03 -0.11597700140E+04  0.13625846845E+04  0.10100000352E+00 0. -1.
</event>
<event>
 5   0  0.1126485E-05  0.1599583E+04  0.7818609E-02  0.8820804E-01
        1   -1    0    0  501    0  0.00000000000E+00  0.00000000000E+00  0.55699393119E+03  0.55699393122E+03  0.50400001928E-02 0.  1.
       -1   -1    0    0    0  501  0.00000000000E+00  0.00000000000E+00 -0.11484263999E+04  0.11484263999E+04  0.50400001928E-02 0. -1.
    10030    2    1    2    0    0  0.00000000000E+00  0.00000000000E+00 -0.59143246872E+03  0.17054203311E+04  0.15995831147E+04 0.  0.
        2    1    3    3  502    0  0.77550495683E+03 -0.18823740429E+02 -0.50328818126E+03  0.92469522799E+03  0.25500000920E-02 0. -1.
       -2    1    3    3    0  502 -0.77550495683E+03  0.18823740429E+02 -0.88144287457E+02  0.78072510315E+03  0.25500000920E-02 0.  1.
</event>
<event>
 5   0  0.1060251E-05  0.1599055E+04  0.7818609E-02  0.8821129E-01
        1   -1    0    0  501    0  0.00000000000E+00  0.00000000000E+00  0.10717516706E+04  0.10717516706E+04  0.50400001928E-02 0. -1.
       -1   -1    0    0    0  501  0.00000000000E+00  0.00000000000E+00 -0.59644813603E+03  0.59644813605E+03  0.50400001928E-02 0.  1.
    10030    2    1    2    0    0  0.00000000000E+00  0.00000000000E+00  0.47530353453E+03  0.16681998066E+04  0.15990550788E+04 0.  0.
        1    1    3    3  502    0  0.55081136536E+03  0.43116695810E+03  0.64162477413E+03  0.94919990348E+03  0.50400001928E-02 0.  1.
       -1    1    3    3    0  502 -0.55081136536E+03 -0.43116695810E+03 -0.16632123960E+03  0.71899990315E+03  0.50400001928E-02 0. -1.
</event>
<event>
 5   0  0.1081831E-05  0.1600288E+04  0.7818609E-02  0.8820371E-01
        1   -1    0    0  501    0  0.00000000000E+00  0.00000000000E+00  0.74992945055E+03  0.74992945057E+03  0.50400001928E-02 0.  1.
       -1   -1    0    0    0  501  0.00000000000E+00  0.00000000000E+00 -0.85372113031E+03  0.85372113033E+03  0.50400001928E-02 0. -1.
    10030    2    1    2    0    0  0.00000000000E+00  0.00000000000E+00 -0.10379167976E+03  0.16036505809E+04  0.16002882468E+04 0.  0.
        3    1    3    3  502    0 -0.78443254729E+02 -0.79613734999E+03 -0.36288015297E+02  0.80081511881E+03  0.10100000352E+00 0. -1.
       -3    1    3    3    0  502  0.78443254729E+02  0.79613734999E+03 -0.67503664464E+02  0.80283546209E+03  0.10100000352E+00 0.  1.
</event>
<event>
 5   0  0.1081831E-05  0.1599024E+04  0.7818609E-02  0.8821148E-01
        1   -1    0    0  501    0  0.00000000000E+00  0.00000000000E+00  0.11778793957E+04  0.11778793957E+04  0.50400001928E-02 0. -1.
       -1   -1    0    0    0  501  0.00000000000E+00  0.00000000000E+00 -0.54268688876E+03  0.54268688878E+03  0.50400001928E-02 0.  1.
    10030    2    1    2    0    0  0.00000000000E+00  0.00000000000E+00  0.63519250695E+03  0.17205662845E+04  0.15990243333E+04 0.  0.
        3    1    3    3  502    0 -0.69414315042E+03  0.38208241590E+03  0.43247265576E+03  0.90269280157E+03  0.10100000352E+00 0. -1.
       -3    1    3    3    0  502  0.69414315042E+03 -0.38208241590E+03  0.20271985119E+03  0.81787348294E+03  0.10100000352E+00 0.  1.
</event>
<event>
 5   0  0.2147844E-05  0.1601167E+04  0.7818609E-02  0.8819831E-01
        2   -1    0    0  501    0  0.00000000000E+00  0.00000000000E+00  0.13475191235E+04  0.13475191235E+04  0.25500000920E-02 0. -1.
       -2   -1    0    0    0  501  0.00000000000E+00  0.00000000000E+00 -0.47563994956E+03  0.47563994956E+03  0.25500000920E-02 0.  1.
    10030    2    1    2    0    0  0.00000000000E+00  0.00000000000E+00  0.87187917395E+03  0.18231590731E+04  0.16011669843E+04 0.  0.
        2    1    3    3  502    0  0.57498512006E+02  0.68954815708E+03 -0.22569560209E+02  0.69230926967E+03  0.25500000920E-02 0.  1.
       -2    1    3    3    0  502 -0.57498512006E+02 -0.68954815708E+03  0.89444873416E+03  0.11308498034E+04  0.25500000920E-02 0. -1.
</event>
<event>
 5   0  0.1057506E-05  0.1599459E+04  0.7818609E-02  0.8820881E-01
       -1   -1    0    0    0  501  0.00000000000E+00  0.00000000000E+00  0.71606809904E+03  0.71606809906E+03  0.50400001928E-02 0. -1.
        1   -1    0    0  501    0  0.00000000000E+00  0.00000000000E+00 -0.89316502633E+03  0.89316502634E+03  0.50400001928E-02 0.  1.
    10030    2    1    2    0    0  0.00000000000E+00  0.00000000000E+00 -0.17709692729E+03  0.16092331254E+04  0.15994586366E+04 0.  0.
        5    1    3    3  502    0 -0.53055149078E+03 -0.25730199400E+03  0.45498968944E+03  0.74479991137E+03  0.46999998093E+01 0.  1.
       -5    1    3    3    0  502  0.53055149078E+03  0.25730199400E+03 -0.63208661673E+03  0.86443321403E+03  0.46999998093E+01 0. -1.
</event>
<event>
 5   0  0.1994525E-05  0.1602109E+04  0.7818609E-02  0.8819253E-01
        2   -1    0    0  501    0  0.00000000000E+00  0.00000000000E+00  0.10912943346E+04  0.10912943346E+04  0.25500000920E-02 0. -1.
       -2   -1    0    0    0  501  0.00000000000E+00  0.00000000000E+00 -0.58800697401E+03  0.58800697401E+03  0.25500000920E-02 0.  1.
    10030    2    1    2    0    0  0.00000000000E+00  0.00000000000E+00  0.50328736058E+03  0.16793013086E+04  0.16021094587E+04 0.  0.
        5    1    3    3  502    0 -0.37908520711E+03 -0.50359755198E+03 -0.26649147342E+03  0.68436531474E+03  0.46999998093E+01 0.  1.
       -5    1    3    3    0  502  0.37908520711E+03  0.50359755198E+03  0.76977883400E+03  0.99493599386E+03  0.46999998093E+01 0. -1.
</event>
<event>
 5   0  0.1126485E-05  0.1600106E+04  0.7818609E-02  0.8820483E-01
       -1   -1    0    0    0  501  0.00000000000E+00  0.00000000000E+00  0.24277338888E+03  0.24277338894E+03  0.50400001928E-02 0. -1.
        1   -1    0    0  501    0  0.00000000000E+00  0.00000000000E+00 -0.26365512759E+04  0.26365512759E+04  0.50400001928E-02 0.  1.
    10030    2    1    2    0    0  0.00000000000E+00  0.00000000000E+00 -0.23937778870E+04  0.28793246648E+04  0.16001056069E+04 0.  0.
        2    1    3    3  502    0  0.61866579697E+02 -0.35352328245E+03  0.89791417329E+02  0.36995767805E+03  0.25500000920E-02 0. -1.
       -2    1    3    3    0  502 -0.61866579697E+02  0.35352328245E+03 -0.24835693043E+04  0.25093669868E+04  0.25500000920E-02 0.  1.
</event>
<event>
 5   0  0.7597000E-06  0.1600109E+04  0.7818609E-02  0.8820481E-01
        4   -1    0    0  501    0  0.00000000000E+00  0.00000000000E+00  0.52507029521E+03  0.52507183109E+03  0.12699999809E+01 0.  1.
       -4   -1    0    0    0  501  0.00000000000E+00  0.00000000000E+00 -0.12190468408E+04  0.12190475023E+04  0.12699999809E+01 0. -1.
    10030    2    1    2    0    0  0.00000000000E+00  0.00000000000E+00 -0.69397654558E+03  0.17441193334E+04  0.16001089974E+04 0.  0.
        3    1    3    3  502    0  0.45063127408E+03 -0.10075357440E+03  0.36516439323E+03  0.58869760678E+03  0.10100000352E+00 0.  1.
       -3    1    3    3    0  502 -0.45063127408E+03  0.10075357440E+03 -0.10591409388E+04  0.11554217266E+04  0.10100000352E+00 0. -1.
</event>
<event>
 5   0  0.1060251E-05  0.1600153E+04  0.7818609E-02  0.8820454E-01
       -1   -1    0    0    0  501  0.00000000000E+00  0.00000000000E+00  0.13607145024E+04  0.13607145024E+04  0.50400001928E-02 0.  1.
        1   -1    0    0  501    0  0.00000000000E+00  0.00000000000E+00 -0.47043129073E+03  0.47043129075E+03  0.50400001928E-02 0. -1.
    10030    2    1    2    0    0  0.00000000000E+00  0.00000000000E+00  0.89028321169E+03  0.18311457932E+04  0.16001533423E+04 0.  0.
        1    1    3    3  502    0 -0.37929802535E+03  0.65846234751E+03  0.15863390965E+03  0.77627596409E+03  0.50400001928E-02 0.  1.
       -1    1    3    3    0  502  0.37929802535E+03 -0.65846234751E+03  0.73164930203E+03  0.10548698291E+04  0.50400001928E-02 0. -1.
</event>
<event>
 5   0  0.1126485E-05  0.1600192E+04  0.7818609E-02  0.8820430E-01
       -1   -1    0    0    0  501  0.00000000000E+00  0.00000000000E+00  0.38605354651E+03  0.38605354654E+03  0.50400001928E-02 0.  1.
        1   -1    0    0  501    0  0.00000000000E+00  0.00000000000E+00 -0.16581991996E+04  0.16581991996E+04  0.50400001928E-02 0. -1.
    10030    2    1    2    0    0  0.00000000000E+00  0.00000000000E+00 -0.12721456531E+04  0.20442527461E+04  0.16001920908E+04 0.  0.
        2    1    3    3  502    0  0.21482310245E+03 -0.48731296004E+03  0.12672771799E+03  0.54743291907E+03  0.25500000920E-02 0.  1.
       -2    1    3    3    0  502 -0.21482310245E+03  0.48731296004E+03 -0.13988733711E+04  0.14968198271E+04  0.25500000920E-02 0. -1.
</event>
<event>
 5   0  0.2046108E-05  0.1600191E+04  0.7818609E-02  0.8820431E-01
        2   -1    0    0  501    0  0.00000000000E+00  0.00000000000E+00  0.77474502057E+03  0.77474502058E+03  0.25500000920E-02 0. -1.
       -2   -1    0    0    0  501  0.00000000000E+00  0.00000000000E+00 -0.82627527591E+03  0.82627527591E+03  0.25500000920E-02 0.  1.
    10030    2    1    2    0    0  0.00000000000E+00  0.00000000000E+00 -0.51530255330E+02  0.16010202965E+04  0.16001908082E+04 0.  0.
        1    1    3    3  502    0  0.54211012495E+02  0.76718745348E+03  0.19488769928E+03  0.79340824171E+03  0.50400001928E-02 0. -1.
       -1    1    3    3    0  502 -0.54211012495E+02 -0.76718745348E+03 -0.24641795461E+03  0.80761205478E+03  0.50400001928E-02 0.  1.
</event>
<event>
 5   0  0.2046108E-05  0.1600141E+04  0.7818609E-02  0.8820462E-01
       -2   -1    0    0    0  501  0.00000000000E+00  0.00000000000E+00  0.57352901287E+03  0.57352901288E+03  0.25500000920E-02 0.  1.
        2   -1    0    0  501    0  0.00000000000E+00  0.00000000000E+00 -0.11160942935E+04  0.11160942936E+04  0.25500000920E-02 0. -1.
    10030    2    1    2    0    0  0.00000000000E+00  0.00000000000E+00 -0.54256528067E+03  0.16896233064E+04  0.16001405669E+04 0.  0.
        1    1    3    3  502    0 -0.89648691046E+02 -0.79080049718E+03 -0.35777897119E+03  0.87258701939E+03  0.50400001928E-02 0. -1.
       -1    1    3    3    0  502  0.89648691046E+02  0.79080049718E+03 -0.18478630948E+03  0.81703628704E+03  0.50400001928E-02 0.  1.
</event>
<event>
 5   0  0.7597000E-06  0.1600368E+04  0.7818609E-02  0.8820322E-01
        3   -1    0    0  501    0  0.00000000000E+00  0.00000000000E+00  0.66145673473E+03  0.66145674244E+03  0.10100000352E+00 0. -1.
       -3   -1    0    0    0  501  0.00000000000E+00  0.00000000000E+00 -0.96800680954E+03  0.96800681481E+03  0.10100000352E+00 0.  1.
    10030    2    1    2    0    0  0.00000000000E+00  0.00000000000E+00 -0.30655007481E+03  0.16294635572E+04  0.16003682501E+04 0.  0.
        1    1    3    3  502    0 -0.30541698459E+03  0.29468779634E+03  0.53741924229E+03  0.68479184706E+03  0.50400001928E-02 0. -1.
       -1    1    3    3    0  502  0.30541698459E+03 -0.29468779634E+03 -0.84396931710E+03  0.94467171019E+03  0.50400001928E-02 0.  1.
</event>
<event>
 5   0  0.1090674E-05  0.1600263E+04  0.7818609E-02  0.8820387E-01
       -1   -1    0    0    0  501  0.00000000000E+00  0.00000000000E+00  0.67205501035E+03  0.67205501037E+03  0.50400001928E-02 0.  1.
        1   -1    0    0  501    0  0.00000000000E+00  0.00000000000E+00 -0.95261555837E+03  0.95261555838E+03  0.50400001928E-02 0. -1.
    10030    2    1    2    0    0  0.00000000000E+00  0.00000000000E+00 -0.28056054802E+03  0.16246705687E+04  0.16002625522E+04 0.  0.
        4    1    3    3  502    0  0.79226339095E+03 -0.10839527794E+03 -0.16859160815E+03  0.81722430223E+03  0.12699999809E+01 0.  1.
       -4    1    3    3    0  502 -0.79226339095E+03  0.10839527794E+03 -0.11196893986E+03  0.80744626652E+03  0.12699999809E+01 0. -1.
</event>
<event>
 5   0  0.1994525E-05  0.1599692E+04  0.7818609E-02  0.8820737E-01
        2   -1    0    0  501    0  0.00000000000E+00  0.00000000000E+00  0.20729796587E+04  0.20729796587E+04  0.25500000920E-02 0. -1.
       -2   -1    0    0    0  501  0.00000000000E+00  0.00000000000E+00 -0.30861562335E+03  0.30861562336E+03  0.25500000920E-02 0.  1.
    10030    2    1    2    0    0  0.00000000000E+00  0.00000000000E+00  0.17643640353E+04  0.23815952821E+04  0.15996923574E+04 0.  0.
        5    1    3    3  502    0  0.19141018121E+03  0.70871112208E+03  0.40945520196E+03  0.84058608390E+03  0.46999998093E+01 0. -1.
       -5    1    3    3    0  502 -0.19141018121E+03 -0.70871112208E+03  0.13549088334E+04  0.15410091982E+04  0.46999998093E+01 0.  1.
</event>
<event>
 5   0  0.1057506E-05  0.1599514E+04  0.7818609E-02  0.8820847E-01
       -1   -1    0    0    0  501  0.00000000000E+00  0.00000000000E+00  0.38207698299E+03  0.38207698302E+03  0.50400001928E-02 0.  1.
        1   -1    0    0  501    0  0.00000000000E+00  0.00000000000E+00 -0.16740370153E+04  0.16740370153E+04  0.50400001928E-02 0. -1.
    10030    2    1    2    0    0  0.00000000000E+00  0.00000000000E+00 -0.12919600323E+04  0.20561139983E+04  0.15995136914E+04 0.  0.
        5    1    3    3  502    0 -0.45740036908E+03 -0.61366591208E+03 -0.94410736425E+03  0.12153854345E+04  0.46999998093E+01 0. -1.
       -5    1    3    3    0  502  0.45740036908E+03  0.61366591208E+03 -0.34785266807E+03  0.84072856379E+03  0.46999998093E+01 0.  1.
</event>
<event>
 5   0  0.1126485E-05  0.1599572E+04  0.7818609E-02  0.8820811E-01
       -1   -1    0    0    0  501  0.00000000000E+00  0.00000000000E+00  0.65347387814E+03  0.65347387816E+03  0.50400001928E-02 0.  1.
        1   -1    0    0  501    0  0.00000000000E+00  0.00000000000E+00 -0.97885763373E+03  0.97885763374E+03  0.50400001928E-02 0. -1.
    10030    2    1    2    0    0  0.00000000000E+00  0.00000000000E+00 -0.32538375559E+03  0.16323315119E+04  0.15995723104E+04 0.  0.
        2    1    3    3  502    0 -0.74064433946E+03  0.92674041372E+02  0.13044599723E+03  0.75773258721E+03  0.25500000920E-02 0.  1.
       -2    1    3    3    0  502  0.74064433946E+03 -0.92674041372E+02 -0.45582975282E+03  0.87459892470E+03  0.25500000920E-02 0. -1.
</event>
<event>
 5   0  0.1994525E-05  0.1600368E+04  0.7818609E-02  0.8820322E-01
        2   -1    0    0  501    0  0.00000000000E+00  0.00000000000E+00  0.26124064472E+04  0.26124064472E+04  0.25500000920E-02 0. -1.
       -2   -1    0    0    0  501  0.00000000000E+00  0.00000000000E+00 -0.24509756736E+03  0.24509756738E+03  0.25500000920E-02 0.  1.
    10030    2    1    2    0    0  0.00000000000E+00  0.00000000000E+00  0.23673088799E+04  0.28575040146E+04  0.16003680392E+04 0.  0.
        5    1    3    3  502    0 -0.46608626835E+03 -0.64737964426E+03  0.10716409442E+04  0.13359540473E+04  0.46999998093E+01 0. -1.
       -5    1    3    3    0  502  0.46608626835E+03  0.64737964426E+03  0.12956679357E+04  0.15215499673E+04  0.46999998093E+01 0.  1.
</event>
<event>
 5   0  0.2046108E-05  0.1599527E+04  0.7818609E-02  0.8820839E-01
        2   -1    0    0  501    0  0.00000000000E+00  0.00000000000E+00  0.96097513001E+03  0.96097513001E+03  0.25500000920E-02 0. -1.
       -2   -1    0    0    0  501  0.00000000000E+00  0.00000000000E+00 -0.66559644883E+03  0.66559644883E+03  0.25500000920E-02 0.  1.
    10030    2    1    2    0    0  0.00000000000E+00  0.00000000000E+00  0.29537868118E+03  0.16265715788E+04  0.15995269725E+04 0.  0.
        1    1    3    3  502    0  0.49347989059E+03 -0.32542281038E+03  0.69549906402E+03  0.91276577281E+03  0.50400001928E-02 0. -1.
       -1    1    3    3    0  502 -0.49347989059E+03  0.32542281038E+03 -0.40012038284E+03  0.71380580603E+03  0.50400001928E-02 0.  1.
</event>
<event>
 5   0  0.1126485E-05  0.1599848E+04  0.7818609E-02  0.8820642E-01
        1   -1    0    0  501    0  0.00000000000E+00  0.00000000000E+00  0.10110944653E+04  0.10110944653E+04  0.50400001928E-02 0.  1.
       -1   -1    0    0    0  501  0.00000000000E+00  0.00000000000E+00 -0.63285704315E+03  0.63285704317E+03  0.50400001928E-02 0. -1.
    10030    2    1    2    0    0  0.00000000000E+00  0.00000000000E+00  0.37823742216E+03  0.16439515085E+04  0.15998478099E+04 0.  0.
        2    1    3    3  502    0  0.21736962831E+02 -0.67057635772E+03 -0.25847285109E+03  0.71899468833E+03  0.25500000920E-02 0. -1.
       -2    1    3    3    0  502 -0.21736962831E+02  0.67057635772E+03  0.63671027325E+03  0.92495682016E+03  0.25500000920E-02 0.  1.
</event>
<event>
 5   0  0.1057506E-05  0.1602107E+04  0.7818609E-02  0.8819255E-01
       -1   -1    0    0    0  501  0.00000000000E+00  0.00000000000E+00  0.83663712176E+03  0.83663712178E+03  0.50400001928E-02 0.  1.
        1   -1    0    0  501    0  0.00000000000E+00  0.00000000000E+00 -0.76698332235E+03  0.76698332236E+03  0.50400001928E-02 0. -1.
    10030    2    1    2    0    0  0.00000000000E+00  0.00000000000E+00  0.69653799414E+02  0.16036204441E+04  0.16021070117E+04 0.  0.
        5    1    3    3  502    0  0.22534164858E+03 -0.15885281699E+03  0.78763547092E+03  0.83450871841E+03  0.46999998093E+01 0.  1.
       -5    1    3    3    0  502 -0.22534164858E+03  0.15885281699E+03 -0.71798167150E+03  0.76911172573E+03  0.46999998093E+01 0. -1.
</event>
<event>
 5   0  0.1081831E-05  0.1600130E+04  0.7818609E-02  0.8820468E-01
        1   -1    0    0  501    0  0.00000000000E+00  0.00000000000E+00  0.80420997044E+03  0.80420997045E+03  0.50400001928E-02 0. -1.
       -1   -1    0    0    0  501  0.00000000000E+00  0.00000000000E+00 -0.79594092872E+03  0.79594092873E+03  0.50400001928E-02 0.  1.
    10030    2    1    2    0    0  0.00000000000E+00  0.00000000000E+00  0.82690417206E+01  0.16001508992E+04  0.16001295332E+04 0.  0.
        3    1    3    3  502    0 -0.22325939560E+03  0.43159837052E+03 -0.63146952092E+03  0.79679086166E+03  0.10100000352E+00 0.  1.
       -3    1    3    3    0  502  0.22325939560E+03 -0.43159837052E+03  0.63973856265E+03  0.80336003753E+03  0.10100000352E+00 0. -1.
</event>
<event>
 5   0  0.1081831E-05  0.1600785E+04  0.7818609E-02  0.8820066E-01
        1   -1    0    0  501    0  0.00000000000E+00  0.00000000000E+00  0.10810976975E+04  0.10810976975E+04  0.50400001928E-02 0. -1.
       -1   -1    0    0    0  501  0.00000000000E+00  0.00000000000E+00 -0.59257220486E+03  0.59257220488E+03  0.50400001928E-02 0.  1.
    10030    2    1    2    0    0  0.00000000000E+00  0.00000000000E+00  0.48852549260E+03  0.16736699023E+04  0.16007853651E+04 0.  0.
        3    1    3    3  502    0  0.74988451162E+03 -0.86532825185E+02  0.52248727960E+03  0.91804557520E+03  0.10100000352E+00 0. -1.
       -3    1    3    3    0  502 -0.74988451162E+03  0.86532825185E+02 -0.33961787007E+02  0.75562432714E+03  0.10100000352E+00 0.  1.
</event>
<event>
 5   0  0.1057506E-05  0.1601428E+04  0.7818609E-02  0.8819671E-01
       -1   -1    0    0    0  501  0.00000000000E+00  0.00000000000E+00  0.11371907726E+04  0.11371907726E+04  0.50400001928E-02 0. -1.
        1   -1    0    0  501    0  0.00000000000E+00  0.00000000000E+00 -0.56379517728E+03  0.56379517731E+03  0.50400001928E-02 0.  1.
    10030    2    1    2    0    0  0.00000000000E+00  0.00000000000E+00  0.57339559527E+03  0.17009859499E+04  0.16014277046E+04 0.  0.
        5    1    3    3  502    0 -0.44623740041E+03 -0.42178132983E+03  0.83254622125E+03  0.10344963065E+04  0.46999998093E+01 0. -1.
       -5    1    3    3    0  502  0.44623740041E+03  0.42178132983E+03 -0.25915062598E+03  0.66648964333E+03  0.46999998093E+01 0.  1.
</event>
<event>
 5   0  0.1090674E-05  0.1598101E+04  0.7818609E-02  0.8821715E-01
        1   -1    0    0  501    0  0.00000000000E+00  0.00000000000E+00  0.84082152196E+03  0.84082152198E+03  0.50400001928E-02 0.  1.
       -1   -1    0    0    0  501  0.00000000000E+00  0.00000000000E+00 -0.75935495633E+03  0.75935495635E+03  0.50400001928E-02 0. -1.
    10030    2    1    2    0    0  0.00000000000E+00  0.00000000000E+00  0.81466565630E+02  0.16001764783E+04  0.15981013611E+04 0.  0.
        4    1    3    3  502    0  0.49686998512E+03 -0.57149222735E+03 -0.21454330279E+03  0.78709185595E+03  0.12699999809E+01 0.  1.
       -4    1    3    3    0  502 -0.49686998512E+03  0.57149222735E+03  0.29600986842E+03  0.81308462237E+03  0.12699999809E+01 0. -1.
</event>
<event>
 5   0  0.1057506E-05  0.1598318E+04  0.7818609E-02  0.8821582E-01
        1   -1    0    0  501    0  0.00000000000E+00  0.00000000000E+00  0.93186699484E+03  0.93186699486E+03  0.50400001928E-02 0.  1.
       -1   -1    0    0    0  501  0.00000000000E+00  0.00000000000E+00 -0.68534990428E+03  0.68534990430E+03  0.50400001928E-02 0. -1.
    10030    2    1    2    0    0  0.00000000000E+00  0.00000000000E+00  0.24651709056E+03  0.16172168992E+04  0.15983178104E+04 0.  0.
        5    1    3    3  502    0 -0.30108923364E+03 -0.45427395991E+03 -0.46812947484E+03  0.71846144816E+03  0.46999998093E+01 0. -1.
       -5    1    3    3    0  502  0.30108923364E+03  0.45427395991E+03  0.71464656540E+03  0.89875545100E+03  0.46999998093E+01 0.  1.
</event>
<event>
 5   0  0.1990948E-05  0.1599815E+04  0.7818609E-02  0.8820662E-01
       -2   -1    0    0    0  501  0.00000000000E+00  0.00000000000E+00  0.48935704751E+03  0.48935704751E+03  0.25500000920E-02 0.  1.
        2   -1    0    0  501    0  0.00000000000E+00  0.00000000000E+00 -0.13075358083E+04  0.13075358083E+04  0.25500000920E-02 0. -1.
    10030    2    1    2    0    0  0.00000000000E+00  0.00000000000E+00 -0.81817876082E+03  0.17968928558E+04  0.15998148176E+04 0.  0.
        4    1    3    3  502    0 -0.75676483068E+03 -0.20687672486E+03 -0.23378832686E+03  0.81862664440E+03  0.12699999809E+01 0. -1.
       -4    1    3    3    0  502  0.75676483068E+03  0.20687672486E+03 -0.58439043395E+03  0.97826621144E+03  0.12699999809E+01 0.  1.
</event>
<event>
 5   0  0.1057506E-05  0.1600620E+04  0.7818609E-02  0.8820167E-01
        1   -1    0    0  501    0  0.00000000000E+00  0.00000000000E+00  0.88076100301E+03  0.88076100303E+03  0.50400001928E-02 0.  1.
       -1   -1    0    0    0  501  0.00000000000E+00  0.00000000000E+00 -0.72720796305E+03  0.72720796306E+03  0.50400001928E-02 0. -1.
    10030    2    1    2    0    0  0.00000000000E+00  0.00000000000E+00  0.15355303996E+03  0.16079689661E+04  0.16006203984E+04 0.  0.
        5    1    3    3  502    0 -0.40882158689E+03 -0.52788835249E+03  0.52001995573E+03  0.84631202695E+03  0.46999998093E+01 0.  1.
       -5    1    3    3    0  502  0.40882158689E+03  0.52788835249E+03 -0.36646691577E+03  0.76165693914E+03  0.46999998093E+01 0. -1.
</event>
<event>
 5   0  0.2125803E-05  0.1600054E+04  0.7818609E-02  0.8820515E-01
       -2   -1    0    0    0  501  0.00000000000E+00  0.00000000000E+00  0.82760078003E+03  0.82760078003E+03  0.25500000920E-02 0. -1.
        2   -1    0    0  501    0  0.00000000000E+00  0.00000000000E+00 -0.77337180793E+03  0.77337180794E+03  0.25500000920E-02 0.  1.
    10030    2    1    2    0    0  0.00000000000E+00  0.00000000000E+00  0.54228972094E+02  0.16009725880E+04  0.16000538885E+04 0.  0.
        3    1    3    3  502    0 -0.70039478333E+03  0.26269612850E+02  0.41308220206E+03  0.81355999222E+03  0.10100000352E+00 0.  1.
       -3    1    3    3    0  502  0.70039478333E+03 -0.26269612850E+02 -0.35885322997E+03  0.78741259574E+03  0.10100000352E+00 0. -1.
</event>
<event>
 5   0  0.2125803E-05  0.1599568E+04  0.7818609E-02  0.8820813E-01
        2   -1    0    0  501    0  0.00000000000E+00  0.00000000000E+00  0.96516486513E+03  0.96516486513E+03  0.25500000920E-02 0.  1.
       -2   -1    0    0    0  501  0.00000000000E+00  0.00000000000E+00 -0.66274127203E+03  0.66274127203E+03  0.25500000920E-02 0. -1.
    10030    2    1    2    0    0  0.00000000000E+00  0.00000000000E+00  0.30242359310E+03  0.16279061372E+04  0.15995681798E+04 0.  0.
        3    1    3    3  502    0  0.56389748249E+03  0.42670366714E+03 -0.22903581771E+03  0.74331272443E+03  0.10100000352E+00 0. -1.
       -3    1    3    3    0  502 -0.56389748249E+03 -0.42670366714E+03  0.53145941081E+03  0.88459341273E+03  0.10100000352E+00 0.  1.
</event>
<event>
 5   0  0.7597000E-06  0.1599069E+04  0.7818609E-02  0.8821120E-01
       -4   -1    0    0    0  501  0.00000000000E+00  0.00000000000E+00  0.69511616875E+03  0.69511732891E+03  0.12699999809E+01 0. -1.
        4   -1    0    0  501    0  0.00000000000E+00  0.00000000000E+00 -0.91963589192E+03  0.91963676884E+03  0.12699999809E+01 0.  1.
    10030    2    1    2    0    0  0.00000000000E+00  0.00000000000E+00 -0.22451972317E+03  0.16147540977E+04  0.15990690073E+04 0.  0.
        5    1    3    3  502    0  0.13095319528E+03  0.59112862142E+03  0.41502241254E+03  0.73406231297E+03  0.46999998093E+01 0. -1.
       -5    1    3    3    0  502 -0.13095319528E+03 -0.59112862142E+03 -0.63954213571E+03  0.88069178477E+03  0.46999998093E+01 0.  1.
</event>
<event>
 5   0  0.1994525E-05  0.1601031E+04  0.7818609E-02  0.8819915E-01
       -2   -1    0    0    0  501  0.00000000000E+00  0.00000000000E+00  0.45847874422E+03  0.45847874423E+03  0.25500000920E-02 0. -1.
        2   -1    0    0  501    0  0.00000000000E+00  0.00000000000E+00 -0.13977206346E+04  0.13977206346E+04  0.25500000920E-02 0.  1.
    10030    2    1    2    0    0  0.00000000000E+00  0.00000000000E+00 -0.93924189033E+03  0.18561993788E+04  0.16010311694E+04 0.  0.
        5    1    3    3  502    0 -0.66195478410E+03  0.21047094981E+03 -0.83097060286E+01  0.69467495861E+03  0.46999998093E+01 0. -1.
       -5    1    3    3    0  502  0.66195478410E+03 -0.21047094981E+03 -0.93093218430E+03  0.11615244202E+04  0.46999998093E+01 0.  1.
</event>
<event>
 5   0  0.1057506E-05  0.1600026E+04  0.7818609E-02  0.8820532E-01
        1   -1    0    0  501    0  0.00000000000E+00  0.00000000000E+00  0.11501628797E+04  0.11501628797E+04  0.50400001928E-02 0. -1.
       -1   -1    0    0    0  501  0.00000000000E+00  0.00000000000E+00 -0.55646125934E+03  0.55646125936E+03  0.50400001928E-02 0.  1.
    10030    2    1    2    0    0  0.00000000000E+00  0.00000000000E+00  0.59370162034E+03  0.17066241391E+04  0.16000263554E+04 0.  0.
        5    1    3    3  502    0 -0.72244563136E+03 -0.78237092910E+02  0.65373170899E+03  0.97746405065E+03  0.46999998093E+01 0. -1.
       -5    1    3    3    0  502  0.72244563136E+03  0.78237092910E+02 -0.60030088647E+02  0.72916008841E+03  0.46999998093E+01 0.  1.
</event>
<event>
 5   0  0.1126485E-05  0.1599501E+04  0.7818609E-02  0.8820855E-01
       -1   -1    0    0    0  501  0.00000000000E+00  0.00000000000E+00  0.85507472529E+03  0.85507472530E+03  0.50400001928E-02 0. -1.
        1   -1    0    0  501    0  0.00000000000E+00  0.00000000000E+00 -0.74800579849E+03  0.74800579851E+03  0.50400001928E-02 0.  1.
    10030    2    1    2    0    0  0.00000000000E+00  0.00000000000E+00  0.10706892680E+03  0.16030805238E+04  0.15995009880E+04 0.  0.
        2    1    3    3  502    0 -0.73621191924E+03  0.31223795545E+03  0.43495970151E+02  0.80086979609E+03  0.25500000920E-02 0. -1.
       -2    1    3    3    0  502  0.73621191924E+03 -0.31223795545E+03  0.63572956646E+02  0.80221072773E+03  0.25500000920E-02 0.  1.
</event>
<event>
 5   0  0.1994525E-05  0.1599150E+04  0.7818609E-02  0.8821070E-01
       -2   -1    0    0    0  501  0.00000000000E+00  0.00000000000E+00  0.44837987418E+03  0.44837987418E+03  0.25500000920E-02 0.  1.
        2   -1    0    0  501    0  0.00000000000E+00  0.00000000000E+00 -0.14258450504E+04  0.14258450504E+04  0.25500000920E-02 0. -1.
    10030    2    1    2    0    0  0.00000000000E+00  0.00000000000E+00 -0.97746517625E+03  0.18742249246E+04  0.15991500546E+04 0.  0.
        5    1    3    3  502    0  0.45189077466E+03  0.23071277285E+03  0.23551510856E+03  0.55939530937E+03  0.46999998093E+01 0.  1.
       -5    1    3    3    0  502 -0.45189077466E+03 -0.23071277285E+03 -0.12129802848E+04  0.13148296152E+04  0.46999998093E+01 0. -1.
</event>
<event>
 5   0  0.2046108E-05  0.1597408E+04  0.7818609E-02  0.8822142E-01
        2   -1    0    0  501    0  0.00000000000E+00  0.00000000000E+00  0.14223489981E+04  0.14223489981E+04  0.25500000920E-02 0.  1.
       -2   -1    0    0    0  501  0.00000000000E+00  0.00000000000E+00 -0.44850303221E+03  0.44850303222E+03  0.25500000920E-02 0. -1.
    10030    2    1    2    0    0  0.00000000000E+00  0.00000000000E+00  0.97384596585E+03  0.18708520303E+04  0.15974076981E+04 0.  0.
        1    1    3    3  502    0 -0.62210788450E+03  0.13200544831E+03  0.10528395351E+04  0.12300059939E+04  0.50400001928E-02 0. -1.
       -1    1    3    3    0  502  0.62210788450E+03 -0.13200544831E+03 -0.78993569252E+02  0.64084603638E+03  0.50400001928E-02 0.  1.
</event>
<event>
 5   0  0.1126485E-05  0.1598950E+04  0.7818609E-02  0.8821193E-01
       -1   -1    0    0    0  501  0.00000000000E+00  0.00000000000E+00  0.23106548041E+03  0.23106548046E+03  0.50400001928E-02 0. -1.
        1   -1    0    0  501    0  0.00000000000E+00  0.00000000000E+00 -0.27661445644E+04  0.27661445644E+04  0.50400001928E-02 0.  1.
    10030    2    1    2    0    0  0.00000000000E+00  0.00000000000E+00 -0.25350790839E+04  0.29972100448E+04  0.15989503091E+04 0.  0.
        2    1    3    3  502    0  0.11257898027E+03  0.57629496408E+03 -0.25051967613E+03  0.63839644467E+03  0.25500000920E-02 0. -1.
       -2    1    3    3    0  502 -0.11257898027E+03 -0.57629496408E+03 -0.22845594078E+04  0.23588136002E+04  0.25500000920E-02 0.  1.
</event>
<event>
 5   0  0.2046108E-05  0.1600742E+04  0.7818609E-02  0.8820092E-01
       -2   -1    0    0    0  501  0.00000000000E+00  0.00000000000E+00  0.87994164172E+03  0.87994164173E+03  0.25500000920E-02 0.  1.
        2   -1    0    0  501    0  0.00000000000E+00  0.00000000000E+00 -0.72799581372E+03  0.72799581372E+03  0.25500000920E-02 0. -1.
    10030    2    1    2    0    0  0.00000000000E+00  0.00000000000E+00  0.15194582801E+03  0.16079374555E+04  0.16007421173E+04 0.  0.
        1    1    3    3  502    0 -0.29598853568E+03  0.85252144211E+02  0.81801988759E+03  0.87409020007E+03  0.50400001928E-02 0.  1.
       -1    1    3    3    0  502  0.29598853568E+03 -0.85252144211E+02 -0.66607405958E+03  0.73384725538E+03  0.50400001928E-02 0. -1.
</event>
<event>
 5   0  0.1090674E-05  0.1600685E+04  0.7818609E-02  0.8820127E-01
        1   -1    0    0  501    0  0.00000000000E+00  0.00000000000E+00  0.15203659082E+04  0.15203659082E+04  0.50400001928E-02 0. -1.
       -1   -1    0    0    0  501  0.00000000000E+00  0.00000000000E+00 -0.42131189794E+03  0.42131189797E+03  0.50400001928E-02 0.  1.
    10030    2    1    2    0    0  0.00000000000E+00  0.00000000000E+00  0.10990540102E+04  0.19416778062E+04  0.16006851613E+04 0.  0.
        4    1    3    3  502    0  0.39307560674E+03 -0.40180143825E+03  0.12406277501E+04  0.13620248366E+04  0.12699999809E+01 0. -1.
       -4    1    3    3    0  502 -0.39307560674E+03  0.40180143825E+03 -0.14157373984E+03  0.57965296955E+03  0.12699999809E+01 0.  1.
</event>
<event>
 5   0  0.2125803E-05  0.1601926E+04  0.7818609E-02  0.8819366E-01
        2   -1    0    0  501    0  0.00000000000E+00  0.00000000000E+00  0.98990669282E+03  0.98990669283E+03  0.25500000920E-02 0. -1.
       -2   -1    0    0    0  501  0.00000000000E+00  0.00000000000E+00 -0.64808277356E+03  0.64808277356E+03  0.25500000920E-02 0.  1.
    10030    2    1    2    0    0  0.00000000000E+00  0.00000000000E+00  0.34182391927E+03  0.16379894664E+04  0.16019256850E+04 0.  0.
        3    1    3    3  502    0 -0.29774561431E+03 -0.18350573578E+03  0.90769939721E+03  0.97275125895E+03  0.10100000352E+00 0. -1.
       -3    1    3    3    0  502  0.29774561431E+03  0.18350573578E+03 -0.56587547794E+03  0.66523820744E+03  0.10100000352E+00 0.  1.
</event>
<event>
 5   0  0.1090674E-05  0.1600123E+04  0.7818609E-02  0.8820473E-01
        1   -1    0    0  501    0  0.00000000000E+00  0.00000000000E+00  0.71980265800E+03  0.71980265801E+03  0.50400001928E-02 0.  1.
       -1   -1    0    0    0  501  0.00000000000E+00  0.00000000000E+00 -0.88926903840E+03  0.88926903842E+03  0.50400001928E-02 0. -1.
    10030    2    1    2    0    0  0.00000000000E+00  0.00000000000E+00 -0.16946638041E+03  0.16090716964E+04  0.16001227672E+04 0.  0.
        4    1    3    3  502    0 -0.75894357578E+03  0.81745482227E+02  0.15622940780E+03  0.77915782473E+03  0.12699999809E+01 0.  1.
       -4    1    3    3    0  502  0.75894357578E+03 -0.81745482227E+02 -0.32569578821E+03  0.82991387170E+03  0.12699999809E+01 0. -1.
</event>
<event>
 5   0  0.2125803E-05  0.1600450E+04  0.7818609E-02  0.8820271E-01
        2   -1    0    0  501    0  0.00000000000E+00  0.00000000000E+00  0.79511846774E+03  0.79511846774E+03  0.25500000920E-02 0.  1.
       -2   -1    0    0    0  501  0.00000000000E+00  0.00000000000E+00 -0.80536457016E+03  0.80536457016E+03  0.25500000920E-02 0. -1.
    10030    2    1    2    0    0  0.00000000000E+00  0.00000000000E+00 -0.10246102416E+02  0.16004830379E+04  0.16004502404E+04 0.  0.
        3    1    3    3  502    0 -0.43697353666E+03  0.27269407777E+03 -0.61755073903E+03  0.80416220831E+03  0.10100000352E+00 0. -1.
       -3    1    3    3    0  502  0.43697353666E+03 -0.27269407777E+03  0.60730463661E+03  0.79632082959E+03  0.10100000352E+00 0.  1.
</event>
<event>
 5   0  0.1990948E-05  0.1600345E+04  0.7818609E-02  0.8820336E-01
        2   -1    0    0  501    0  0.00000000000E+00  0.00000000000E+00  0.12127563654E+04  0.12127563654E+04  0.25500000920E-02 0. -1.
       -2   -1    0    0    0  501  0.00000000000E+00  0.00000000000E+00 -0.52795093275E+03  0.52795093276E+03  0.25500000920E-02 0.  1.
    10030    2    1    2    0    0  0.00000000000E+00  0.00000000000E+00  0.68480543268E+03  0.17407072982E+04  0.16003447808E+04 0.  0.
        4    1    3    3  502    0  0.53399421588E+03 -0.59588964014E+03  0.34927816680E+03  0.87305849548E+03  0.12699999809E+01 0.  1.
       -4    1    3    3    0  502 -0.53399421588E+03  0.59588964014E+03  0.33552726588E+03  0.86764880273E+03  0.12699999809E+01 0. -1.
</event>
<event>
 5   0  0.2147844E-05  0.1599730E+04  0.7818609E-02  0.8820714E-01
       -2   -1    0    0    0  501  0.00000000000E+00  0.00000000000E+00  0.47141430285E+03  0.47141430286E+03  0.25500000920E-02 0.  1.
        2   -1    0    0  501    0  0.00000000000E+00  0.00000000000E+00 -0.13571592080E+04  0.13571592080E+04  0.25500000920E-02 0. -1.
    10030    2    1    2    0    0  0.00000000000E+00  0.00000000000E+00 -0.88574490515E+03  0.18285735109E+04  0.15997303046E+04 0.  0.
        2    1    3    3  502    0  0.15073748672E+03 -0.87271727070E+02 -0.13352185109E+04  0.13465313275E+04  0.25500000920E-02 0. -1.
       -2    1    3    3    0  502 -0.15073748672E+03  0.87271727070E+02  0.44947360573E+03  0.48204218332E+03  0.25500000920E-02 0.  1.
</event>
<event>
 5   0  0.2147844E-05  0.1599966E+04  0.7818609E-02  0.8820569E-01
        2   -1    0    0  501    0  0.00000000000E+00  0.00000000000E+00  0.15566757396E+04  0.15566757396E+04  0.25500000920E-02 0. -1.
       -2   -1    0    0    0  501  0.00000000000E+00  0.00000000000E+00 -0.41111510154E+03  0.41111510155E+03  0.25500000920E-02 0.  1.
    10030    2    1    2    0    0  0.00000000000E+00  0.00000000000E+00  0.11455606381E+04  0.19677908412E+04  0.15999661306E+04 0.  0.
        2    1    3    3  502    0 -0.33411085585E+03 -0.63235829775E+03  0.13195965026E+03  0.72726915928E+03  0.25500000920E-02 0.  1.
       -2    1    3    3    0  502  0.33411085585E+03  0.63235829775E+03  0.10136009878E+04  0.12405216819E+04  0.25500000920E-02 0. -1.
</event>
<event>
 5   0  0.1090674E-05  0.1600791E+04  0.7818609E-02  0.8820062E-01
        1   -1    0    0  501    0  0.00000000000E+00  0.00000000000E+00  0.45766427841E+03  0.45766427844E+03  0.50400001928E-02 0.  1.
       -1   -1    0    0    0  501  0.00000000000E+00  0.00000000000E+00 -0.13997875184E+04  0.13997875184E+04  0.50400001928E-02 0. -1.
    10030    2    1    2    0    0  0.00000000000E+00  0.00000000000E+00 -0.94212324002E+03  0.18574517969E+04  0.16007907353E+04 0.  0.
        4    1    3    3  502    0  0.77996619618E+03  0.17371596832E+03 -0.41780460770E+03  0.90171326260E+03  0.12699999809E+01 0. -1.
       -4    1    3    3    0  502 -0.77996619618E+03 -0.17371596832E+03 -0.52431863233E+03  0.95573853429E+03  0.12699999809E+01 0.  1.
</event>
<event>
 5   0  0.2147844E-05  0.1601150E+04  0.7818609E-02  0.8819842E-01
        2   -1    0    0  501    0  0.00000000000E+00  0.00000000000E+00  0.15526030106E+04  0.15526030106E+04  0.25500000920E-02 0. -1.
       -2   -1    0    0    0  501  0.00000000000E+00  0.00000000000E+00 -0.41280375107E+03  0.41280375108E+03  0.25500000920E-02 0.  1.
    10030    2    1    2    0    0  0.00000000000E+00  0.00000000000E+00  0.11397992595E+04  0.19654067617E+04  0.16011500201E+04 0.  0.
        2    1    3    3  502    0  0.38157057041E+03 -0.16186794176E+03 -0.27084439809E+03  0.49513030483E+03  0.25500000920E-02 0.  1.
       -2    1    3    3    0  502 -0.38157057041E+03  0.16186794176E+03  0.14106436576E+04  0.14702764568E+04  0.25500000920E-02 0. -1.
</event>
<event>
 5   0  0.1994525E-05  0.1598978E+04  0.7818609E-02  0.8821176E-01
        2   -1    0    0  501    0  0.00000000000E+00  0.00000000000E+00  0.25557773414E+04  0.25557773414E+04  0.25500000920E-02 0.  1.
       -2   -1    0    0    0  501  0.00000000000E+00  0.00000000000E+00 -0.25009340180E+03  0.25009340181E+03  0.25500000920E-02 0. -1.
    10030    2    1    2    0    0  0.00000000000E+00  0.00000000000E+00  0.23056839396E+04  0.28058707432E+04  0.15989784859E+04 0.  0.
        5    1    3    3  502    0 -0.75303003609E+03 -0.18217302206E+02  0.16229646461E+04  0.17892519213E+04  0.46999998093E+01 0. -1.
       -5    1    3    3    0  502  0.75303003609E+03  0.18217302206E+02  0.68271929351E+03  0.10166188219E+04  0.46999998093E+01 0.  1.
</event>
<event>
 5   0  0.1994525E-05  0.1600011E+04  0.7818609E-02  0.8820542E-01
       -2   -1    0    0    0  501  0.00000000000E+00  0.00000000000E+00  0.36587589509E+03  0.36587589510E+03  0.25500000920E-02 0. -1.
        2   -1    0    0  501    0  0.00000000000E+00  0.00000000000E+00 -0.17492500464E+04  0.17492500464E+04  0.25500000920E-02 0.  1.
    10030    2    1    2    0    0  0.00000000000E+00  0.00000000000E+00 -0.13833741513E+04  0.21151259415E+04  0.16000105331E+04 0.  0.
        5    1    3    3  502    0 -0.56660673327E+03 -0.36378186159E+03 -0.12063451985E+03  0.68407251837E+03  0.46999998093E+01 0. -1.
       -5    1    3    3    0  502  0.56660673327E+03  0.36378186159E+03 -0.12627396315E+04  0.14310534231E+04  0.46999998093E+01 0.  1.
</event>
<event>
 5   0  0.2125803E-05  0.1599863E+04  0.7818609E-02  0.8820632E-01
       -2   -1    0    0    0  501  0.00000000000E+00  0.00000000000E+00  0.69001843803E+03  0.69001843804E+03  0.25500000920E-02 0. -1.
        2   -1    0    0  501    0  0.00000000000E+00  0.00000000000E+00 -0.92735213050E+03  0.92735213050E+03  0.25500000920E-02 0.  1.
    10030    2    1    2    0    0  0.00000000000E+00  0.00000000000E+00 -0.23733369247E+03  0.16173705685E+04  0.15998625798E+04 0.  0.
        3    1    3    3  502    0 -0.23115932149E+03 -0.40101211821E+03 -0.77822102198E+03  0.90546856384E+03  0.10100000352E+00 0.  1.
       -3    1    3    3    0  502  0.23115932149E+03  0.40101211821E+03  0.54088732951E+03  0.71190200469E+03  0.10100000352E+00 0. -1.
</event>
<event>
 5   0  0.1057506E-05  0.1600995E+04  0.7818609E-02  0.8819937E-01
        1   -1    0    0  501    0  0.00000000000E+00  0.00000000000E+00  0.10067383261E+04  0.10067383261E+04  0.50400001928E-02 0.  1.
       -1   -1    0    0    0  501  0.00000000000E+00  0.00000000000E+00 -0.63650751496E+03  0.63650751498E+03  0.50400001928E-02 0. -1.
    10030    2    1    2    0    0  0.00000000000E+00  0.00000000000E+00  0.37023081112E+03  0.16432458411E+04  0.16009953281E+04 0.  0.
        5    1    3    3  502    0  0.58729356243E+03  0.52672171912E+03  0.32443599715E+03  0.85301248766E+03  0.46999998093E+01 0. -1.
       -5    1    3    3    0  502 -0.58729356243E+03 -0.52672171912E+03  0.45794813973E+02  0.79023335342E+03  0.46999998093E+01 0.  1.
</event>
<event>
 5   0  0.1060251E-05  0.1600455E+04  0.7818609E-02  0.8820269E-01
        1   -1    0    0  501    0  0.00000000000E+00  0.00000000000E+00  0.10335859737E+04  0.10335859738E+04  0.50400001928E-02 0.  1.
       -1   -1    0    0    0  501  0.00000000000E+00  0.00000000000E+00 -0.61955535348E+03  0.61955535350E+03  0.50400001928E-02 0. -1.
    10030    2    1    2    0    0  0.00000000000E+00  0.00000000000E+00  0.41403062027E+03  0.16531413273E+04  0.16004545896E+04 0.  0.
        1    1    3    3  502    0  0.30996930671E+03  0.55946254814E+03 -0.28973689780E+03  0.70215866002E+03  0.50400001928E-02 0. -1.
       -1    1    3    3    0  502 -0.30996930671E+03 -0.55946254814E+03  0.70376751807E+03  0.95098266724E+03  0.50400001928E-02 0.  1.
</event>
<event>
 5   0  0.2125803E-05  0.1598862E+04  0.7818609E-02  0.8821247E-01
       -2   -1    0    0    0  501  0.00000000000E+00  0.00000000000E+00  0.66705956025E+03  0.66705956025E+03  0.25500000920E-02 0. -1.
        2   -1    0    0  501    0  0.00000000000E+00  0.00000000000E+00 -0.95807044655E+03  0.95807044655E+03  0.25500000920E-02 0.  1.
    10030    2    1    2    0    0  0.00000000000E+00  0.00000000000E+00 -0.29101088631E+03  0.16251300068E+04  0.15988621589E+04 0.  0.
        3    1    3    3  502    0 -0.41967428344E+02 -0.55177414571E+03 -0.73193664149E+03  0.91757682527E+03  0.10100000352E+00 0.  1.
       -3    1    3    3    0  502  0.41967428344E+02  0.55177414571E+03  0.44092575519E+03  0.70755318154E+03  0.10100000352E+00 0. -1.
</event>
<event>
 5   0  0.1126485E-05  0.1602836E+04  0.7818609E-02  0.8818808E-01
       -1   -1    0    0    0  501  0.00000000000E+00  0.00000000000E+00  0.66776590840E+03  0.66776590842E+03  0.50400001928E-02 0.  1.
        1   -1    0    0  501    0  0.00000000000E+00  0.00000000000E+00 -0.96182014833E+03  0.96182014834E+03  0.50400001928E-02 0. -1.
    10030    2    1    2    0    0  0.00000000000E+00  0.00000000000E+00 -0.29405423993E+03  0.16295860568E+04  0.16028358682E+04 0.  0.
        2    1    3    3  502    0  0.37737557386E+03  0.19473306065E+03  0.54397569739E+03  0.69010350529E+03  0.25500000920E-02 0.  1.
       -2    1    3    3    0  502 -0.37737557386E+03 -0.19473306065E+03 -0.83802993732E+03  0.93948255147E+03  0.25500000920E-02 0. -1.
</event>
<event>
 5   0  0.1990948E-05  0.1600103E+04  0.7818609E-02  0.8820485E-01
       -2   -1    0    0    0  501  0.00000000000E+00  0.00000000000E+00  0.84487448776E+03  0.84487448776E+03  0.25500000920E-02 0. -1.
        2   -1    0    0  501    0  0.00000000000E+00  0.00000000000E+00 -0.75760615905E+03  0.75760615905E+03  0.25500000920E-02 0.  1.
    10030    2    1    2    0    0  0.00000000000E+00  0.00000000000E+00  0.87268328708E+02  0.16024806468E+04  0.16001026412E+04 0.  0.
        4    1    3    3  502    0  0.10921700191E+02 -0.16404316585E+03  0.82777356178E+03  0.84394320087E+03  0.12699999809E+01 0. -1.
       -4    1    3    3    0  502 -0.10921700191E+02  0.16404316585E+03 -0.74050523308E+03  0.75853744595E+03  0.12699999809E+01 0.  1.
</event>
<event>
 5   0  0.1090674E-05  0.1600589E+04  0.7818609E-02  0.8820186E-01
        1   -1    0    0  501    0  0.00000000000E+00  0.00000000000E+00  0.12229415948E+04  0.12229415949E+04  0.50400001928E-02 0. -1.
       -1   -1    0    0    0  501  0.00000000000E+00  0.00000000000E+00 -0.52371389280E+03  0.52371389282E+03  0.50400001928E-02 0.  1.
    10030    2    1    2    0    0  0.00000000000E+00  0.00000000000E+00  0.69922770205E+03  0.17466554877E+04  0.16005892706E+04 0.  0.
        4    1    3    3  502    0 -0.34237871383E+03  0.20375170980E+03  0.11070221785E+04  0.11765362976E+04  0.12699999809E+01 0. -1.
       -4    1    3    3    0  502  0.34237871383E+03 -0.20375170980E+03 -0.40779447648E+03  0.57011919007E+03  0.12699999809E+01 0.  1.
</event>
<event>
 5   0  0.1990948E-05  0.1599908E+04  0.7818609E-02  0.8820605E-01
        2   -1    0    0  501    0  0.00000000000E+00  0.00000000000E+00  0.49308972036E+03  0.49308972036E+03  0.25500000920E-02 0.  1.
       -2   -1    0    0    0  501  0.00000000000E+00  0.00000000000E+00 -0.12977881943E+04  0.12977881943E+04  0.25500000920E-02 0. -1.
    10030    2    1    2    0    0  0.00000000000E+00  0.00000000000E+00 -0.80469847390E+03  0.17908779146E+04  0.15999075196E+04 0.  0.
        4    1    3    3  502    0  0.73403181883E+03  0.14402446658E+02 -0.75793746775E+03  0.10552160724E+04  0.12699999809E+01 0. -1.
       -4    1    3    3    0  502 -0.73403181883E+03 -0.14402446658E+02 -0.46761006158E+02  0.73566184223E+03  0.12699999809E+01 0.  1.
</event>
<event>
 5   0  0.2046108E-05  0.1600477E+04  0.7818609E-02  0.8820255E-01
       -2   -1    0    0    0  501  0.00000000000E+00  0.00000000000E+00  0.63527151037E+03  0.63527151037E+03  0.25500000920E-02 0.  1.
        2   -1    0    0  501    0  0.00000000000E+00  0.00000000000E+00 -0.10080444510E+04  0.10080444510E+04  0.25500000920E-02 0. -1.
    10030    2    1    2    0    0  0.00000000000E+00  0.00000000000E+00 -0.37277294064E+03  0.16433159614E+04  0.16004773299E+04 0.  0.
        1    1    3    3  502    0  0.18893186379E+02  0.42413974001E+03  0.51009895617E+03  0.66366589235E+03  0.50400001928E-02 0.  1.
       -1    1    3    3    0  502 -0.18893186379E+02 -0.42413974001E+03 -0.88287189681E+03  0.97965006903E+03  0.50400001928E-02 0. -1.
</event>
<event>
 5   0  0.2147844E-05  0.1599903E+04  0.7818609E-02  0.8820608E-01
       -2   -1    0    0    0  501  0.00000000000E+00  0.00000000000E+00  0.13952478034E+04  0.13952478034E+04  0.25500000920E-02 0.  1.
        2   -1    0    0  501    0  0.00000000000E+00  0.00000000000E+00 -0.45864426798E+03  0.45864426799E+03  0.25500000920E-02 0. -1.
    10030    2    1    2    0    0  0.00000000000E+00  0.00000000000E+00  0.93660353541E+03  0.18538920714E+04  0.15999030064E+04 0.  0.
        2    1    3    3  502    0  0.43557938193E+03  0.59516272736E+03  0.82728019778E+03  0.11083052809E+04  0.25500000920E-02 0.  1.
       -2    1    3    3    0  502 -0.43557938193E+03 -0.59516272736E+03  0.10932333763E+03  0.74558679050E+03  0.25500000920E-02 0. -1.
</event>
<event>
 5   0  0.1081831E-05  0.1601401E+04  0.7818609E-02  0.8819688E-01
        1   -1    0    0  501    0  0.00000000000E+00  0.00000000000E+00  0.51091884778E+03  0.51091884780E+03  0.50400001928E-02 0.  1.
       -1   -1    0    0    0  501  0.00000000000E+00  0.00000000000E+00 -0.12548402526E+04  0.12548402526E+04  0.50400001928E-02 0. -1.
    10030    2    1    2    0    0  0.00000000000E+00  0.00000000000E+00 -0.74392140483E+03  0.17657591004E+04  0.16014013064E+04 0.  0.
        3    1    3    3  502    0 -0.99851236527E+02  0.52137626346E+03 -0.10329140260E+04  0.11613418415E+04  0.10100000352E+00 0. -1.
       -3    1    3    3    0  502  0.99851236527E+02 -0.52137626346E+03  0.28899262119E+03  0.60441725889E+03  0.10100000352E+00 0.  1.
</event>
<event>
 5   0  0.7597000E-06  0.1600614E+04  0.7818609E-02  0.8820171E-01
       -3   -1    0    0    0  501  0.00000000000E+00  0.00000000000E+00  0.63084896261E+03  0.63084897069E+03  0.10100000352E+00 0.  1.
        3   -1    0    0  501    0  0.00000000000E+00  0.00000000000E+00 -0.10152843273E+04  0.10152843324E+04  0.10100000352E+00 0. -1.
    10030    2    1    2    0    0  0.00000000000E+00  0.00000000000E+00 -0.38443536474E+03  0.16461333031E+04  0.16006137266E+04 0.  0.
        5    1    3    3  502    0 -0.46258679051E+03 -0.69324269425E+02 -0.86005119870E+03  0.97903143334E+03  0.46999998093E+01 0. -1.
       -5    1    3    3    0  502  0.46258679051E+03  0.69324269425E+02  0.47561583396E+03  0.66710186973E+03  0.46999998093E+01 0.  1.
</event>
<event>
 5   0  0.1060251E-05  0.1600104E+04  0.7818609E-02  0.8820484E-01
       -1   -1    0    0    0  501  0.00000000000E+00  0.00000000000E+00  0.65846604050E+03  0.65846604052E+03  0.50400001928E-02 0. -1.
        1   -1    0    0  501    0  0.00000000000E+00  0.00000000000E+00 -0.97208259260E+03  0.97208259261E+03  0.50400001928E-02 0.  1.
    10030    2    1    2    0    0  0.00000000000E+00  0.00000000000E+00 -0.31361655209E+03  0.16305486331E+04  0.16001042164E+04 0.  0.
        1    1    3    3  502    0 -0.38304859504E+03  0.65229129782E+03 -0.42229003687E+03  0.86633656199E+03  0.50400001928E-02 0.  1.
       -1    1    3    3    0  502  0.38304859504E+03 -0.65229129782E+03  0.10867348478E+03  0.76421207115E+03  0.50400001928E-02 0. -1.
</event>
<event>
 5   0  0.1126485E-05  0.1600068E+04  0.7818609E-02  0.8820506E-01
        1   -1    0    0  501    0  0.00000000000E+00  0.00000000000E+00  0.98681704958E+03  0.98681704960E+03  0.50400001928E-02 0. -1.
       -1   -1    0    0    0  501  0.00000000000E+00  0.00000000000E+00 -0.64860500818E+03  0.64860500820E+03  0.50400001928E-02 0.  1.
    10030    2    1    2    0    0  0.00000000000E+00  0.00000000000E+00  0.33821204140E+03  0.16354220578E+04  0.16000680992E+04 0.  0.
        2    1    3    3  502    0  0.32555491119E+02 -0.25554175998E+03 -0.60505476863E+03  0.65761137775E+03  0.25500000920E-02 0.  1.
       -2    1    3    3    0  502 -0.32555491119E+02  0.25554175998E+03  0.94326681003E+03  0.97781068005E+03  0.25500000920E-02 0. -1.
</event>
<event>
 5   0  0.2147844E-05  0.1600934E+04  0.7818609E-02  0.8819975E-01
       -2   -1    0    0    0  501  0.00000000000E+00  0.00000000000E+00  0.51819229802E+03  0.51819229803E+03  0.25500000920E-02 0. -1.
        2   -1    0    0  501    0  0.00000000000E+00  0.00000000000E+00 -0.12365046772E+04  0.12365046772E+04  0.25500000920E-02 0.  1.
    10030    2    1    2    0    0  0.00000000000E+00  0.00000000000E+00 -0.71831237916E+03  0.17546969752E+04  0.16009337278E+04 0.  0.
        2    1    3    3  502    0  0.42848218955E+03  0.59662040704E+03 -0.10492432534E+02  0.73461757943E+03  0.25500000920E-02 0. -1.
       -2    1    3    3    0  502 -0.42848218955E+03 -0.59662040704E+03 -0.70781994663E+03  0.10200793958E+04  0.25500000920E-02 0.  1.
</event>
<event>
 5   0  0.1994525E-05  0.1600122E+04  0.7818609E-02  0.8820473E-01
        2   -1    0    0  501    0  0.00000000000E+00  0.00000000000E+00  0.83871374574E+03  0.83871374574E+03  0.25500000920E-02 0. -1.
       -2   -1    0    0    0  501  0.00000000000E+00  0.00000000000E+00 -0.76318913803E+03  0.76318913804E+03  0.25500000920E-02 0.  1.
    10030    2    1    2    0    0  0.00000000000E+00  0.00000000000E+00  0.75524607705E+02  0.16019028838E+04  0.16001215212E+04 0.  0.
        5    1    3    3  502    0  0.50753720784E+03  0.21548162747E+02  0.65652545472E+03  0.83012414936E+03  0.46999998093E+01 0. -1.
       -5    1    3    3    0  502 -0.50753720784E+03 -0.21548162747E+02 -0.58100084702E+03  0.77177873441E+03  0.46999998093E+01 0.  1.
</event>
<event>
 5   0  0.1060251E-05  0.1600041E+04  0.7818609E-02  0.8820523E-01
        1   -1    0    0  501    0  0.00000000000E+00  0.00000000000E+00  0.12729113694E+04  0.12729113694E+04  0.50400001928E-02 0. -1.
       -1   -1    0    0    0  501  0.00000000000E+00  0.00000000000E+00 -0.50281020710E+03  0.50281020712E+03  0.50400001928E-02 0.  1.
    10030    2    1    2    0    0  0.00000000000E+00  0.00000000000E+00  0.77010116229E+03  0.17757215765E+04  0.16000410361E+04 0.  0.
        1    1    3    3  502    0  0.40930103544E+03  0.19650561895E+03 -0.34597754775E+03  0.57082594498E+03  0.50400001928E-02 0.  1.
       -1    1    3    3    0  502 -0.40930103544E+03 -0.19650561895E+03  0.11160787100E+04  0.12048956315E+04  0.50400001928E-02 0. -1.
</event>
<event>
 5   0  0.2046108E-05  0.1599856E+04  0.7818609E-02  0.8820636E-01
       -2   -1    0    0    0  501  0.00000000000E+00  0.00000000000E+00  0.80976941336E+03  0.80976941336E+03  0.25500000920E-02 0.  1.
        2   -1    0    0  501    0  0.00000000000E+00  0.00000000000E+00 -0.79020664214E+03  0.79020664214E+03  0.25500000920E-02 0. -1.
    10030    2    1    2    0    0  0.00000000000E+00  0.00000000000E+00  0.19562771221E+02  0.15999760555E+04  0.15998564549E+04 0.  0.
        1    1    3    3  502    0  0.52989703189E+02 -0.55170388426E+03 -0.56706333328E+03  0.79293499641E+03  0.50400001928E-02 0. -1.
       -1    1    3    3    0  502 -0.52989703189E+02  0.55170388426E+03  0.58662610450E+03  0.80704105909E+03  0.50400001928E-02 0.  1.
</event>
<event>
 5   0  0.1060251E-05  0.1598576E+04  0.7818609E-02  0.8821423E-01
       -1   -1    0    0    0  501  0.00000000000E+00  0.00000000000E+00  0.42861802320E+03  0.42861802323E+03  0.50400001928E-02 0.  1.
        1   -1    0    0  501    0  0.00000000000E+00  0.00000000000E+00 -0.14905149726E+04  0.14905149726E+04  0.50400001928E-02 0. -1.
    10030    2    1    2    0    0  0.00000000000E+00  0.00000000000E+00 -0.10618969494E+04  0.19191329958E+04  0.15985763431E+04 0.  0.
        1    1    3    3  502    0 -0.66667340401E+03  0.32043400326E+03 -0.16734513117E+03  0.75837706388E+03  0.50400001928E-02 0. -1.
       -1    1    3    3    0  502  0.66667340401E+03 -0.32043400326E+03 -0.89455181824E+03  0.11607559320E+04  0.50400001928E-02 0.  1.
</event>
<event>
 5   0  0.1994525E-05  0.1600141E+04  0.7818609E-02  0.8820461E-01
       -2   -1    0    0    0  501  0.00000000000E+00  0.00000000000E+00  0.58759370385E+03  0.58759370386E+03  0.25500000920E-02 0.  1.
        2   -1    0    0  501    0  0.00000000000E+00  0.00000000000E+00 -0.10893804505E+04  0.10893804505E+04  0.25500000920E-02 0. -1.
    10030    2    1    2    0    0  0.00000000000E+00  0.00000000000E+00 -0.50178674663E+03  0.16769741543E+04  0.16001413610E+04 0.  0.
        5    1    3    3  502    0 -0.60734278684E+03  0.24225175307E+03 -0.73405027075E+03  0.98305801587E+03  0.46999998093E+01 0. -1.
       -5    1    3    3    0  502  0.60734278684E+03 -0.24225175307E+03  0.23226352412E+03  0.69391613846E+03  0.46999998093E+01 0.  1.
</event>
<event>
 5   0  0.2046108E-05  0.1600203E+04  0.7818609E-02  0.8820424E-01
       -2   -1    0    0    0  501  0.00000000000E+00  0.00000000000E+00  0.12949628864E+04  0.12949628864E+04  0.25500000920E-02 0.  1.
        2   -1    0    0  501    0  0.00000000000E+00  0.00000000000E+00 -0.49434787132E+03  0.49434787132E+03  0.25500000920E-02 0. -1.
    10030    2    1    2    0    0  0.00000000000E+00  0.00000000000E+00  0.80061501509E+03  0.17893107577E+04  0.16002026701E+04 0.  0.
        1    1    3    3  502    0 -0.32666245169E+03 -0.53115893567E+03 -0.16025976832E+03  0.64383333686E+03  0.50400001928E-02 0. -1.
       -1    1    3    3    0  502  0.32666245169E+03  0.53115893567E+03  0.96087478341E+03  0.11454774209E+04  0.50400001928E-02 0.  1.
</event>
<event>
 5   0  0.1994525E-05  0.1600002E+04  0.7818609E-02  0.8820547E-01
       -2   -1    0    0    0  501  0.00000000000E+00  0.00000000000E+00  0.71200054478E+03  0.71200054478E+03  0.25500000920E-02 0.  1.
        2   -1    0    0  501    0  0.00000000000E+00  0.00000000000E+00 -0.89887770887E+03  0.89887770888E+03  0.25500000920E-02 0. -1.
    10030    2    1    2    0    0  0.00000000000E+00  0.00000000000E+00 -0.18687716410E+03  0.16108782537E+04  0.16000017730E+04 0.  0.
        5    1    3    3  502    0  0.16835538166E+03 -0.38469756349E+03  0.59210391081E+03  0.72590969210E+03  0.46999998093E+01 0.  1.
       -5    1    3    3    0  502 -0.16835538166E+03  0.38469756349E+03 -0.77898107491E+03  0.88496856156E+03  0.46999998093E+01 0. -1.
</event>
<event>
 5   0  0.1994525E-05  0.1600309E+04  0.7818609E-02  0.8820358E-01
        2   -1    0    0  501    0  0.00000000000E+00  0.00000000000E+00  0.10661435709E+04  0.10661435709E+04  0.25500000920E-02 0.  1.
       -2   -1    0    0    0  501  0.00000000000E+00  0.00000000000E+00 -0.60052650700E+03  0.60052650701E+03  0.25500000920E-02 0. -1.
    10030    2    1    2    0    0  0.00000000000E+00  0.00000000000E+00  0.46561706386E+03  0.16666700779E+04  0.16003093133E+04 0.  0.
        5    1    3    3  502    0 -0.73698186618E+03 -0.29677511390E+03  0.33165276665E+03  0.86094911983E+03  0.46999998093E+01 0.  1.
       -5    1    3    3    0  502  0.73698186618E+03  0.29677511390E+03  0.13396429722E+03  0.80572095804E+03  0.46999998093E+01 0. -1.
</event>
<event>
 5   0  0.7597000E-06  0.1600458E+04  0.7818609E-02  0.8820267E-01
        4   -1    0    0  501    0  0.00000000000E+00  0.00000000000E+00  0.87223740659E+03  0.87223833116E+03  0.12699999809E+01 0.  1.
       -4   -1    0    0    0  501  0.00000000000E+00  0.00000000000E+00 -0.73416329081E+03  0.73416438927E+03  0.12699999809E+01 0. -1.
    10030    2    1    2    0    0  0.00000000000E+00  0.00000000000E+00  0.13807411578E+03  0.16064027204E+04  0.16004578216E+04 0.  0.
        5    1    3    3  502    0  0.64790857321E+03 -0.45712093627E+03  0.17713645739E+03  0.81249275945E+03  0.46999998093E+01 0.  1.
       -5    1    3    3    0  502 -0.64790857321E+03  0.45712093627E+03 -0.39062341613E+02  0.79390996098E+03  0.46999998093E+01 0. -1.
</event>
<event>
 5   0  0.2125803E-05  0.1600156E+04  0.7818609E-02  0.8820452E-01
        2   -1    0    0  501    0  0.00000000000E+00  0.00000000000E+00  0.88492134765E+03  0.88492134766E+03  0.25500000920E-02 0. -1.
       -2   -1    0    0    0  501  0.00000000000E+00  0.00000000000E+00 -0.72336930480E+03  0.72336930481E+03  0.25500000920E-02 0.  1.
    10030    2    1    2    0    0  0.00000000000E+00  0.00000000000E+00  0.16155204285E+03  0.16082906525E+04  0.16001561675E+04 0.  0.
        3    1    3    3  502    0  0.34037836924E+03 -0.67957200091E+03  0.33194515792E+03  0.82937514837E+03  0.10100000352E+00 0. -1.
       -3    1    3    3    0  502 -0.34037836924E+03  0.67957200091E+03 -0.17039311507E+03  0.77891550410E+03  0.10100000352E+00 0.  1.
</event>
<event>
 5   0  0.1126485E-05  0.1604006E+04  0.7818609E-02  0.8818090E-01
       -1   -1    0    0    0  501  0.00000000000E+00  0.00000000000E+00  0.43883831511E+03  0.43883831514E+03  0.50400001928E-02 0.  1.
        1   -1    0    0  501    0  0.00000000000E+00  0.00000000000E+00 -0.14657087298E+04  0.14657087298E+04  0.50400001928E-02 0. -1.
    10030    2    1    2    0    0  0.00000000000E+00  0.00000000000E+00 -0.10268704147E+04  0.19045470450E+04  0.16040064208E+04 0.  0.
        2    1    3    3  502    0  0.75429275228E+03 -0.12999109830E+03 -0.79779429287E+03  0.11055907812E+04  0.25500000920E-02 0. -1.
       -2    1    3    3    0  502 -0.75429275228E+03  0.12999109830E+03 -0.22907612186E+03  0.79895626376E+03  0.25500000920E-02 0.  1.
</event>
<event>
 5   0  0.1990948E-05  0.1599457E+04  0.7818609E-02  0.8820881E-01
        2   -1    0    0  501    0  0.00000000000E+00  0.00000000000E+00  0.10856119391E+04  0.10856119391E+04  0.25500000920E-02 0. -1.
       -2   -1    0    0    0  501  0.00000000000E+00  0.00000000000E+00 -0.58912949420E+03  0.58912949421E+03  0.25500000920E-02 0.  1.
    10030    2    1    2    0    0  0.00000000000E+00  0.00000000000E+00  0.49648244490E+03  0.16747414333E+04  0.15994574237E+04 0.  0.
        4    1    3    3  502    0  0.13416682954E+03  0.59833030331E+03 -0.28930838108E+03  0.67801242044E+03  0.12699999809E+01 0.  1.
       -4    1    3    3    0  502 -0.13416682954E+03 -0.59833030331E+03  0.78579082598E+03  0.99672901287E+03  0.12699999809E+01 0. -1.
</event>
<event>
 5   0  0.1081831E-05  0.1597730E+04  0.7818609E-02  0.8821944E-01
        1   -1    0    0  501    0  0.00000000000E+00  0.00000000000E+00  0.13511966904E+04  0.13511966904E+04  0.50400001928E-02 0. -1.
       -1   -1    0    0    0  501  0.00000000000E+00  0.00000000000E+00 -0.47231093220E+03  0.47231093223E+03  0.50400001928E-02 0.  1.
    10030    2    1    2    0    0  0.00000000000E+00  0.00000000000E+00  0.87888575818E+03  0.18235076226E+04  0.15977295997E+04 0.  0.
        3    1    3    3  502    0 -0.35603739999E+02  0.54979708941E+03 -0.22078452607E+03  0.59354046448E+03  0.10100000352E+00 0.  1.
       -3    1    3    3    0  502  0.35603739999E+02 -0.54979708941E+03  0.10996702843E+04  0.12299671581E+04  0.10100000352E+00 0. -1.
</event>
<event>
 5   0  0.2125803E-05  0.1600623E+04  0.7818609E-02  0.8820165E-01
       -2   -1    0    0    0  501  0.00000000000E+00  0.00000000000E+00  0.59150103536E+03  0.59150103537E+03  0.25500000920E-02 0.  1.
        2   -1    0    0  501    0  0.00000000000E+00  0.00000000000E+00 -0.10828360131E+04  0.10828360131E+04  0.25500000920E-02 0. -1.
    10030    2    1    2    0    0  0.00000000000E+00  0.00000000000E+00 -0.49133497777E+03  0.16743370485E+04  0.16006231573E+04 0.  0.
        3    1    3    3  502    0  0.20146101126E+03 -0.53871055494E+03 -0.82780623424E+03  0.10079974071E+04  0.10100000352E+00 0. -1.
       -3    1    3    3    0  502 -0.20146101126E+03  0.53871055494E+03  0.33647125648E+03  0.66633964140E+03  0.10100000352E+00 0.  1.
</event>
<event>
 5   0  0.1090674E-05  0.1599945E+04  0.7818609E-02  0.8820582E-01
       -1   -1    0    0    0  501  0.00000000000E+00  0.00000000000E+00  0.56503930198E+03  0.56503930201E+03  0.50400001928E-02 0.  1.
        1   -1    0    0  501    0  0.00000000000E+00  0.00000000000E+00 -0.11325869350E+04  0.11325869350E+04  0.50400001928E-02 0. -1.
    10030    2    1    2    0    0  0.00000000000E+00  0.00000000000E+00 -0.56754763300E+03  0.16976262370E+04  0.15999451631E+04 0.  0.
        4    1    3    3  502    0 -0.58797653265E+03  0.52987636479E+03 -0.16063155347E+03  0.80764439810E+03  0.12699999809E+01 0.  1.
       -4    1    3    3    0  502  0.58797653265E+03 -0.52987636479E+03 -0.40691607952E+03  0.88998183890E+03  0.12699999809E+01 0. -1.
</event>
<event>
 5   0  0.2046108E-05  0.1600005E+04  0.7818609E-02  0.8820545E-01
        2   -1    0    0  501    0  0.00000000000E+00  0.00000000000E+00  0.63970590613E+03  0.63970590614E+03  0.25500000920E-02 0. -1.
       -2   -1    0    0    0  501  0.00000000000E+00  0.00000000000E+00 -0.10004659253E+04  0.10004659253E+04  0.25500000920E-02 0.  1.
    10030    2    1    2    0    0  0.00000000000E+00  0.00000000000E+00 -0.36076001917E+03  0.16401718314E+04  0.16000049516E+04 0.  0.
        1    1    3    3  502    0 -0.59676064731E+02 -0.55469922566E+03 -0.76814253419E+03  0.94936579700E+03  0.50400001928E-02 0.  1.
       -1    1    3    3    0  502  0.59676064731E+02  0.55469922566E+03  0.40738251502E+03  0.69080603444E+03  0.50400001928E-02 0. -1.
</event>
<event>
 5   0  0.1057506E-05  0.1599951E+04  0.7818609E-02  0.8820578E-01
        1   -1    0    0  501    0  0.00000000000E+00  0.00000000000E+00  0.61523927417E+03  0.61523927419E+03  0.50400001928E-02 0.  1.
       -1   -1    0    0    0  501  0.00000000000E+00  0.00000000000E+00 -0.10401817183E+04  0.10401817184E+04  0.50400001928E-02 0. -1.
    10030    2    1    2    0    0  0.00000000000E+00  0.00000000000E+00 -0.42494244418E+03  0.16554209925E+04  0.15999508060E+04 0.  0.
        5    1    3    3  502    0 -0.14298059256E+03 -0.77964620209E+03 -0.10080878615E+03  0.79904702718E+03  0.46999998093E+01 0.  1.
       -5    1    3    3    0  502  0.14298059256E+03  0.77964620209E+03 -0.32413365802E+03  0.85637396536E+03  0.46999998093E+01 0. -1.
</event>
<event>
 5   0  0.1090674E-05  0.1600339E+04  0.7818609E-02  0.8820340E-01
       -1   -1    0    0    0  501  0.00000000000E+00  0.00000000000E+00  0.15623037221E+04  0.15623037222E+04  0.50400001928E-02 0. -1.
        1   -1    0    0  501    0  0.00000000000E+00  0.00000000000E+00 -0.40982487031E+03  0.40982487035E+03  0.50400001928E-02 0.  1.
    10030    2    1    2    0    0  0.00000000000E+00  0.00000000000E+00  0.11524788518E+04  0.19721285925E+04  0.16003386146E+04 0.  0.
        4    1    3    3  502    0  0.12130572937E+03  0.47060665312E+03  0.13595950405E+04  0.14438441706E+04  0.12699999809E+01 0. -1.
       -4    1    3    3    0  502 -0.12130572937E+03 -0.47060665312E+03 -0.20711618865E+03  0.52828442191E+03  0.12699999809E+01 0.  1.
</event>
<event>
 5   0  0.2125803E-05  0.1600298E+04  0.7818609E-02  0.8820365E-01
       -2   -1    0    0    0  501  0.00000000000E+00  0.00000000000E+00  0.52869085687E+03  0.52869085688E+03  0.25500000920E-02 0. -1.
        2   -1    0    0  501    0  0.00000000000E+00  0.00000000000E+00 -0.12109875509E+04  0.12109875509E+04  0.25500000920E-02 0.  1.
    10030    2    1    2    0    0  0.00000000000E+00  0.00000000000E+00 -0.68229669401E+03  0.17396784078E+04  0.16002975298E+04 0.  0.
        3    1    3    3  502    0 -0.58203816063E+03 -0.22816744644E+03 -0.88405417107E+03  0.10827652523E+04  0.10100000352E+00 0.  1.
       -3    1    3    3    0  502  0.58203816063E+03  0.22816744644E+03  0.20175747706E+03  0.65691315545E+03  0.10100000352E+00 0. -1.
</event>
<event>
 5   0  0.1057506E-05  0.1600064E+04  0.7818609E-02  0.8820509E-01
       -1   -1    0    0    0  501  0.00000000000E+00  0.00000000000E+00  0.70862812572E+03  0.70862812573E+03  0.50400001928E-02 0. -1.
        1   -1    0    0  501    0  0.00000000000E+00  0.00000000000E+00 -0.90322550898E+03  0.90322550899E+03  0.50400001928E-02 0.  1.
    10030    2    1    2    0    0  0.00000000000E+00  0.00000000000E+00 -0.19459738326E+03  0.16118536347E+04  0.16000637482E+04 0.  0.
        5    1    3    3  502    0  0.74379356473E+03  0.25062973153E+03  0.58712656395E+02  0.78709173245E+03  0.46999998093E+01 0.  1.
       -5    1    3    3    0  502 -0.74379356473E+03 -0.25062973153E+03 -0.25331003966E+03  0.82476190228E+03  0.46999998093E+01 0. -1.
</event>
<event>
 5   0  0.1081831E-05  0.1599582E+04  0.7818609E-02  0.8820805E-01
        1   -1    0    0  501    0  0.00000000000E+00  0.00000000000E+00  0.92138910651E+03  0.92138910652E+03  0.50400001928E-02 0. -1.
       -1   -1    0    0    0  501  0.00000000000E+00  0.00000000000E+00 -0.69424072848E+03  0.69424072850E+03  0.50400001928E-02 0.  1.
    10030    2    1    2    0    0  0.00000000000E+00  0.00000000000E+00  0.22714837803E+03  0.16156298350E+04  0.15995822511E+04 0.  0.
        3    1    3    3  502    0 -0.58724131612E+03  0.28682547783E+03  0.57922497705E+03  0.87328277341E+03  0.10100000352E+00 0. -1.
       -3    1    3    3    0  502  0.58724131612E+03 -0.28682547783E+03 -0.35207659903E+03  0.74234706161E+03  0.10100000352E+00 0.  1.
</event>
<event>
 5   0  0.1126485E-05  0.1598755E+04  0.7818609E-02  0.8821313E-01
       -1   -1    0    0    0  501  0.00000000000E+00  0.00000000000E+00  0.84578916990E+03  0.84578916992E+03  0.50400001928E-02 0.  1.
        1   -1    0    0  501    0  0.00000000000E+00  0.00000000000E+00 -0.75551259765E+03  0.75551259766E+03  0.50400001928E-02 0. -1.
    10030    2    1    2    0    0  0.00000000000E+00  0.00000000000E+00  0.90276572258E+02  0.16013017676E+04  0.15987549817E+04 0.  0.
        2    1    3    3  502    0  0.27075571188E+03 -0.71249552001E+03 -0.19617257236E+03  0.78704650416E+03  0.25500000920E-02 0. -1.
       -2    1    3    3    0  502 -0.27075571188E+03  0.71249552001E+03  0.28644914461E+03  0.81425526342E+03  0.25500000920E-02 0.  1.
</event>
<event>
 5   0  0.2147844E-05  0.1594229E+04  0.7818609E-02  0.8824101E-01
        2   -1    0    0  501    0  0.00000000000E+00  0.00000000000E+00  0.64953726290E+03  0.64953726290E+03  0.25500000920E-02 0.  1.
       -2   -1    0    0    0  501  0.00000000000E+00  0.00000000000E+00 -0.97822190474E+03  0.97822190474E+03  0.25500000920E-02 0. -1.
    10030    2    1    2    0    0  0.00000000000E+00  0.00000000000E+00 -0.32868464184E+03  0.16277591676E+04  0.15942290657E+04 0.  0.
        2    1    3    3  502    0  0.10778159065E+03  0.32327468158E+03  0.57141617472E+03  0.66531183349E+03  0.25500000920E-02 0.  1.
       -2    1    3    3    0  502 -0.10778159065E+03 -0.32327468158E+03 -0.90010081657E+03  0.96244733416E+03  0.25500000920E-02 0. -1.
</event>
<event>
 5   0  0.1126485E-05  0.1599253E+04  0.7818609E-02  0.8821007E-01
        1   -1    0    0  501    0  0.00000000000E+00  0.00000000000E+00  0.14347877879E+04  0.14347877879E+04  0.50400001928E-02 0.  1.
       -1   -1    0    0    0  501  0.00000000000E+00  0.00000000000E+00 -0.44564270079E+03  0.44564270082E+03  0.50400001928E-02 0. -1.
    10030    2    1    2    0    0  0.00000000000E+00  0.00000000000E+00  0.98914508708E+03  0.18804304887E+04  0.15992532068E+04 0.  0.
        2    1    3    3  502    0 -0.20110578178E+03 -0.77344761689E+03  0.52651398473E+03  0.95701709894E+03  0.25500000920E-02 0. -1.
       -2    1    3    3    0  502  0.20110578178E+03  0.77344761689E+03  0.46263110235E+03  0.92341338977E+03  0.25500000920E-02 0.  1.
</event>
<event>
 5   0  0.1126485E-05  0.1600317E+04  0.7818609E-02  0.8820353E-01
       -1   -1    0    0    0  501  0.00000000000E+00  0.00000000000E+00  0.32399441086E+03  0.32399441090E+03  0.50400001928E-02 0.  1.
        1   -1    0    0  501    0  0.00000000000E+00  0.00000000000E+00 -0.19761255169E+04  0.19761255169E+04  0.50400001928E-02 0. -1.
    10030    2    1    2    0    0  0.00000000000E+00  0.00000000000E+00 -0.16521311060E+04  0.23001199278E+04  0.16003169969E+04 0.  0.
        2    1    3    3  502    0  0.20482343704E+03 -0.68685179385E+03 -0.31479495340E+03  0.78282430326E+03  0.25500000920E-02 0.  1.
       -2    1    3    3    0  502 -0.20482343704E+03  0.68685179385E+03 -0.13373361526E+04  0.15172956245E+04  0.25500000920E-02 0. -1.
</event>
<event>
 5   0  0.1081831E-05  0.1600103E+04  0.7818609E-02  0.8820485E-01
       -1   -1    0    0    0  501  0.00000000000E+00  0.00000000000E+00  0.88608525943E+03  0.88608525945E+03  0.50400001928E-02 0.  1.
        1   -1    0    0  501    0  0.00000000000E+00  0.00000000000E+00 -0.72237070689E+03  0.72237070690E+03  0.50400001928E-02 0. -1.
    10030    2    1    2    0    0  0.00000000000E+00  0.00000000000E+00  0.16371455255E+03  0.16084559663E+04  0.16001025408E+04 0.  0.
        3    1    3    3  502    0 -0.51139927666E+03 -0.38501649337E+03  0.56427424090E+03  0.85333015268E+03  0.10100000352E+00 0.  1.
       -3    1    3    3    0  502  0.51139927666E+03  0.38501649337E+03 -0.40055968836E+03  0.75512581367E+03  0.10100000352E+00 0. -1.
</event>
<event>
 5   0  0.2046108E-05  0.1599504E+04  0.7818609E-02  0.8820853E-01
       -2   -1    0    0    0  501  0.00000000000E+00  0.00000000000E+00  0.86605274274E+03  0.86605274275E+03  0.25500000920E-02 0. -1.
        2   -1    0    0  501    0  0.00000000000E+00  0.00000000000E+00 -0.73852660069E+03  0.73852660070E+03  0.25500000920E-02 0.  1.
    10030    2    1    2    0    0  0.00000000000E+00  0.00000000000E+00  0.12752614205E+03  0.16045793434E+04  0.15995036582E+04 0.  0.
        1    1    3    3  502    0 -0.31296487510E+02  0.78763462570E+03 -0.71777536483E+02  0.79151739621E+03  0.50400001928E-02 0. -1.
       -1    1    3    3    0  502  0.31296487510E+02 -0.78763462570E+03  0.19930367853E+03  0.81306194723E+03  0.50400001928E-02 0.  1.
</event>
<event>
 5   0  0.1990948E-05  0.1599877E+04  0.7818609E-02  0.8820623E-01
        2   -1    0    0  501    0  0.00000000000E+00  0.00000000000E+00  0.10353735021E+04  0.10353735021E+04  0.25500000920E-02 0.  1.
       -2   -1    0    0    0  501  0.00000000000E+00  0.00000000000E+00 -0.61803950469E+03  0.61803950470E+03  0.25500000920E-02 0. -1.
    10030    2    1    2    0    0  0.00000000000E+00  0.00000000000E+00  0.41733399741E+03  0.16534130068E+04  0.15998771533E+04 0.  0.
        4    1    3    3  502    0 -0.36439128222E+03 -0.65928074542E+03  0.48687388012E+03  0.89692803272E+03  0.12699999809E+01 0.  1.
       -4    1    3    3    0  502  0.36439128222E+03  0.65928074542E+03 -0.69539882703E+02  0.75648497409E+03  0.12699999809E+01 0. -1.
</event>
<event>
 5   0  0.1060251E-05  0.1599927E+04  0.7818609E-02  0.8820593E-01
       -1   -1    0    0    0  501  0.00000000000E+00  0.00000000000E+00  0.50521322018E+03  0.50521322021E+03  0.50400001928E-02 0. -1.
        1   -1    0    0  501    0  0.00000000000E+00  0.00000000000E+00 -0.12666758570E+04  0.12666758570E+04  0.50400001928E-02 0.  1.
    10030    2    1    2    0    0  0.00000000000E+00  0.00000000000E+00 -0.76146263681E+03  0.17718890772E+04  0.15999267342E+04 0.  0.
        1    1    3    3  502    0  0.39106481530E+02  0.77213945552E+03 -0.15319109989E+03  0.78815998933E+03  0.50400001928E-02 0. -1.
       -1    1    3    3    0  502 -0.39106481530E+02 -0.77213945552E+03 -0.60827153692E+03  0.98372908787E+03  0.50400001928E-02 0.  1.
</event>
<event>
 5   0  0.2046108E-05  0.1599904E+04  0.7818609E-02  0.8820607E-01
       -2   -1    0    0    0  501  0.00000000000E+00  0.00000000000E+00  0.44582429836E+03  0.44582429837E+03  0.25500000920E-02 0.  1.
        2   -1    0    0  501    0  0.00000000000E+00  0.00000000000E+00 -0.14353717353E+04  0.14353717353E+04  0.25500000920E-02 0. -1.
    10030    2    1    2    0    0  0.00000000000E+00  0.00000000000E+00 -0.98954743693E+03  0.18811960337E+04  0.15999044931E+04 0.  0.
        1    1    3    3  502    0 -0.24605678051E+03  0.76004689710E+03 -0.44617428734E+03  0.91503372601E+03  0.50400001928E-02 0. -1.
       -1    1    3    3    0  502  0.24605678051E+03 -0.76004689710E+03 -0.54337314959E+03  0.96616230766E+03  0.50400001928E-02 0.  1.
</event>
<event>
 5   0  0.1990948E-05  0.1599889E+04  0.7818609E-02  0.8820616E-01
        2   -1    0    0  501    0  0.00000000000E+00  0.00000000000E+00  0.11194768548E+04  0.11194768548E+04  0.25500000920E-02 0.  1.
       -2   -1    0    0    0  501  0.00000000000E+00  0.00000000000E+00 -0.57161620024E+03  0.57161620025E+03  0.25500000920E-02 0. -1.
    10030    2    1    2    0    0  0.00000000000E+00  0.00000000000E+00  0.54786065457E+03  0.16910930551E+04  0.15998888787E+04 0.  0.
        4    1    3    3  502    0 -0.58029567551E+03 -0.21430754351E+03 -0.26216971149E+03  0.67186707371E+03  0.12699999809E+01 0. -1.
       -4    1    3    3    0  502  0.58029567551E+03  0.21430754351E+03  0.81003036606E+03  0.10192259813E+04  0.12699999809E+01 0.  1.
</event>
<event>
 5   0  0.1994525E-05  0.1599602E+04  0.7818609E-02  0.8820792E-01
        2   -1    0    0  501    0  0.00000000000E+00  0.00000000000E+00  0.78412251043E+03  0.78412251043E+03  0.25500000920E-02 0.  1.
       -2   -1    0    0    0  501  0.00000000000E+00  0.00000000000E+00 -0.81579324149E+03  0.81579324149E+03  0.25500000920E-02 0. -1.
    10030    2    1    2    0    0  0.00000000000E+00  0.00000000000E+00 -0.31670731060E+02  0.15999157519E+04  0.15996022562E+04 0.  0.
        5    1    3    3  502    0 -0.61171705760E+03 -0.37888274950E+03  0.33338898559E+03  0.79304489289E+03  0.46999998093E+01 0. -1.
       -5    1    3    3    0  502  0.61171705760E+03  0.37888274950E+03 -0.36505971665E+03  0.80687085903E+03  0.46999998093E+01 0.  1.
</event>
<event>
 5   0  0.2046108E-05  0.1599499E+04  0.7818609E-02  0.8820856E-01
       -2   -1    0    0    0  501  0.00000000000E+00  0.00000000000E+00  0.21629721180E+03  0.21629721182E+03  0.25500000920E-02 0.  1.
        2   -1    0    0  501    0  0.00000000000E+00  0.00000000000E+00 -0.29570373967E+04  0.29570373967E+04  0.25500000920E-02 0. -1.
    10030    2    1    2    0    0  0.00000000000E+00  0.00000000000E+00 -0.27407401849E+04  0.31733346085E+04  0.15994986016E+04 0.  0.
        1    1    3    3  502    0  0.18338457181E+03  0.32763756299E+01  0.17400708720E+03  0.25282227401E+03  0.50400001928E-02 0.  1.
       -1    1    3    3    0  502 -0.18338457181E+03 -0.32763756299E+01 -0.29147472721E+04  0.29205123345E+04  0.50400001928E-02 0. -1.
</event>
<event>
 5   0  0.1994525E-05  0.1599929E+04  0.7818609E-02  0.8820591E-01
       -2   -1    0    0    0  501  0.00000000000E+00  0.00000000000E+00  0.50781901161E+03  0.50781901161E+03  0.25500000920E-02 0.  1.
        2   -1    0    0  501    0  0.00000000000E+00  0.00000000000E+00 -0.12601803981E+04  0.12601803981E+04  0.25500000920E-02 0. -1.
    10030    2    1    2    0    0  0.00000000000E+00  0.00000000000E+00 -0.75236138646E+03  0.17679994097E+04  0.15999294537E+04 0.  0.
        5    1    3    3  502    0  0.38413639505E+03 -0.41654806677E+02 -0.11502081677E+04  0.12133823849E+04  0.46999998093E+01 0. -1.
       -5    1    3    3    0  502 -0.38413639505E+03  0.41654806677E+02  0.39784678120E+03  0.55461702483E+03  0.46999998093E+01 0.  1.
</event>
<event>
 5   0  0.2046108E-05  0.1601073E+04  0.7818609E-02  0.8819889E-01
        2   -1    0    0  501    0  0.00000000000E+00  0.00000000000E+00  0.99039938389E+03  0.99039938390E+03  0.25500000920E-02 0. -1.
       -2   -1    0    0    0  501  0.00000000000E+00  0.00000000000E+00 -0.64707126121E+03  0.64707126122E+03  0.25500000920E-02 0.  1.
    10030    2    1    2    0    0  0.00000000000E+00  0.00000000000E+00  0.34332812268E+03  0.16374706451E+04  0.16010733630E+04 0.  0.
        1    1    3    3  502    0 -0.69677708137E+03  0.38967299656E+03  0.23230474101E+03  0.83144984099E+03  0.50400001928E-02 0.  1.
       -1    1    3    3    0  502  0.69677708137E+03 -0.38967299656E+03  0.11102338167E+03  0.80602080412E+03  0.50400001928E-02 0. -1.
</event>
<event>
 5   0  0.1090674E-05  0.1599608E+04  0.7818609E-02  0.8820789E-01
       -1   -1    0    0    0  501  0.00000000000E+00  0.00000000000E+00  0.99371415441E+03  0.99371415442E+03  0.50400001928E-02 0.  1.
        1   -1    0    0  501    0  0.00000000000E+00  0.00000000000E+00 -0.64373247380E+03  0.64373247382E+03  0.50400001928E-02 0. -1.
    10030    2    1    2    0    0  0.00000000000E+00  0.00000000000E+00  0.34998168061E+03  0.16374466282E+04  0.15996075405E+04 0.  0.
        4    1    3    3  502    0  0.49492930042E+03  0.61689486198E+03  0.53136412408E+02  0.79267860724E+03  0.12699999809E+01 0.  1.
       -4    1    3    3    0  502 -0.49492930042E+03 -0.61689486198E+03  0.29684526820E+03  0.84476802100E+03  0.12699999809E+01 0. -1.
</event>
<event>
 5   0  0.1081831E-05  0.1599836E+04  0.7818609E-02  0.8820649E-01
       -1   -1    0    0    0  501  0.00000000000E+00  0.00000000000E+00  0.49899755104E+03  0.49899755107E+03  0.50400001928E-02 0. -1.
        1   -1    0    0  501    0  0.00000000000E+00  0.00000000000E+00 -0.12823078925E+04  0.12823078925E+04  0.50400001928E-02 0.  1.
    10030    2    1    2    0    0  0.00000000000E+00  0.00000000000E+00 -0.78331034148E+03  0.17813054436E+04  0.15998356142E+04 0.  0.
        3    1    3    3  502    0 -0.15992269600E+03  0.59185534396E+03 -0.96374652628E+03  0.11422238808E+04  0.10100000352E+00 0.  1.
       -3    1    3    3    0  502  0.15992269600E+03 -0.59185534396E+03  0.18043618480E+03  0.63908156275E+03  0.10100000352E+00 0. -1.
</event>
<event>
 5   0  0.2046108E-05  0.1600239E+04  0.7818609E-02  0.8820401E-01
        2   -1    0    0  501    0  0.00000000000E+00  0.00000000000E+00  0.19362252381E+04  0.19362252381E+04  0.25500000920E-02 0. -1.
       -2   -1    0    0    0  501  0.00000000000E+00  0.00000000000E+00 -0.33063866995E+03  0.33063866996E+03  0.25500000920E-02 0.  1.
    10030    2    1    2    0    0  0.00000000000E+00  0.00000000000E+00  0.16055865682E+04  0.22668639081E+04  0.16002386541E+04 0.  0.
        1    1    3    3  502    0  0.78369466095E+03  0.34999652492E+02  0.57976135387E+03  0.97546169825E+03  0.50400001928E-02 0.  1.
       -1    1    3    3    0  502 -0.78369466095E+03 -0.34999652492E+02  0.10258252143E+04  0.12914022099E+04  0.50400001928E-02 0. -1.
</event>
<event>
 5   0  0.1126485E-05  0.1600910E+04  0.7818609E-02  0.8819989E-01
       -1   -1    0    0    0  501  0.00000000000E+00  0.00000000000E+00  0.76831109754E+03  0.76831109756E+03  0.50400001928E-02 0.  1.
        1   -1    0    0  501    0  0.00000000000E+00  0.00000000000E+00 -0.83394421439E+03  0.83394421440E+03  0.50400001928E-02 0. -1.
    10030    2    1    2    0    0  0.00000000000E+00  0.00000000000E+00 -0.65633116842E+02  0.16022553120E+04  0.16009104843E+04 0.  0.
        2    1    3    3  502    0 -0.25463178922E+03  0.53841566754E+03  0.50242219158E+03  0.77920269361E+03  0.25500000920E-02 0.  1.
       -2    1    3    3    0  502  0.25463178922E+03 -0.53841566754E+03 -0.56805530842E+03  0.82305261835E+03  0.25500000920E-02 0. -1.
</event>
<event>
 5   0  0.2147844E-05  0.1597284E+04  0.7818609E-02  0.8822218E-01
        2   -1    0    0  501    0  0.00000000000E+00  0.00000000000E+00  0.26270706977E+04  0.26270706977E+04  0.25500000920E-02 0. -1.
       -2   -1    0    0    0  501  0.00000000000E+00  0.00000000000E+00 -0.24279087656E+03  0.24279087657E+03  0.25500000920E-02 0.  1.
    10030    2    1    2    0    0  0.00000000000E+00  0.00000000000E+00  0.23842798211E+04  0.28698615742E+04  0.15972836911E+04 0.  0.
        2    1    3    3  502    0 -0.21101410171E+03 -0.51204121884E+03  0.15826323628E+03  0.57598646935E+03  0.25500000920E-02 0.  1.
       -2    1    3    3    0  502  0.21101410171E+03  0.51204121884E+03  0.22260165848E+04  0.22938751049E+04  0.25500000920E-02 0. -1.
</event>
<event>
 5   0  0.1090674E-05  0.1603192E+04  0.7818609E-02  0.8818590E-01
       -1   -1    0    0    0  501  0.00000000000E+00  0.00000000000E+00  0.12552608390E+04  0.12552608391E+04  0.50400001928E-02 0.  1.
        1   -1    0    0  501    0  0.00000000000E+00  0.00000000000E+00 -0.51189023464E+03  0.51189023467E+03  0.50400001928E-02 0. -1.
    10030    2    1    2    0    0  0.00000000000E+00  0.00000000000E+00  0.74337060441E+03  0.17671510737E+04  0.16031915238E+04 0.  0.
        4    1    3    3  502    0 -0.52017420627E+03  0.54348626858E+03  0.66621801977E+02  0.75524738093E+03  0.12699999809E+01 0. -1.
       -4    1    3    3    0  502  0.52017420627E+03 -0.54348626858E+03  0.67674880243E+03  0.10119036928E+04  0.12699999809E+01 0.  1.
</event>
<event>
 5   0  0.1994525E-05  0.1600215E+04  0.7818609E-02  0.8820416E-01
       -2   -1    0    0    0  501  0.00000000000E+00  0.00000000000E+00  0.77559951060E+03  0.77559951060E+03  0.25500000920E-02 0. -1.
        2   -1    0    0  501    0  0.00000000000E+00  0.00000000000E+00 -0.82538963349E+03  0.82538963349E+03  0.25500000920E-02 0.  1.
    10030    2    1    2    0    0  0.00000000000E+00  0.00000000000E+00 -0.49790122891E+02  0.16009891441E+04  0.16002147303E+04 0.  0.
        5    1    3    3  502    0  0.49602390465E+03 -0.43464404710E+03  0.42830820132E+03  0.78640013160E+03  0.46999998093E+01 0. -1.
       -5    1    3    3    0  502 -0.49602390465E+03  0.43464404710E+03 -0.47809832421E+03  0.81458901249E+03  0.46999998093E+01 0.  1.
</event>
<event>
 5   0  0.1060251E-05  0.1600540E+04  0.7818609E-02  0.8820216E-01
       -1   -1    0    0    0  501  0.00000000000E+00  0.00000000000E+00  0.38329831102E+03  0.38329831105E+03  0.50400001928E-02 0. -1.
        1   -1    0    0  501    0  0.00000000000E+00  0.00000000000E+00 -0.16708457384E+04  0.16708457384E+04  0.50400001928E-02 0.  1.
    10030    2    1    2    0    0  0.00000000000E+00  0.00000000000E+00 -0.12875474274E+04  0.20541440495E+04  0.16005403457E+04 0.  0.
        1    1    3    3  502    0  0.18377922415E+03 -0.30599644183E+02  0.35507717326E+03  0.40098745672E+03  0.50400001928E-02 0. -1.
       -1    1    3    3    0  502 -0.18377922415E+03  0.30599644183E+02 -0.16426246007E+04  0.16531565928E+04  0.50400001928E-02 0.  1.
</event>
<event>
 5   0  0.2046108E-05  0.1598531E+04  0.7818609E-02  0.8821451E-01
       -2   -1    0    0    0  501  0.00000000000E+00  0.00000000000E+00  0.12151569451E+04  0.12151569451E+04  0.25500000920E-02 0.  1.
        2   -1    0    0  501    0  0.00000000000E+00  0.00000000000E+00 -0.52571452158E+03  0.52571452159E+03  0.25500000920E-02 0. -1.
    10030    2    1    2    0    0  0.00000000000E+00  0.00000000000E+00  0.68944242353E+03  0.17408714667E+04  0.15985313911E+04 0.  0.
        1    1    3    3  502    0  0.11599191262E+03 -0.21400040047E+03 -0.48436652925E+03  0.54208968804E+03  0.50400001928E-02 0. -1.
       -1    1    3    3    0  502 -0.11599191262E+03  0.21400040047E+03  0.11738089528E+04  0.11987817787E+04  0.50400001928E-02 0.  1.
</event>
<event>
 5   0  0.1126485E-05  0.1600752E+04  0.7818609E-02  0.8820086E-01
       -1   -1    0    0    0  501  0.00000000000E+00  0.00000000000E+00  0.45953031430E+03  0.45953031433E+03  0.50400001928E-02 0. -1.
        1   -1    0    0  501    0  0.00000000000E+00  0.00000000000E+00 -0.13940364069E+04  0.13940364069E+04  0.50400001928E-02 0.  1.
    10030    2    1    2    0    0  0.00000000000E+00  0.00000000000E+00 -0.93450609261E+03  0.18535667213E+04  0.16007523084E+04 0.  0.
        2    1    3    3  502    0 -0.18014580499E+03 -0.86955778711E+02 -0.13646249615E+04  0.13792081439E+04  0.25500000920E-02 0.  1.
       -2    1    3    3    0  502  0.18014580499E+03  0.86955778711E+02  0.43011886893E+03  0.47435857736E+03  0.25500000920E-02 0. -1.
</event>
<event>
 5   0  0.1126485E-05  0.1600222E+04  0.7818609E-02  0.8820412E-01
        1   -1    0    0  501    0  0.00000000000E+00  0.00000000000E+00  0.17157829939E+04  0.17157829939E+04  0.50400001928E-02 0. -1.
       -1   -1    0    0    0  501  0.00000000000E+00  0.00000000000E+00 -0.37311087063E+03  0.37311087066E+03  0.50400001928E-02 0.  1.
    10030    2    1    2    0    0  0.00000000000E+00  0.00000000000E+00  0.13426721232E+04  0.20888938645E+04  0.16002215930E+04 0.  0.
        2    1    3    3  502    0  0.76124549204E+03  0.24172882524E+03  0.60941981927E+03  0.10046492125E+04  0.25500000920E-02 0. -1.
       -2    1    3    3    0  502 -0.76124549204E+03 -0.24172882524E+03  0.73325230396E+03  0.10842446520E+04  0.25500000920E-02 0.  1.
</event>
<event>
 5   0  0.1081831E-05  0.1600752E+04  0.7818609E-02  0.8820086E-01
        1   -1    0    0  501    0  0.00000000000E+00  0.00000000000E+00  0.10512003181E+04  0.10512003181E+04  0.50400001928E-02 0.  1.
       -1   -1    0    0    0  501  0.00000000000E+00  0.00000000000E+00 -0.60940007299E+03  0.60940007301E+03  0.50400001928E-02 0. -1.
    10030    2    1    2    0    0  0.00000000000E+00  0.00000000000E+00  0.44180024512E+03  0.16606003911E+04  0.16007517617E+04 0.  0.
        3    1    3    3  502    0 -0.56776742774E+03 -0.50976780275E+03  0.47155001520E+03  0.89698522383E+03  0.10100000352E+00 0.  1.
       -3    1    3    3    0  502  0.56776742774E+03  0.50976780275E+03 -0.29749770078E+02  0.76361516731E+03  0.10100000352E+00 0. -1.
</event>
<event>
 5   0  0.1057506E-05  0.1599694E+04  0.7818609E-02  0.8820736E-01
       -1   -1    0    0    0  501  0.00000000000E+00  0.00000000000E+00  0.92655147629E+03  0.92655147631E+03  0.50400001928E-02 0. -1.
        1   -1    0    0  501    0  0.00000000000E+00  0.00000000000E+00 -0.69046931040E+03  0.69046931042E+03  0.50400001928E-02 0.  1.
    10030    2    1    2    0    0  0.00000000000E+00  0.00000000000E+00  0.23608216589E+03  0.16170207867E+04  0.15996941694E+04 0.  0.
        5    1    3    3  502    0  0.42861231066E+03  0.36970295413E+03  0.68926758575E+03  0.89190844928E+03  0.46999998093E+01 0. -1.
       -5    1    3    3    0  502 -0.42861231066E+03 -0.36970295413E+03 -0.45318541986E+03  0.72511233744E+03  0.46999998093E+01 0.  1.
</event>
<event>
 5   0  0.1090674E-05  0.1600415E+04  0.7818609E-02  0.8820293E-01
       -1   -1    0    0    0  501  0.00000000000E+00  0.00000000000E+00  0.88810333893E+03  0.88810333895E+03  0.50400001928E-02 0.  1.
        1   -1    0    0  501    0  0.00000000000E+00  0.00000000000E+00 -0.72101043637E+03  0.72101043639E+03  0.50400001928E-02 0. -1.
    10030    2    1    2    0    0  0.00000000000E+00  0.00000000000E+00  0.16709290256E+03  0.16091137753E+04  0.16004146662E+04 0.  0.
        4    1    3    3  502    0  0.16540377056E+03  0.70706481785E+03 -0.25448196098E+03  0.76945548625E+03  0.12699999809E+01 0. -1.
       -4    1    3    3    0  502 -0.16540377056E+03 -0.70706481785E+03  0.42157486354E+03  0.83965828909E+03  0.12699999809E+01 0.  1.
</event>
<event>
 5   0  0.1990948E-05  0.1599932E+04  0.7818609E-02  0.8820590E-01
        2   -1    0    0  501    0  0.00000000000E+00  0.00000000000E+00  0.53212151878E+03  0.53212151879E+03  0.25500000920E-02 0.  1.
       -2   -1    0    0    0  501  0.00000000000E+00  0.00000000000E+00 -0.12026306665E+04  0.12026306665E+04  0.25500000920E-02 0. -1.
    10030    2    1    2    0    0  0.00000000000E+00  0.00000000000E+00 -0.67050914768E+03  0.17347521852E+04  0.15999320695E+04 0.  0.
        4    1    3    3  502    0  0.54948852330E+03  0.49641058971E+03 -0.66338248493E+03  0.99420271827E+03  0.12699999809E+01 0. -1.
       -4    1    3    3    0  502 -0.54948852330E+03 -0.49641058971E+03 -0.71266627494E+01  0.74054946697E+03  0.12699999809E+01 0.  1.
</event>
<event>
 5   0  0.2046108E-05  0.1598405E+04  0.7818609E-02  0.8821529E-01
        2   -1    0    0  501    0  0.00000000000E+00  0.00000000000E+00  0.16508146538E+04  0.16508146538E+04  0.25500000920E-02 0. -1.
       -2   -1    0    0    0  501  0.00000000000E+00  0.00000000000E+00 -0.38691458049E+03  0.38691458050E+03  0.25500000920E-02 0.  1.
    10030    2    1    2    0    0  0.00000000000E+00  0.00000000000E+00  0.12639000733E+04  0.20377292343E+04  0.15984045286E+04 0.  0.
        1    1    3    3  502    0  0.22234687409E+03 -0.62607275722E+03  0.65653037687E+02  0.66761931603E+03  0.50400001928E-02 0. -1.
       -1    1    3    3    0  502 -0.22234687409E+03  0.62607275722E+03  0.11982470356E+04  0.13701099182E+04  0.50400001928E-02 0.  1.
</event>
<event>
 5   0  0.1994525E-05  0.1600473E+04  0.7818609E-02  0.8820258E-01
        2   -1    0    0  501    0  0.00000000000E+00  0.00000000000E+00  0.17094155677E+04  0.17094155677E+04  0.25500000920E-02 0.  1.
       -2   -1    0    0    0  501  0.00000000000E+00  0.00000000000E+00 -0.37461819488E+03  0.37461819489E+03  0.25500000920E-02 0. -1.
    10030    2    1    2    0    0  0.00000000000E+00  0.00000000000E+00  0.13347973728E+04  0.20840337626E+04  0.16004726480E+04 0.  0.
        5    1    3    3  502    0  0.59477911230E+03  0.40173416379E+03  0.11281481323E+04  0.13371210974E+04  0.46999998093E+01 0.  1.
       -5    1    3    3    0  502 -0.59477911230E+03 -0.40173416379E+03  0.20664924055E+03  0.74691266518E+03  0.46999998093E+01 0. -1.
</event>
<event>
 5   0  0.2147844E-05  0.1600149E+04  0.7818609E-02  0.8820456E-01
       -2   -1    0    0    0  501  0.00000000000E+00  0.00000000000E+00  0.38567883932E+03  0.38567883933E+03  0.25500000920E-02 0. -1.
        2   -1    0    0  501    0  0.00000000000E+00  0.00000000000E+00 -0.16597214874E+04  0.16597214874E+04  0.25500000920E-02 0.  1.
    10030    2    1    2    0    0  0.00000000000E+00  0.00000000000E+00 -0.12740426480E+04  0.20454003267E+04  0.16001493141E+04 0.  0.
        2    1    3    3  502    0 -0.12105967085E+03  0.13014668753E+03  0.36012140789E+03  0.40159809836E+03  0.25500000920E-02 0. -1.
       -2    1    3    3    0  502  0.12105967085E+03 -0.13014668753E+03 -0.16341640559E+04  0.16438022283E+04  0.25500000920E-02 0.  1.
</event>
<event>
 5   0  0.1126485E-05  0.1598266E+04  0.7818609E-02  0.8821614E-01
       -1   -1    0    0    0  501  0.00000000000E+00  0.00000000000E+00  0.58268252530E+03  0.58268252532E+03  0.50400001928E-02 0.  1.
        1   -1    0    0  501    0  0.00000000000E+00  0.00000000000E+00 -0.10959884332E+04  0.10959884332E+04  0.50400001928E-02 0. -1.
    10030    2    1    2    0    0  0.00000000000E+00  0.00000000000E+00 -0.51330590785E+03  0.16786709585E+04  0.15982656950E+04 0.  0.
        2    1    3    3  502    0 -0.14081244055E+03 -0.31539944499E+03 -0.10135368307E+04  0.10707762887E+04  0.25500000920E-02 0. -1.
       -2    1    3    3    0  502  0.14081244055E+03  0.31539944499E+03  0.50023092286E+03  0.60789466975E+03  0.25500000920E-02 0.  1.
</event>
<event>
 5   0  0.1060251E-05  0.1597212E+04  0.7818609E-02  0.8822263E-01
       -1   -1    0    0    0  501  0.00000000000E+00  0.00000000000E+00  0.41244406630E+03  0.41244406633E+03  0.50400001928E-02 0. -1.
        1   -1    0    0  501    0  0.00000000000E+00  0.00000000000E+00 -0.15463227553E+04  0.15463227553E+04  0.50400001928E-02 0.  1.
    10030    2    1    2    0    0  0.00000000000E+00  0.00000000000E+00 -0.11338786890E+04  0.19587668216E+04  0.15972121275E+04 0.  0.
        1    1    3    3  502    0  0.57809312167E+03  0.54689400148E+03 -0.64908700785E+03  0.10269365365E+04  0.50400001928E-02 0.  1.
       -1    1    3    3    0  502 -0.57809312167E+03 -0.54689400148E+03 -0.48479168115E+03  0.93183028515E+03  0.50400001928E-02 0. -1.
</event>
<event>
 5   0  0.1994525E-05  0.1599845E+04  0.7818609E-02  0.8820643E-01
       -2   -1    0    0    0  501  0.00000000000E+00  0.00000000000E+00  0.50510143670E+03  0.50510143671E+03  0.25500000920E-02 0.  1.
        2   -1    0    0  501    0  0.00000000000E+00  0.00000000000E+00 -0.12668267879E+04  0.12668267879E+04  0.25500000920E-02 0. -1.
    10030    2    1    2    0    0  0.00000000000E+00  0.00000000000E+00 -0.76172535124E+03  0.17719282247E+04  0.15998450308E+04 0.  0.
        5    1    3    3  502    0  0.27419047021E+03 -0.26107105258E+03 -0.11612938068E+04  0.12214597432E+04  0.46999998093E+01 0. -1.
       -5    1    3    3    0  502 -0.27419047021E+03  0.26107105258E+03  0.39956845555E+03  0.55046848150E+03  0.46999998093E+01 0.  1.
</event>
<event>
 5   0  0.2046108E-05  0.1596129E+04  0.7818609E-02  0.8822930E-01
        2   -1    0    0  501    0  0.00000000000E+00  0.00000000000E+00  0.18229887255E+04  0.18229887255E+04  0.25500000920E-02 0. -1.
       -2   -1    0    0    0  501  0.00000000000E+00  0.00000000000E+00 -0.34937510930E+03  0.34937510931E+03  0.25500000920E-02 0.  1.
    10030    2    1    2    0    0  0.00000000000E+00  0.00000000000E+00  0.14736136162E+04  0.21723638348E+04  0.15961289237E+04 0.  0.
        1    1    3    3  502    0  0.71144730127E+03 -0.25309270511E+03  0.10882919894E+04  0.13246103707E+04  0.50400001928E-02 0. -1.
       -1    1    3    3    0  502 -0.71144730127E+03  0.25309270511E+03  0.38532162680E+03  0.84775346415E+03  0.50400001928E-02 0.  1.
</event>
<event>
 5   0  0.1057506E-05  0.1600270E+04  0.7818609E-02  0.8820382E-01
        1   -1    0    0  501    0  0.00000000000E+00  0.00000000000E+00  0.78920434748E+03  0.78920434750E+03  0.50400001928E-02 0.  1.
       -1   -1    0    0    0  501  0.00000000000E+00  0.00000000000E+00 -0.81121690035E+03  0.81121690036E+03  0.50400001928E-02 0. -1.
    10030    2    1    2    0    0  0.00000000000E+00  0.00000000000E+00 -0.22012552867E+02  0.16004212479E+04  0.16002698579E+04 0.  0.
        5    1    3    3  502    0 -0.18444091629E+03  0.74400341146E+03 -0.24044961549E+03  0.80336643909E+03  0.46999998093E+01 0. -1.
       -5    1    3    3    0  502  0.18444091629E+03 -0.74400341146E+03  0.21843706262E+03  0.79705480877E+03  0.46999998093E+01 0.  1.
</event>
<event>
 5   0  0.1081831E-05  0.1600452E+04  0.7818609E-02  0.8820271E-01
        1   -1    0    0  501    0  0.00000000000E+00  0.00000000000E+00  0.88194030680E+03  0.88194030681E+03  0.50400001928E-02 0.  1.
       -1   -1    0    0    0  501  0.00000000000E+00  0.00000000000E+00 -0.72608256915E+03  0.72608256917E+03  0.50400001928E-02 0. -1.
    10030    2    1    2    0    0  0.00000000000E+00  0.00000000000E+00  0.15585773764E+03  0.16080228760E+04  0.16004517910E+04 0.  0.
        3    1    3    3  502    0  0.65897768918E+03 -0.42368286284E+03 -0.85946080479E+02  0.78812784626E+03  0.10100000352E+00 0. -1.
       -3    1    3    3    0  502 -0.65897768918E+03  0.42368286284E+03  0.24180381812E+03  0.81989502972E+03  0.10100000352E+00 0.  1.
</event>
<event>
 5   0  0.1994525E-05  0.1591774E+04  0.7818609E-02  0.8825618E-01
       -2   -1    0    0    0  501  0.00000000000E+00  0.00000000000E+00  0.64832675098E+03  0.64832675098E+03  0.25500000920E-02 0. -1.
        2   -1    0    0  501    0  0.00000000000E+00  0.00000000000E+00 -0.97703162426E+03  0.97703162426E+03  0.25500000920E-02 0.  1.
    10030    2    1    2    0    0  0.00000000000E+00  0.00000000000E+00 -0.32870487328E+03  0.16253583752E+04  0.15917735248E+04 0.  0.
        5    1    3    3  502    0  0.50532872463E+03  0.57235096696E+03 -0.39374977670E+03  0.85907143240E+03  0.46999998093E+01 0. -1.
       -5    1    3    3    0  502 -0.50532872463E+03 -0.57235096696E+03  0.65044903417E+02  0.76628694285E+03  0.46999998093E+01 0.  1.
</event>
<event>
 5   0  0.1081831E-05  0.1600695E+04  0.7818609E-02  0.8820121E-01
        1   -1    0    0  501    0  0.00000000000E+00  0.00000000000E+00  0.18080021578E+04  0.18080021578E+04  0.50400001928E-02 0. -1.
       -1   -1    0    0    0  501  0.00000000000E+00  0.00000000000E+00 -0.35428953743E+03  0.35428953746E+03  0.50400001928E-02 0.  1.
    10030    2    1    2    0    0  0.00000000000E+00  0.00000000000E+00  0.14537126204E+04  0.21622916953E+04  0.16006951593E+04 0.  0.
        3    1    3    3  502    0 -0.31203101971E+03 -0.73693799108E+03  0.74136001507E+03  0.10908967147E+04  0.10100000352E+00 0. -1.
       -3    1    3    3    0  502  0.31203101971E+03  0.73693799108E+03  0.71235260535E+03  0.10713949806E+04  0.10100000352E+00 0.  1.
</event>
<event>
 5   0  0.1994525E-05  0.1600270E+04  0.7818609E-02  0.8820382E-01
        2   -1    0    0  501    0  0.00000000000E+00  0.00000000000E+00  0.66781286257E+03  0.66781286257E+03  0.25500000920E-02 0. -1.
       -2   -1    0    0    0  501  0.00000000000E+00  0.00000000000E+00 -0.95867632631E+03  0.95867632631E+03  0.25500000920E-02 0.  1.
    10030    2    1    2    0    0  0.00000000000E+00  0.00000000000E+00 -0.29086346374E+03  0.16264891889E+04  0.16002704543E+04 0.  0.
        5    1    3    3  502    0 -0.38352936117E+03 -0.64437033567E+03 -0.42908551832E+03  0.86397012240E+03  0.46999998093E+01 0.  1.
       -5    1    3    3    0  502  0.38352936117E+03  0.64437033567E+03  0.13822205458E+03  0.76251906648E+03  0.46999998093E+01 0. -1.
</event>
<event>
 5   0  0.1126485E-05  0.1599590E+04  0.7818609E-02  0.8820800E-01
       -1   -1    0    0    0  501  0.00000000000E+00  0.00000000000E+00  0.41982723641E+03  0.41982723644E+03  0.50400001928E-02 0.  1.
        1   -1    0    0  501    0  0.00000000000E+00  0.00000000000E+00 -0.15236561241E+04  0.15236561241E+04  0.50400001928E-02 0. -1.
    10030    2    1    2    0    0  0.00000000000E+00  0.00000000000E+00 -0.11038288877E+04  0.19434833606E+04  0.15995903724E+04 0.  0.
        2    1    3    3  502    0  0.59905681587E+03  0.39694858031E+03 -0.97843429474E+03  0.12139896677E+04  0.25500000920E-02 0. -1.
       -2    1    3    3    0  502 -0.59905681587E+03 -0.39694858031E+03 -0.12539459297E+03  0.72949369291E+03  0.25500000920E-02 0.  1.
</event>
<event>
 5   0  0.2046108E-05  0.1600011E+04  0.7818609E-02  0.8820541E-01
       -2   -1    0    0    0  501  0.00000000000E+00  0.00000000000E+00  0.35088490231E+03  0.35088490232E+03  0.25500000920E-02 0. -1.
        2   -1    0    0  501    0  0.00000000000E+00  0.00000000000E+00 -0.18239860075E+04  0.18239860075E+04  0.25500000920E-02 0.  1.
    10030    2    1    2    0    0  0.00000000000E+00  0.00000000000E+00 -0.14731011052E+04  0.21748709099E+04  0.16000114401E+04 0.  0.
        1    1    3    3  502    0  0.74983937351E+03  0.24969208231E+03 -0.56784624761E+03  0.97316729445E+03  0.50400001928E-02 0. -1.
       -1    1    3    3    0  502 -0.74983937351E+03 -0.24969208231E+03 -0.90525485761E+03  0.12017036154E+04  0.50400001928E-02 0.  1.
</event>
<event>
 5   0  0.1126485E-05  0.1600906E+04  0.7818609E-02  0.8819991E-01
       -1   -1    0    0    0  501  0.00000000000E+00  0.00000000000E+00  0.65167729884E+03  0.65167729885E+03  0.50400001928E-02 0. -1.
        1   -1    0    0  501    0  0.00000000000E+00  0.00000000000E+00 -0.98319411193E+03  0.98319411194E+03  0.50400001928E-02 0.  1.
    10030    2    1    2    0    0  0.00000000000E+00  0.00000000000E+00 -0.33151681309E+03  0.16348714108E+04  0.16009063472E+04 0.  0.
        2    1    3    3  502    0  0.55086219692E+03  0.54824159645E+03 -0.36141466571E+03  0.85711059302E+03  0.25500000920E-02 0. -1.
       -2    1    3    3    0  502 -0.55086219692E+03 -0.54824159645E+03  0.29897852619E+02  0.77776081778E+03  0.25500000920E-02 0.  1.
</event>
<event>
 5   0  0.1990948E-05  0.1601729E+04  0.7818609E-02  0.8819487E-01
       -2   -1    0    0    0  501  0.00000000000E+00  0.00000000000E+00  0.10935696762E+04  0.10935696762E+04  0.25500000920E-02 0. -1.
        2   -1    0    0  501    0  0.00000000000E+00  0.00000000000E+00 -0.58650462704E+03  0.58650462704E+03  0.25500000920E-02 0.  1.
    10030    2    1    2    0    0  0.00000000000E+00  0.00000000000E+00  0.50706504916E+03  0.16800743032E+04  0.16017286600E+04 0.  0.
        4    1    3    3  502    0 -0.65519993080E+03  0.40712984942E+02 -0.22764039522E+03  0.69481383039E+03  0.12699999809E+01 0.  1.
       -4    1    3    3    0  502  0.65519993080E+03 -0.40712984942E+02  0.73470544437E+03  0.98526047285E+03  0.12699999809E+01 0. -1.
</event>
<event>
 5   0  0.1090674E-05  0.1600098E+04  0.7818609E-02  0.8820488E-01
        1   -1    0    0  501    0  0.00000000000E+00  0.00000000000E+00  0.12066323460E+04  0.12066323460E+04  0.50400001928E-02 0.  1.
       -1   -1    0    0    0  501  0.00000000000E+00  0.00000000000E+00 -0.53046661096E+03  0.53046661098E+03  0.50400001928E-02 0. -1.
    10030    2    1    2    0    0  0.00000000000E+00  0.00000000000E+00  0.67616573505E+03  0.17370989570E+04  0.16000977111E+04 0.  0.
        4    1    3    3  502    0  0.63022228080E+03  0.47583464466E+03  0.19872611623E+03  0.81430486579E+03  0.12699999809E+01 0.  1.
       -4    1    3    3    0  502 -0.63022228080E+03 -0.47583464466E+03  0.47743961881E+03  0.92279409121E+03  0.12699999809E+01 0. -1.
</event>
<event>
 5   0  0.7597000E-06  0.1599464E+04  0.7818609E-02  0.8820878E-01
       -4   -1    0    0    0  501  0.00000000000E+00  0.00000000000E+00  0.56840124216E+03  0.56840266096E+03  0.12699999809E+01 0.  1.
        4   -1    0    0  501    0  0.00000000000E+00  0.00000000000E+00 -0.11252071508E+04  0.11252078675E+04  0.12699999809E+01 0. -1.
    10030    2    1    2    0    0  0.00000000000E+00  0.00000000000E+00 -0.55680590860E+03  0.16936105284E+04  0.15994635983E+04 0.  0.
        5    1    3    3  502    0  0.77674581151E+03  0.11990540555E+03 -0.12192951481E+03  0.79536171555E+03  0.46999998093E+01 0.  1.
       -5    1    3    3    0  502 -0.77674581151E+03 -0.11990540555E+03 -0.43487639379E+03  0.89824881288E+03  0.46999998093E+01 0. -1.
</event>
<event>
 5   0  0.1057506E-05  0.1598934E+04  0.7818609E-02  0.8821203E-01
       -1   -1    0    0    0  501  0.00000000000E+00  0.00000000000E+00  0.73184608246E+03  0.73184608248E+03  0.50400001928E-02 0. -1.
        1   -1    0    0  501    0  0.00000000000E+00  0.00000000000E+00 -0.87333577544E+03  0.87333577546E+03  0.50400001928E-02 0.  1.
    10030    2    1    2    0    0  0.00000000000E+00  0.00000000000E+00 -0.14148969298E+03  0.16051818579E+04  0.15989338522E+04 0.  0.
        5    1    3    3  502    0 -0.79150087178E+03  0.11040021496E+03 -0.92356589178E+02  0.80449590866E+03  0.46999998093E+01 0.  1.
       -5    1    3    3    0  502  0.79150087178E+03 -0.11040021496E+03 -0.49133103800E+02  0.80068594928E+03  0.46999998093E+01 0. -1.
</event>
<event>
 5   0  0.1126485E-05  0.1600141E+04  0.7818609E-02  0.8820461E-01
       -1   -1    0    0    0  501  0.00000000000E+00  0.00000000000E+00  0.11234144596E+04  0.11234144596E+04  0.50400001928E-02 0.  1.
        1   -1    0    0  501    0  0.00000000000E+00  0.00000000000E+00 -0.56979224334E+03  0.56979224336E+03  0.50400001928E-02 0. -1.
    10030    2    1    2    0    0  0.00000000000E+00  0.00000000000E+00  0.55362221622E+03  0.16932067029E+04  0.16001410502E+04 0.  0.
        2    1    3    3  502    0  0.53498220650E+01  0.68912847060E+03 -0.15325831011E+03  0.70598497095E+03  0.25500000920E-02 0. -1.
       -2    1    3    3    0  502 -0.53498220650E+01 -0.68912847060E+03  0.70688052632E+03  0.98722173198E+03  0.25500000920E-02 0.  1.
</event>
<event>
 5   0  0.1081831E-05  0.1600304E+04  0.7818609E-02  0.8820361E-01
        1   -1    0    0  501    0  0.00000000000E+00  0.00000000000E+00  0.16428520401E+04  0.16428520401E+04  0.50400001928E-02 0. -1.
       -1   -1    0    0    0  501  0.00000000000E+00  0.00000000000E+00 -0.38971455037E+03  0.38971455040E+03  0.50400001928E-02 0.  1.
    10030    2    1    2    0    0  0.00000000000E+00  0.00000000000E+00  0.12531374897E+04  0.20325665905E+04  0.16003041513E+04 0.  0.
        3    1    3    3  502    0  0.56795408110E+03  0.17845523710E+03  0.13056043190E+04  0.14349288338E+04  0.10100000352E+00 0. -1.
       -3    1    3    3    0  502 -0.56795408110E+03 -0.17845523710E+03 -0.52466829316E+02  0.59763775673E+03  0.10100000352E+00 0.  1.
</event>
<event>
 5   0  0.1057506E-05  0.1599650E+04  0.7818609E-02  0.8820763E-01
       -1   -1    0    0    0  501  0.00000000000E+00  0.00000000000E+00  0.52730216045E+03  0.52730216047E+03  0.50400001928E-02 0.  1.
        1   -1    0    0  501    0  0.00000000000E+00  0.00000000000E+00 -0.12131937461E+04  0.12131937461E+04  0.50400001928E-02 0. -1.
    10030    2    1    2    0    0  0.00000000000E+00  0.00000000000E+00 -0.68589158565E+03  0.17404959066E+04  0.15996495659E+04 0.  0.
        5    1    3    3  502    0  0.27432641904E+02 -0.74430218361E+03 -0.25803892471E+02  0.74526922735E+03  0.46999998093E+01 0. -1.
       -5    1    3    3    0  502 -0.27432641904E+02  0.74430218361E+03 -0.66008769318E+03  0.99522667923E+03  0.46999998093E+01 0.  1.
</event>
<event>
 5   0  0.1057506E-05  0.1600690E+04  0.7818609E-02  0.8820124E-01
       -1   -1    0    0    0  501  0.00000000000E+00  0.00000000000E+00  0.67818853243E+03  0.67818853245E+03  0.50400001928E-02 0.  1.
        1   -1    0    0  501    0  0.00000000000E+00  0.00000000000E+00 -0.94450486551E+03  0.94450486552E+03  0.50400001928E-02 0. -1.
    10030    2    1    2    0    0  0.00000000000E+00  0.00000000000E+00 -0.26631633308E+03  0.16226933980E+04  0.16006903119E+04 0.  0.
        5    1    3    3  502    0  0.64996480992E+03 -0.43875501458E+03  0.28946322145E+02  0.78474212103E+03  0.46999998093E+01 0.  1.
       -5    1    3    3    0  502 -0.64996480992E+03  0.43875501458E+03 -0.29526265522E+03  0.83795127694E+03  0.46999998093E+01 0. -1.
</event>
<event>
 5   0  0.1057506E-05  0.1600196E+04  0.7818609E-02  0.8820428E-01
        1   -1    0    0  501    0  0.00000000000E+00  0.00000000000E+00  0.77269805666E+03  0.77269805668E+03  0.50400001928E-02 0. -1.
       -1   -1    0    0    0  501  0.00000000000E+00  0.00000000000E+00 -0.82846972431E+03  0.82846972433E+03  0.50400001928E-02 0.  1.
    10030    2    1    2    0    0  0.00000000000E+00  0.00000000000E+00 -0.55771667649E+02  0.16011677810E+04  0.16001961705E+04 0.  0.
        5    1    3    3  502    0 -0.11814254499E+03 -0.12555163086E+03  0.75387849961E+03  0.77335357704E+03  0.46999998093E+01 0. -1.
       -5    1    3    3    0  502  0.11814254499E+03  0.12555163086E+03 -0.80965016726E+03  0.82781420397E+03  0.46999998093E+01 0.  1.
</event>
<event>
 5   0  0.1990948E-05  0.1601141E+04  0.7818609E-02  0.8819847E-01
        2   -1    0    0  501    0  0.00000000000E+00  0.00000000000E+00  0.11662632615E+04  0.11662632615E+04  0.25500000920E-02 0. -1.
       -2   -1    0    0    0  501  0.00000000000E+00  0.00000000000E+00 -0.54954440052E+03  0.54954440052E+03  0.25500000920E-02 0.  1.
    10030    2    1    2    0    0  0.00000000000E+00  0.00000000000E+00  0.61671886097E+03  0.17158076620E+04  0.16011413990E+04 0.  0.
        4    1    3    3  502    0 -0.22263287801E+02 -0.72355538529E+03  0.67472617437E+03  0.98958833504E+03  0.12699999809E+01 0.  1.
       -4    1    3    3    0  502  0.22263287801E+02  0.72355538529E+03 -0.58007313401E+02  0.72621932697E+03  0.12699999809E+01 0. -1.
</event>
<event>
 5   0  0.1090674E-05  0.1599762E+04  0.7818609E-02  0.8820694E-01
        1   -1    0    0  501    0  0.00000000000E+00  0.00000000000E+00  0.84109759245E+03  0.84109759246E+03  0.50400001928E-02 0. -1.
       -1   -1    0    0    0  501  0.00000000000E+00  0.00000000000E+00 -0.76068390865E+03  0.76068390866E+03  0.50400001928E-02 0.  1.
    10030    2    1    2    0    0  0.00000000000E+00  0.00000000000E+00  0.80413683801E+02  0.16017815011E+04  0.15997617375E+04 0.  0.
        4    1    3    3  502    0  0.40473808487E+03 -0.53847970260E+03 -0.39165486332E+03  0.77921014645E+03  0.12699999809E+01 0.  1.
       -4    1    3    3    0  502 -0.40473808487E+03  0.53847970260E+03  0.47206854713E+03  0.82257135468E+03  0.12699999809E+01 0. -1.
</event>
<event>
 5   0  0.2125803E-05  0.1600037E+04  0.7818609E-02  0.8820525E-01
       -2   -1    0    0    0  501  0.00000000000E+00  0.00000000000E+00  0.93479334581E+03  0.93479334581E+03  0.25500000920E-02 0. -1.
        2   -1    0    0  501    0  0.00000000000E+00  0.00000000000E+00 -0.68467520466E+03  0.68467520467E+03  0.25500000920E-02 0.  1.
    10030    2    1    2    0    0  0.00000000000E+00  0.00000000000E+00  0.25011814115E+03  0.16194685505E+04  0.16000372813E+04 0.  0.
        3    1    3    3  502    0  0.26251135941E+03 -0.60449418004E+03  0.58411351266E+03  0.88063274604E+03  0.10100000352E+00 0. -1.
       -3    1    3    3    0  502 -0.26251135941E+03  0.60449418004E+03 -0.33399537152E+03  0.73883580444E+03  0.10100000352E+00 0.  1.
</event>
<event>
 5   0  0.2046108E-05  0.1600417E+04  0.7818609E-02  0.8820292E-01
        2   -1    0    0  501    0  0.00000000000E+00  0.00000000000E+00  0.18737988885E+04  0.18737988885E+04  0.25500000920E-02 0.  1.
       -2   -1    0    0    0  501  0.00000000000E+00  0.00000000000E+00 -0.34173016412E+03  0.34173016413E+03  0.25500000920E-02 0. -1.
    10030    2    1    2    0    0  0.00000000000E+00  0.00000000000E+00  0.15320687243E+04  0.22155290526E+04  0.16004169478E+04 0.  0.
        1    1    3    3  502    0 -0.34619414033E+03  0.62682160199E+03  0.27157337784E+03  0.76583797444E+03  0.50400001928E-02 0.  1.
       -1    1    3    3    0  502  0.34619414033E+03 -0.62682160199E+03  0.12604953465E+04  0.14496910781E+04  0.50400001928E-02 0. -1.
</event>
<event>
 5   0  0.1090674E-05  0.1599780E+04  0.7818609E-02  0.8820683E-01
       -1   -1    0    0    0  501  0.00000000000E+00  0.00000000000E+00  0.74986826681E+03  0.74986826682E+03  0.50400001928E-02 0.  1.
        1   -1    0    0  501    0  0.00000000000E+00  0.00000000000E+00 -0.85324851212E+03  0.85324851214E+03  0.50400001928E-02 0. -1.
    10030    2    1    2    0    0  0.00000000000E+00  0.00000000000E+00 -0.10338024531E+03  0.16031167790E+04  0.15997799636E+04 0.  0.
        4    1    3    3  502    0  0.32591650891E+03  0.71163845523E+03  0.11349151981E+03  0.79090631538E+03  0.12699999809E+01 0.  1.
       -4    1    3    3    0  502 -0.32591650891E+03 -0.71163845523E+03 -0.21687176513E+03  0.81221046358E+03  0.12699999809E+01 0. -1.
</event>
<event>
 5   0  0.2046108E-05  0.1603839E+04  0.7818609E-02  0.8818193E-01
        2   -1    0    0  501    0  0.00000000000E+00  0.00000000000E+00  0.90210293078E+03  0.90210293079E+03  0.25500000920E-02 0.  1.
       -2   -1    0    0    0  501  0.00000000000E+00  0.00000000000E+00 -0.71286221460E+03  0.71286221461E+03  0.25500000920E-02 0. -1.
    10030    2    1    2    0    0  0.00000000000E+00  0.00000000000E+00  0.18924071618E+03  0.16149651454E+04  0.16038392601E+04 0.  0.
        1    1    3    3  502    0 -0.71471998675E+03 -0.29076614072E+03 -0.12531065311E+03  0.78171117931E+03  0.50400001928E-02 0. -1.
       -1    1    3    3    0  502  0.71471998675E+03  0.29076614072E+03  0.31455136929E+03  0.83325396608E+03  0.50400001928E-02 0.  1.
</event>
<event>
 5   0  0.2125803E-05  0.1599838E+04  0.7818609E-02  0.8820647E-01
       -2   -1    0    0    0  501  0.00000000000E+00  0.00000000000E+00  0.27956537262E+03  0.27956537263E+03  0.25500000920E-02 0.  1.
        2   -1    0    0  501    0  0.00000000000E+00  0.00000000000E+00 -0.22888052996E+04  0.22888052996E+04  0.25500000920E-02 0. -1.
    10030    2    1    2    0    0  0.00000000000E+00  0.00000000000E+00 -0.20092399270E+04  0.25683706723E+04  0.15998383749E+04 0.  0.
        3    1    3    3  502    0 -0.15067195708E+03  0.58180069353E+03 -0.15713529136E+03  0.62119690569E+03  0.10100000352E+00 0.  1.
       -3    1    3    3    0  502  0.15067195708E+03 -0.58180069353E+03 -0.18521046356E+04  0.19471737666E+04  0.10100000352E+00 0. -1.
</event>
<event>
 5   0  0.1126485E-05  0.1599907E+04  0.7818609E-02  0.8820605E-01
       -1   -1    0    0    0  501  0.00000000000E+00  0.00000000000E+00  0.10095083256E+04  0.10095083257E+04  0.50400001928E-02 0. -1.
        1   -1    0    0  501    0  0.00000000000E+00  0.00000000000E+00 -0.63389858948E+03  0.63389858950E+03  0.50400001928E-02 0.  1.
    10030    2    1    2    0    0  0.00000000000E+00  0.00000000000E+00  0.37560973616E+03  0.16434069152E+04  0.15999073770E+04 0.  0.
        2    1    3    3  502    0 -0.68469130926E+02  0.79165517378E+03  0.28261816360E+03  0.84337356045E+03  0.25500000920E-02 0.  1.
       -2    1    3    3    0  502  0.68469130926E+02 -0.79165517378E+03  0.92991572563E+02  0.80003335471E+03  0.25500000920E-02 0. -1.
</event>
<event>
 5   0  0.2125803E-05  0.1600561E+04  0.7818609E-02  0.8820204E-01
       -2   -1    0    0    0  501  0.00000000000E+00  0.00000000000E+00  0.52122640962E+03  0.52122640962E+03  0.25500000920E-02 0. -1.
        2   -1    0    0  501    0  0.00000000000E+00  0.00000000000E+00 -0.12287343203E+04  0.12287343203E+04  0.25500000920E-02 0.  1.
    10030    2    1    2    0    0  0.00000000000E+00  0.00000000000E+00 -0.70750791064E+03  0.17499607299E+04  0.16005608744E+04 0.  0.
        3    1    3    3  502    0  0.61122640662E+02 -0.56366622189E+03  0.26376004205E+03  0.62531988364E+03  0.10100000352E+00 0. -1.
       -3    1    3    3    0  502 -0.61122640662E+02  0.56366622189E+03 -0.97126795269E+03  0.11246408462E+04  0.10100000352E+00 0.  1.
</event>
<event>
 5   0  0.1090674E-05  0.1600081E+04  0.7818609E-02  0.8820498E-01
       -1   -1    0    0    0  501  0.00000000000E+00  0.00000000000E+00  0.16350513380E+04  0.16350513380E+04  0.50400001928E-02 0. -1.
        1   -1    0    0  501    0  0.00000000000E+00  0.00000000000E+00 -0.39146468843E+03  0.39146468846E+03  0.50400001928E-02 0.  1.
    10030    2    1    2    0    0  0.00000000000E+00  0.00000000000E+00  0.12435866495E+04  0.20265160264E+04  0.16000810762E+04 0.  0.
        4    1    3    3  502    0  0.53828787338E+03  0.50344573337E+03  0.22764297040E+03  0.77138471332E+03  0.12699999809E+01 0.  1.
       -4    1    3    3    0  502 -0.53828787338E+03 -0.50344573337E+03  0.10159436791E+04  0.12551313131E+04  0.12699999809E+01 0. -1.
</event>
<event>
 5   0  0.1126485E-05  0.1601168E+04  0.7818609E-02  0.8819831E-01
        1   -1    0    0  501    0  0.00000000000E+00  0.00000000000E+00  0.78165559487E+03  0.78165559488E+03  0.50400001928E-02 0. -1.
       -1   -1    0    0    0  501  0.00000000000E+00  0.00000000000E+00 -0.81997049468E+03  0.81997049469E+03  0.50400001928E-02 0.  1.
    10030    2    1    2    0    0  0.00000000000E+00  0.00000000000E+00 -0.38314899811E+02  0.16016260896E+04  0.16011677299E+04 0.  0.
        2    1    3    3  502    0  0.26503651284E+03 -0.75489999135E+03 -0.47734400185E+02  0.80149667687E+03  0.25500000920E-02 0.  1.
       -2    1    3    3    0  502 -0.26503651284E+03  0.75489999135E+03  0.94195003741E+01  0.80012941270E+03  0.25500000920E-02 0. -1.
</event>
<event>
 5   0  0.1060251E-05  0.1601954E+04  0.7818609E-02  0.8819348E-01
        1   -1    0    0  501    0  0.00000000000E+00  0.00000000000E+00  0.21365190087E+04  0.21365190087E+04  0.50400001928E-02 0. -1.
       -1   -1    0    0    0  501  0.00000000000E+00  0.00000000000E+00 -0.30028484470E+03  0.30028484474E+03  0.50400001928E-02 0.  1.
    10030    2    1    2    0    0  0.00000000000E+00  0.00000000000E+00  0.18362341640E+04  0.24368038534E+04  0.16019541551E+04 0.  0.
        1    1    3    3  502    0 -0.40745524392E+03  0.64182854409E+03  0.13017370230E+04  0.15074756824E+04  0.50400001928E-02 0. -1.
       -1    1    3    3    0  502  0.40745524392E+03 -0.64182854409E+03  0.53449714095E+03  0.92932817106E+03  0.50400001928E-02 0.  1.
</event>
<event>
 5   0  0.2046108E-05  0.1598882E+04  0.7818609E-02  0.8821235E-01
        2   -1    0    0  501    0  0.00000000000E+00  0.00000000000E+00  0.13823678128E+04  0.13823678128E+04  0.25500000920E-02 0. -1.
       -2   -1    0    0    0  501  0.00000000000E+00  0.00000000000E+00 -0.46232690180E+03  0.46232690181E+03  0.25500000920E-02 0.  1.
    10030    2    1    2    0    0  0.00000000000E+00  0.00000000000E+00  0.92004091103E+03  0.18446947146E+04  0.15988818944E+04 0.  0.
        1    1    3    3  502    0 -0.48270599077E+03 -0.15715430084E+03  0.11725458229E+04  0.12777191611E+04  0.50400001928E-02 0. -1.
       -1    1    3    3    0  502  0.48270599077E+03  0.15715430084E+03 -0.25250491185E+03  0.56697555356E+03  0.50400001928E-02 0.  1.
</event>
<event>
 5   0  0.1060251E-05  0.1601934E+04  0.7818609E-02  0.8819360E-01
        1   -1    0    0  501    0  0.00000000000E+00  0.00000000000E+00  0.70419984684E+03  0.70419984685E+03  0.50400001928E-02 0. -1.
       -1   -1    0    0    0  501  0.00000000000E+00  0.00000000000E+00 -0.91103189821E+03  0.91103189822E+03  0.50400001928E-02 0.  1.
    10030    2    1    2    0    0  0.00000000000E+00  0.00000000000E+00 -0.20683205137E+03  0.16152317451E+04  0.16019344846E+04 0.  0.
        1    1    3    3  502    0  0.11160791250E+02  0.26795295448E+03 -0.86441606317E+03  0.90506269361E+03  0.50400001928E-02 0.  1.
       -1    1    3    3    0  502 -0.11160791250E+02 -0.26795295448E+03  0.65758401179E+03  0.71016905147E+03  0.50400001928E-02 0. -1.
</event>
<event>
 5   0  0.1090674E-05  0.1600155E+04  0.7818609E-02  0.8820453E-01
        1   -1    0    0  501    0  0.00000000000E+00  0.00000000000E+00  0.69909834953E+03  0.69909834955E+03  0.50400001928E-02 0.  1.
       -1   -1    0    0    0  501  0.00000000000E+00  0.00000000000E+00 -0.91564273814E+03  0.91564273816E+03  0.50400001928E-02 0. -1.
    10030    2    1    2    0    0  0.00000000000E+00  0.00000000000E+00 -0.21654438861E+03  0.16147410877E+04  0.16001554012E+04 0.  0.
        4    1    3    3  502    0 -0.33267795042E+02  0.39799792927E+03  0.59131003606E+03  0.71355327029E+03  0.12699999809E+01 0.  1.
       -4    1    3    3    0  502  0.33267795042E+02 -0.39799792927E+03 -0.80785442468E+03  0.90118781742E+03  0.12699999809E+01 0. -1.
</event>
<event>
 5   0  0.2147844E-05  0.1606774E+04  0.7818609E-02  0.8816397E-01
       -2   -1    0    0    0  501  0.00000000000E+00  0.00000000000E+00  0.61339219864E+03  0.61339219865E+03  0.25500000920E-02 0.  1.
        2   -1    0    0  501    0  0.00000000000E+00  0.00000000000E+00 -0.10522319087E+04  0.10522319087E+04  0.25500000920E-02 0. -1.
    10030    2    1    2    0    0  0.00000000000E+00  0.00000000000E+00 -0.43883971008E+03  0.16656241074E+04  0.16067742144E+04 0.  0.
        2    1    3    3  502    0  0.75466776905E+03 -0.18293661802E+03 -0.58607960583E+01  0.77654593991E+03  0.25500000920E-02 0.  1.
       -2    1    3    3    0  502 -0.75466776905E+03  0.18293661802E+03 -0.43297891402E+03  0.88907816746E+03  0.25500000920E-02 0. -1.
</event>
<event>
 5   0  0.2147844E-05  0.1600340E+04  0.7818609E-02  0.8820339E-01
       -2   -1    0    0    0  501  0.00000000000E+00  0.00000000000E+00  0.45893616643E+03  0.45893616644E+03  0.25500000920E-02 0. -1.
        2   -1    0    0  501    0  0.00000000000E+00  0.00000000000E+00 -0.13951215259E+04  0.13951215259E+04  0.25500000920E-02 0.  1.
    10030    2    1    2    0    0  0.00000000000E+00  0.00000000000E+00 -0.93618535947E+03  0.18540576923E+04  0.16003396200E+04 0.  0.
        2    1    3    3  502    0  0.27932929946E+03 -0.32650403083E+03 -0.12501218524E+04  0.13219055888E+04  0.25500000920E-02 0.  1.
       -2    1    3    3    0  502 -0.27932929946E+03  0.32650403083E+03  0.31393649298E+03  0.53215210356E+03  0.25500000920E-02 0. -1.
</event>
<event>
 5   0  0.7597000E-06  0.1598211E+04  0.7818609E-02  0.8821648E-01
        4   -1    0    0  501    0  0.00000000000E+00  0.00000000000E+00  0.76237014713E+03  0.76237120495E+03  0.12699999809E+01 0. -1.
       -4   -1    0    0    0  501  0.00000000000E+00  0.00000000000E+00 -0.83760838330E+03  0.83760934611E+03  0.12699999809E+01 0.  1.
    10030    2    1    2    0    0  0.00000000000E+00  0.00000000000E+00 -0.75238236173E+02  0.15999805511E+04  0.15982105530E+04 0.  0.
        2    1    3    3  502    0 -0.27768180998E+03  0.80436883479E+02 -0.78342199890E+03  0.83506126014E+03  0.25500000920E-02 0.  1.
       -2    1    3    3    0  502  0.27768180998E+03 -0.80436883479E+02  0.70818376273E+03  0.76491929092E+03  0.25500000920E-02 0. -1.
</event>
<event>
 5   0  0.2046108E-05  0.1600420E+04  0.7818609E-02  0.8820290E-01
        2   -1    0    0  501    0  0.00000000000E+00  0.00000000000E+00  0.81038519603E+03  0.81038519604E+03  0.25500000920E-02 0.  1.
       -2   -1    0    0    0  501  0.00000000000E+00  0.00000000000E+00 -0.79016267927E+03  0.79016267927E+03  0.25500000920E-02 0. -1.
    10030    2    1    2    0    0  0.00000000000E+00  0.00000000000E+00  0.20222516768E+02  0.16005478753E+04  0.16004201170E+04 0.  0.
        1    1    3    3  502    0  0.30143355947E+03 -0.69625153760E+03 -0.24428621552E+03  0.79705969005E+03  0.50400001928E-02 0. -1.
       -1    1    3    3    0  502 -0.30143355947E+03  0.69625153760E+03  0.26450873228E+03  0.80348818526E+03  0.50400001928E-02 0.  1.
</event>
<event>
 5   0  0.1081831E-05  0.1601118E+04  0.7818609E-02  0.8819862E-01
        1   -1    0    0  501    0  0.00000000000E+00  0.00000000000E+00  0.96313603360E+03  0.96313603362E+03  0.50400001928E-02 0. -1.
       -1   -1    0    0    0  501  0.00000000000E+00  0.00000000000E+00 -0.66542455872E+03  0.66542455874E+03  0.50400001928E-02 0.  1.
    10030    2    1    2    0    0  0.00000000000E+00  0.00000000000E+00  0.29771147488E+03  0.16285605924E+04  0.16011175724E+04 0.  0.
        3    1    3    3  502    0 -0.61177350233E+03  0.37556224259E+03  0.50930312087E+03  0.88017242364E+03  0.10100000352E+00 0. -1.
       -3    1    3    3    0  502  0.61177350233E+03 -0.37556224259E+03 -0.21159164599E+03  0.74838816871E+03  0.10100000352E+00 0.  1.
</event>
<event>
 5   0  0.1990948E-05  0.1598924E+04  0.7818609E-02  0.8821209E-01
       -2   -1    0    0    0  501  0.00000000000E+00  0.00000000000E+00  0.21756416055E+03  0.21756416056E+03  0.25500000920E-02 0.  1.
        2   -1    0    0  501    0  0.00000000000E+00  0.00000000000E+00 -0.29377050008E+04  0.29377050008E+04  0.25500000920E-02 0. -1.
    10030    2    1    2    0    0  0.00000000000E+00  0.00000000000E+00 -0.27201408402E+04  0.31552691613E+04  0.15989237911E+04 0.  0.
        4    1    3    3  502    0 -0.55078251401E+03  0.11115552788E+03 -0.23781268213E+03  0.61014212590E+03  0.12699999809E+01 0.  1.
       -4    1    3    3    0  502  0.55078251401E+03 -0.11115552788E+03 -0.24823281581E+04  0.25451270354E+04  0.12699999809E+01 0. -1.
</event>
<event>
 5   0  0.1994525E-05  0.1598614E+04  0.7818609E-02  0.8821400E-01
       -2   -1    0    0    0  501  0.00000000000E+00  0.00000000000E+00  0.26718535823E+03  0.26718535824E+03  0.25500000920E-02 0. -1.
        2   -1    0    0  501    0  0.00000000000E+00  0.00000000000E+00 -0.23911932186E+04  0.23911932186E+04  0.25500000920E-02 0.  1.
    10030    2    1    2    0    0  0.00000000000E+00  0.00000000000E+00 -0.21240078604E+04  0.26583785768E+04  0.15986141707E+04 0.  0.
        5    1    3    3  502    0  0.66291835153E+03  0.13754147236E+03 -0.35552153886E+03  0.76471959044E+03  0.46999998093E+01 0.  1.
       -5    1    3    3    0  502 -0.66291835153E+03 -0.13754147236E+03 -0.17684863215E+04  0.18936589864E+04  0.46999998093E+01 0. -1.
</event>
<event>
 5   0  0.2125803E-05  0.1600725E+04  0.7818609E-02  0.8820103E-01
        2   -1    0    0  501    0  0.00000000000E+00  0.00000000000E+00  0.99539703529E+03  0.99539703529E+03  0.25500000920E-02 0. -1.
       -2   -1    0    0    0  501  0.00000000000E+00  0.00000000000E+00 -0.64354220937E+03  0.64354220938E+03  0.25500000920E-02 0.  1.
    10030    2    1    2    0    0  0.00000000000E+00  0.00000000000E+00  0.35185482591E+03  0.16389392447E+04  0.16007248449E+04 0.  0.
        3    1    3    3  502    0 -0.39227215135E+03 -0.64784240238E+03 -0.89101084092E+02  0.76257211622E+03  0.10100000352E+00 0.  1.
       -3    1    3    3    0  502  0.39227215135E+03  0.64784240238E+03  0.44095591001E+03  0.87636712845E+03  0.10100000352E+00 0. -1.
</event>
<event>
 5   0  0.1060251E-05  0.1599107E+04  0.7818609E-02  0.8821097E-01
       -1   -1    0    0    0  501  0.00000000000E+00  0.00000000000E+00  0.31468057241E+03  0.31468057245E+03  0.50400001928E-02 0. -1.
        1   -1    0    0  501    0  0.00000000000E+00  0.00000000000E+00 -0.20315382421E+04  0.20315382421E+04  0.50400001928E-02 0.  1.
    10030    2    1    2    0    0  0.00000000000E+00  0.00000000000E+00 -0.17168576697E+04  0.23462188146E+04  0.15991067719E+04 0.  0.
        1    1    3    3  502    0  0.44451236912E+03 -0.33461014930E+03 -0.15927577519E+02  0.55660478444E+03  0.50400001928E-02 0. -1.
       -1    1    3    3    0  502 -0.44451236912E+03  0.33461014930E+03 -0.17009300922E+04  0.17896140301E+04  0.50400001928E-02 0.  1.
</event>
<event>
 5   0  0.1126485E-05  0.1599372E+04  0.7818609E-02  0.8820934E-01
       -1   -1    0    0    0  501  0.00000000000E+00  0.00000000000E+00  0.11442152171E+04  0.11442152171E+04  0.50400001928E-02 0. -1.
        1   -1    0    0  501    0  0.00000000000E+00  0.00000000000E+00 -0.55889626675E+03  0.55889626677E+03  0.50400001928E-02 0.  1.
    10030    2    1    2    0    0  0.00000000000E+00  0.00000000000E+00  0.58531895036E+03  0.17031114839E+04  0.15993718933E+04 0.  0.
        2    1    3    3  502    0 -0.59517873355E+03  0.45519853180E+03 -0.48437748148E+01  0.74931094373E+03  0.25500000920E-02 0.  1.
       -2    1    3    3    0  502  0.59517873355E+03 -0.45519853180E+03  0.59016272518E+03  0.95380054017E+03  0.25500000920E-02 0. -1.
</event>
<event>
 5   0  0.1126485E-05  0.1598550E+04  0.7818609E-02  0.8821439E-01
        1   -1    0    0  501    0  0.00000000000E+00  0.00000000000E+00  0.12706008872E+04  0.12706008872E+04  0.50400001928E-02 0. -1.
       -1   -1    0    0    0  501  0.00000000000E+00  0.00000000000E+00 -0.50278621243E+03  0.50278621246E+03  0.50400001928E-02 0.  1.
    10030    2    1    2    0    0  0.00000000000E+00  0.00000000000E+00  0.76781467472E+03  0.17733870996E+04  0.15985501026E+04 0.  0.
        2    1    3    3  502    0 -0.64911170865E+02  0.73721634203E+03  0.71881873539E+03  0.10316984876E+04  0.25500000920E-02 0.  1.
       -2    1    3    3    0  502  0.64911170865E+02 -0.73721634203E+03  0.48995939337E+02  0.74168861198E+03  0.25500000920E-02 0. -1.
</event>
<event>
 5   0  0.2147844E-05  0.1600073E+04  0.7818609E-02  0.8820503E-01
        2   -1    0    0  501    0  0.00000000000E+00  0.00000000000E+00  0.66948230771E+03  0.66948230771E+03  0.25500000920E-02 0.  1.
       -2   -1    0    0    0  501  0.00000000000E+00  0.00000000000E+00 -0.95604958760E+03  0.95604958760E+03  0.25500000920E-02 0. -1.
    10030    2    1    2    0    0  0.00000000000E+00  0.00000000000E+00 -0.28656727989E+03  0.16255318953E+04  0.16000728536E+04 0.  0.
        2    1    3    3  502    0  0.34622056221E+03  0.71532397747E+03 -0.49614570377E+02  0.79625289703E+03  0.25500000920E-02 0.  1.
       -2    1    3    3    0  502 -0.34622056221E+03 -0.71532397747E+03 -0.23695270952E+03  0.82927899828E+03  0.25500000920E-02 0. -1.
</event>
<event>
 5   0  0.1990948E-05  0.1600988E+04  0.7818609E-02  0.8819941E-01
        2   -1    0    0  501    0  0.00000000000E+00  0.00000000000E+00  0.45788106013E+03  0.45788106014E+03  0.25500000920E-02 0.  1.
       -2   -1    0    0    0  501  0.00000000000E+00  0.00000000000E+00 -0.13994704179E+04  0.13994704179E+04  0.25500000920E-02 0. -1.
    10030    2    1    2    0    0  0.00000000000E+00  0.00000000000E+00 -0.94158935775E+03  0.18573514780E+04  0.16009884429E+04 0.  0.
        4    1    3    3  502    0 -0.64796712446E+03  0.31017716919E+03 -0.61090241205E+02  0.72097496568E+03  0.12699999809E+01 0.  1.
       -4    1    3    3    0  502  0.64796712446E+03 -0.31017716919E+03 -0.88049911655E+03  0.11363765123E+04  0.12699999809E+01 0. -1.
</event>
<event>
 5   0  0.1994525E-05  0.1600043E+04  0.7818609E-02  0.8820522E-01
        2   -1    0    0  501    0  0.00000000000E+00  0.00000000000E+00  0.61587413143E+03  0.61587413143E+03  0.25500000920E-02 0. -1.
       -2   -1    0    0    0  501  0.00000000000E+00  0.00000000000E+00 -0.10392290888E+04  0.10392290888E+04  0.25500000920E-02 0.  1.
    10030    2    1    2    0    0  0.00000000000E+00  0.00000000000E+00 -0.42335495733E+03  0.16551032202E+04  0.16000428899E+04 0.  0.
        5    1    3    3  502    0  0.19110064071E+03 -0.43263513027E+03 -0.87910927758E+03  0.99827241911E+03  0.46999998093E+01 0.  1.
       -5    1    3    3    0  502 -0.19110064071E+03  0.43263513027E+03  0.45575432025E+03  0.65683080108E+03  0.46999998093E+01 0. -1.
</event>
<event>
 5   0  0.1060251E-05  0.1601037E+04  0.7818609E-02  0.8819911E-01
        1   -1    0    0  501    0  0.00000000000E+00  0.00000000000E+00  0.95080833139E+03  0.95080833141E+03  0.50400001928E-02 0.  1.
       -1   -1    0    0    0  501  0.00000000000E+00  0.00000000000E+00 -0.67398462486E+03  0.67398462488E+03  0.50400001928E-02 0. -1.
    10030    2    1    2    0    0  0.00000000000E+00  0.00000000000E+00  0.27682370653E+03  0.16247929563E+04  0.16010374094E+04 0.  0.
        1    1    3    3  502    0 -0.38630932345E+02 -0.72768051028E+03 -0.19789455074E+03  0.75509835599E+03  0.50400001928E-02 0. -1.
       -1    1    3    3    0  502  0.38630932345E+02  0.72768051028E+03  0.47471825727E+03  0.86969460030E+03  0.50400001928E-02 0.  1.
</event>
<event>
 5   0  0.1090674E-05  0.1599756E+04  0.7818609E-02  0.8820698E-01
        1   -1    0    0  501    0  0.00000000000E+00  0.00000000000E+00  0.11007548164E+04  0.11007548164E+04  0.50400001928E-02 0. -1.
       -1   -1    0    0    0  501  0.00000000000E+00  0.00000000000E+00 -0.58124175139E+03  0.58124175141E+03  0.50400001928E-02 0.  1.
    10030    2    1    2    0    0  0.00000000000E+00  0.00000000000E+00  0.51951306500E+03  0.16819965678E+04  0.15997558031E+04 0.  0.
        4    1    3    3  502    0 -0.77714051132E+03  0.61097750852E+02  0.71314548404E+02  0.78279479252E+03  0.12699999809E+01 0. -1.
       -4    1    3    3    0  502  0.77714051132E+03 -0.61097750852E+02  0.44819851660E+03  0.89920177528E+03  0.12699999809E+01 0.  1.
</event>
<event>
 5   0  0.2147844E-05  0.1599309E+04  0.7818609E-02  0.8820973E-01
       -2   -1    0    0    0  501  0.00000000000E+00  0.00000000000E+00  0.94860180688E+03  0.94860180688E+03  0.25500000920E-02 0.  1.
        2   -1    0    0  501    0  0.00000000000E+00  0.00000000000E+00 -0.67409455223E+03  0.67409455223E+03  0.25500000920E-02 0. -1.
    10030    2    1    2    0    0  0.00000000000E+00  0.00000000000E+00  0.27450725465E+03  0.16226963591E+04  0.15993089886E+04 0.  0.
        2    1    3    3  502    0  0.65096566737E+03  0.26217129176E+03 -0.25170226346E+03  0.74554953944E+03  0.25500000920E-02 0. -1.
       -2    1    3    3    0  502 -0.65096566737E+03 -0.26217129176E+03  0.52620951811E+03  0.87714681968E+03  0.25500000920E-02 0.  1.
</event>
<event>
 5   0  0.2046108E-05  0.1600784E+04  0.7818609E-02  0.8820066E-01
       -2   -1    0    0    0  501  0.00000000000E+00  0.00000000000E+00  0.34070814918E+03  0.34070814919E+03  0.25500000920E-02 0. -1.
        2   -1    0    0  501    0  0.00000000000E+00  0.00000000000E+00 -0.18802822250E+04  0.18802822250E+04  0.25500000920E-02 0.  1.
    10030    2    1    2    0    0  0.00000000000E+00  0.00000000000E+00 -0.15395740758E+04  0.22209903742E+04  0.16007841539E+04 0.  0.
        1    1    3    3  502    0  0.73699538758E+03 -0.28221176338E+03 -0.58456628937E+03  0.98210153619E+03  0.50400001928E-02 0. -1.
       -1    1    3    3    0  502 -0.73699538758E+03  0.28221176338E+03 -0.95500778647E+03  0.12388888380E+04  0.50400001928E-02 0.  1.
</event>
<event>
 5   0  0.2046108E-05  0.1599928E+04  0.7818609E-02  0.8820592E-01
       -2   -1    0    0    0  501  0.00000000000E+00  0.00000000000E+00  0.70944408540E+03  0.70944408541E+03  0.25500000920E-02 0. -1.
        2   -1    0    0  501    0  0.00000000000E+00  0.00000000000E+00 -0.90203343430E+03  0.90203343430E+03  0.25500000920E-02 0.  1.
    10030    2    1    2    0    0  0.00000000000E+00  0.00000000000E+00 -0.19258934889E+03  0.16114775197E+04  0.15999278544E+04 0.  0.
        1    1    3    3  502    0  0.84356627869E+02 -0.21863399898E+02 -0.89723840755E+03  0.90146037568E+03  0.50400001928E-02 0.  1.
       -1    1    3    3    0  502 -0.84356627869E+02  0.21863399898E+02  0.70464905865E+03  0.71001714402E+03  0.50400001928E-02 0. -1.
</event>
<event>
 5   0  0.1126485E-05  0.1596022E+04  0.7818609E-02  0.8822996E-01
        1   -1    0    0  501    0  0.00000000000E+00  0.00000000000E+00  0.18227922527E+04  0.18227922527E+04  0.50400001928E-02 0.  1.
       -1   -1    0    0    0  501  0.00000000000E+00  0.00000000000E+00 -0.34936588458E+03  0.34936588461E+03  0.50400001928E-02 0. -1.
    10030    2    1    2    0    0  0.00000000000E+00  0.00000000000E+00  0.14734263681E+04  0.21721581373E+04  0.15960218392E+04 0.  0.
        2    1    3    3  502    0  0.61480434191E+03  0.50805332165E+03  0.70022282069E+03  0.10613267900E+04  0.25500000920E-02 0. -1.
       -2    1    3    3    0  502 -0.61480434191E+03 -0.50805332165E+03  0.77320354740E+03  0.11108313473E+04  0.25500000920E-02 0.  1.
</event>
<event>
 5   0  0.1994525E-05  0.1600153E+04  0.7818609E-02  0.8820454E-01
        2   -1    0    0  501    0  0.00000000000E+00  0.00000000000E+00  0.81231174677E+03  0.81231174678E+03  0.25500000920E-02 0. -1.
       -2   -1    0    0    0  501  0.00000000000E+00  0.00000000000E+00 -0.78802515837E+03  0.78802515837E+03  0.25500000920E-02 0.  1.
    10030    2    1    2    0    0  0.00000000000E+00  0.00000000000E+00  0.24286588406E+02  0.16003369052E+04  0.16001526089E+04 0.  0.
        5    1    3    3  502    0 -0.10207594939E+03  0.48259990258E+03 -0.61783229254E+03  0.79060799207E+03  0.46999998093E+01 0.  1.
       -5    1    3    3    0  502  0.10207594939E+03 -0.48259990258E+03  0.64211888095E+03  0.80972891308E+03  0.46999998093E+01 0. -1.
</event>
<event>
 5   0  0.1090674E-05  0.1600024E+04  0.7818609E-02  0.8820533E-01
        1   -1    0    0  501    0  0.00000000000E+00  0.00000000000E+00  0.78071247151E+03  0.78071247153E+03  0.50400001928E-02 0.  1.
       -1   -1    0    0    0  501  0.00000000000E+00  0.00000000000E+00 -0.81978893858E+03  0.81978893859E+03  0.50400001928E-02 0. -1.
    10030    2    1    2    0    0  0.00000000000E+00  0.00000000000E+00 -0.39076467067E+02  0.16005014101E+04  0.16000243103E+04 0.  0.
        4    1    3    3  502    0  0.46119496590E+03 -0.59383172702E+03 -0.29289781846E+03  0.80692481778E+03  0.12699999809E+01 0. -1.
       -4    1    3    3    0  502 -0.46119496590E+03  0.59383172702E+03  0.25382135140E+03  0.79357659234E+03  0.12699999809E+01 0.  1.
</event>
<event>
 5   0  0.1060251E-05  0.1600237E+04  0.7818609E-02  0.8820403E-01
        1   -1    0    0  501    0  0.00000000000E+00  0.00000000000E+00  0.73285517370E+03  0.73285517372E+03  0.50400001928E-02 0.  1.
       -1   -1    0    0    0  501  0.00000000000E+00  0.00000000000E+00 -0.87355503613E+03  0.87355503615E+03  0.50400001928E-02 0. -1.
    10030    2    1    2    0    0  0.00000000000E+00  0.00000000000E+00 -0.14069986243E+03  0.16064102099E+04  0.16002366422E+04 0.  0.
        1    1    3    3  502    0 -0.45064543659E+03 -0.36074568657E+03  0.48583678724E+03  0.75449065187E+03  0.50400001928E-02 0.  1.
       -1    1    3    3    0  502  0.45064543659E+03  0.36074568657E+03 -0.62653664967E+03  0.85191955800E+03  0.50400001928E-02 0. -1.
</event>
<event>
 5   0  0.1060251E-05  0.1599612E+04  0.7818609E-02  0.8820787E-01
       -1   -1    0    0    0  501  0.00000000000E+00  0.00000000000E+00  0.65948476754E+03  0.65948476755E+03  0.50400001928E-02 0.  1.
        1   -1    0    0  501    0  0.00000000000E+00  0.00000000000E+00 -0.96998336016E+03  0.96998336017E+03  0.50400001928E-02 0. -1.
    10030    2    1    2    0    0  0.00000000000E+00  0.00000000000E+00 -0.31049859262E+03  0.16294681277E+04  0.15996115164E+04 0.  0.
        1    1    3    3  502    0  0.89108319450E+02  0.73158231501E+03  0.16125281790E+03  0.75442391765E+03  0.50400001928E-02 0.  1.
       -1    1    3    3    0  502 -0.89108319450E+02 -0.73158231501E+03 -0.47175141052E+03  0.87504421007E+03  0.50400001928E-02 0. -1.
</event>
<event>
 5   0  0.1126485E-05  0.1599491E+04  0.7818609E-02  0.8820861E-01
       -1   -1    0    0    0  501  0.00000000000E+00  0.00000000000E+00  0.12007639357E+04  0.12007639358E+04  0.50400001928E-02 0. -1.
        1   -1    0    0  501    0  0.00000000000E+00  0.00000000000E+00 -0.53265498741E+03  0.53265498744E+03  0.50400001928E-02 0.  1.
    10030    2    1    2    0    0  0.00000000000E+00  0.00000000000E+00  0.66810894833E+03  0.17334189232E+04  0.15994910429E+04 0.  0.
        2    1    3    3  502    0 -0.73706472687E+03  0.53734564411E+02  0.27779543105E+01  0.73902606993E+03  0.25500000920E-02 0.  1.
       -2    1    3    3    0  502  0.73706472687E+03 -0.53734564411E+02  0.66533099402E+03  0.99439285326E+03  0.25500000920E-02 0. -1.
</event>
<event>
 5   0  0.1081831E-05  0.1599982E+04  0.7818609E-02  0.8820559E-01
       -1   -1    0    0    0  501  0.00000000000E+00  0.00000000000E+00  0.43867073218E+03  0.43867073221E+03  0.50400001928E-02 0. -1.
        1   -1    0    0  501    0  0.00000000000E+00  0.00000000000E+00 -0.14589196199E+04  0.14589196199E+04  0.50400001928E-02 0.  1.
    10030    2    1    2    0    0  0.00000000000E+00  0.00000000000E+00 -0.10202488878E+04  0.18975903522E+04  0.15999816723E+04 0.  0.
        3    1    3    3  502    0 -0.63708224259E+03  0.53914029091E+02 -0.10804014998E+04  0.12554074707E+04  0.10100000352E+00 0. -1.
       -3    1    3    3    0  502  0.63708224259E+03 -0.53914029091E+02  0.60152612063E+02  0.64218288150E+03  0.10100000352E+00 0.  1.
</event>
<event>
 5   0  0.2125803E-05  0.1610789E+04  0.7818609E-02  0.8813947E-01
        2   -1    0    0  501    0  0.00000000000E+00  0.00000000000E+00  0.15867492166E+04  0.15867492167E+04  0.25500000920E-02 0. -1.
       -2   -1    0    0    0  501  0.00000000000E+00  0.00000000000E+00 -0.40879801157E+03  0.40879801158E+03  0.25500000920E-02 0.  1.
    10030    2    1    2    0    0  0.00000000000E+00  0.00000000000E+00  0.11779512051E+04  0.19955472282E+04  0.16107885332E+04 0.  0.
        3    1    3    3  502    0  0.48937744751E+02  0.59194780816E+03 -0.84882827403E+02  0.60000184586E+03  0.10100000352E+00 0.  1.
       -3    1    3    3    0  502 -0.48937744751E+02 -0.59194780816E+03  0.12628340325E+04  0.13955453824E+04  0.10100000352E+00 0. -1.
</event>
<event>
 5   0  0.1081831E-05  0.1605402E+04  0.7818609E-02  0.8817236E-01
        1   -1    0    0  501    0  0.00000000000E+00  0.00000000000E+00  0.60878989988E+03  0.60878989990E+03  0.50400001928E-02 0.  1.
       -1   -1    0    0    0  501  0.00000000000E+00  0.00000000000E+00 -0.10583766966E+04  0.10583766966E+04  0.50400001928E-02 0. -1.
    10030    2    1    2    0    0  0.00000000000E+00  0.00000000000E+00 -0.44958679669E+03  0.16671665965E+04  0.16054021841E+04 0.  0.
        3    1    3    3  502    0 -0.34297053651E+02 -0.20447272608E+02 -0.10573447089E+04  0.10580983992E+04  0.10100000352E+00 0. -1.
       -3    1    3    3    0  502  0.34297053651E+02  0.20447272608E+02  0.60775791221E+03  0.60906819725E+03  0.10100000352E+00 0.  1.
</event>
<event>
 5   0  0.1990948E-05  0.1599822E+04  0.7818609E-02  0.8820657E-01
       -2   -1    0    0    0  501  0.00000000000E+00  0.00000000000E+00  0.66958594356E+03  0.66958594357E+03  0.25500000920E-02 0. -1.
        2   -1    0    0  501    0  0.00000000000E+00  0.00000000000E+00 -0.95560246905E+03  0.95560246905E+03  0.25500000920E-02 0.  1.
    10030    2    1    2    0    0  0.00000000000E+00  0.00000000000E+00 -0.28601652549E+03  0.16251884126E+04  0.15998224663E+04 0.  0.
        4    1    3    3  502    0 -0.50929246353E+03  0.15906739014E+03  0.46240676073E+03  0.70604735909E+03  0.12699999809E+01 0. -1.
       -4    1    3    3    0  502  0.50929246353E+03 -0.15906739014E+03 -0.74842328622E+03  0.91914105352E+03  0.12699999809E+01 0.  1.
</event>
<event>
 5   0  0.2125803E-05  0.1600280E+04  0.7818609E-02  0.8820376E-01
        2   -1    0    0  501    0  0.00000000000E+00  0.00000000000E+00  0.19425375642E+04  0.19425375642E+04  0.25500000920E-02 0.  1.
       -2   -1    0    0    0  501  0.00000000000E+00  0.00000000000E+00 -0.32958117524E+03  0.32958117525E+03  0.25500000920E-02 0. -1.
    10030    2    1    2    0    0  0.00000000000E+00  0.00000000000E+00  0.16129563890E+04  0.22721187395E+04  0.16002797423E+04 0.  0.
        3    1    3    3  502    0  0.71492460552E+03 -0.17457768848E+03  0.12523786996E+04  0.14526000751E+04  0.10100000352E+00 0.  1.
       -3    1    3    3    0  502 -0.71492460552E+03  0.17457768848E+03  0.36057768935E+03  0.81951866431E+03  0.10100000352E+00 0. -1.
</event>
<event>
 5   0  0.2147844E-05  0.1598850E+04  0.7818609E-02  0.8821255E-01
        2   -1    0    0  501    0  0.00000000000E+00  0.00000000000E+00  0.58545617756E+03  0.58545617756E+03  0.25500000920E-02 0.  1.
       -2   -1    0    0    0  501  0.00000000000E+00  0.00000000000E+00 -0.10915936393E+04  0.10915936393E+04  0.25500000920E-02 0. -1.
    10030    2    1    2    0    0  0.00000000000E+00  0.00000000000E+00 -0.50613746171E+03  0.16770498168E+04  0.15988498860E+04 0.  0.
        2    1    3    3  502    0 -0.31654956341E+03 -0.18989984947E+03 -0.99684486558E+03  0.10629982432E+04  0.25500000920E-02 0. -1.
       -2    1    3    3    0  502  0.31654956341E+03  0.18989984947E+03  0.49070740387E+03  0.61405157368E+03  0.25500000920E-02 0.  1.
</event>
<event>
 5   0  0.1057506E-05  0.1599731E+04  0.7818609E-02  0.8820713E-01
       -1   -1    0    0    0  501  0.00000000000E+00  0.00000000000E+00  0.33789311388E+03  0.33789311391E+03  0.50400001928E-02 0. -1.
        1   -1    0    0  501    0  0.00000000000E+00  0.00000000000E+00 -0.18934525969E+04  0.18934525969E+04  0.50400001928E-02 0.  1.
    10030    2    1    2    0    0  0.00000000000E+00  0.00000000000E+00 -0.15555594830E+04  0.22313457108E+04  0.15997307198E+04 0.  0.
        5    1    3    3  502    0 -0.20081291343E+03  0.74525553921E+03 -0.10704634553E+04  0.13197142661E+04  0.46999998093E+01 0.  1.
       -5    1    3    3    0  502  0.20081291343E+03 -0.74525553921E+03 -0.48509602768E+03  0.91163144472E+03  0.46999998093E+01 0. -1.
</event>
<event>
 5   0  0.1060251E-05  0.1599664E+04  0.7818609E-02  0.8820754E-01
        1   -1    0    0  501    0  0.00000000000E+00  0.00000000000E+00  0.58858380828E+03  0.58858380830E+03  0.50400001928E-02 0.  1.
       -1   -1    0    0    0  501  0.00000000000E+00  0.00000000000E+00 -0.10868991385E+04  0.10868991385E+04  0.50400001928E-02 0. -1.
    10030    2    1    2    0    0  0.00000000000E+00  0.00000000000E+00 -0.49831533021E+03  0.16754829468E+04  0.15996640074E+04 0.  0.
        1    1    3    3  502    0 -0.56039167075E+03  0.53014124101E+03 -0.47046017478E+03  0.90356036663E+03  0.50400001928E-02 0.  1.
       -1    1    3    3    0  502  0.56039167075E+03 -0.53014124101E+03 -0.27855155431E+02  0.77192258017E+03  0.50400001928E-02 0. -1.
</event>
<event>
 5   0  0.2046108E-05  0.1600008E+04  0.7818609E-02  0.8820543E-01
       -2   -1    0    0    0  501  0.00000000000E+00  0.00000000000E+00  0.91538915275E+03  0.91538915275E+03  0.25500000920E-02 0. -1.
        2   -1    0    0  501    0  0.00000000000E+00  0.00000000000E+00 -0.69916283421E+03  0.69916283422E+03  0.25500000920E-02 0.  1.
    10030    2    1    2    0    0  0.00000000000E+00  0.00000000000E+00  0.21622631853E+03  0.16145519870E+04  0.16000075930E+04 0.  0.
        1    1    3    3  502    0  0.50415253209E+02  0.79330574245E+03  0.17124912627E+02  0.79509053661E+03  0.50400001928E-02 0.  1.
       -1    1    3    3    0  502 -0.50415253209E+02 -0.79330574245E+03  0.19910140591E+03  0.81946145035E+03  0.50400001928E-02 0. -1.
</event>
<event>
 5   0  0.1990948E-05  0.1600392E+04  0.7818609E-02  0.8820307E-01
        2   -1    0    0  501    0  0.00000000000E+00  0.00000000000E+00  0.89834693405E+03  0.89834693405E+03  0.25500000920E-02 0. -1.
       -2   -1    0    0    0  501  0.00000000000E+00  0.00000000000E+00 -0.71276886659E+03  0.71276886660E+03  0.25500000920E-02 0.  1.
    10030    2    1    2    0    0  0.00000000000E+00  0.00000000000E+00  0.18557806746E+03  0.16111158006E+04  0.16003921094E+04 0.  0.
        4    1    3    3  502    0  0.34297135463E+03 -0.21225602711E+03  0.78852782528E+03  0.88569730454E+03  0.12699999809E+01 0. -1.
       -4    1    3    3    0  502 -0.34297135463E+03  0.21225602711E+03 -0.60294975782E+03  0.72541849611E+03  0.12699999809E+01 0.  1.
</event>
<event>
 5   0  0.1994525E-05  0.1607126E+04  0.7818609E-02  0.8816182E-01
       -2   -1    0    0    0  501  0.00000000000E+00  0.00000000000E+00  0.35395741263E+03  0.35395741264E+03  0.25500000920E-02 0.  1.
        2   -1    0    0  501    0  0.00000000000E+00  0.00000000000E+00 -0.18242688613E+04  0.18242688613E+04  0.25500000920E-02 0. -1.
    10030    2    1    2    0    0  0.00000000000E+00  0.00000000000E+00 -0.14703114487E+04  0.21782262740E+04  0.16071259890E+04 0.  0.
        5    1    3    3  502    0 -0.10379276471E+03 -0.79609017338E+03 -0.78129544002E+03  0.11202576296E+04  0.46999998093E+01 0. -1.
       -5    1    3    3    0  502  0.10379276471E+03  0.79609017338E+03 -0.68901600868E+03  0.10579686443E+04  0.46999998093E+01 0.  1.
</event>
<event>
 5   0  0.2125803E-05  0.1600096E+04  0.7818609E-02  0.8820489E-01
        2   -1    0    0  501    0  0.00000000000E+00  0.00000000000E+00  0.25595315041E+04  0.25595315041E+04  0.25500000920E-02 0.  1.
       -2   -1    0    0    0  501  0.00000000000E+00  0.00000000000E+00 -0.25007577407E+03  0.25007577408E+03  0.25500000920E-02 0. -1.
    10030    2    1    2    0    0  0.00000000000E+00  0.00000000000E+00  0.23094557301E+04  0.28096072782E+04  0.16000960248E+04 0.  0.
        3    1    3    3  502    0 -0.29470039853E+03  0.16180291363E+03 -0.12002143784E+03  0.35697851966E+03  0.10100000352E+00 0. -1.
       -3    1    3    3    0  502  0.29470039853E+03 -0.16180291363E+03  0.24294771679E+04  0.24526287585E+04  0.10100000352E+00 0.  1.
</event>
<event>
 5   0  0.1990948E-05  0.1599259E+04  0.7818609E-02  0.8821003E-01
       -2   -1    0    0    0  501  0.00000000000E+00  0.00000000000E+00  0.33901188047E+03  0.33901188048E+03  0.25500000920E-02 0.  1.
        2   -1    0    0  501    0  0.00000000000E+00  0.00000000000E+00 -0.18860908403E+04  0.18860908403E+04  0.25500000920E-02 0. -1.
    10030    2    1    2    0    0  0.00000000000E+00  0.00000000000E+00 -0.15470789598E+04  0.22251027207E+04  0.15992588315E+04 0.  0.
        4    1    3    3  502    0  0.11501797883E+03  0.43185258303E+03  0.14903102144E+03  0.47110258668E+03  0.12699999809E+01 0.  1.
       -4    1    3    3    0  502 -0.11501797883E+03 -0.43185258303E+03 -0.16961099812E+04  0.17540001341E+04  0.12699999809E+01 0. -1.
</event>
<event>
 5   0  0.1057506E-05  0.1599477E+04  0.7818609E-02  0.8820869E-01
        1   -1    0    0  501    0  0.00000000000E+00  0.00000000000E+00  0.13901873204E+04  0.13901873204E+04  0.50400001928E-02 0.  1.
       -1   -1    0    0    0  501  0.00000000000E+00  0.00000000000E+00 -0.46006872098E+03  0.46006872101E+03  0.50400001928E-02 0. -1.
    10030    2    1    2    0    0  0.00000000000E+00  0.00000000000E+00  0.93011859941E+03  0.18502560414E+04  0.15994770426E+04 0.  0.
        5    1    3    3  502    0  0.25510723714E+03  0.70480938550E+03  0.14255880433E+03  0.76300791281E+03  0.46999998093E+01 0.  1.
       -5    1    3    3    0  502 -0.25510723714E+03 -0.70480938550E+03  0.78755979508E+03  0.10872481286E+04  0.46999998093E+01 0. -1.
</event>
<event>
 5   0  0.1126485E-05  0.1599626E+04  0.7818609E-02  0.8820778E-01
        1   -1    0    0  501    0  0.00000000000E+00  0.00000000000E+00  0.57896520961E+03  0.57896520963E+03  0.50400001928E-02 0.  1.
       -1   -1    0    0    0  501  0.00000000000E+00  0.00000000000E+00 -0.11049034052E+04  0.11049034052E+04  0.50400001928E-02 0. -1.
    10030    2    1    2    0    0  0.00000000000E+00  0.00000000000E+00 -0.52593819555E+03  0.16838686148E+04  0.15996257457E+04 0.  0.
        2    1    3    3  502    0  0.45828087213E+03 -0.13776921158E+03 -0.93757726749E+03  0.10526408913E+04  0.25500000920E-02 0. -1.
       -2    1    3    3    0  502 -0.45828087213E+03  0.13776921158E+03  0.41163907194E+03  0.63122772355E+03  0.25500000920E-02 0.  1.
</event>
<event>
 5   0  0.1990948E-05  0.1599925E+04  0.7818609E-02  0.8820594E-01
        2   -1    0    0  501    0  0.00000000000E+00  0.00000000000E+00  0.14729427546E+04  0.14729427546E+04  0.25500000920E-02 0. -1.
       -2   -1    0    0    0  501  0.00000000000E+00  0.00000000000E+00 -0.43446337212E+03  0.43446337212E+03  0.25500000920E-02 0.  1.
    10030    2    1    2    0    0  0.00000000000E+00  0.00000000000E+00  0.10384793825E+04  0.19074061267E+04  0.15999245934E+04 0.  0.
        4    1    3    3  502    0  0.39890255188E+03 -0.67723098163E+03  0.34171611723E+03  0.85705108719E+03  0.12699999809E+01 0.  1.
       -4    1    3    3    0  502 -0.39890255188E+03  0.67723098163E+03  0.69676326525E+03  0.10503550395E+04  0.12699999809E+01 0. -1.
</event>
<event>
 5   0  0.2125803E-05  0.1599797E+04  0.7818609E-02  0.8820673E-01
        2   -1    0    0  501    0  0.00000000000E+00  0.00000000000E+00  0.11890233429E+04  0.11890233429E+04  0.25500000920E-02 0. -1.
       -2   -1    0    0    0  501  0.00000000000E+00  0.00000000000E+00 -0.53812050370E+03  0.53812050370E+03  0.25500000920E-02 0.  1.
    10030    2    1    2    0    0  0.00000000000E+00  0.00000000000E+00  0.65090283917E+03  0.17271438466E+04  0.15997972874E+04 0.  0.
        3    1    3    3  502    0 -0.44259857793E+03 -0.41016540005E+03 -0.24142549066E+03  0.64993494622E+03  0.10100000352E+00 0. -1.
       -3    1    3    3    0  502  0.44259857793E+03  0.41016540005E+03  0.89232832983E+03  0.10772089004E+04  0.10100000352E+00 0.  1.
</event>
<event>
 5   0  0.7597000E-06  0.1599831E+04  0.7818609E-02  0.8820652E-01
        3   -1    0    0  501    0  0.00000000000E+00  0.00000000000E+00  0.50396787065E+03  0.50396788078E+03  0.10100000352E+00 0. -1.
       -3   -1    0    0    0  501  0.00000000000E+00  0.00000000000E+00 -0.12696543175E+04  0.12696543215E+04  0.10100000352E+00 0.  1.
    10030    2    1    2    0    0  0.00000000000E+00  0.00000000000E+00 -0.76568644685E+03  0.17736222023E+04  0.15998312353E+04 0.  0.
        4    1    3    3  502    0 -0.39019747476E+03 -0.40040728938E+03  0.25138983926E+03  0.61300777391E+03  0.12699999809E+01 0. -1.
       -4    1    3    3    0  502  0.39019747476E+03  0.40040728938E+03 -0.10170762861E+04  0.11606144284E+04  0.12699999809E+01 0.  1.
</event>
<event>
 5   0  0.2147844E-05  0.1600433E+04  0.7818609E-02  0.8820282E-01
       -2   -1    0    0    0  501  0.00000000000E+00  0.00000000000E+00  0.42839777517E+03  0.42839777518E+03  0.25500000920E-02 0. -1.
        2   -1    0    0  501    0  0.00000000000E+00  0.00000000000E+00 -0.14947477211E+04  0.14947477211E+04  0.25500000920E-02 0.  1.
    10030    2    1    2    0    0  0.00000000000E+00  0.00000000000E+00 -0.10663499459E+04  0.19231454962E+04  0.16004331890E+04 0.  0.
        2    1    3    3  502    0 -0.34816234308E+03 -0.14711155290E+03  0.31437594469E+03  0.49162085060E+03  0.25500000920E-02 0. -1.
       -2    1    3    3    0  502  0.34816234308E+03  0.14711155290E+03 -0.13807258906E+04  0.14315246456E+04  0.25500000920E-02 0.  1.
</event>
<event>
 5   0  0.1990948E-05  0.1600170E+04  0.7818609E-02  0.8820443E-01
        2   -1    0    0  501    0  0.00000000000E+00  0.00000000000E+00  0.46847915706E+03  0.46847915706E+03  0.25500000920E-02 0.  1.
       -2   -1    0    0    0  501  0.00000000000E+00  0.00000000000E+00 -0.13664134669E+04  0.13664134669E+04  0.25500000920E-02 0. -1.
    10030    2    1    2    0    0  0.00000000000E+00  0.00000000000E+00 -0.89793430983E+03  0.18348926240E+04  0.16001702774E+04 0.  0.
        4    1    3    3  502    0  0.25217385674E+03 -0.27111893171E+03  0.36432134412E+03  0.51945046331E+03  0.12699999809E+01 0.  1.
       -4    1    3    3    0  502 -0.25217385674E+03  0.27111893171E+03 -0.12622556539E+04  0.13154421606E+04  0.12699999809E+01 0. -1.
</event>
<event>
 5   0  0.1060251E-05  0.1599539E+04  0.7818609E-02  0.8820831E-01
       -1   -1    0    0    0  501  0.00000000000E+00  0.00000000000E+00  0.51720713113E+03  0.51720713115E+03  0.50400001928E-02 0. -1.
        1   -1    0    0  501    0  0.00000000000E+00  0.00000000000E+00 -0.12367019850E+04  0.12367019851E+04  0.50400001928E-02 0.  1.
    10030    2    1    2    0    0  0.00000000000E+00  0.00000000000E+00 -0.71949485392E+03  0.17539091162E+04  0.15995387908E+04 0.  0.
        1    1    3    3  502    0 -0.19977261941E+03 -0.76616300216E+03 -0.23609812365E+03  0.82623069984E+03  0.50400001928E-02 0. -1.
       -1    1    3    3    0  502  0.19977261941E+03  0.76616300216E+03 -0.48339673027E+03  0.92767841637E+03  0.50400001928E-02 0.  1.
</event>
<event>
 5   0  0.2147844E-05  0.1599773E+04  0.7818609E-02  0.8820688E-01
       -2   -1    0    0    0  501  0.00000000000E+00  0.00000000000E+00  0.69068401267E+03  0.69068401267E+03  0.25500000920E-02 0.  1.
        2   -1    0    0  501    0  0.00000000000E+00  0.00000000000E+00 -0.92635442458E+03  0.92635442459E+03  0.25500000920E-02 0. -1.
    10030    2    1    2    0    0  0.00000000000E+00  0.00000000000E+00 -0.23567041192E+03  0.16170384373E+04  0.15997727228E+04 0.  0.
        2    1    3    3  502    0 -0.12772946644E+03  0.25456332247E+03  0.63769483490E+03  0.69840676129E+03  0.25500000920E-02 0.  1.
       -2    1    3    3    0  502  0.12772946644E+03 -0.25456332247E+03 -0.87336524682E+03  0.91863167597E+03  0.25500000920E-02 0. -1.
</event>
<event>
 5   0  0.1057506E-05  0.1600661E+04  0.7818609E-02  0.8820142E-01
       -1   -1    0    0    0  501  0.00000000000E+00  0.00000000000E+00  0.95982283161E+03  0.95982283162E+03  0.50400001928E-02 0.  1.
        1   -1    0    0  501    0  0.00000000000E+00  0.00000000000E+00 -0.66734056821E+03  0.66734056823E+03  0.50400001928E-02 0. -1.
    10030    2    1    2    0    0  0.00000000000E+00  0.00000000000E+00  0.29248226339E+03  0.16271633999E+04  0.16006607559E+04 0.  0.
        5    1    3    3  502    0 -0.81058421269E+02  0.74971677847E+03 -0.12626621851E+03  0.76459856364E+03  0.46999998093E+01 0.  1.
       -5    1    3    3    0  502  0.81058421269E+02 -0.74971677847E+03  0.41874848190E+03  0.86256483622E+03  0.46999998093E+01 0. -1.
</event>
<event>
 5   0  0.1081831E-05  0.1599789E+04  0.7818609E-02  0.8820678E-01
        1   -1    0    0  501    0  0.00000000000E+00  0.00000000000E+00  0.10064650858E+04  0.10064650858E+04  0.50400001928E-02 0.  1.
       -1   -1    0    0    0  501  0.00000000000E+00  0.00000000000E+00 -0.63572095066E+03  0.63572095068E+03  0.50400001928E-02 0. -1.
    10030    2    1    2    0    0  0.00000000000E+00  0.00000000000E+00  0.37074413514E+03  0.16421860365E+04  0.15997886625E+04 0.  0.
        3    1    3    3  502    0 -0.23526502669E+03  0.47093556636E+03 -0.43283520694E+03  0.68152495700E+03  0.10100000352E+00 0. -1.
       -3    1    3    3    0  502  0.23526502669E+03 -0.47093556636E+03  0.80357934207E+03  0.96066107949E+03  0.10100000352E+00 0.  1.
</event>
<event>
 5   0  0.1994525E-05  0.1599726E+04  0.7818609E-02  0.8820716E-01
        2   -1    0    0  501    0  0.00000000000E+00  0.00000000000E+00  0.21145236768E+04  0.21145236768E+04  0.25500000920E-02 0.  1.
       -2   -1    0    0    0  501  0.00000000000E+00  0.00000000000E+00 -0.30256509869E+03  0.30256509870E+03  0.25500000920E-02 0. -1.
    10030    2    1    2    0    0  0.00000000000E+00  0.00000000000E+00  0.18119585781E+04  0.24170887755E+04  0.15997263078E+04 0.  0.
        5    1    3    3  502    0 -0.23018306512E+03  0.72627761723E+03  0.53805540525E+03  0.93273207829E+03  0.46999998093E+01 0. -1.
       -5    1    3    3    0  502  0.23018306512E+03 -0.72627761723E+03  0.12739031729E+04  0.14843566972E+04  0.46999998093E+01 0.  1.
</event>
<event>
 5   0  0.1057506E-05  0.1609461E+04  0.7818609E-02  0.8814757E-01
        1   -1    0    0  501    0  0.00000000000E+00  0.00000000000E+00  0.59646722986E+03  0.59646722988E+03  0.50400001928E-02 0.  1.
       -1   -1    0    0    0  501  0.00000000000E+00  0.00000000000E+00 -0.10857112469E+04  0.10857112470E+04  0.50400001928E-02 0. -1.
    10030    2    1    2    0    0  0.00000000000E+00  0.00000000000E+00 -0.48924401709E+03  0.16821784768E+04  0.16094610028E+04 0.  0.
        5    1    3    3  502    0 -0.24659902269E+03  0.14966748742E+03 -0.10298012766E+04  0.10694504168E+04  0.46999998093E+01 0. -1.
       -5    1    3    3    0  502  0.24659902269E+03 -0.14966748742E+03  0.54055725948E+03  0.61272806004E+03  0.46999998093E+01 0.  1.
</event>
<event>
 5   0  0.2125803E-05  0.1599974E+04  0.7818609E-02  0.8820564E-01
        2   -1    0    0  501    0  0.00000000000E+00  0.00000000000E+00  0.16535276730E+04  0.16535276730E+04  0.25500000920E-02 0.  1.
       -2   -1    0    0    0  501  0.00000000000E+00  0.00000000000E+00 -0.38703846723E+03  0.38703846724E+03  0.25500000920E-02 0. -1.
    10030    2    1    2    0    0  0.00000000000E+00  0.00000000000E+00  0.12664892058E+04  0.20405661402E+04  0.15999735199E+04 0.  0.
        3    1    3    3  502    0  0.15471892568E+02  0.33434665321E+03  0.15599357082E+04  0.15954392774E+04  0.10100000352E+00 0.  1.
       -3    1    3    3    0  502 -0.15471892568E+02 -0.33434665321E+03 -0.29344650247E+03  0.44512686280E+03  0.10100000352E+00 0. -1.
</event>
<event>
 5   0  0.1060251E-05  0.1602922E+04  0.7818609E-02  0.8818755E-01
        1   -1    0    0  501    0  0.00000000000E+00  0.00000000000E+00  0.28395899977E+04  0.28395899977E+04  0.50400001928E-02 0.  1.
       -1   -1    0    0    0  501  0.00000000000E+00  0.00000000000E+00 -0.22620858620E+03  0.22620858626E+03  0.50400001928E-02 0. -1.
    10030    2    1    2    0    0  0.00000000000E+00  0.00000000000E+00  0.26133814115E+04  0.30657985840E+04  0.16029218806E+04 0.  0.
        1    1    3    3  502    0  0.50253302545E+03 -0.27751035733E+03  0.23700438615E+03  0.62106563194E+03  0.50400001928E-02 0. -1.
       -1    1    3    3    0  502 -0.50253302545E+03  0.27751035733E+03  0.23763770254E+04  0.24447329520E+04  0.50400001928E-02 0.  1.
</event>
<event>
 5   0  0.1057506E-05  0.1600041E+04  0.7818609E-02  0.8820523E-01
        1   -1    0    0  501    0  0.00000000000E+00  0.00000000000E+00  0.11060991635E+04  0.11060991635E+04  0.50400001928E-02 0.  1.
       -1   -1    0    0    0  501  0.00000000000E+00  0.00000000000E+00 -0.57863979234E+03  0.57863979236E+03  0.50400001928E-02 0. -1.
    10030    2    1    2    0    0  0.00000000000E+00  0.00000000000E+00  0.52745937111E+03  0.16847389558E+04  0.16000412373E+04 0.  0.
        5    1    3    3  502    0  0.77787879524E+03  0.10070965258E+03  0.42945587607E+03  0.89425516140E+03  0.46999998093E+01 0.  1.
       -5    1    3    3    0  502 -0.77787879524E+03 -0.10070965258E+03  0.98003495038E+02  0.79048379442E+03  0.46999998093E+01 0. -1.
</event>
<event>
 5   0  0.2125803E-05  0.1599435E+04  0.7818609E-02  0.8820895E-01
       -2   -1    0    0    0  501  0.00000000000E+00  0.00000000000E+00  0.38811753485E+03  0.38811753486E+03  0.25500000920E-02 0.  1.
        2   -1    0    0  501    0  0.00000000000E+00  0.00000000000E+00 -0.16478216415E+04  0.16478216415E+04  0.25500000920E-02 0. -1.
    10030    2    1    2    0    0  0.00000000000E+00  0.00000000000E+00 -0.12597041066E+04  0.20359391763E+04  0.15994354921E+04 0.  0.
        3    1    3    3  502    0  0.68091004476E+03  0.38089910309E+03 -0.85334076001E+03  0.11562495746E+04  0.10100000352E+00 0.  1.
       -3    1    3    3    0  502 -0.68091004476E+03 -0.38089910309E+03 -0.40636334661E+03  0.87968960176E+03  0.10100000352E+00 0. -1.
</event>
<event>
 5   0  0.1994525E-05  0.1599829E+04  0.7818609E-02  0.8820653E-01
       -2   -1    0    0    0  501  0.00000000000E+00  0.00000000000E+00  0.72433133115E+03  0.72433133115E+03  0.25500000920E-02 0.  1.
        2   -1    0    0  501    0  0.00000000000E+00  0.00000000000E+00 -0.88338440278E+03  0.88338440278E+03  0.25500000920E-02 0. -1.
    10030    2    1    2    0    0  0.00000000000E+00  0.00000000000E+00 -0.15905307163E+03  0.16077157339E+04  0.15998287413E+04 0.  0.
        5    1    3    3  502    0 -0.10449727944E+03 -0.10730939655E+02 -0.87640874673E+03  0.88269429352E+03  0.46999998093E+01 0. -1.
       -5    1    3    3    0  502  0.10449727944E+03  0.10730939655E+02  0.71735567510E+03  0.72502144042E+03  0.46999998093E+01 0.  1.
</event>
<event>
 5   0  0.1994525E-05  0.1598858E+04  0.7818609E-02  0.8821250E-01
        2   -1    0    0  501    0  0.00000000000E+00  0.00000000000E+00  0.15775364943E+04  0.15775364943E+04  0.25500000920E-02 0. -1.
       -2   -1    0    0    0  501  0.00000000000E+00  0.00000000000E+00 -0.40511712922E+03  0.40511712923E+03  0.25500000920E-02 0.  1.
    10030    2    1    2    0    0  0.00000000000E+00  0.00000000000E+00  0.11724193650E+04  0.19826536235E+04  0.15988584125E+04 0.  0.
        5    1    3    3  502    0 -0.25565570904E+03 -0.37691605365E+03  0.14009090671E+04  0.14730899013E+04  0.46999998093E+01 0. -1.
       -5    1    3    3    0  502  0.25565570904E+03  0.37691605365E+03 -0.22848970203E+03  0.50956372221E+03  0.46999998093E+01 0.  1.
</event>
<event>
 5   0  0.1090674E-05  0.1599775E+04  0.7818609E-02  0.8820686E-01
        1   -1    0    0  501    0  0.00000000000E+00  0.00000000000E+00  0.12910476796E+04  0.12910476796E+04  0.50400001928E-02 0.  1.
       -1   -1    0    0    0  501  0.00000000000E+00  0.00000000000E+00 -0.49558203595E+03  0.49558203598E+03  0.50400001928E-02 0. -1.
    10030    2    1    2    0    0  0.00000000000E+00  0.00000000000E+00  0.79546564362E+03  0.17866297156E+04  0.15997750312E+04 0.  0.
        4    1    3    3  502    0  0.61301903882E+03 -0.48953455349E+03  0.57211830735E+03  0.97095694628E+03  0.12699999809E+01 0.  1.
       -4    1    3    3    0  502 -0.61301903882E+03  0.48953455349E+03  0.22334733627E+03  0.81567276928E+03  0.12699999809E+01 0. -1.
</event>
<event>
 5   0  0.7597000E-06  0.1599828E+04  0.7818609E-02  0.8820653E-01
       -3   -1    0    0    0  501  0.00000000000E+00  0.00000000000E+00  0.49027028752E+03  0.49027029793E+03  0.10100000352E+00 0. -1.
        3   -1    0    0  501    0  0.00000000000E+00  0.00000000000E+00 -0.13051222883E+04  0.13051222922E+04  0.10100000352E+00 0.  1.
    10030    2    1    2    0    0  0.00000000000E+00  0.00000000000E+00 -0.81485200074E+03  0.17953925901E+04  0.15998283563E+04 0.  0.
        2    1    3    3  502    0  0.18637816913E+03  0.74496406552E+03 -0.15609815518E+03  0.78362932238E+03  0.25500000920E-02 0.  1.
       -2    1    3    3    0  502 -0.18637816913E+03 -0.74496406552E+03 -0.65875384557E+03  0.10117632677E+04  0.25500000920E-02 0. -1.
</event>
<event>
 5   0  0.1090674E-05  0.1600938E+04  0.7818609E-02  0.8819972E-01
       -1   -1    0    0    0  501  0.00000000000E+00  0.00000000000E+00  0.53715098070E+03  0.53715098072E+03  0.50400001928E-02 0.  1.
        1   -1    0    0  501    0  0.00000000000E+00  0.00000000000E+00 -0.11928682363E+04  0.11928682363E+04  0.50400001928E-02 0. -1.
    10030    2    1    2    0    0  0.00000000000E+00  0.00000000000E+00 -0.65571725563E+03  0.17300192171E+04  0.16009376540E+04 0.  0.
        4    1    3    3  502    0  0.52508401561E+03 -0.33089173407E+02  0.32405756608E+03  0.61791830842E+03  0.12699999809E+01 0.  1.
       -4    1    3    3    0  502 -0.52508401561E+03  0.33089173407E+02 -0.97977482171E+03  0.11121009086E+04  0.12699999809E+01 0. -1.
</event>
<event>
 5   0  0.1081831E-05  0.1596975E+04  0.7818609E-02  0.8822408E-01
        1   -1    0    0  501    0  0.00000000000E+00  0.00000000000E+00  0.98658578078E+03  0.98658578079E+03  0.50400001928E-02 0.  1.
       -1   -1    0    0    0  501  0.00000000000E+00  0.00000000000E+00 -0.64625129986E+03  0.64625129988E+03  0.50400001928E-02 0. -1.
    10030    2    1    2    0    0  0.00000000000E+00  0.00000000000E+00  0.34033448092E+03  0.16328370807E+04  0.15969750697E+04 0.  0.
        3    1    3    3  502    0  0.13638266548E+01  0.79846990011E+03  0.17540992581E+03  0.81751128046E+03  0.10100000352E+00 0.  1.
       -3    1    3    3    0  502 -0.13638266548E+01 -0.79846990011E+03  0.16492455511E+03  0.81532580021E+03  0.10100000352E+00 0. -1.
</event>
<event>
 5   0  0.1060251E-05  0.1600253E+04  0.7818609E-02  0.8820393E-01
       -1   -1    0    0    0  501  0.00000000000E+00  0.00000000000E+00  0.52851054042E+03  0.52851054045E+03  0.50400001928E-02 0.  1.
        1   -1    0    0  501    0  0.00000000000E+00  0.00000000000E+00 -0.12113326823E+04  0.12113326823E+04  0.50400001928E-02 0. -1.
    10030    2    1    2    0    0  0.00000000000E+00  0.00000000000E+00 -0.68282214189E+03  0.17398432228E+04  0.16002525933E+04 0.  0.
        1    1    3    3  502    0  0.65342754165E+03  0.43839102003E+03 -0.49914512520E+03  0.93182621484E+03  0.50400001928E-02 0. -1.
       -1    1    3    3    0  502 -0.65342754165E+03 -0.43839102003E+03 -0.18367701669E+03  0.80801700793E+03  0.50400001928E-02 0.  1.
</event>
<event>
 5   0  0.2125803E-05  0.1592301E+04  0.7818609E-02  0.8825292E-01
       -2   -1    0    0    0  501  0.00000000000E+00  0.00000000000E+00  0.80130217328E+03  0.80130217329E+03  0.25500000920E-02 0. -1.
        2   -1    0    0  501    0  0.00000000000E+00  0.00000000000E+00 -0.79103190388E+03  0.79103190388E+03  0.25500000920E-02 0.  1.
    10030    2    1    2    0    0  0.00000000000E+00  0.00000000000E+00  0.10270269407E+02  0.15923340772E+04  0.15923009561E+04 0.  0.
        3    1    3    3  502    0  0.79167025015E+03  0.49673075030E+02  0.73300869901E+02  0.79660669536E+03  0.10100000352E+00 0. -1.
       -3    1    3    3    0  502 -0.79167025015E+03 -0.49673075030E+02 -0.63030600494E+02  0.79572738181E+03  0.10100000352E+00 0.  1.
</event>
<event>
 5   0  0.1994525E-05  0.1599699E+04  0.7818609E-02  0.8820733E-01
        2   -1    0    0  501    0  0.00000000000E+00  0.00000000000E+00  0.18389252235E+04  0.18389252235E+04  0.25500000920E-02 0. -1.
       -2   -1    0    0    0  501  0.00000000000E+00  0.00000000000E+00 -0.34789848808E+03  0.34789848809E+03  0.25500000920E-02 0.  1.
    10030    2    1    2    0    0  0.00000000000E+00  0.00000000000E+00  0.14910267355E+04  0.21868237116E+04  0.15996991029E+04 0.  0.
        5    1    3    3  502    0  0.24181571030E+03 -0.32324032996E+03  0.16894299312E+04  0.17369958926E+04  0.46999998093E+01 0. -1.
       -5    1    3    3    0  502 -0.24181571030E+03  0.32324032996E+03 -0.19840319572E+03  0.44982781899E+03  0.46999998093E+01 0.  1.
</event>
<event>
 5   0  0.1994525E-05  0.1603030E+04  0.7818609E-02  0.8818689E-01
       -2   -1    0    0    0  501  0.00000000000E+00  0.00000000000E+00  0.93811612565E+03  0.93811612565E+03  0.25500000920E-02 0.  1.
        2   -1    0    0  501    0  0.00000000000E+00  0.00000000000E+00 -0.68480491292E+03  0.68480491293E+03  0.25500000920E-02 0. -1.
    10030    2    1    2    0    0  0.00000000000E+00  0.00000000000E+00  0.25331121272E+03  0.16229210386E+04  0.16030302951E+04 0.  0.
        5    1    3    3  502    0  0.26089543755E+03 -0.27414755178E+02 -0.64009671494E+03  0.69178312541E+03  0.46999998093E+01 0. -1.
       -5    1    3    3    0  502 -0.26089543755E+03  0.27414755178E+02  0.89340792766E+03  0.93113791317E+03  0.46999998093E+01 0.  1.
</event>
<event>
 5   0  0.1060251E-05  0.1600697E+04  0.7818609E-02  0.8820120E-01
       -1   -1    0    0    0  501  0.00000000000E+00  0.00000000000E+00  0.88412852908E+03  0.88412852909E+03  0.50400001928E-02 0. -1.
        1   -1    0    0  501    0  0.00000000000E+00  0.00000000000E+00 -0.72450765246E+03  0.72450765248E+03  0.50400001928E-02 0.  1.
    10030    2    1    2    0    0  0.00000000000E+00  0.00000000000E+00  0.15962087662E+03  0.16086361816E+04  0.16006972045E+04 0.  0.
        1    1    3    3  502    0  0.75756144018E+03  0.21619350358E+02  0.33836286584E+03  0.82997359052E+03  0.50400001928E-02 0. -1.
       -1    1    3    3    0  502 -0.75756144018E+03 -0.21619350358E+02 -0.17874198922E+03  0.77866259105E+03  0.50400001928E-02 0.  1.
</event>
<event>
 5   0  0.2046108E-05  0.1599682E+04  0.7818609E-02  0.8820744E-01
       -2   -1    0    0    0  501  0.00000000000E+00  0.00000000000E+00  0.39203928213E+03  0.39203928214E+03  0.25500000920E-02 0.  1.
        2   -1    0    0  501    0  0.00000000000E+00  0.00000000000E+00 -0.16318402427E+04  0.16318402427E+04  0.25500000920E-02 0. -1.
    10030    2    1    2    0    0  0.00000000000E+00  0.00000000000E+00 -0.12398009605E+04  0.20238795248E+04  0.15996818150E+04 0.  0.
        1    1    3    3  502    0 -0.75135462600E+02  0.79408197421E+03 -0.69511154325E+03  0.10580130326E+04  0.50400001928E-02 0.  1.
       -1    1    3    3    0  502  0.75135462600E+02 -0.79408197421E+03 -0.54468941729E+03  0.96586649225E+03  0.50400001928E-02 0. -1.
</event>
<event>
 5   0  0.2046108E-05  0.1600519E+04  0.7818609E-02  0.8820230E-01
        2   -1    0    0  501    0  0.00000000000E+00  0.00000000000E+00  0.14821174978E+04  0.14821174978E+04  0.25500000920E-02 0.  1.
       -2   -1    0    0    0  501  0.00000000000E+00  0.00000000000E+00 -0.43209455256E+03  0.43209455256E+03  0.25500000920E-02 0. -1.
    10030    2    1    2    0    0  0.00000000000E+00  0.00000000000E+00  0.10500229452E+04  0.19142120504E+04  0.16005185373E+04 0.  0.
        1    1    3    3  502    0 -0.64072511932E+03  0.29539253017E+03  0.97669471048E+03  0.12048726003E+04  0.50400001928E-02 0. -1.
       -1    1    3    3    0  502  0.64072511932E+03 -0.29539253017E+03  0.73328234767E+02  0.70933945008E+03  0.50400001928E-02 0.  1.
</event>
<event>
 5   0  0.1081831E-05  0.1598625E+04  0.7818609E-02  0.8821393E-01
        1   -1    0    0  501    0  0.00000000000E+00  0.00000000000E+00  0.81186548457E+03  0.81186548459E+03  0.50400001928E-02 0.  1.
       -1   -1    0    0    0  501  0.00000000000E+00  0.00000000000E+00 -0.78695347223E+03  0.78695347224E+03  0.50400001928E-02 0. -1.
    10030    2    1    2    0    0  0.00000000000E+00  0.00000000000E+00  0.24912012343E+02  0.15988189568E+04  0.15986248617E+04 0.  0.
        3    1    3    3  502    0 -0.32074906511E+03 -0.52324938637E+03  0.52460261551E+03  0.80738949554E+03  0.10100000352E+00 0.  1.
       -3    1    3    3    0  502  0.32074906511E+03  0.52324938637E+03 -0.49969060317E+03  0.79142946129E+03  0.10100000352E+00 0. -1.
</event>
<event>
 5   0  0.1990948E-05  0.1598584E+04  0.7818609E-02  0.8821418E-01
        2   -1    0    0  501    0  0.00000000000E+00  0.00000000000E+00  0.10152790820E+04  0.10152790820E+04  0.25500000920E-02 0.  1.
       -2   -1    0    0    0  501  0.00000000000E+00  0.00000000000E+00 -0.62925333999E+03  0.62925334000E+03  0.25500000920E-02 0. -1.
    10030    2    1    2    0    0  0.00000000000E+00  0.00000000000E+00  0.38602574201E+03  0.16445324220E+04  0.15985840652E+04 0.  0.
        4    1    3    3  502    0 -0.54979397208E+03 -0.18444333057E+03  0.75889023723E+03  0.95509620405E+03  0.12699999809E+01 0.  1.
       -4    1    3    3    0  502  0.54979397208E+03  0.18444333057E+03 -0.37286449522E+03  0.68943621795E+03  0.12699999809E+01 0. -1.
</event>
<event>
 5   0  0.1126485E-05  0.1599189E+04  0.7818609E-02  0.8821046E-01
       -1   -1    0    0    0  501  0.00000000000E+00  0.00000000000E+00  0.71257946104E+03  0.71257946106E+03  0.50400001928E-02 0.  1.
        1   -1    0    0  501    0  0.00000000000E+00  0.00000000000E+00 -0.89723543784E+03  0.89723543785E+03  0.50400001928E-02 0. -1.
    10030    2    1    2    0    0  0.00000000000E+00  0.00000000000E+00 -0.18465597680E+03  0.16098148989E+04  0.15991892255E+04 0.  0.
        2    1    3    3  502    0 -0.77626095950E+03 -0.13146531130E+03  0.48196613084E+02  0.78878838660E+03  0.25500000920E-02 0.  1.
       -2    1    3    3    0  502  0.77626095950E+03  0.13146531130E+03 -0.23285258988E+03  0.82102651232E+03  0.25500000920E-02 0. -1.
</event>
<event>
 5   0  0.2147844E-05  0.1599702E+04  0.7818609E-02  0.8820731E-01
        2   -1    0    0  501    0  0.00000000000E+00  0.00000000000E+00  0.17072984011E+04  0.17072984011E+04  0.25500000920E-02 0.  1.
       -2   -1    0    0    0  501  0.00000000000E+00  0.00000000000E+00 -0.37472168456E+03  0.37472168457E+03  0.25500000920E-02 0. -1.
    10030    2    1    2    0    0  0.00000000000E+00  0.00000000000E+00  0.13325767166E+04  0.20820200857E+04  0.15997021385E+04 0.  0.
        2    1    3    3  502    0 -0.75604919112E+03 -0.16925906106E+02  0.32723481174E+03  0.82400211633E+03  0.25500000920E-02 0.  1.
       -2    1    3    3    0  502  0.75604919112E+03  0.16925906106E+02  0.10053419048E+04  0.12580179694E+04  0.25500000920E-02 0. -1.
</event>
<event>
 5   0  0.1060251E-05  0.1600461E+04  0.7818609E-02  0.8820265E-01
       -1   -1    0    0    0  501  0.00000000000E+00  0.00000000000E+00  0.37582365906E+03  0.37582365910E+03  0.50400001928E-02 0.  1.
        1   -1    0    0  501    0  0.00000000000E+00  0.00000000000E+00 -0.17039080358E+04  0.17039080358E+04  0.50400001928E-02 0. -1.
    10030    2    1    2    0    0  0.00000000000E+00  0.00000000000E+00 -0.13280843768E+04  0.20797316949E+04  0.16004611245E+04 0.  0.
        1    1    3    3  502    0 -0.75051032209E+03  0.26193768845E+03 -0.54429550165E+03  0.96339747214E+03  0.50400001928E-02 0.  1.
       -1    1    3    3    0  502  0.75051032209E+03 -0.26193768845E+03 -0.78378887511E+03  0.11163342228E+04  0.50400001928E-02 0. -1.
</event>
<event>
 5   0  0.2147844E-05  0.1600429E+04  0.7818609E-02  0.8820285E-01
       -2   -1    0    0    0  501  0.00000000000E+00  0.00000000000E+00  0.32624479449E+03  0.32624479450E+03  0.25500000920E-02 0. -1.
        2   -1    0    0  501    0  0.00000000000E+00  0.00000000000E+00 -0.19627684142E+04  0.19627684142E+04  0.25500000920E-02 0.  1.
    10030    2    1    2    0    0  0.00000000000E+00  0.00000000000E+00 -0.16365236198E+04  0.22890132087E+04  0.16004286650E+04 0.  0.
        2    1    3    3  502    0  0.36597819879E+03  0.59327862790E+03 -0.25622010760E+03  0.74267645436E+03  0.25500000920E-02 0. -1.
       -2    1    3    3    0  502 -0.36597819879E+03 -0.59327862790E+03 -0.13803035122E+04  0.15463367544E+04  0.25500000920E-02 0.  1.
</event>
<event>
 5   0  0.1994525E-05  0.1606591E+04  0.7818609E-02  0.8816509E-01
        2   -1    0    0  501    0  0.00000000000E+00  0.00000000000E+00  0.16165859672E+04  0.16165859672E+04  0.25500000920E-02 0. -1.
       -2   -1    0    0    0  501  0.00000000000E+00  0.00000000000E+00 -0.39916436325E+03  0.39916436325E+03  0.25500000920E-02 0.  1.
    10030    2    1    2    0    0  0.00000000000E+00  0.00000000000E+00  0.12174216039E+04  0.20157503304E+04  0.16065908107E+04 0.  0.
        5    1    3    3  502    0 -0.56560033381E+03  0.22115139853E+03 -0.50978670697E+02  0.60945270000E+03  0.46999998093E+01 0.  1.
       -5    1    3    3    0  502  0.56560033381E+03 -0.22115139853E+03  0.12684002746E+04  0.14062976304E+04  0.46999998093E+01 0. -1.
</event>
<event>
 5   0  0.1994525E-05  0.1600284E+04  0.7818609E-02  0.8820373E-01
       -2   -1    0    0    0  501  0.00000000000E+00  0.00000000000E+00  0.69290126332E+03  0.69290126333E+03  0.25500000920E-02 0.  1.
        2   -1    0    0  501    0  0.00000000000E+00  0.00000000000E+00 -0.92398076441E+03  0.92398076441E+03  0.25500000920E-02 0. -1.
    10030    2    1    2    0    0  0.00000000000E+00  0.00000000000E+00 -0.23107950109E+03  0.16168820277E+04  0.16002842734E+04 0.  0.
        5    1    3    3  502    0  0.15459693742E+03 -0.18819760448E+03 -0.88560397839E+03  0.91849607943E+03  0.46999998093E+01 0. -1.
       -5    1    3    3    0  502 -0.15459693742E+03  0.18819760448E+03  0.65452447731E+03  0.69838594830E+03  0.46999998093E+01 0.  1.
</event>
<event>
 5   0  0.7597000E-06  0.1600132E+04  0.7818609E-02  0.8820467E-01
       -4   -1    0    0    0  501  0.00000000000E+00  0.00000000000E+00  0.12041336511E+04  0.12041343209E+04  0.12699999809E+01 0.  1.
        4   -1    0    0  501    0  0.00000000000E+00  0.00000000000E+00 -0.53158859350E+03  0.53159011055E+03  0.12699999809E+01 0. -1.
    10030    2    1    2    0    0  0.00000000000E+00  0.00000000000E+00  0.67254505765E+03  0.17357244314E+04  0.16001320093E+04 0.  0.
        2    1    3    3  502    0 -0.38235249198E+02 -0.78377718822E+03  0.16704989291E+03  0.80229313956E+03  0.25500000920E-02 0. -1.
       -2    1    3    3    0  502  0.38235249198E+02  0.78377718822E+03  0.50549516474E+03  0.93343129187E+03  0.25500000920E-02 0.  1.
</event>
<event>
 5   0  0.1060251E-05  0.1599865E+04  0.7818609E-02  0.8820631E-01
        1   -1    0    0  501    0  0.00000000000E+00  0.00000000000E+00  0.87835903269E+03  0.87835903270E+03  0.50400001928E-02 0. -1.
       -1   -1    0    0    0  501  0.00000000000E+00  0.00000000000E+00 -0.72850806941E+03  0.72850806943E+03  0.50400001928E-02 0.  1.
    10030    2    1    2    0    0  0.00000000000E+00  0.00000000000E+00  0.14985096328E+03  0.16068671021E+04  0.15998645482E+04 0.  0.
        1    1    3    3  502    0 -0.35401376626E+03  0.27278599191E+03 -0.59141917967E+03  0.74129251324E+03  0.50400001928E-02 0.  1.
       -1    1    3    3    0  502  0.35401376626E+03 -0.27278599191E+03  0.74127014295E+03  0.86557458889E+03  0.50400001928E-02 0. -1.
</event>
<event>
 5   0  0.1081831E-05  0.1600051E+04  0.7818609E-02  0.8820517E-01
       -1   -1    0    0    0  501  0.00000000000E+00  0.00000000000E+00  0.85519993288E+03  0.85519993289E+03  0.50400001928E-02 0. -1.
        1   -1    0    0  501    0  0.00000000000E+00  0.00000000000E+00 -0.74841055207E+03  0.74841055209E+03  0.50400001928E-02 0.  1.
    10030    2    1    2    0    0  0.00000000000E+00  0.00000000000E+00  0.10678938081E+03  0.16036104850E+04  0.16000508166E+04 0.  0.
        3    1    3    3  502    0  0.74329530095E+02 -0.14554804164E+03  0.83829185072E+03  0.85407397142E+03  0.10100000352E+00 0. -1.
       -3    1    3    3    0  502 -0.74329530095E+02  0.14554804164E+03 -0.73150246991E+03  0.74953651356E+03  0.10100000352E+00 0.  1.
</event>
<event>
 5   0  0.1081831E-05  0.1600802E+04  0.7818609E-02  0.8820056E-01
        1   -1    0    0  501    0  0.00000000000E+00  0.00000000000E+00  0.94402429979E+03  0.94402429980E+03  0.50400001928E-02 0.  1.
       -1   -1    0    0    0  501  0.00000000000E+00  0.00000000000E+00 -0.67862837395E+03  0.67862837397E+03  0.50400001928E-02 0. -1.
    10030    2    1    2    0    0  0.00000000000E+00  0.00000000000E+00  0.26539592584E+03  0.16226526738E+04  0.16008018935E+04 0.  0.
        3    1    3    3  502    0 -0.61435721314E+03  0.51297938844E+03  0.12491018516E+03  0.81005259265E+03  0.10100000352E+00 0. -1.
       -3    1    3    3    0  502  0.61435721314E+03 -0.51297938844E+03  0.14048574068E+03  0.81260008112E+03  0.10100000352E+00 0.  1.
</event>
<event>
 5   0  0.2046108E-05  0.1600032E+04  0.7818609E-02  0.8820528E-01
        2   -1    0    0  501    0  0.00000000000E+00  0.00000000000E+00  0.59822800074E+03  0.59822800074E+03  0.25500000920E-02 0.  1.
       -2   -1    0    0    0  501  0.00000000000E+00  0.00000000000E+00 -0.10698688751E+04  0.10698688751E+04  0.25500000920E-02 0. -1.
    10030    2    1    2    0    0  0.00000000000E+00  0.00000000000E+00 -0.47164087433E+03  0.16680968758E+04  0.16000318974E+04 0.  0.
        1    1    3    3  502    0  0.47613615358E+03  0.23163560680E+03  0.38941216051E+03  0.65726898744E+03  0.50400001928E-02 0.  1.
       -1    1    3    3    0  502 -0.47613615358E+03 -0.23163560680E+03 -0.86105303484E+03  0.10108278884E+04  0.50400001928E-02 0. -1.
</event>
<event>
 5   0  0.1057506E-05  0.1599707E+04  0.7818609E-02  0.8820728E-01
       -1   -1    0    0    0  501  0.00000000000E+00  0.00000000000E+00  0.78884162612E+03  0.78884162614E+03  0.50400001928E-02 0.  1.
        1   -1    0    0  501    0  0.00000000000E+00  0.00000000000E+00 -0.81101939864E+03  0.81101939866E+03  0.50400001928E-02 0. -1.
    10030    2    1    2    0    0  0.00000000000E+00  0.00000000000E+00 -0.22177772517E+02  0.15998610248E+04  0.15997072998E+04 0.  0.
        5    1    3    3  502    0 -0.14897599169E+03 -0.76456364362E+03 -0.19274433257E+03  0.80244867685E+03  0.46999998093E+01 0. -1.
       -5    1    3    3    0  502  0.14897599169E+03  0.76456364362E+03  0.17056656005E+03  0.79741234794E+03  0.46999998093E+01 0.  1.
</event>
<event>
 5   0  0.2046108E-05  0.1599916E+04  0.7818609E-02  0.8820600E-01
       -2   -1    0    0    0  501  0.00000000000E+00  0.00000000000E+00  0.33238702908E+03  0.33238702909E+03  0.25500000920E-02 0.  1.
        2   -1    0    0  501    0  0.00000000000E+00  0.00000000000E+00 -0.19252644760E+04  0.19252644760E+04  0.25500000920E-02 0. -1.
    10030    2    1    2    0    0  0.00000000000E+00  0.00000000000E+00 -0.15928774469E+04  0.22576515051E+04  0.15999161720E+04 0.  0.
        1    1    3    3  502    0 -0.17097190983E+03 -0.69337924894E+03 -0.13050769362E+04  0.14876935122E+04  0.50400001928E-02 0. -1.
       -1    1    3    3    0  502  0.17097190983E+03  0.69337924894E+03 -0.28780051069E+03  0.76995799287E+03  0.50400001928E-02 0.  1.
</event>
<event>
 5   0  0.2125803E-05  0.1599073E+04  0.7818609E-02  0.8821118E-01
       -2   -1    0    0    0  501  0.00000000000E+00  0.00000000000E+00  0.79220406791E+03  0.79220406791E+03  0.25500000920E-02 0.  1.
        2   -1    0    0  501    0  0.00000000000E+00  0.00000000000E+00 -0.80693649472E+03  0.80693649473E+03  0.25500000920E-02 0. -1.
    10030    2    1    2    0    0  0.00000000000E+00  0.00000000000E+00 -0.14732426816E+02  0.15991405626E+04  0.15990726984E+04 0.  0.
        3    1    3    3  502    0 -0.16741045082E+03 -0.18904453837E+03  0.75127936633E+03  0.79258109554E+03  0.10100000352E+00 0.  1.
       -3    1    3    3    0  502  0.16741045082E+03  0.18904453837E+03 -0.76601179314E+03  0.80655946710E+03  0.10100000352E+00 0. -1.
</event>
<event>
 5   0  0.2147844E-05  0.1596819E+04  0.7818609E-02  0.8822505E-01
        2   -1    0    0  501    0  0.00000000000E+00  0.00000000000E+00  0.99882338369E+03  0.99882338369E+03  0.25500000920E-02 0.  1.
       -2   -1    0    0    0  501  0.00000000000E+00  0.00000000000E+00 -0.63820829369E+03  0.63820829369E+03  0.25500000920E-02 0. -1.
    10030    2    1    2    0    0  0.00000000000E+00  0.00000000000E+00  0.36061509000E+03  0.16370316774E+04  0.15968185462E+04 0.  0.
        2    1    3    3  502    0 -0.60508921470E+02 -0.69900292235E+03  0.57094267067E+03  0.90456727126E+03  0.25500000920E-02 0.  1.
       -2    1    3    3    0  502  0.60508921470E+02  0.69900292235E+03 -0.21032758067E+03  0.73246440612E+03  0.25500000920E-02 0. -1.
</event>
<event>
 5   0  0.1126485E-05  0.1600507E+04  0.7818609E-02  0.8820237E-01
        1   -1    0    0  501    0  0.00000000000E+00  0.00000000000E+00  0.40385948508E+03  0.40385948511E+03  0.50400001928E-02 0. -1.
       -1   -1    0    0    0  501  0.00000000000E+00  0.00000000000E+00 -0.15857140090E+04  0.15857140090E+04  0.50400001928E-02 0.  1.
    10030    2    1    2    0    0  0.00000000000E+00  0.00000000000E+00 -0.11818545239E+04  0.19895734941E+04  0.16005069737E+04 0.  0.
        2    1    3    3  502    0  0.45649801210E+03 -0.29871055835E+03  0.13687721141E+03  0.56245337916E+03  0.25500000920E-02 0. -1.
       -2    1    3    3    0  502 -0.45649801210E+03  0.29871055835E+03 -0.13187317353E+04  0.14271201149E+04  0.25500000920E-02 0.  1.
</event>
<event>
 5   0  0.1994525E-05  0.1600760E+04  0.7818609E-02  0.8820081E-01
       -2   -1    0    0    0  501  0.00000000000E+00  0.00000000000E+00  0.11356569058E+04  0.11356569058E+04  0.25500000920E-02 0. -1.
        2   -1    0    0  501    0  0.00000000000E+00  0.00000000000E+00 -0.56408598759E+03  0.56408598760E+03  0.25500000920E-02 0.  1.
    10030    2    1    2    0    0  0.00000000000E+00  0.00000000000E+00  0.57157091825E+03  0.16997428934E+04  0.16007600036E+04 0.  0.
        5    1    3    3  502    0  0.21190278595E+03  0.22526606834E+03 -0.49806053211E+03  0.58628830441E+03  0.46999998093E+01 0.  1.
       -5    1    3    3    0  502 -0.21190278595E+03 -0.22526606834E+03  0.10696314504E+04  0.11134545890E+04  0.46999998093E+01 0. -1.
</event>
<event>
 5   0  0.7597000E-06  0.1605450E+04  0.7818609E-02  0.8817207E-01
        3   -1    0    0  501    0  0.00000000000E+00  0.00000000000E+00  0.72461718085E+03  0.72461718789E+03  0.10100000352E+00 0. -1.
       -3   -1    0    0    0  501  0.00000000000E+00  0.00000000000E+00 -0.88925187592E+03  0.88925188165E+03  0.10100000352E+00 0.  1.
    10030    2    1    2    0    0  0.00000000000E+00  0.00000000000E+00 -0.16463469506E+03  0.16138690695E+04  0.16054497161E+04 0.  0.
        1    1    3    3  502    0 -0.25841597803E+03 -0.74567651968E+03  0.65268487619E+02  0.79187894605E+03  0.50400001928E-02 0. -1.
       -1    1    3    3    0  502  0.25841597803E+03  0.74567651968E+03 -0.22990318268E+03  0.82199012350E+03  0.50400001928E-02 0.  1.
</event>
<event>
 5   0  0.1994525E-05  0.1600071E+04  0.7818609E-02  0.8820505E-01
       -2   -1    0    0    0  501  0.00000000000E+00  0.00000000000E+00  0.49846019478E+03  0.49846019479E+03  0.25500000920E-02 0. -1.
        2   -1    0    0  501    0  0.00000000000E+00  0.00000000000E+00 -0.12840675305E+04  0.12840675305E+04  0.25500000920E-02 0.  1.
    10030    2    1    2    0    0  0.00000000000E+00  0.00000000000E+00 -0.78560733574E+03  0.17825277253E+04  0.16000706877E+04 0.  0.
        5    1    3    3  502    0  0.45503711748E+03 -0.25037664003E+03  0.28509766312E+03  0.59249473219E+03  0.46999998093E+01 0. -1.
       -5    1    3    3    0  502 -0.45503711748E+03  0.25037664003E+03 -0.10707049989E+04  0.11900329931E+04  0.46999998093E+01 0.  1.
</event>
<event>
 5   0  0.2046108E-05  0.1600324E+04  0.7818609E-02  0.8820349E-01
        2   -1    0    0  501    0  0.00000000000E+00  0.00000000000E+00  0.50314139451E+03  0.50314139452E+03  0.25500000920E-02 0. -1.
       -2   -1    0    0    0  501  0.00000000000E+00  0.00000000000E+00 -0.12725237320E+04  0.12725237321E+04  0.25500000920E-02 0.  1.
    10030    2    1    2    0    0  0.00000000000E+00  0.00000000000E+00 -0.76938233754E+03  0.17756651266E+04  0.16003241735E+04 0.  0.
        1    1    3    3  502    0 -0.30325992545E+02  0.56748379541E+03  0.24032232834E+03  0.61701891818E+03  0.50400001928E-02 0. -1.
       -1    1    3    3    0  502  0.30325992545E+02 -0.56748379541E+03 -0.10097046659E+04  0.11586462084E+04  0.50400001928E-02 0.  1.
</event>
<event>
 5   0  0.1990948E-05  0.1601059E+04  0.7818609E-02  0.8819898E-01
       -2   -1    0    0    0  501  0.00000000000E+00  0.00000000000E+00  0.39464480608E+03  0.39464480609E+03  0.25500000920E-02 0.  1.
        2   -1    0    0  501    0  0.00000000000E+00  0.00000000000E+00 -0.16238593950E+04  0.16238593950E+04  0.25500000920E-02 0. -1.
    10030    2    1    2    0    0  0.00000000000E+00  0.00000000000E+00 -0.12292145889E+04  0.20185042011E+04  0.16010592445E+04 0.  0.
        4    1    3    3  502    0 -0.33423049954E+01 -0.32118257408E+03  0.30984146044E+03  0.44628775516E+03  0.12699999809E+01 0.  1.
       -4    1    3    3    0  502  0.33423049954E+01  0.32118257408E+03 -0.15390560494E+04  0.15722164460E+04  0.12699999809E+01 0. -1.
</event>
<event>
 5   0  0.1126485E-05  0.1601419E+04  0.7818609E-02  0.8819677E-01
       -1   -1    0    0    0  501  0.00000000000E+00  0.00000000000E+00  0.60464411073E+03  0.60464411075E+03  0.50400001928E-02 0.  1.
        1   -1    0    0  501    0  0.00000000000E+00  0.00000000000E+00 -0.10603521905E+04  0.10603521905E+04  0.50400001928E-02 0. -1.
    10030    2    1    2    0    0  0.00000000000E+00  0.00000000000E+00 -0.45570807976E+03  0.16649963013E+04  0.16014190049E+04 0.  0.
        2    1    3    3  502    0 -0.49902514997E+03 -0.22219106031E+03  0.38082894228E+03  0.66590213310E+03  0.25500000920E-02 0.  1.
       -2    1    3    3    0  502  0.49902514997E+03  0.22219106031E+03 -0.83653702205E+03  0.99909416816E+03  0.25500000920E-02 0. -1.
</event>
<event>
 5   0  0.1126485E-05  0.1598912E+04  0.7818609E-02  0.8821217E-01
       -1   -1    0    0    0  501  0.00000000000E+00  0.00000000000E+00  0.47222895025E+03  0.47222895028E+03  0.50400001928E-02 0.  1.
        1   -1    0    0  501    0  0.00000000000E+00  0.00000000000E+00 -0.13534316996E+04  0.13534316997E+04  0.50400001928E-02 0. -1.
    10030    2    1    2    0    0  0.00000000000E+00  0.00000000000E+00 -0.88120274939E+03  0.18256606499E+04  0.15989116683E+04 0.  0.
        2    1    3    3  502    0  0.40232324914E+03  0.51003819610E+03  0.91448287096E+02  0.65602267301E+03  0.25500000920E-02 0.  1.
       -2    1    3    3    0  502 -0.40232324914E+03 -0.51003819610E+03 -0.97265103649E+03  0.11696379769E+04  0.25500000920E-02 0. -1.
</event>
<event>
 5   0  0.1994525E-05  0.1599771E+04  0.7818609E-02  0.8820689E-01
        2   -1    0    0  501    0  0.00000000000E+00  0.00000000000E+00  0.10247238386E+04  0.10247238386E+04  0.25500000920E-02 0.  1.
       -2   -1    0    0    0  501  0.00000000000E+00  0.00000000000E+00 -0.62437987685E+03  0.62437987685E+03  0.25500000920E-02 0. -1.
    10030    2    1    2    0    0  0.00000000000E+00  0.00000000000E+00  0.40034396171E+03  0.16491037154E+04  0.15997711638E+04 0.  0.
        5    1    3    3  502    0 -0.18986019346E+03 -0.76570794969E+03  0.33630221484E+03  0.85759945603E+03  0.46999998093E+01 0.  1.
       -5    1    3    3    0  502  0.18986019346E+03  0.76570794969E+03  0.64041746868E+02  0.79150425938E+03  0.46999998093E+01 0. -1.
</event>
<event>
 5   0  0.2125803E-05  0.1599116E+04  0.7818609E-02  0.8821092E-01
        2   -1    0    0  501    0  0.00000000000E+00  0.00000000000E+00  0.88256684704E+03  0.88256684705E+03  0.25500000920E-02 0.  1.
       -2   -1    0    0    0  501  0.00000000000E+00  0.00000000000E+00 -0.72435602863E+03  0.72435602864E+03  0.25500000920E-02 0. -1.
    10030    2    1    2    0    0  0.00000000000E+00  0.00000000000E+00  0.15821081841E+03  0.16069228757E+04  0.15991155260E+04 0.  0.
        3    1    3    3  502    0 -0.10627416220E+03 -0.45805692834E+03  0.72893277344E+03  0.86744068705E+03  0.10100000352E+00 0.  1.
       -3    1    3    3    0  502  0.10627416220E+03  0.45805692834E+03 -0.57072195503E+03  0.73948218864E+03  0.10100000352E+00 0. -1.
</event>
<event>
 5   0  0.1126485E-05  0.1599940E+04  0.7818609E-02  0.8820585E-01
       -1   -1    0    0    0  501  0.00000000000E+00  0.00000000000E+00  0.43004891313E+03  0.43004891316E+03  0.50400001928E-02 0. -1.
        1   -1    0    0  501    0  0.00000000000E+00  0.00000000000E+00 -0.14880909070E+04  0.14880909070E+04  0.50400001928E-02 0.  1.
    10030    2    1    2    0    0  0.00000000000E+00  0.00000000000E+00 -0.10580419938E+04  0.19181398201E+04  0.15999398454E+04 0.  0.
        2    1    3    3  502    0 -0.21030879891E+03  0.57434757174E+03 -0.11471689715E+04  0.13000390660E+04  0.25500000920E-02 0.  1.
       -2    1    3    3    0  502  0.21030879891E+03 -0.57434757174E+03  0.89126977660E+02  0.61810075410E+03  0.25500000920E-02 0. -1.
</event>
<event>
 5   0  0.1990948E-05  0.1600674E+04  0.7818609E-02  0.8820134E-01
        2   -1    0    0  501    0  0.00000000000E+00  0.00000000000E+00  0.18013829749E+04  0.18013829749E+04  0.25500000920E-02 0. -1.
       -2   -1    0    0    0  501  0.00000000000E+00  0.00000000000E+00 -0.35558214208E+03  0.35558214209E+03  0.25500000920E-02 0.  1.
    10030    2    1    2    0    0  0.00000000000E+00  0.00000000000E+00  0.14458008328E+04  0.21569651170E+04  0.16006743790E+04 0.  0.
        4    1    3    3  502    0  0.65478429091E+03  0.28903416240E+03  0.24031196590E+03  0.75500640296E+03  0.12699999809E+01 0. -1.
       -4    1    3    3    0  502 -0.65478429091E+03 -0.28903416240E+03  0.12054888669E+04  0.14019587140E+04  0.12699999809E+01 0.  1.
</event>
<event>
 5   0  0.1090674E-05  0.1599422E+04  0.7818609E-02  0.8820903E-01
        1   -1    0    0  501    0  0.00000000000E+00  0.00000000000E+00  0.73303212720E+03  0.73303212722E+03  0.50400001928E-02 0. -1.
       -1   -1    0    0    0  501  0.00000000000E+00  0.00000000000E+00 -0.87245513001E+03  0.87245513002E+03  0.50400001928E-02 0.  1.
    10030    2    1    2    0    0  0.00000000000E+00  0.00000000000E+00 -0.13942300281E+03  0.16054872572E+04  0.15994219454E+04 0.  0.
        4    1    3    3  502    0 -0.22929104773E+03  0.73590556098E+03 -0.28360321880E+03  0.82131831701E+03  0.12699999809E+01 0.  1.
       -4    1    3    3    0  502  0.22929104773E+03 -0.73590556098E+03  0.14418021599E+03  0.78416894023E+03  0.12699999809E+01 0. -1.
</event>
<event>
 5   0  0.1081831E-05  0.1599598E+04  0.7818609E-02  0.8820795E-01
       -1   -1    0    0    0  501  0.00000000000E+00  0.00000000000E+00  0.58936179420E+03  0.58936179422E+03  0.50400001928E-02 0.  1.
        1   -1    0    0  501    0  0.00000000000E+00  0.00000000000E+00 -0.10853742758E+04  0.10853742758E+04  0.50400001928E-02 0. -1.
    10030    2    1    2    0    0  0.00000000000E+00  0.00000000000E+00 -0.49601248163E+03  0.16747360701E+04  0.15995976127E+04 0.  0.
        3    1    3    3  502    0  0.17515766452E+03 -0.70454022208E+02 -0.10617100911E+04  0.10783655709E+04  0.10100000352E+00 0. -1.
       -3    1    3    3    0  502 -0.17515766452E+03  0.70454022208E+02  0.56569760950E+03  0.59637049917E+03  0.10100000352E+00 0.  1.
</event>
<event>
 5   0  0.2046108E-05  0.1600984E+04  0.7818609E-02  0.8819944E-01
        2   -1    0    0  501    0  0.00000000000E+00  0.00000000000E+00  0.23814956430E+04  0.23814956430E+04  0.25500000920E-02 0. -1.
       -2   -1    0    0    0  501  0.00000000000E+00  0.00000000000E+00 -0.26906925445E+03  0.26906925446E+03  0.25500000920E-02 0.  1.
    10030    2    1    2    0    0  0.00000000000E+00  0.00000000000E+00  0.21124263885E+04  0.26505648975E+04  0.16009837690E+04 0.  0.
        1    1    3    3  502    0 -0.26105631893E+03 -0.63114464334E+03  0.17473942923E+04  0.18761345302E+04  0.50400001928E-02 0. -1.
       -1    1    3    3    0  502  0.26105631893E+03  0.63114464334E+03  0.36503209622E+03  0.77443036728E+03  0.50400001928E-02 0.  1.
</event>
<event>
 5   0  0.1126485E-05  0.1599857E+04  0.7818609E-02  0.8820636E-01
        1   -1    0    0  501    0  0.00000000000E+00  0.00000000000E+00  0.69427583015E+03  0.69427583017E+03  0.50400001928E-02 0. -1.
       -1   -1    0    0    0  501  0.00000000000E+00  0.00000000000E+00 -0.92165894090E+03  0.92165894092E+03  0.50400001928E-02 0.  1.
    10030    2    1    2    0    0  0.00000000000E+00  0.00000000000E+00 -0.22738311075E+03  0.16159347711E+04  0.15998569015E+04 0.  0.
        2    1    3    3  502    0 -0.16177661246E+03 -0.30219268240E+03 -0.84372295961E+03  0.91069233126E+03  0.25500000920E-02 0.  1.
       -2    1    3    3    0  502  0.16177661246E+03  0.30219268240E+03  0.61633984886E+03  0.70524243983E+03  0.25500000920E-02 0. -1.
</event>
<event>
 5   0  0.2046108E-05  0.1599537E+04  0.7818609E-02  0.8820833E-01
        2   -1    0    0  501    0  0.00000000000E+00  0.00000000000E+00  0.19691397026E+04  0.19691397026E+04  0.25500000920E-02 0.  1.
       -2   -1    0    0    0  501  0.00000000000E+00  0.00000000000E+00 -0.32482692435E+03  0.32482692436E+03  0.25500000920E-02 0. -1.
    10030    2    1    2    0    0  0.00000000000E+00  0.00000000000E+00  0.16443127783E+04  0.22939666270E+04  0.15995369245E+04 0.  0.
        1    1    3    3  502    0  0.28232643455E+02  0.56026198188E+03  0.16396676816E+04  0.17329745170E+04  0.50400001928E-02 0.  1.
       -1    1    3    3    0  502 -0.28232643455E+02 -0.56026198188E+03  0.46450966677E+01  0.56099210996E+03  0.50400001928E-02 0. -1.
</event>
<event>
 5   0  0.2125803E-05  0.1599903E+04  0.7818609E-02  0.8820607E-01
       -2   -1    0    0    0  501  0.00000000000E+00  0.00000000000E+00  0.40132213931E+03  0.40132213931E+03  0.25500000920E-02 0.  1.
        2   -1    0    0  501    0  0.00000000000E+00  0.00000000000E+00 -0.15945362386E+04  0.15945362386E+04  0.25500000920E-02 0. -1.
    10030    2    1    2    0    0  0.00000000000E+00  0.00000000000E+00 -0.11932140993E+04  0.19958583779E+04  0.15999033652E+04 0.  0.
        3    1    3    3  502    0 -0.57067226734E+03 -0.17408005634E+03  0.68143065722E+02  0.60051160716E+03  0.10100000352E+00 0.  1.
       -3    1    3    3    0  502  0.57067226734E+03  0.17408005634E+03 -0.12613571650E+04  0.13953467708E+04  0.10100000352E+00 0. -1.
</event>
<event>
 5   0  0.1060251E-05  0.1599882E+04  0.7818609E-02  0.8820621E-01
       -1   -1    0    0    0  501  0.00000000000E+00  0.00000000000E+00  0.35126556319E+03  0.35126556322E+03  0.50400001928E-02 0. -1.
        1   -1    0    0  501    0  0.00000000000E+00  0.00000000000E+00 -0.18217135408E+04  0.18217135408E+04  0.50400001928E-02 0.  1.
    10030    2    1    2    0    0  0.00000000000E+00  0.00000000000E+00 -0.14704479776E+04  0.21729791040E+04  0.15998815368E+04 0.  0.
        1    1    3    3  502    0 -0.46550597728E+03  0.10305479820E+03  0.13719801921E+03  0.49612438240E+03  0.50400001928E-02 0. -1.
       -1    1    3    3    0  502  0.46550597728E+03 -0.10305479820E+03 -0.16076459968E+04  0.16768547216E+04  0.50400001928E-02 0.  1.
</event>
<event>
 5   0  0.1060251E-05  0.1601368E+04  0.7818609E-02  0.8819708E-01
        1   -1    0    0  501    0  0.00000000000E+00  0.00000000000E+00  0.14379173202E+04  0.14379173202E+04  0.50400001928E-02 0. -1.
       -1   -1    0    0    0  501  0.00000000000E+00  0.00000000000E+00 -0.44584935616E+03  0.44584935619E+03  0.50400001928E-02 0.  1.
    10030    2    1    2    0    0  0.00000000000E+00  0.00000000000E+00  0.99206796399E+03  0.18837666764E+04  0.16013675549E+04 0.  0.
        1    1    3    3  502    0  0.29984972931E+03 -0.43446984818E+03 -0.21214416935E+03  0.56892798996E+03  0.50400001928E-02 0.  1.
       -1    1    3    3    0  502 -0.29984972931E+03  0.43446984818E+03  0.12042121333E+04  0.13148386864E+04  0.50400001928E-02 0. -1.
</event>
<event>
 5   0  0.2046108E-05  0.1600795E+04  0.7818609E-02  0.8820060E-01
        2   -1    0    0  501    0  0.00000000000E+00  0.00000000000E+00  0.86362636942E+03  0.86362636942E+03  0.25500000920E-02 0.  1.
       -2   -1    0    0    0  501  0.00000000000E+00  0.00000000000E+00 -0.74179757184E+03  0.74179757185E+03  0.25500000920E-02 0. -1.
    10030    2    1    2    0    0  0.00000000000E+00  0.00000000000E+00  0.12182879758E+03  0.16054239413E+04  0.16007947324E+04 0.  0.
        1    1    3    3  502    0  0.12987965563E+03  0.28217507288E+03  0.80070905424E+03  0.85885184186E+03  0.50400001928E-02 0.  1.
       -1    1    3    3    0  502 -0.12987965563E+03 -0.28217507288E+03 -0.67888025667E+03  0.74657209941E+03  0.50400001928E-02 0. -1.
</event>
<event>
 5   0  0.1126485E-05  0.1599747E+04  0.7818609E-02  0.8820703E-01
        1   -1    0    0  501    0  0.00000000000E+00  0.00000000000E+00  0.12894742131E+04  0.12894742131E+04  0.50400001928E-02 0.  1.
       -1   -1    0    0    0  501  0.00000000000E+00  0.00000000000E+00 -0.49616953433E+03  0.49616953436E+03  0.50400001928E-02 0. -1.
    10030    2    1    2    0    0  0.00000000000E+00  0.00000000000E+00  0.79330467872E+03  0.17856437474E+04  0.15997472549E+04 0.  0.
        2    1    3    3  502    0  0.18303367327E+03 -0.59766430678E+03  0.95374182840E+03  0.11403190012E+04  0.25500000920E-02 0.  1.
       -2    1    3    3    0  502 -0.18303367327E+03  0.59766430678E+03 -0.16043714968E+03  0.64532474627E+03  0.25500000920E-02 0. -1.
</event>
<event>
 5   0  0.1060251E-05  0.1599782E+04  0.7818609E-02  0.8820682E-01
       -1   -1    0    0    0  501  0.00000000000E+00  0.00000000000E+00  0.16829532555E+04  0.16829532556E+04  0.50400001928E-02 0. -1.
        1   -1    0    0  501    0  0.00000000000E+00  0.00000000000E+00 -0.38018026806E+03  0.38018026809E+03  0.50400001928E-02 0.  1.
    10030    2    1    2    0    0  0.00000000000E+00  0.00000000000E+00  0.13027729875E+04  0.20631335236E+04  0.15997820100E+04 0.  0.
        1    1    3    3  502    0  0.69928088337E+03 -0.11631896830E+03  0.11292507919E+04  0.13333158693E+04  0.50400001928E-02 0. -1.
       -1    1    3    3    0  502 -0.69928088337E+03  0.11631896830E+03  0.17352219558E+03  0.72981765436E+03  0.50400001928E-02 0.  1.
</event>
<event>
 5   0  0.2125803E-05  0.1599019E+04  0.7818609E-02  0.8821151E-01
       -2   -1    0    0    0  501  0.00000000000E+00  0.00000000000E+00  0.25792491567E+03  0.25792491568E+03  0.25500000920E-02 0. -1.
        2   -1    0    0  501    0  0.00000000000E+00  0.00000000000E+00 -0.24782992286E+04  0.24782992286E+04  0.25500000920E-02 0.  1.
    10030    2    1    2    0    0  0.00000000000E+00  0.00000000000E+00 -0.22203743129E+04  0.27362241443E+04  0.15990185984E+04 0.  0.
        3    1    3    3  502    0  0.78171727749E+03 -0.13717625959E+03 -0.94502515889E+03  0.12340874318E+04  0.10100000352E+00 0. -1.
       -3    1    3    3    0  502 -0.78171727749E+03  0.13717625959E+03 -0.12753491540E+04  0.15021367125E+04  0.10100000352E+00 0.  1.
</event>
<event>
 5   0  0.1090674E-05  0.1600189E+04  0.7818609E-02  0.8820432E-01
        1   -1    0    0  501    0  0.00000000000E+00  0.00000000000E+00  0.53432319689E+03  0.53432319692E+03  0.50400001928E-02 0. -1.
       -1   -1    0    0    0  501  0.00000000000E+00  0.00000000000E+00 -0.11980601522E+04  0.11980601522E+04  0.50400001928E-02 0.  1.
    10030    2    1    2    0    0  0.00000000000E+00  0.00000000000E+00 -0.66373695527E+03  0.17323833491E+04  0.16001891521E+04 0.  0.
        4    1    3    3  502    0 -0.84510768817E+01  0.63659679311E+03  0.19274908878E+03  0.66519224426E+03  0.12699999809E+01 0. -1.
       -4    1    3    3    0  502  0.84510768817E+01 -0.63659679311E+03 -0.85648604405E+03  0.10671911048E+04  0.12699999809E+01 0.  1.
</event>
<event>
 5   0  0.1060251E-05  0.1599786E+04  0.7818609E-02  0.8820679E-01
        1   -1    0    0  501    0  0.00000000000E+00  0.00000000000E+00  0.14438349428E+04  0.14438349428E+04  0.50400001928E-02 0. -1.
       -1   -1    0    0    0  501  0.00000000000E+00  0.00000000000E+00 -0.44314567110E+03  0.44314567113E+03  0.50400001928E-02 0.  1.
    10030    2    1    2    0    0  0.00000000000E+00  0.00000000000E+00  0.10006892717E+04  0.18869806139E+04  0.15997864917E+04 0.  0.
        1    1    3    3  502    0  0.33102072342E+03  0.15496067757E+03  0.13395811279E+04  0.13885478490E+04  0.50400001928E-02 0. -1.
       -1    1    3    3    0  502 -0.33102072342E+03 -0.15496067757E+03 -0.33889185616E+03  0.49843276490E+03  0.50400001928E-02 0.  1.
</event>
<event>
 5   0  0.1060251E-05  0.1598607E+04  0.7818609E-02  0.8821404E-01
        1   -1    0    0  501    0  0.00000000000E+00  0.00000000000E+00  0.15304035311E+04  0.15304035311E+04  0.50400001928E-02 0.  1.
       -1   -1    0    0    0  501  0.00000000000E+00  0.00000000000E+00 -0.41746245639E+03  0.41746245642E+03  0.50400001928E-02 0. -1.
    10030    2    1    2    0    0  0.00000000000E+00  0.00000000000E+00  0.11129410747E+04  0.19478659876E+04  0.15986069153E+04 0.  0.
        1    1    3    3  502    0 -0.51140881135E+03  0.55856476061E+03  0.86796356827E+03  0.11519089895E+04  0.50400001928E-02 0.  1.
       -1    1    3    3    0  502  0.51140881135E+03 -0.55856476061E+03  0.24497750645E+03  0.79595699809E+03  0.50400001928E-02 0. -1.
</event>
<event>
 5   0  0.2147844E-05  0.1599208E+04  0.7818609E-02  0.8821034E-01
        2   -1    0    0  501    0  0.00000000000E+00  0.00000000000E+00  0.91392932475E+03  0.91392932475E+03  0.25500000920E-02 0.  1.
       -2   -1    0    0    0  501  0.00000000000E+00  0.00000000000E+00 -0.69958027081E+03  0.69958027082E+03  0.25500000920E-02 0. -1.
    10030    2    1    2    0    0  0.00000000000E+00  0.00000000000E+00  0.21434905394E+03  0.16135095956E+04  0.15992084599E+04 0.  0.
        2    1    3    3  502    0 -0.33816295469E+03 -0.63710435473E+03 -0.24103609230E+03  0.76049624623E+03  0.25500000920E-02 0. -1.
       -2    1    3    3    0  502  0.33816295469E+03  0.63710435473E+03  0.45538514623E+03  0.85301334934E+03  0.25500000920E-02 0.  1.
</event>
<event>
 5   0  0.1990948E-05  0.1600094E+04  0.7818609E-02  0.8820490E-01
       -2   -1    0    0    0  501  0.00000000000E+00  0.00000000000E+00  0.81332708485E+03  0.81332708485E+03  0.25500000920E-02 0. -1.
        2   -1    0    0  501    0  0.00000000000E+00  0.00000000000E+00 -0.78698384780E+03  0.78698384780E+03  0.25500000920E-02 0.  1.
    10030    2    1    2    0    0  0.00000000000E+00  0.00000000000E+00  0.26343237050E+02  0.16003109327E+04  0.16000940957E+04 0.  0.
        4    1    3    3  502    0  0.14128366401E+03  0.41063027172E+03  0.68519672914E+03  0.81121788953E+03  0.12699999809E+01 0. -1.
       -4    1    3    3    0  502 -0.14128366401E+03 -0.41063027172E+03 -0.65885349209E+03  0.78909304313E+03  0.12699999809E+01 0.  1.
</event>
<event>
 5   0  0.2125803E-05  0.1599527E+04  0.7818609E-02  0.8820839E-01
        2   -1    0    0  501    0  0.00000000000E+00  0.00000000000E+00  0.17111534330E+04  0.17111534330E+04  0.25500000920E-02 0.  1.
       -2   -1    0    0    0  501  0.00000000000E+00  0.00000000000E+00 -0.37379539009E+03  0.37379539010E+03  0.25500000920E-02 0. -1.
    10030    2    1    2    0    0  0.00000000000E+00  0.00000000000E+00  0.13373580429E+04  0.20849488231E+04  0.15995265112E+04 0.  0.
        3    1    3    3  502    0 -0.47049408042E-01 -0.18349818744E+03  0.16833429759E+04  0.16933148472E+04  0.10100000352E+00 0.  1.
       -3    1    3    3    0  502  0.47049408042E-01  0.18349818744E+03 -0.34598493301E+03  0.39163397590E+03  0.10100000352E+00 0. -1.
</event>
<event>
 5   0  0.1081831E-05  0.1599590E+04  0.7818609E-02  0.8820800E-01
        1   -1    0    0  501    0  0.00000000000E+00  0.00000000000E+00  0.11447779489E+04  0.11447779489E+04  0.50400001928E-02 0.  1.
       -1   -1    0    0    0  501  0.00000000000E+00  0.00000000000E+00 -0.55877412069E+03  0.55877412071E+03  0.50400001928E-02 0. -1.
    10030    2    1    2    0    0  0.00000000000E+00  0.00000000000E+00  0.58600382817E+03  0.17035520696E+04  0.15995903123E+04 0.  0.
        3    1    3    3  502    0 -0.57831377829E+03  0.36690077674E+03 -0.14689201314E+03  0.70045719345E+03  0.10100000352E+00 0. -1.
       -3    1    3    3    0  502  0.57831377829E+03 -0.36690077674E+03  0.73289584131E+03  0.10030948761E+04  0.10100000352E+00 0.  1.
</event>
<event>
 5   0  0.1994525E-05  0.1601099E+04  0.7818609E-02  0.8819873E-01
       -2   -1    0    0    0  501  0.00000000000E+00  0.00000000000E+00  0.36827243702E+03  0.36827243703E+03  0.25500000920E-02 0. -1.
        2   -1    0    0  501    0  0.00000000000E+00  0.00000000000E+00 -0.17402329243E+04  0.17402329243E+04  0.25500000920E-02 0.  1.
    10030    2    1    2    0    0  0.00000000000E+00  0.00000000000E+00 -0.13719604873E+04  0.21085053613E+04  0.16010993973E+04 0.  0.
        5    1    3    3  502    0 -0.31208260078E+03  0.73719475814E+03 -0.68922447034E+03  0.10563636314E+04  0.46999998093E+01 0. -1.
       -5    1    3    3    0  502  0.31208260078E+03 -0.73719475814E+03 -0.68273601693E+03  0.10521417300E+04  0.46999998093E+01 0.  1.
</event>
<event>
 5   0  0.2147844E-05  0.1599303E+04  0.7818609E-02  0.8820976E-01
        2   -1    0    0  501    0  0.00000000000E+00  0.00000000000E+00  0.91529052748E+03  0.91529052749E+03  0.25500000920E-02 0.  1.
       -2   -1    0    0    0  501  0.00000000000E+00  0.00000000000E+00 -0.69862242215E+03  0.69862242215E+03  0.25500000920E-02 0. -1.
    10030    2    1    2    0    0  0.00000000000E+00  0.00000000000E+00  0.21666810533E+03  0.16139129496E+04  0.15993029548E+04 0.  0.
        2    1    3    3  502    0  0.29931966686E+03  0.59635570191E+03  0.55305262989E+03  0.86666002423E+03  0.25500000920E-02 0.  1.
       -2    1    3    3    0  502 -0.29931966686E+03 -0.59635570191E+03 -0.33638452455E+03  0.74725292541E+03  0.25500000920E-02 0. -1.
</event>
<event>
 5   0  0.1081831E-05  0.1600714E+04  0.7818609E-02  0.8820110E-01
       -1   -1    0    0    0  501  0.00000000000E+00  0.00000000000E+00  0.64179412253E+03  0.64179412255E+03  0.50400001928E-02 0. -1.
        1   -1    0    0  501    0  0.00000000000E+00  0.00000000000E+00 -0.99809453403E+03  0.99809453404E+03  0.50400001928E-02 0.  1.
    10030    2    1    2    0    0  0.00000000000E+00  0.00000000000E+00 -0.35630041149E+03  0.16398886566E+04  0.16007138479E+04 0.  0.
        3    1    3    3  502    0  0.37091811150E+03  0.68471530238E+03 -0.36748636216E+03  0.86108160318E+03  0.10100000352E+00 0.  1.
       -3    1    3    3    0  502 -0.37091811150E+03 -0.68471530238E+03  0.11185950668E+02  0.77880705342E+03  0.10100000352E+00 0. -1.
</event>
<event>
 5   0  0.1994525E-05  0.1600621E+04  0.7818609E-02  0.8820167E-01
       -2   -1    0    0    0  501  0.00000000000E+00  0.00000000000E+00  0.50945800415E+03  0.50945800416E+03  0.25500000920E-02 0.  1.
        2   -1    0    0  501    0  0.00000000000E+00  0.00000000000E+00 -0.12572124670E+04  0.12572124670E+04  0.25500000920E-02 0. -1.
    10030    2    1    2    0    0  0.00000000000E+00  0.00000000000E+00 -0.74775446283E+03  0.17666704711E+04  0.16006210722E+04 0.  0.
        5    1    3    3  502    0 -0.38096646164E+03  0.35363449685E+03  0.29775782568E+03  0.59906144510E+03  0.46999998093E+01 0.  1.
       -5    1    3    3    0  502  0.38096646164E+03 -0.35363449685E+03 -0.10455122885E+04  0.11676090260E+04  0.46999998093E+01 0. -1.
</event>
<event>
 5   0  0.7597000E-06  0.1599364E+04  0.7818609E-02  0.8820939E-01
       -3   -1    0    0    0  501  0.00000000000E+00  0.00000000000E+00  0.89390793136E+03  0.89390793707E+03  0.10100000352E+00 0.  1.
        3   -1    0    0  501    0  0.00000000000E+00  0.00000000000E+00 -0.71538839646E+03  0.71538840359E+03  0.10100000352E+00 0. -1.
    10030    2    1    2    0    0  0.00000000000E+00  0.00000000000E+00  0.17851953490E+03  0.16092963407E+04  0.15993640885E+04 0.  0.
        2    1    3    3  502    0  0.34855327931E+03 -0.50210602888E+03  0.60810869825E+03  0.86220417631E+03  0.25500000920E-02 0.  1.
       -2    1    3    3    0  502 -0.34855327931E+03  0.50210602888E+03 -0.42958916335E+03  0.74709216435E+03  0.25500000920E-02 0. -1.
</event>
<event>
 5   0  0.1994525E-05  0.1599258E+04  0.7818609E-02  0.8821004E-01
        2   -1    0    0  501    0  0.00000000000E+00  0.00000000000E+00  0.10719993656E+04  0.10719993656E+04  0.25500000920E-02 0. -1.
       -2   -1    0    0    0  501  0.00000000000E+00  0.00000000000E+00 -0.59646152973E+03  0.59646152973E+03  0.25500000920E-02 0.  1.
    10030    2    1    2    0    0  0.00000000000E+00  0.00000000000E+00  0.47553783583E+03  0.16684608953E+04  0.15992578047E+04 0.  0.
        5    1    3    3  502    0  0.18963947596E+03 -0.49649066386E+03 -0.38550921322E+03  0.65658628802E+03  0.46999998093E+01 0.  1.
       -5    1    3    3    0  502 -0.18963947596E+03  0.49649066386E+03  0.86104704906E+03  0.10118746073E+04  0.46999998093E+01 0. -1.
</event>
<event>
 5   0  0.2046108E-05  0.1600199E+04  0.7818609E-02  0.8820426E-01
        2   -1    0    0  501    0  0.00000000000E+00  0.00000000000E+00  0.12714340201E+04  0.12714340201E+04  0.25500000920E-02 0. -1.
       -2   -1    0    0    0  501  0.00000000000E+00  0.00000000000E+00 -0.50349389824E+03  0.50349389824E+03  0.25500000920E-02 0.  1.
    10030    2    1    2    0    0  0.00000000000E+00  0.00000000000E+00  0.76794012183E+03  0.17749279183E+04  0.16001990765E+04 0.  0.
        1    1    3    3  502    0 -0.46812555667E+03  0.52113223135E+03 -0.44813949916E+02  0.70194631524E+03  0.50400001928E-02 0.  1.
       -1    1    3    3    0  502  0.46812555667E+03 -0.52113223135E+03  0.81275407175E+03  0.10729816031E+04  0.50400001928E-02 0. -1.
</event>
<event>
 5   0  0.1990948E-05  0.1600371E+04  0.7818609E-02  0.8820320E-01
       -2   -1    0    0    0  501  0.00000000000E+00  0.00000000000E+00  0.67649615358E+03  0.67649615358E+03  0.25500000920E-02 0. -1.
        2   -1    0    0  501    0  0.00000000000E+00  0.00000000000E+00 -0.94649031015E+03  0.94649031015E+03  0.25500000920E-02 0.  1.
    10030    2    1    2    0    0  0.00000000000E+00  0.00000000000E+00 -0.26999415657E+03  0.16229864637E+04  0.16003712747E+04 0.  0.
        4    1    3    3  502    0  0.53879882633E+03 -0.28300685641E+03 -0.66185594490E+03  0.89913956688E+03  0.12699999809E+01 0.  1.
       -4    1    3    3    0  502 -0.53879882633E+03  0.28300685641E+03  0.39186178833E+03  0.72384689686E+03  0.12699999809E+01 0. -1.
</event>
<event>
 5   0  0.1081831E-05  0.1600062E+04  0.7818609E-02  0.8820510E-01
        1   -1    0    0  501    0  0.00000000000E+00  0.00000000000E+00  0.54314961687E+03  0.54314961689E+03  0.50400001928E-02 0. -1.
       -1   -1    0    0    0  501  0.00000000000E+00  0.00000000000E+00 -0.11784035990E+04  0.11784035991E+04  0.50400001928E-02 0.  1.
    10030    2    1    2    0    0  0.00000000000E+00  0.00000000000E+00 -0.63525398218E+03  0.17215532159E+04  0.16000618280E+04 0.  0.
        3    1    3    3  502    0  0.69018494172E+03 -0.44097385981E+01  0.11765884457E+03  0.70015592083E+03  0.10100000352E+00 0. -1.
       -3    1    3    3    0  502 -0.69018494172E+03  0.44097385981E+01 -0.75291282675E+03  0.10213972951E+04  0.10100000352E+00 0.  1.
</event>
<event>
 5   0  0.1090674E-05  0.1599879E+04  0.7818609E-02  0.8820622E-01
       -1   -1    0    0    0  501  0.00000000000E+00  0.00000000000E+00  0.93973066243E+03  0.93973066245E+03  0.50400001928E-02 0. -1.
        1   -1    0    0  501    0  0.00000000000E+00  0.00000000000E+00 -0.68094357206E+03  0.68094357208E+03  0.50400001928E-02 0.  1.
    10030    2    1    2    0    0  0.00000000000E+00  0.00000000000E+00  0.25878709037E+03  0.16206742345E+04  0.15998794381E+04 0.  0.
        4    1    3    3  502    0 -0.37239463135E+03 -0.42888992447E+02 -0.58646315353E+03  0.69603007872E+03  0.12699999809E+01 0.  1.
       -4    1    3    3    0  502  0.37239463135E+03  0.42888992447E+02  0.84525024391E+03  0.92464415580E+03  0.12699999809E+01 0. -1.
</event>
<event>
 5   0  0.2046108E-05  0.1601026E+04  0.7818609E-02  0.8819918E-01
        2   -1    0    0  501    0  0.00000000000E+00  0.00000000000E+00  0.10140068046E+04  0.10140068046E+04  0.25500000920E-02 0.  1.
       -2   -1    0    0    0  501  0.00000000000E+00  0.00000000000E+00 -0.63196906018E+03  0.63196906018E+03  0.25500000920E-02 0. -1.
    10030    2    1    2    0    0  0.00000000000E+00  0.00000000000E+00  0.38203774446E+03  0.16459758648E+04  0.16010258303E+04 0.  0.
        1    1    3    3  502    0  0.51882854663E+03  0.26320654823E+03 -0.37429210843E+03  0.69177693680E+03  0.50400001928E-02 0. -1.
       -1    1    3    3    0  502 -0.51882854663E+03 -0.26320654823E+03  0.75632985289E+03  0.95419892802E+03  0.50400001928E-02 0.  1.
</event>
<event>
 5   0  0.1060251E-05  0.1601114E+04  0.7818609E-02  0.8819864E-01
        1   -1    0    0  501    0  0.00000000000E+00  0.00000000000E+00  0.28659108794E+04  0.28659108795E+04  0.50400001928E-02 0.  1.
       -1   -1    0    0    0  501  0.00000000000E+00  0.00000000000E+00 -0.22362578730E+03  0.22362578736E+03  0.50400001928E-02 0. -1.
    10030    2    1    2    0    0  0.00000000000E+00  0.00000000000E+00  0.26422850921E+04  0.30895366668E+04  0.16011140832E+04 0.  0.
        1    1    3    3  502    0 -0.47859653576E+03 -0.24458577647E+03  0.24660002084E+04  0.25238926035E+04  0.50400001928E-02 0.  1.
       -1    1    3    3    0  502  0.47859653576E+03  0.24458577647E+03  0.17628488372E+03  0.56564406330E+03  0.50400001928E-02 0. -1.
</event>
<event>
 5   0  0.1990948E-05  0.1597918E+04  0.7818609E-02  0.8821828E-01
       -2   -1    0    0    0  501  0.00000000000E+00  0.00000000000E+00  0.96518470085E+03  0.96518470085E+03  0.25500000920E-02 0. -1.
        2   -1    0    0  501    0  0.00000000000E+00  0.00000000000E+00 -0.66136120078E+03  0.66136120079E+03  0.25500000920E-02 0.  1.
    10030    2    1    2    0    0  0.00000000000E+00  0.00000000000E+00  0.30382350007E+03  0.16265459016E+04  0.15979182867E+04 0.  0.
        4    1    3    3  502    0 -0.72519727782E+03  0.82839170915E+02 -0.17881006756E+03  0.75149722099E+03  0.12699999809E+01 0.  1.
       -4    1    3    3    0  502  0.72519727782E+03 -0.82839170915E+02  0.48263356762E+03  0.87504868064E+03  0.12699999809E+01 0. -1.
</event>
<event>
 5   0  0.1994525E-05  0.1599589E+04  0.7818609E-02  0.8820800E-01
       -2   -1    0    0    0  501  0.00000000000E+00  0.00000000000E+00  0.78627863497E+03  0.78627863497E+03  0.25500000920E-02 0.  1.
        2   -1    0    0  501    0  0.00000000000E+00  0.00000000000E+00 -0.81354300591E+03  0.81354300592E+03  0.25500000920E-02 0. -1.
    10030    2    1    2    0    0  0.00000000000E+00  0.00000000000E+00 -0.27264370945E+02  0.15998216409E+04  0.15995893025E+04 0.  0.
        5    1    3    3  502    0  0.67882322255E+02 -0.54362657173E+03  0.56912863119E+03  0.78997933391E+03  0.46999998093E+01 0.  1.
       -5    1    3    3    0  502 -0.67882322255E+02  0.54362657173E+03 -0.59639300214E+03  0.80984230697E+03  0.46999998093E+01 0. -1.
</event>
<event>
 5   0  0.1994525E-05  0.1598704E+04  0.7818609E-02  0.8821345E-01
       -2   -1    0    0    0  501  0.00000000000E+00  0.00000000000E+00  0.17229272665E+04  0.17229272665E+04  0.25500000920E-02 0. -1.
        2   -1    0    0  501    0  0.00000000000E+00  0.00000000000E+00 -0.37085909301E+03  0.37085909301E+03  0.25500000920E-02 0.  1.
    10030    2    1    2    0    0  0.00000000000E+00  0.00000000000E+00  0.13520681735E+04  0.20937863596E+04  0.15987035290E+04 0.  0.
        5    1    3    3  502    0 -0.22935451264E+03 -0.25960574019E+03  0.16194953228E+04  0.16561358107E+04  0.46999998093E+01 0. -1.
       -5    1    3    3    0  502  0.22935451264E+03  0.25960574019E+03 -0.26742714925E+03  0.43765054891E+03  0.46999998093E+01 0.  1.
</event>
<event>
 5   0  0.1090674E-05  0.1607322E+04  0.7818609E-02  0.8816062E-01
       -1   -1    0    0    0  501  0.00000000000E+00  0.00000000000E+00  0.72149009931E+03  0.72149009933E+03  0.50400001928E-02 0.  1.
        1   -1    0    0  501    0  0.00000000000E+00  0.00000000000E+00 -0.89519053639E+03  0.89519053640E+03  0.50400001928E-02 0. -1.
    10030    2    1    2    0    0  0.00000000000E+00  0.00000000000E+00 -0.17370043708E+03  0.16166806357E+04  0.16073221320E+04 0.  0.
        4    1    3    3  502    0  0.18140131719E+03 -0.76507913826E+03 -0.25400135332E+03  0.82629947722E+03  0.12699999809E+01 0. -1.
       -4    1    3    3    0  502 -0.18140131719E+03  0.76507913826E+03  0.80300916237E+02  0.79038115851E+03  0.12699999809E+01 0.  1.
</event>
<event>
 5   0  0.1090674E-05  0.1599485E+04  0.7818609E-02  0.8820864E-01
        1   -1    0    0  501    0  0.00000000000E+00  0.00000000000E+00  0.16458326331E+04  0.16458326331E+04  0.50400001928E-02 0. -1.
       -1   -1    0    0    0  501  0.00000000000E+00  0.00000000000E+00 -0.38861078359E+03  0.38861078362E+03  0.50400001928E-02 0.  1.
    10030    2    1    2    0    0  0.00000000000E+00  0.00000000000E+00  0.12572218495E+04  0.20344434168E+04  0.15994853038E+04 0.  0.
        4    1    3    3  502    0  0.51786857314E+03 -0.90081087765E+02 -0.13802406557E+03  0.54346546992E+03  0.12699999809E+01 0.  1.
       -4    1    3    3    0  502 -0.51786857314E+03  0.90081087765E+02  0.13952459151E+04  0.14909779468E+04  0.12699999809E+01 0. -1.
</event>
<event>
 5   0  0.1060251E-05  0.1603073E+04  0.7818609E-02  0.8818662E-01
       -1   -1    0    0    0  501  0.00000000000E+00  0.00000000000E+00  0.45173834355E+03  0.45173834358E+03  0.50400001928E-02 0. -1.
        1   -1    0    0  501    0  0.00000000000E+00  0.00000000000E+00 -0.14221973976E+04  0.14221973976E+04  0.50400001928E-02 0.  1.
    10030    2    1    2    0    0  0.00000000000E+00  0.00000000000E+00 -0.97045905406E+03  0.18739357412E+04  0.16030734189E+04 0.  0.
        1    1    3    3  502    0  0.10154486824E+03 -0.35464290576E+03  0.34660847803E+03  0.50618216873E+03  0.50400001928E-02 0. -1.
       -1    1    3    3    0  502 -0.10154486824E+03  0.35464290576E+03 -0.13170675321E+04  0.13677535725E+04  0.50400001928E-02 0.  1.
</event>
<event>
 5   0  0.1994525E-05  0.1595427E+04  0.7818609E-02  0.8823362E-01
        2   -1    0    0  501    0  0.00000000000E+00  0.00000000000E+00  0.22368340287E+04  0.22368340287E+04  0.25500000920E-02 0.  1.
       -2   -1    0    0    0  501  0.00000000000E+00  0.00000000000E+00 -0.28448559658E+03  0.28448559659E+03  0.25500000920E-02 0. -1.
    10030    2    1    2    0    0  0.00000000000E+00  0.00000000000E+00  0.19523484321E+04  0.25213196253E+04  0.15954272946E+04 0.  0.
        5    1    3    3  502    0 -0.25957135429E+03  0.49697674173E+03  0.18728863824E+04  0.19550162815E+04  0.46999998093E+01 0.  1.
       -5    1    3    3    0  502  0.25957135429E+03 -0.49697674173E+03  0.79462049715E+02  0.56630334373E+03  0.46999998093E+01 0. -1.
</event>
<event>
 5   0  0.1990948E-05  0.1600057E+04  0.7818609E-02  0.8820513E-01
        2   -1    0    0  501    0  0.00000000000E+00  0.00000000000E+00  0.51771641763E+03  0.51771641764E+03  0.25500000920E-02 0.  1.
       -2   -1    0    0    0  501  0.00000000000E+00  0.00000000000E+00 -0.12362864294E+04  0.12362864294E+04  0.25500000920E-02 0. -1.
    10030    2    1    2    0    0  0.00000000000E+00  0.00000000000E+00 -0.71857001173E+03  0.17540028470E+04  0.16000572257E+04 0.  0.
        4    1    3    3  502    0  0.51963952098E+03  0.50969427439E+02  0.30518716697E+03  0.60478420456E+03  0.12699999809E+01 0.  1.
       -4    1    3    3    0  502 -0.51963952098E+03 -0.50969427439E+02 -0.10237571787E+04  0.11492186424E+04  0.12699999809E+01 0. -1.
</event>
<event>
 5   0  0.2046108E-05  0.1599702E+04  0.7818609E-02  0.8820731E-01
       -2   -1    0    0    0  501  0.00000000000E+00  0.00000000000E+00  0.12087528596E+04  0.12087528596E+04  0.25500000920E-02 0. -1.
        2   -1    0    0  501    0  0.00000000000E+00  0.00000000000E+00 -0.52927380736E+03  0.52927380736E+03  0.25500000920E-02 0.  1.
    10030    2    1    2    0    0  0.00000000000E+00  0.00000000000E+00  0.67947905220E+03  0.17380266669E+04  0.15997015073E+04 0.  0.
        1    1    3    3  502    0  0.15713184461E+03  0.50659611526E+03 -0.31072014795E+03  0.61471704950E+03  0.50400001928E-02 0.  1.
       -1    1    3    3    0  502 -0.15713184461E+03 -0.50659611526E+03  0.99019920016E+03  0.11233096174E+04  0.50400001928E-02 0. -1.
</event>
<event>
 5   0  0.2046108E-05  0.1599437E+04  0.7818609E-02  0.8820894E-01
       -2   -1    0    0    0  501  0.00000000000E+00  0.00000000000E+00  0.55807607311E+03  0.55807607312E+03  0.25500000920E-02 0. -1.
        2   -1    0    0  501    0  0.00000000000E+00  0.00000000000E+00 -0.11459902732E+04  0.11459902732E+04  0.25500000920E-02 0.  1.
    10030    2    1    2    0    0  0.00000000000E+00  0.00000000000E+00 -0.58791420010E+03  0.17040663463E+04  0.15994370904E+04 0.  0.
        1    1    3    3  502    0 -0.73642810036E+02  0.71000487375E+03  0.90213118654E+02  0.71949189781E+03  0.50400001928E-02 0. -1.
       -1    1    3    3    0  502  0.73642810036E+02 -0.71000487375E+03 -0.67812731876E+03  0.98457444853E+03  0.50400001928E-02 0.  1.
</event>
<event>
 5   0  0.1126485E-05  0.1598701E+04  0.7818609E-02  0.8821346E-01
       -1   -1    0    0    0  501  0.00000000000E+00  0.00000000000E+00  0.61866911537E+03  0.61866911539E+03  0.50400001928E-02 0. -1.
        1   -1    0    0  501    0  0.00000000000E+00  0.00000000000E+00 -0.10327998898E+04  0.10327998898E+04  0.50400001928E-02 0.  1.
    10030    2    1    2    0    0  0.00000000000E+00  0.00000000000E+00 -0.41413077444E+03  0.16514690052E+04  0.15987012156E+04 0.  0.
        2    1    3    3  502    0  0.31074234898E+03  0.53624452811E+02  0.55170244486E+03  0.63546201858E+03  0.25500000920E-02 0. -1.
       -2    1    3    3    0  502 -0.31074234898E+03 -0.53624452811E+02 -0.96583321930E+03  0.10160069866E+04  0.25500000920E-02 0.  1.
</event>
<event>
 5   0  0.1057506E-05  0.1600045E+04  0.7818609E-02  0.8820520E-01
       -1   -1    0    0    0  501  0.00000000000E+00  0.00000000000E+00  0.64521944432E+03  0.64521944434E+03  0.50400001928E-02 0. -1.
        1   -1    0    0  501    0  0.00000000000E+00  0.00000000000E+00 -0.99196648809E+03  0.99196648810E+03  0.50400001928E-02 0.  1.
    10030    2    1    2    0    0  0.00000000000E+00  0.00000000000E+00 -0.34674704377E+03  0.16371859324E+04  0.16000450822E+04 0.  0.
        5    1    3    3  502    0  0.36559294789E+03  0.41230344415E+03  0.42005582180E+03  0.69290787052E+03  0.46999998093E+01 0. -1.
       -5    1    3    3    0  502 -0.36559294789E+03 -0.41230344415E+03 -0.76680286556E+03  0.94427806192E+03  0.46999998093E+01 0.  1.
</event>
<event>
 5   0  0.1994525E-05  0.1599915E+04  0.7818609E-02  0.8820600E-01
        2   -1    0    0  501    0  0.00000000000E+00  0.00000000000E+00  0.19311610830E+04  0.19311610830E+04  0.25500000920E-02 0. -1.
       -2   -1    0    0    0  501  0.00000000000E+00  0.00000000000E+00 -0.33137170804E+03  0.33137170805E+03  0.25500000920E-02 0.  1.
    10030    2    1    2    0    0  0.00000000000E+00  0.00000000000E+00  0.15997893750E+04  0.22625327911E+04  0.15999151810E+04 0.  0.
        5    1    3    3  502    0 -0.23997272645E+03  0.64429917756E+03  0.22164116192E+03  0.72239548331E+03  0.46999998093E+01 0. -1.
       -5    1    3    3    0  502  0.23997272645E+03 -0.64429917756E+03  0.13781482131E+04  0.15401373078E+04  0.46999998093E+01 0.  1.
</event>
<event>
 5   0  0.1090674E-05  0.1600538E+04  0.7818609E-02  0.8820217E-01
        1   -1    0    0  501    0  0.00000000000E+00  0.00000000000E+00  0.77493941778E+03  0.77493941779E+03  0.50400001928E-02 0. -1.
       -1   -1    0    0    0  501  0.00000000000E+00  0.00000000000E+00 -0.82642695020E+03  0.82642695021E+03  0.50400001928E-02 0.  1.
    10030    2    1    2    0    0  0.00000000000E+00  0.00000000000E+00 -0.51487532423E+02  0.16013663680E+04  0.16005384340E+04 0.  0.
        4    1    3    3  502    0  0.19153630942E+03  0.77261254531E+03  0.56839246554E+02  0.79802795430E+03  0.12699999809E+01 0. -1.
       -4    1    3    3    0  502 -0.19153630942E+03 -0.77261254531E+03 -0.10832677898E+03  0.80333841371E+03  0.12699999809E+01 0.  1.
</event>
<event>
 5   0  0.2147844E-05  0.1599590E+04  0.7818609E-02  0.8820800E-01
       -2   -1    0    0    0  501  0.00000000000E+00  0.00000000000E+00  0.47142365904E+03  0.47142365905E+03  0.25500000920E-02 0.  1.
        2   -1    0    0  501    0  0.00000000000E+00  0.00000000000E+00 -0.13568949269E+04  0.13568949269E+04  0.25500000920E-02 0. -1.
    10030    2    1    2    0    0  0.00000000000E+00  0.00000000000E+00 -0.88547126782E+03  0.18283185859E+04  0.15995904118E+04 0.  0.
        2    1    3    3  502    0  0.43154321139E+02 -0.30172716622E+03  0.40243760197E+03  0.50483423196E+03  0.25500000920E-02 0.  1.
       -2    1    3    3    0  502 -0.43154321139E+02  0.30172716622E+03 -0.12879088698E+04  0.13234843540E+04  0.25500000920E-02 0. -1.
</event>
<event>
 5   0  0.1060251E-05  0.1600303E+04  0.7818609E-02  0.8820362E-01
       -1   -1    0    0    0  501  0.00000000000E+00  0.00000000000E+00  0.53722950497E+03  0.53722950500E+03  0.50400001928E-02 0. -1.
        1   -1    0    0  501    0  0.00000000000E+00  0.00000000000E+00 -0.11917477858E+04  0.11917477859E+04  0.50400001928E-02 0.  1.
    10030    2    1    2    0    0  0.00000000000E+00  0.00000000000E+00 -0.65451828088E+03  0.17289772909E+04  0.16003025627E+04 0.  0.
        1    1    3    3  502    0  0.56781586373E+03 -0.33222835024E+03 -0.81935025270E+03  0.10507736999E+04  0.50400001928E-02 0.  1.
       -1    1    3    3    0  502 -0.56781586373E+03  0.33222835024E+03  0.16483197182E+03  0.67820359094E+03  0.50400001928E-02 0. -1.
</event>
<event>
 5   0  0.2125803E-05  0.1599783E+04  0.7818609E-02  0.8820681E-01
        2   -1    0    0  501    0  0.00000000000E+00  0.00000000000E+00  0.13692352252E+04  0.13692352252E+04  0.25500000920E-02 0.  1.
       -2   -1    0    0    0  501  0.00000000000E+00  0.00000000000E+00 -0.46728746601E+03  0.46728746602E+03  0.25500000920E-02 0. -1.
    10030    2    1    2    0    0  0.00000000000E+00  0.00000000000E+00  0.90194775923E+03  0.18365226913E+04  0.15997830588E+04 0.  0.
        3    1    3    3  502    0 -0.79953951502E+02 -0.40189096236E+03 -0.33764692865E+03  0.53095615508E+03  0.10100000352E+00 0. -1.
       -3    1    3    3    0  502  0.79953951502E+02  0.40189096236E+03  0.12395946879E+04  0.13055665362E+04  0.10100000352E+00 0.  1.
</event>
<event>
 5   0  0.1994525E-05  0.1601097E+04  0.7818609E-02  0.8819875E-01
       -2   -1    0    0    0  501  0.00000000000E+00  0.00000000000E+00  0.11278125317E+04  0.11278125317E+04  0.25500000920E-02 0. -1.
        2   -1    0    0  501    0  0.00000000000E+00  0.00000000000E+00 -0.56824836729E+03  0.56824836730E+03  0.25500000920E-02 0.  1.
    10030    2    1    2    0    0  0.00000000000E+00  0.00000000000E+00  0.55956416440E+03  0.16960608990E+04  0.16010966614E+04 0.  0.
        5    1    3    3  502    0  0.35995045197E+03  0.23101460951E+03  0.99661895718E+03  0.10845291667E+04  0.46999998093E+01 0. -1.
       -5    1    3    3    0  502 -0.35995045197E+03 -0.23101460951E+03 -0.43705479278E+03  0.61153173227E+03  0.46999998093E+01 0.  1.
</event>
<event>
 5   0  0.1060251E-05  0.1600162E+04  0.7818609E-02  0.8820449E-01
        1   -1    0    0  501    0  0.00000000000E+00  0.00000000000E+00  0.25211486871E+04  0.25211486871E+04  0.50400001928E-02 0. -1.
       -1   -1    0    0    0  501  0.00000000000E+00  0.00000000000E+00 -0.25390383224E+03  0.25390383229E+03  0.50400001928E-02 0.  1.
    10030    2    1    2    0    0  0.00000000000E+00  0.00000000000E+00  0.22672448549E+04  0.27750525194E+04  0.16001616336E+04 0.  0.
        1    1    3    3  502    0 -0.32801007701E+03 -0.11668522015E+03  0.23828999420E+04  0.24081981199E+04  0.50400001928E-02 0. -1.
       -1    1    3    3    0  502  0.32801007701E+03  0.11668522015E+03 -0.11565508712E+03  0.36685439948E+03  0.50400001928E-02 0.  1.
</event>
<event>
 5   0  0.1090674E-05  0.1599507E+04  0.7818609E-02  0.8820851E-01
       -1   -1    0    0    0  501  0.00000000000E+00  0.00000000000E+00  0.31226538194E+03  0.31226538198E+03  0.50400001928E-02 0.  1.
        1   -1    0    0  501    0  0.00000000000E+00  0.00000000000E+00 -0.20482754973E+04  0.20482754973E+04  0.50400001928E-02 0. -1.
    10030    2    1    2    0    0  0.00000000000E+00  0.00000000000E+00 -0.17360101154E+04  0.23605408793E+04  0.15995068372E+04 0.  0.
        4    1    3    3  502    0  0.15168569720E+03 -0.43679020193E+03  0.95010256160E+02  0.47204109240E+03  0.12699999809E+01 0.  1.
       -4    1    3    3    0  502 -0.15168569720E+03  0.43679020193E+03 -0.18310203716E+04  0.18884997869E+04  0.12699999809E+01 0. -1.
</event>
<event>
 5   0  0.7597000E-06  0.1599914E+04  0.7818609E-02  0.8820601E-01
       -3   -1    0    0    0  501  0.00000000000E+00  0.00000000000E+00  0.50687367257E+03  0.50687368263E+03  0.10100000352E+00 0. -1.
        3   -1    0    0  501    0  0.00000000000E+00  0.00000000000E+00 -0.12625058717E+04  0.12625058757E+04  0.10100000352E+00 0.  1.
    10030    2    1    2    0    0  0.00000000000E+00  0.00000000000E+00 -0.75563219913E+03  0.17693795584E+04  0.15999137481E+04 0.  0.
        2    1    3    3  502    0 -0.22633510044E+03 -0.32703472287E+03 -0.11454180488E+04  0.12125022862E+04  0.25500000920E-02 0.  1.
       -2    1    3    3    0  502  0.22633510044E+03  0.32703472287E+03  0.38978584963E+03  0.55687727215E+03  0.25500000920E-02 0. -1.
</event>
<event>
 5   0  0.1057506E-05  0.1602649E+04  0.7818609E-02  0.8818922E-01
        1   -1    0    0  501    0  0.00000000000E+00  0.00000000000E+00  0.97839069184E+03  0.97839069185E+03  0.50400001928E-02 0.  1.
       -1   -1    0    0    0  501  0.00000000000E+00  0.00000000000E+00 -0.65630351852E+03  0.65630351854E+03  0.50400001928E-02 0. -1.
    10030    2    1    2    0    0  0.00000000000E+00  0.00000000000E+00  0.32208717332E+03  0.16346942104E+04  0.16026493735E+04 0.  0.
        5    1    3    3  502    0 -0.36661022923E+03  0.46716300646E+03 -0.38772394232E+03  0.70922230663E+03  0.46999998093E+01 0. -1.
       -5    1    3    3    0  502  0.36661022923E+03 -0.46716300646E+03  0.70981111563E+03  0.92547190376E+03  0.46999998093E+01 0.  1.
</event>
<event>
 5   0  0.1994525E-05  0.1601321E+04  0.7818609E-02  0.8819737E-01
       -2   -1    0    0    0  501  0.00000000000E+00  0.00000000000E+00  0.29437175024E+03  0.29437175025E+03  0.25500000920E-02 0.  1.
        2   -1    0    0  501    0  0.00000000000E+00  0.00000000000E+00 -0.21777118808E+04  0.21777118808E+04  0.25500000920E-02 0. -1.
    10030    2    1    2    0    0  0.00000000000E+00  0.00000000000E+00 -0.18833401305E+04  0.24720836310E+04  0.16013205274E+04 0.  0.
        5    1    3    3  502    0 -0.25463579364E+03  0.34077784710E+02  0.22899236825E+03  0.34418058854E+03  0.46999998093E+01 0.  1.
       -5    1    3    3    0  502  0.25463579364E+03 -0.34077784710E+02 -0.21123324988E+04  0.21279030425E+04  0.46999998093E+01 0. -1.
</event>
<event>
 5   0  0.1994525E-05  0.1599882E+04  0.7818609E-02  0.8820620E-01
       -2   -1    0    0    0  501  0.00000000000E+00  0.00000000000E+00  0.65874492581E+03  0.65874492582E+03  0.25500000920E-02 0. -1.
        2   -1    0    0  501    0  0.00000000000E+00  0.00000000000E+00 -0.97140141757E+03  0.97140141757E+03  0.25500000920E-02 0.  1.
    10030    2    1    2    0    0  0.00000000000E+00  0.00000000000E+00 -0.31265649175E+03  0.16301463434E+04  0.15998821891E+04 0.  0.
        5    1    3    3  502    0 -0.76478944842E+03 -0.81787207271E+02  0.67582256663E+02  0.77212790333E+03  0.46999998093E+01 0. -1.
       -5    1    3    3    0  502  0.76478944842E+03  0.81787207271E+02 -0.38023874842E+03  0.85801844006E+03  0.46999998093E+01 0.  1.
</event>
<event>
 5   0  0.2125803E-05  0.1600543E+04  0.7818609E-02  0.8820215E-01
        2   -1    0    0  501    0  0.00000000000E+00  0.00000000000E+00  0.79765430571E+03  0.79765430571E+03  0.25500000920E-02 0. -1.
       -2   -1    0    0    0  501  0.00000000000E+00  0.00000000000E+00 -0.80289697045E+03  0.80289697045E+03  0.25500000920E-02 0.  1.
    10030    2    1    2    0    0  0.00000000000E+00  0.00000000000E+00 -0.52426647415E+01  0.16005512762E+04  0.16005426899E+04 0.  0.
        3    1    3    3  502    0  0.14734412333E+03  0.31371317282E+03 -0.72394896415E+03  0.80263837335E+03  0.10100000352E+00 0.  1.
       -3    1    3    3    0  502 -0.14734412333E+03 -0.31371317282E+03  0.71870629941E+03  0.79791290282E+03  0.10100000352E+00 0. -1.
</event>
<event>
 5   0  0.1994525E-05  0.1600182E+04  0.7818609E-02  0.8820436E-01
        2   -1    0    0  501    0  0.00000000000E+00  0.00000000000E+00  0.26996401914E+04  0.26996401914E+04  0.25500000920E-02 0.  1.
       -2   -1    0    0    0  501  0.00000000000E+00  0.00000000000E+00 -0.23712249207E+03  0.23712249208E+03  0.25500000920E-02 0. -1.
    10030    2    1    2    0    0  0.00000000000E+00  0.00000000000E+00  0.24625176993E+04  0.29367626834E+04  0.16001817520E+04 0.  0.
        5    1    3    3  502    0  0.49674536635E+03  0.24175567510E+03  0.22933727401E+04  0.23589790971E+04  0.46999998093E+01 0.  1.
       -5    1    3    3    0  502 -0.49674536635E+03 -0.24175567510E+03  0.16914495917E+03  0.57778358634E+03  0.46999998093E+01 0. -1.
</event>
<event>
 5   0  0.1126485E-05  0.1600470E+04  0.7818609E-02  0.8820259E-01
       -1   -1    0    0    0  501  0.00000000000E+00  0.00000000000E+00  0.78219274463E+03  0.78219274465E+03  0.50400001928E-02 0.  1.
        1   -1    0    0  501    0  0.00000000000E+00  0.00000000000E+00 -0.81869312487E+03  0.81869312488E+03  0.50400001928E-02 0. -1.
    10030    2    1    2    0    0  0.00000000000E+00  0.00000000000E+00 -0.36500380236E+02  0.16008858695E+04  0.16004697090E+04 0.  0.
        2    1    3    3  502    0  0.20997677166E+03 -0.12157330798E+03 -0.78101356010E+03  0.81783402651E+03  0.25500000920E-02 0. -1.
       -2    1    3    3    0  502 -0.20997677166E+03  0.12157330798E+03  0.74451317986E+03  0.78305184302E+03  0.25500000920E-02 0.  1.
</event>
<event>
 5   0  0.2125803E-05  0.1599262E+04  0.7818609E-02  0.8821001E-01
        2   -1    0    0  501    0  0.00000000000E+00  0.00000000000E+00  0.10609819503E+04  0.10609819503E+04  0.25500000920E-02 0. -1.
       -2   -1    0    0    0  501  0.00000000000E+00  0.00000000000E+00 -0.60265850056E+03  0.60265850057E+03  0.25500000920E-02 0.  1.
    10030    2    1    2    0    0  0.00000000000E+00  0.00000000000E+00  0.45832344970E+03  0.16636404508E+04  0.15992620689E+04 0.  0.
        3    1    3    3  502    0  0.71842452273E+03  0.57856136960E+02 -0.13108605564E+03  0.73257401785E+03  0.10100000352E+00 0.  1.
       -3    1    3    3    0  502 -0.71842452273E+03 -0.57856136960E+02  0.58940950534E+03  0.93106643298E+03  0.10100000352E+00 0. -1.
</event>
<event>
 5   0  0.1990948E-05  0.1600534E+04  0.7818609E-02  0.8820220E-01
       -2   -1    0    0    0  501  0.00000000000E+00  0.00000000000E+00  0.31247586494E+03  0.31247586495E+03  0.25500000920E-02 0. -1.
        2   -1    0    0  501    0  0.00000000000E+00  0.00000000000E+00 -0.20495261963E+04  0.20495261963E+04  0.25500000920E-02 0.  1.
    10030    2    1    2    0    0  0.00000000000E+00  0.00000000000E+00 -0.17370503314E+04  0.23620020613E+04  0.16005342495E+04 0.  0.
        4    1    3    3  502    0 -0.37646102500E+03  0.70552850217E+03 -0.82346043669E+03  0.11478597799E+04  0.12699999809E+01 0. -1.
       -4    1    3    3    0  502  0.37646102500E+03 -0.70552850217E+03 -0.91358989468E+03  0.12141422813E+04  0.12699999809E+01 0.  1.
</event>
<event>
 5   0  0.2125803E-05  0.1597641E+04  0.7818609E-02  0.8821998E-01
       -2   -1    0    0    0  501  0.00000000000E+00  0.00000000000E+00  0.52659907505E+03  0.52659907506E+03  0.25500000920E-02 0.  1.
        2   -1    0    0  501    0  0.00000000000E+00  0.00000000000E+00 -0.12117649615E+04  0.12117649615E+04  0.25500000920E-02 0. -1.
    10030    2    1    2    0    0  0.00000000000E+00  0.00000000000E+00 -0.68516588645E+03  0.17383640366E+04  0.15976411461E+04 0.  0.
        3    1    3    3  502    0 -0.17628161676E+03 -0.18443941514E+03 -0.11662407771E+04  0.11938218739E+04  0.10100000352E+00 0. -1.
       -3    1    3    3    0  502  0.17628161676E+03  0.18443941514E+03  0.48107489066E+03  0.54454216264E+03  0.10100000352E+00 0.  1.
</event>
<event>
 5   0  0.1126485E-05  0.1599755E+04  0.7818609E-02  0.8820698E-01
       -1   -1    0    0    0  501  0.00000000000E+00  0.00000000000E+00  0.43270436097E+03  0.43270436100E+03  0.50400001928E-02 0.  1.
        1   -1    0    0  501    0  0.00000000000E+00  0.00000000000E+00 -0.14786175087E+04  0.14786175087E+04  0.50400001928E-02 0. -1.
    10030    2    1    2    0    0  0.00000000000E+00  0.00000000000E+00 -0.10459131478E+04  0.19113218697E+04  0.15997552866E+04 0.  0.
        2    1    3    3  502    0 -0.36937127881E+03 -0.70152645264E+03 -0.64956572709E+03  0.10249439688E+04  0.25500000920E-02 0. -1.
       -2    1    3    3    0  502  0.36937127881E+03  0.70152645264E+03 -0.39634742066E+03  0.88637790092E+03  0.25500000920E-02 0.  1.
</event>
<event>
 5   0  0.2147844E-05  0.1599728E+04  0.7818609E-02  0.8820715E-01
       -2   -1    0    0    0  501  0.00000000000E+00  0.00000000000E+00  0.52693149322E+03  0.52693149323E+03  0.25500000920E-02 0.  1.
        2   -1    0    0  501    0  0.00000000000E+00  0.00000000000E+00 -0.12141656573E+04  0.12141656573E+04  0.25500000920E-02 0. -1.
    10030    2    1    2    0    0  0.00000000000E+00  0.00000000000E+00 -0.68723416403E+03  0.17410971505E+04  0.15997276303E+04 0.  0.
        2    1    3    3  502    0 -0.22974999497E+03  0.75851464185E+02 -0.11733838883E+04  0.11980685516E+04  0.25500000920E-02 0. -1.
       -2    1    3    3    0  502  0.22974999497E+03 -0.75851464185E+02  0.48614972431E+03  0.54302859893E+03  0.25500000920E-02 0.  1.
</event>
<event>
 5   0  0.1090674E-05  0.1600283E+04  0.7818609E-02  0.8820374E-01
       -1   -1    0    0    0  501  0.00000000000E+00  0.00000000000E+00  0.88777513716E+03  0.88777513718E+03  0.50400001928E-02 0.  1.
        1   -1    0    0  501    0  0.00000000000E+00  0.00000000000E+00 -0.72115867696E+03  0.72115867698E+03  0.50400001928E-02 0. -1.
    10030    2    1    2    0    0  0.00000000000E+00  0.00000000000E+00  0.16661646020E+03  0.16089338142E+04  0.16002834041E+04 0.  0.
        4    1    3    3  502    0  0.10673332662E+03 -0.77918020270E+03  0.23145240651E+03  0.81980828287E+03  0.12699999809E+01 0.  1.
       -4    1    3    3    0  502 -0.10673332662E+03  0.77918020270E+03 -0.64835946308E+02  0.78912553128E+03  0.12699999809E+01 0. -1.
</event>
<event>
 5   0  0.1090674E-05  0.1600052E+04  0.7818609E-02  0.8820516E-01
       -1   -1    0    0    0  501  0.00000000000E+00  0.00000000000E+00  0.41454793032E+03  0.41454793035E+03  0.50400001928E-02 0.  1.
        1   -1    0    0  501    0  0.00000000000E+00  0.00000000000E+00 -0.15439505667E+04  0.15439505667E+04  0.50400001928E-02 0. -1.
    10030    2    1    2    0    0  0.00000000000E+00  0.00000000000E+00 -0.11294026364E+04  0.19584984970E+04  0.16000518891E+04 0.  0.
        4    1    3    3  502    0  0.20015848519E+03 -0.64219591472E+03 -0.34598253959E+02  0.67355598443E+03  0.12699999809E+01 0.  1.
       -4    1    3    3    0  502 -0.20015848519E+03  0.64219591472E+03 -0.10948043824E+04  0.12849425126E+04  0.12699999809E+01 0. -1.
</event>
<event>
 5   0  0.1990948E-05  0.1601010E+04  0.7818609E-02  0.8819928E-01
        2   -1    0    0  501    0  0.00000000000E+00  0.00000000000E+00  0.96984834503E+03  0.96984834504E+03  0.25500000920E-02 0.  1.
       -2   -1    0    0    0  501  0.00000000000E+00  0.00000000000E+00 -0.66073002447E+03  0.66073002447E+03  0.25500000920E-02 0. -1.
    10030    2    1    2    0    0  0.00000000000E+00  0.00000000000E+00  0.30911832057E+03  0.16305783695E+04  0.16010095824E+04 0.  0.
        4    1    3    3  502    0 -0.61628958219E+03 -0.26655280712E+01 -0.36574421770E+03  0.71665221680E+03  0.12699999809E+01 0. -1.
       -4    1    3    3    0  502  0.61628958219E+03  0.26655280712E+01  0.67486253826E+03  0.91392615271E+03  0.12699999809E+01 0.  1.
</event>
<event>
 5   0  0.1081831E-05  0.1598740E+04  0.7818609E-02  0.8821322E-01
       -1   -1    0    0    0  501  0.00000000000E+00  0.00000000000E+00  0.11087605434E+04  0.11087605434E+04  0.50400001928E-02 0. -1.
        1   -1    0    0  501    0  0.00000000000E+00  0.00000000000E+00 -0.57631244171E+03  0.57631244173E+03  0.50400001928E-02 0.  1.
    10030    2    1    2    0    0  0.00000000000E+00  0.00000000000E+00  0.53244810166E+03  0.16850729851E+04  0.15987401240E+04 0.  0.
        3    1    3    3  502    0  0.21309795168E+03  0.70916305830E+03  0.58359813826E+03  0.94282011935E+03  0.10100000352E+00 0.  1.
       -3    1    3    3    0  502 -0.21309795168E+03 -0.70916305830E+03 -0.51150036606E+02  0.74225286575E+03  0.10100000352E+00 0. -1.
</event>
<event>
 5   0  0.1126485E-05  0.1599860E+04  0.7818609E-02  0.8820634E-01
       -1   -1    0    0    0  501  0.00000000000E+00  0.00000000000E+00  0.87120679999E+03  0.87120680000E+03  0.50400001928E-02 0. -1.
        1   -1    0    0  501    0  0.00000000000E+00  0.00000000000E+00 -0.73448423931E+03  0.73448423933E+03  0.50400001928E-02 0.  1.
    10030    2    1    2    0    0  0.00000000000E+00  0.00000000000E+00  0.13672256067E+03  0.16056910393E+04  0.15998595736E+04 0.  0.
        2    1    3    3  502    0 -0.58441342070E+03 -0.62088581597E+02  0.61301198348E+03  0.84922183801E+03  0.25500000920E-02 0. -1.
       -2    1    3    3    0  502  0.58441342070E+03  0.62088581597E+02 -0.47628942281E+03  0.75646920132E+03  0.25500000920E-02 0.  1.
</event>
<event>
 5   0  0.2125803E-05  0.1599901E+04  0.7818609E-02  0.8820609E-01
        2   -1    0    0  501    0  0.00000000000E+00  0.00000000000E+00  0.10326899484E+04  0.10326899484E+04  0.25500000920E-02 0.  1.
       -2   -1    0    0    0  501  0.00000000000E+00  0.00000000000E+00 -0.61966382079E+03  0.61966382079E+03  0.25500000920E-02 0. -1.
    10030    2    1    2    0    0  0.00000000000E+00  0.00000000000E+00  0.41302612763E+03  0.16523537692E+04  0.15999007458E+04 0.  0.
        3    1    3    3  502    0 -0.64408143658E+03 -0.43015434329E+03 -0.16511443878E+00  0.77451513443E+03  0.10100000352E+00 0.  1.
       -3    1    3    3    0  502  0.64408143658E+03  0.43015434329E+03  0.41319124207E+03  0.87783863478E+03  0.10100000352E+00 0. -1.
</event>
<event>
 5   0  0.2125803E-05  0.1599806E+04  0.7818609E-02  0.8820667E-01
        2   -1    0    0  501    0  0.00000000000E+00  0.00000000000E+00  0.54482264447E+03  0.54482264448E+03  0.25500000920E-02 0. -1.
       -2   -1    0    0    0  501  0.00000000000E+00  0.00000000000E+00 -0.11744100422E+04  0.11744100422E+04  0.25500000920E-02 0.  1.
    10030    2    1    2    0    0  0.00000000000E+00  0.00000000000E+00 -0.62958739773E+03  0.17192326867E+04  0.15998064694E+04 0.  0.
        3    1    3    3  502    0  0.47273929338E+03  0.22281101250E+03  0.33598498218E+03  0.62129952941E+03  0.10100000352E+00 0. -1.
       -3    1    3    3    0  502 -0.47273929338E+03 -0.22281101250E+03 -0.96557237991E+03  0.10979331573E+04  0.10100000352E+00 0.  1.
</event>
<event>
 5   0  0.1990948E-05  0.1603983E+04  0.7818609E-02  0.8818105E-01
       -2   -1    0    0    0  501  0.00000000000E+00  0.00000000000E+00  0.27789793158E+03  0.27789793159E+03  0.25500000920E-02 0.  1.
        2   -1    0    0  501    0  0.00000000000E+00  0.00000000000E+00 -0.23144829522E+04  0.23144829522E+04  0.25500000920E-02 0. -1.
    10030    2    1    2    0    0  0.00000000000E+00  0.00000000000E+00 -0.20365850207E+04  0.25923808838E+04  0.16039825749E+04 0.  0.
        4    1    3    3  502    0  0.64152865452E+03 -0.40593379846E+03 -0.14361619482E+04  0.16244703807E+04  0.12699999809E+01 0. -1.
       -4    1    3    3    0  502 -0.64152865452E+03  0.40593379846E+03 -0.60042307245E+03  0.96791050316E+03  0.12699999809E+01 0.  1.
</event>
<event>
 5   0  0.1060251E-05  0.1600273E+04  0.7818609E-02  0.8820380E-01
        1   -1    0    0  501    0  0.00000000000E+00  0.00000000000E+00  0.11051105068E+04  0.11051105068E+04  0.50400001928E-02 0. -1.
       -1   -1    0    0    0  501  0.00000000000E+00  0.00000000000E+00 -0.57932555423E+03  0.57932555425E+03  0.50400001928E-02 0.  1.
    10030    2    1    2    0    0  0.00000000000E+00  0.00000000000E+00  0.52578495260E+03  0.16844360611E+04  0.16002734227E+04 0.  0.
        1    1    3    3  502    0  0.69847883618E+03  0.37380654882E+03  0.38111478231E+03  0.87912029772E+03  0.50400001928E-02 0. -1.
       -1    1    3    3    0  502 -0.69847883618E+03 -0.37380654882E+03  0.14467017029E+03  0.80531576337E+03  0.50400001928E-02 0.  1.
</event>
<event>
 5   0  0.1990948E-05  0.1599204E+04  0.7818609E-02  0.8821037E-01
       -2   -1    0    0    0  501  0.00000000000E+00  0.00000000000E+00  0.37246189670E+03  0.37246189671E+03  0.25500000920E-02 0. -1.
        2   -1    0    0  501    0  0.00000000000E+00  0.00000000000E+00 -0.17165877207E+04  0.17165877207E+04  0.25500000920E-02 0.  1.
    10030    2    1    2    0    0  0.00000000000E+00  0.00000000000E+00 -0.13441258240E+04  0.20890496174E+04  0.15992042000E+04 0.  0.
        4    1    3    3  502    0 -0.39957734287E+03  0.31261913646E+03 -0.14794075496E+04  0.15639824450E+04  0.12699999809E+01 0.  1.
       -4    1    3    3    0  502  0.39957734287E+03 -0.31261913646E+03  0.13528172559E+03  0.52506717246E+03  0.12699999809E+01 0. -1.
</event>
<event>
 5   0  0.1081831E-05  0.1600136E+04  0.7818609E-02  0.8820465E-01
       -1   -1    0    0    0  501  0.00000000000E+00  0.00000000000E+00  0.35404457764E+03  0.35404457768E+03  0.50400001928E-02 0. -1.
        1   -1    0    0  501    0  0.00000000000E+00  0.00000000000E+00 -0.18079884573E+04  0.18079884574E+04  0.50400001928E-02 0.  1.
    10030    2    1    2    0    0  0.00000000000E+00  0.00000000000E+00 -0.14539438797E+04  0.21620330350E+04  0.16001356315E+04 0.  0.
        3    1    3    3  502    0  0.26964012594E+03 -0.13221613364E+03 -0.17289447051E+04  0.17548323871E+04  0.10100000352E+00 0.  1.
       -3    1    3    3    0  502 -0.26964012594E+03  0.13221613364E+03  0.27500082536E+03  0.40720064791E+03  0.10100000352E+00 0. -1.
</event>
<event>
 5   0  0.2125803E-05  0.1597861E+04  0.7818609E-02  0.8821863E-01
        2   -1    0    0  501    0  0.00000000000E+00  0.00000000000E+00  0.97367911216E+03  0.97367911216E+03  0.25500000920E-02 0. -1.
       -2   -1    0    0    0  501  0.00000000000E+00  0.00000000000E+00 -0.65554454668E+03  0.65554454669E+03  0.25500000920E-02 0.  1.
    10030    2    1    2    0    0  0.00000000000E+00  0.00000000000E+00  0.31813456547E+03  0.16292236588E+04  0.15978611106E+04 0.  0.
        3    1    3    3  502    0  0.51015774982E+03  0.14740244534E+03  0.76769338556E+03  0.93345677726E+03  0.10100000352E+00 0. -1.
       -3    1    3    3    0  502 -0.51015774982E+03 -0.14740244534E+03 -0.44955882008E+03  0.69576688158E+03  0.10100000352E+00 0.  1.
</event>
<event>
 5   0  0.1994525E-05  0.1599962E+04  0.7818609E-02  0.8820571E-01
       -2   -1    0    0    0  501  0.00000000000E+00  0.00000000000E+00  0.31167851324E+03  0.31167851325E+03  0.25500000920E-02 0.  1.
        2   -1    0    0  501    0  0.00000000000E+00  0.00000000000E+00 -0.20533011394E+04  0.20533011394E+04  0.25500000920E-02 0. -1.
    10030    2    1    2    0    0  0.00000000000E+00  0.00000000000E+00 -0.17416226262E+04  0.23649796527E+04  0.15999623075E+04 0.  0.
        5    1    3    3  502    0  0.22888920939E+03 -0.74835502334E+03 -0.11160334018E+04  0.13630767239E+04  0.46999998093E+01 0.  1.
       -5    1    3    3    0  502 -0.22888920939E+03  0.74835502334E+03 -0.62558922434E+03  0.10019029288E+04  0.46999998093E+01 0. -1.
</event>
<event>
 5   0  0.1060251E-05  0.1599872E+04  0.7818609E-02  0.8820627E-01
        1   -1    0    0  501    0  0.00000000000E+00  0.00000000000E+00  0.13316321623E+04  0.13316321623E+04  0.50400001928E-02 0. -1.
       -1   -1    0    0    0  501  0.00000000000E+00  0.00000000000E+00 -0.48053603053E+03  0.48053603056E+03  0.50400001928E-02 0.  1.
    10030    2    1    2    0    0  0.00000000000E+00  0.00000000000E+00  0.85109613177E+03  0.18121681929E+04  0.15998715366E+04 0.  0.
        1    1    3    3  502    0 -0.68874553909E+02 -0.22326655158E+03 -0.44102407371E+03  0.49909306833E+03  0.50400001928E-02 0.  1.
       -1    1    3    3    0  502  0.68874553909E+02  0.22326655158E+03  0.12921202055E+04  0.13130751245E+04  0.50400001928E-02 0. -1.
</event>
<event>
 5   0  0.1060251E-05  0.1599993E+04  0.7818609E-02  0.8820552E-01
        1   -1    0    0  501    0  0.00000000000E+00  0.00000000000E+00  0.16679982664E+04  0.16679982664E+04  0.50400001928E-02 0. -1.
       -1   -1    0    0    0  501  0.00000000000E+00  0.00000000000E+00 -0.38369010257E+03  0.38369010260E+03  0.50400001928E-02 0.  1.
    10030    2    1    2    0    0  0.00000000000E+00  0.00000000000E+00  0.12843081638E+04  0.20516883690E+04  0.15999930324E+04 0.  0.
        1    1    3    3  502    0  0.43061361374E+03  0.26114158234E+03 -0.15491469950E+03  0.52689806842E+03  0.50400001928E-02 0.  1.
       -1    1    3    3    0  502 -0.43061361374E+03 -0.26114158234E+03  0.14392228633E+04  0.15247903005E+04  0.50400001928E-02 0. -1.
</event>
<event>
 5   0  0.2046108E-05  0.1600126E+04  0.7818609E-02  0.8820471E-01
       -2   -1    0    0    0  501  0.00000000000E+00  0.00000000000E+00  0.33722994329E+03  0.33722994330E+03  0.25500000920E-02 0.  1.
        2   -1    0    0  501    0  0.00000000000E+00  0.00000000000E+00 -0.18981133847E+04  0.18981133847E+04  0.25500000920E-02 0. -1.
    10030    2    1    2    0    0  0.00000000000E+00  0.00000000000E+00 -0.15608834414E+04  0.22353433280E+04  0.16001258314E+04 0.  0.
        1    1    3    3  502    0  0.19164382103E+03  0.61515829585E+03 -0.14430190321E+04  0.15803325632E+04  0.50400001928E-02 0. -1.
       -1    1    3    3    0  502 -0.19164382103E+03 -0.61515829585E+03 -0.11786440932E+03  0.65501076488E+03  0.50400001928E-02 0.  1.
</event>
<event>
 5   0  0.1090674E-05  0.1599555E+04  0.7818609E-02  0.8820821E-01
        1   -1    0    0  501    0  0.00000000000E+00  0.00000000000E+00  0.54343908419E+03  0.54343908421E+03  0.50400001928E-02 0.  1.
       -1   -1    0    0    0  501  0.00000000000E+00  0.00000000000E+00 -0.11770302488E+04  0.11770302488E+04  0.50400001928E-02 0. -1.
    10030    2    1    2    0    0  0.00000000000E+00  0.00000000000E+00 -0.63359116459E+03  0.17204693330E+04  0.15995552388E+04 0.  0.
        4    1    3    3  502    0 -0.73816040360E+02 -0.49164537412E+03 -0.99063390945E+03  0.11083867273E+04  0.12699999809E+01 0. -1.
       -4    1    3    3    0  502  0.73816040360E+02  0.49164537412E+03  0.35704274486E+03  0.61208260575E+03  0.12699999809E+01 0.  1.
</event>
<event>
 5   0  0.1994525E-05  0.1598958E+04  0.7818609E-02  0.8821189E-01
       -2   -1    0    0    0  501  0.00000000000E+00  0.00000000000E+00  0.64995803682E+03  0.64995803683E+03  0.25500000920E-02 0.  1.
        2   -1    0    0  501    0  0.00000000000E+00  0.00000000000E+00 -0.98339636789E+03  0.98339636789E+03  0.25500000920E-02 0. -1.
    10030    2    1    2    0    0  0.00000000000E+00  0.00000000000E+00 -0.33343833106E+03  0.16333544047E+04  0.15989576263E+04 0.  0.
        5    1    3    3  502    0  0.74619709238E+03  0.21415954530E+03  0.28359864692E+02  0.77685312862E+03  0.46999998093E+01 0. -1.
       -5    1    3    3    0  502 -0.74619709238E+03 -0.21415954530E+03 -0.36179819576E+03  0.85650127610E+03  0.46999998093E+01 0.  1.
</event>
<event>
 5   0  0.1126485E-05  0.1588198E+04  0.7818609E-02  0.8827832E-01
       -1   -1    0    0    0  501  0.00000000000E+00  0.00000000000E+00  0.71815952878E+03  0.71815952880E+03  0.50400001928E-02 0.  1.
        1   -1    0    0  501    0  0.00000000000E+00  0.00000000000E+00 -0.87806821501E+03  0.87806821503E+03  0.50400001928E-02 0. -1.
    10030    2    1    2    0    0  0.00000000000E+00  0.00000000000E+00 -0.15990868623E+03  0.15962277438E+04  0.15881977907E+04 0.  0.
        2    1    3    3  502    0  0.56801479398E+02 -0.37089314442E+03 -0.78335349497E+03  0.86857977799E+03  0.25500000920E-02 0. -1.
       -2    1    3    3    0  502 -0.56801479398E+02  0.37089314442E+03  0.62344480874E+03  0.72764796584E+03  0.25500000920E-02 0.  1.
</event>
<event>
 5   0  0.1057506E-05  0.1597944E+04  0.7818609E-02  0.8821812E-01
        1   -1    0    0  501    0  0.00000000000E+00  0.00000000000E+00  0.10579924652E+04  0.10579924652E+04  0.50400001928E-02 0. -1.
       -1   -1    0    0    0  501  0.00000000000E+00  0.00000000000E+00 -0.60336537537E+03  0.60336537539E+03  0.50400001928E-02 0.  1.
    10030    2    1    2    0    0  0.00000000000E+00  0.00000000000E+00  0.45462708982E+03  0.16613578406E+04  0.15979437048E+04 0.  0.
        5    1    3    3  502    0 -0.77005428715E+03 -0.55099328200E+02  0.13445572804E+02  0.77215439813E+03  0.46999998093E+01 0.  1.
       -5    1    3    3    0  502  0.77005428715E+03  0.55099328200E+02  0.44118151702E+03  0.88920344246E+03  0.46999998093E+01 0. -1.
</event>
<event>
 5   0  0.1060251E-05  0.1599763E+04  0.7818609E-02  0.8820694E-01
        1   -1    0    0  501    0  0.00000000000E+00  0.00000000000E+00  0.49443434749E+03  0.49443434752E+03  0.50400001928E-02 0. -1.
       -1   -1    0    0    0  501  0.00000000000E+00  0.00000000000E+00 -0.12940247827E+04  0.12940247827E+04  0.50400001928E-02 0.  1.
    10030    2    1    2    0    0  0.00000000000E+00  0.00000000000E+00 -0.79959043525E+03  0.17884591303E+04  0.15997628563E+04 0.  0.
        1    1    3    3  502    0 -0.55376489150E+03  0.54258505230E+03 -0.17970839849E+03  0.79583239601E+03  0.50400001928E-02 0.  1.
       -1    1    3    3    0  502  0.55376489150E+03 -0.54258505230E+03 -0.61988203676E+03  0.99262673425E+03  0.50400001928E-02 0. -1.
</event>
<event>
 5   0  0.1994525E-05  0.1591991E+04  0.7818609E-02  0.8825483E-01
       -2   -1    0    0    0  501  0.00000000000E+00  0.00000000000E+00  0.67527916607E+03  0.67527916608E+03  0.25500000920E-02 0. -1.
        2   -1    0    0  501    0  0.00000000000E+00  0.00000000000E+00 -0.93829203599E+03  0.93829203600E+03  0.25500000920E-02 0.  1.
    10030    2    1    2    0    0  0.00000000000E+00  0.00000000000E+00 -0.26301286992E+03  0.16135712021E+04  0.15919912859E+04 0.  0.
        5    1    3    3  502    0 -0.20856399674E+03 -0.29443674789E+03 -0.85062733617E+03  0.92400264842E+03  0.46999998093E+01 0.  1.
       -5    1    3    3    0  502  0.20856399674E+03  0.29443674789E+03  0.58761446625E+03  0.68956855365E+03  0.46999998093E+01 0. -1.
</event>
<event>
 5   0  0.1126485E-05  0.1600479E+04  0.7818609E-02  0.8820254E-01
       -1   -1    0    0    0  501  0.00000000000E+00  0.00000000000E+00  0.46493809806E+03  0.46493809809E+03  0.50400001928E-02 0.  1.
        1   -1    0    0  501    0  0.00000000000E+00  0.00000000000E+00 -0.13773516879E+04  0.13773516879E+04  0.50400001928E-02 0. -1.
    10030    2    1    2    0    0  0.00000000000E+00  0.00000000000E+00 -0.91241358983E+03  0.18422897860E+04  0.16004790210E+04 0.  0.
        2    1    3    3  502    0  0.46069658124E+03 -0.50534342194E+01  0.29695605372E+03  0.54813299026E+03  0.25500000920E-02 0.  1.
       -2    1    3    3    0  502 -0.46069658124E+03  0.50534342194E+01 -0.12093696436E+04  0.12941567957E+04  0.25500000920E-02 0. -1.
</event>
<event>
 5   0  0.1081831E-05  0.1602278E+04  0.7818609E-02  0.8819150E-01
        1   -1    0    0  501    0  0.00000000000E+00  0.00000000000E+00  0.19908760290E+04  0.19908760290E+04  0.50400001928E-02 0. -1.
       -1   -1    0    0    0  501  0.00000000000E+00  0.00000000000E+00 -0.32238267134E+03  0.32238267138E+03  0.50400001928E-02 0.  1.
    10030    2    1    2    0    0  0.00000000000E+00  0.00000000000E+00  0.16684933577E+04  0.23132587004E+04  0.16022782937E+04 0.  0.
        3    1    3    3  502    0  0.44541370675E+02 -0.67818895095E+02  0.19849288229E+04  0.19865864639E+04  0.10100000352E+00 0. -1.
       -3    1    3    3    0  502 -0.44541370675E+02  0.67818895095E+02 -0.31643546525E+03  0.32667223651E+03  0.10100000352E+00 0.  1.
</event>
<event>
 5   0  0.2125803E-05  0.1599904E+04  0.7818609E-02  0.8820607E-01
       -2   -1    0    0    0  501  0.00000000000E+00  0.00000000000E+00  0.69831945308E+03  0.69831945309E+03  0.25500000920E-02 0. -1.
        2   -1    0    0  501    0  0.00000000000E+00  0.00000000000E+00 -0.91637546973E+03  0.91637546974E+03  0.25500000920E-02 0.  1.
    10030    2    1    2    0    0  0.00000000000E+00  0.00000000000E+00 -0.21805601665E+03  0.16146949228E+04  0.15999035182E+04 0.  0.
        3    1    3    3  502    0 -0.36069901486E+03 -0.25818847338E+03  0.56282745880E+03  0.71661693092E+03  0.10100000352E+00 0. -1.
       -3    1    3    3    0  502  0.36069901486E+03  0.25818847338E+03 -0.78088347545E+03  0.89807799190E+03  0.10100000352E+00 0.  1.
</event>
<event>
 5   0  0.1994525E-05  0.1602627E+04  0.7818609E-02  0.8818936E-01
        2   -1    0    0  501    0  0.00000000000E+00  0.00000000000E+00  0.14009125117E+04  0.14009125117E+04  0.25500000920E-02 0. -1.
       -2   -1    0    0    0  501  0.00000000000E+00  0.00000000000E+00 -0.45834663510E+03  0.45834663510E+03  0.25500000920E-02 0.  1.
    10030    2    1    2    0    0  0.00000000000E+00  0.00000000000E+00  0.94256587659E+03  0.18592591468E+04  0.16026272627E+04 0.  0.
        5    1    3    3  502    0  0.37301817271E+03  0.70470080635E+03  0.37894006028E+03  0.88281563360E+03  0.46999998093E+01 0. -1.
       -5    1    3    3    0  502 -0.37301817271E+03 -0.70470080635E+03  0.56362581631E+03  0.97644351319E+03  0.46999998093E+01 0.  1.
</event>
<event>
 5   0  0.2046108E-05  0.1599766E+04  0.7818609E-02  0.8820692E-01
        2   -1    0    0  501    0  0.00000000000E+00  0.00000000000E+00  0.48734679850E+03  0.48734679851E+03  0.25500000920E-02 0.  1.
       -2   -1    0    0    0  501  0.00000000000E+00  0.00000000000E+00 -0.13128485935E+04  0.13128485935E+04  0.25500000920E-02 0. -1.
    10030    2    1    2    0    0  0.00000000000E+00  0.00000000000E+00 -0.82550179496E+03  0.18001953920E+04  0.15997656815E+04 0.  0.
        1    1    3    3  502    0 -0.49228786615E+03  0.79845684943E+02  0.29097180214E+03  0.57739697456E+03  0.50400001928E-02 0.  1.
       -1    1    3    3    0  502  0.49228786615E+03 -0.79845684943E+02 -0.11164735971E+04  0.12227984174E+04  0.50400001928E-02 0. -1.
</event>
<event>
 5   0  0.1090674E-05  0.1599789E+04  0.7818609E-02  0.8820677E-01
       -1   -1    0    0    0  501  0.00000000000E+00  0.00000000000E+00  0.27846486727E+03  0.27846486732E+03  0.50400001928E-02 0. -1.
        1   -1    0    0  501    0  0.00000000000E+00  0.00000000000E+00 -0.22977102005E+04  0.22977102005E+04  0.50400001928E-02 0.  1.
    10030    2    1    2    0    0  0.00000000000E+00  0.00000000000E+00 -0.20192453332E+04  0.25761750678E+04  0.15997894437E+04 0.  0.
        4    1    3    3  502    0  0.19354978806E+03 -0.74399793128E+03 -0.65376165080E+03  0.10091582389E+04  0.12699999809E+01 0. -1.
       -4    1    3    3    0  502 -0.19354978806E+03  0.74399793128E+03 -0.13654836824E+04  0.15670168289E+04  0.12699999809E+01 0.  1.
</event>
<event>
 5   0  0.1057506E-05  0.1600036E+04  0.7818609E-02  0.8820526E-01
       -1   -1    0    0    0  501  0.00000000000E+00  0.00000000000E+00  0.63691464173E+03  0.63691464175E+03  0.50400001928E-02 0.  1.
        1   -1    0    0  501    0  0.00000000000E+00  0.00000000000E+00 -0.10048891774E+04  0.10048891774E+04  0.50400001928E-02 0. -1.
    10030    2    1    2    0    0  0.00000000000E+00  0.00000000000E+00 -0.36797453570E+03  0.16418038192E+04  0.16000357876E+04 0.  0.
        5    1    3    3  502    0  0.40118696132E+03 -0.44909363351E+03 -0.72439515262E+03  0.94202255638E+03  0.46999998093E+01 0. -1.
       -5    1    3    3    0  502 -0.40118696132E+03  0.44909363351E+03  0.35642061692E+03  0.69978126280E+03  0.46999998093E+01 0.  1.
</event>
<event>
 5   0  0.1060251E-05  0.1607296E+04  0.7818609E-02  0.8816078E-01
       -1   -1    0    0    0  501  0.00000000000E+00  0.00000000000E+00  0.62116486012E+03  0.62116486014E+03  0.50400001928E-02 0.  1.
        1   -1    0    0  501    0  0.00000000000E+00  0.00000000000E+00 -0.10397408374E+04  0.10397408374E+04  0.50400001928E-02 0. -1.
    10030    2    1    2    0    0  0.00000000000E+00  0.00000000000E+00 -0.41857597725E+03  0.16609056975E+04  0.16072964528E+04 0.  0.
        1    1    3    3  502    0  0.56704142662E+03  0.37457855839E+03 -0.65255383275E+03  0.94216324518E+03  0.50400001928E-02 0. -1.
       -1    1    3    3    0  502 -0.56704142662E+03 -0.37457855839E+03  0.23397785549E+03  0.71874245234E+03  0.50400001928E-02 0.  1.
</event>
<event>
 5   0  0.2147844E-05  0.1600396E+04  0.7818609E-02  0.8820305E-01
        2   -1    0    0  501    0  0.00000000000E+00  0.00000000000E+00  0.24949369378E+04  0.24949369378E+04  0.25500000920E-02 0.  1.
       -2   -1    0    0    0  501  0.00000000000E+00  0.00000000000E+00 -0.25664663528E+03  0.25664663529E+03  0.25500000920E-02 0. -1.
    10030    2    1    2    0    0  0.00000000000E+00  0.00000000000E+00  0.22382903025E+04  0.27515835731E+04  0.16003964138E+04 0.  0.
        2    1    3    3  502    0  0.43347452267E+03 -0.40001408629E+03  0.18943390413E+03  0.61951322429E+03  0.25500000920E-02 0. -1.
       -2    1    3    3    0  502 -0.43347452267E+03  0.40001408629E+03  0.20488563984E+04  0.21320703488E+04  0.25500000920E-02 0.  1.
</event>
<event>
 5   0  0.1081831E-05  0.1596010E+04  0.7818609E-02  0.8823003E-01
       -1   -1    0    0    0  501  0.00000000000E+00  0.00000000000E+00  0.57540031457E+03  0.57540031459E+03  0.50400001928E-02 0.  1.
        1   -1    0    0  501    0  0.00000000000E+00  0.00000000000E+00 -0.11067289857E+04  0.11067289857E+04  0.50400001928E-02 0. -1.
    10030    2    1    2    0    0  0.00000000000E+00  0.00000000000E+00 -0.53132867114E+03  0.16821293003E+04  0.15960102839E+04 0.  0.
        3    1    3    3  502    0  0.31037662919E+03  0.10656446197E+03 -0.10323226141E+04  0.10832264889E+04  0.10100000352E+00 0. -1.
       -3    1    3    3    0  502 -0.31037662919E+03 -0.10656446197E+03  0.50099394292E+03  0.59890281144E+03  0.10100000352E+00 0.  1.
</event>
<event>
 5   0  0.7597000E-06  0.1599971E+04  0.7818609E-02  0.8820566E-01
        4   -1    0    0  501    0  0.00000000000E+00  0.00000000000E+00  0.57429370533E+03  0.57429510958E+03  0.12699999809E+01 0.  1.
       -4   -1    0    0    0  501  0.00000000000E+00  0.00000000000E+00 -0.11143688540E+04  0.11143695777E+04  0.12699999809E+01 0. -1.
    10030    2    1    2    0    0  0.00000000000E+00  0.00000000000E+00 -0.54007514867E+03  0.16886646873E+04  0.15999710184E+04 0.  0.
        5    1    3    3  502    0 -0.75631604994E+03 -0.21267701264E+03 -0.11098794486E+03  0.79346448755E+03  0.46999998093E+01 0.  1.
       -5    1    3    3    0  502  0.75631604994E+03  0.21267701264E+03 -0.42908720381E+03  0.89520019972E+03  0.46999998093E+01 0. -1.
</event>
<event>
 5   0  0.1090674E-05  0.1601868E+04  0.7818609E-02  0.8819401E-01
       -1   -1    0    0    0  501  0.00000000000E+00  0.00000000000E+00  0.71187169171E+03  0.71187169173E+03  0.50400001928E-02 0.  1.
        1   -1    0    0  501    0  0.00000000000E+00  0.00000000000E+00 -0.90113909643E+03  0.90113909644E+03  0.50400001928E-02 0. -1.
    10030    2    1    2    0    0  0.00000000000E+00  0.00000000000E+00 -0.18926740471E+03  0.16130107882E+04  0.16018681757E+04 0.  0.
        4    1    3    3  502    0 -0.76487616022E+03 -0.15204223088E+03 -0.27850017440E+03  0.82807991189E+03  0.12699999809E+01 0. -1.
       -4    1    3    3    0  502  0.76487616022E+03  0.15204223088E+03  0.89232769690E+02  0.78493087627E+03  0.12699999809E+01 0.  1.
</event>
<event>
 5   0  0.2125803E-05  0.1599278E+04  0.7818609E-02  0.8820992E-01
       -2   -1    0    0    0  501  0.00000000000E+00  0.00000000000E+00  0.38662249243E+03  0.38662249244E+03  0.25500000920E-02 0.  1.
        2   -1    0    0  501    0  0.00000000000E+00  0.00000000000E+00 -0.16538671331E+04  0.16538671331E+04  0.25500000920E-02 0. -1.
    10030    2    1    2    0    0  0.00000000000E+00  0.00000000000E+00 -0.12672446407E+04  0.20404896256E+04  0.15992776284E+04 0.  0.
        3    1    3    3  502    0 -0.79203900858E+03  0.13895446330E+02 -0.77282420075E+03  0.11066960423E+04  0.10100000352E+00 0. -1.
       -3    1    3    3    0  502  0.79203900858E+03 -0.13895446330E+02 -0.49442043994E+03  0.93379358328E+03  0.10100000352E+00 0.  1.
</event>
<event>
 5   0  0.2125803E-05  0.1597438E+04  0.7818609E-02  0.8822123E-01
        2   -1    0    0  501    0  0.00000000000E+00  0.00000000000E+00  0.99386402984E+03  0.99386402985E+03  0.25500000920E-02 0.  1.
       -2   -1    0    0    0  501  0.00000000000E+00  0.00000000000E+00 -0.64189075810E+03  0.64189075810E+03  0.25500000920E-02 0. -1.
    10030    2    1    2    0    0  0.00000000000E+00  0.00000000000E+00  0.35197327175E+03  0.16357547879E+04  0.15974381184E+04 0.  0.
        3    1    3    3  502    0 -0.54730382637E+01 -0.78044594358E+03  0.34984220639E+03  0.85528673822E+03  0.10100000352E+00 0.  1.
       -3    1    3    3    0  502  0.54730382637E+01  0.78044594358E+03  0.21310653593E+01  0.78046804973E+03  0.10100000352E+00 0. -1.
</event>
<event>
 5   0  0.1126485E-05  0.1600998E+04  0.7818609E-02  0.8819935E-01
       -1   -1    0    0    0  501  0.00000000000E+00  0.00000000000E+00  0.62167568365E+03  0.62167568367E+03  0.50400001928E-02 0.  1.
        1   -1    0    0  501    0  0.00000000000E+00  0.00000000000E+00 -0.10307599519E+04  0.10307599519E+04  0.50400001928E-02 0. -1.
    10030    2    1    2    0    0  0.00000000000E+00  0.00000000000E+00 -0.40908426827E+03  0.16524356356E+04  0.16009976862E+04 0.  0.
        2    1    3    3  502    0 -0.50595268321E+03  0.54591041717E+03 -0.50861238866E+03  0.90149479373E+03  0.25500000920E-02 0. -1.
       -2    1    3    3    0  502  0.50595268321E+03 -0.54591041717E+03  0.99528120394E+02  0.75094084186E+03  0.25500000920E-02 0.  1.
</event>
<event>
 5   0  0.7597000E-06  0.1599343E+04  0.7818609E-02  0.8820952E-01
       -3   -1    0    0    0  501  0.00000000000E+00  0.00000000000E+00  0.25943001656E+04  0.25943001675E+04  0.10100000352E+00 0.  1.
        3   -1    0    0  501    0  0.00000000000E+00  0.00000000000E+00 -0.24649207356E+03  0.24649209426E+03  0.10100000352E+00 0. -1.
    10030    2    1    2    0    0  0.00000000000E+00  0.00000000000E+00  0.23478080920E+04  0.28407922618E+04  0.15993429394E+04 0.  0.
        5    1    3    3  502    0 -0.11238531775E+03  0.69816964821E+03  0.18370356833E+04  0.19684495190E+04  0.46999998093E+01 0.  1.
       -5    1    3    3    0  502  0.11238531775E+03 -0.69816964821E+03  0.51077240870E+03  0.87234274274E+03  0.46999998093E+01 0. -1.
</event>
<event>
 5   0  0.1057506E-05  0.1599911E+04  0.7818609E-02  0.8820602E-01
        1   -1    0    0  501    0  0.00000000000E+00  0.00000000000E+00  0.10154784915E+04  0.10154784915E+04  0.50400001928E-02 0.  1.
       -1   -1    0    0    0  501  0.00000000000E+00  0.00000000000E+00 -0.63017497305E+03  0.63017497307E+03  0.50400001928E-02 0. -1.
    10030    2    1    2    0    0  0.00000000000E+00  0.00000000000E+00  0.38530351848E+03  0.16456534646E+04  0.15999114114E+04 0.  0.
        5    1    3    3  502    0 -0.63005560146E+03 -0.51440279900E+02 -0.31155782226E+03  0.70477409852E+03  0.46999998093E+01 0. -1.
       -5    1    3    3    0  502  0.63005560146E+03  0.51440279900E+02  0.69686134074E+03  0.94087936610E+03  0.46999998093E+01 0.  1.
</event>
<event>
 5   0  0.1994525E-05  0.1590671E+04  0.7818609E-02  0.8826300E-01
       -2   -1    0    0    0  501  0.00000000000E+00  0.00000000000E+00  0.35490116341E+03  0.35490116342E+03  0.25500000920E-02 0.  1.
        2   -1    0    0  501    0  0.00000000000E+00  0.00000000000E+00 -0.17823509992E+04  0.17823509992E+04  0.25500000920E-02 0. -1.
    10030    2    1    2    0    0  0.00000000000E+00  0.00000000000E+00 -0.14274498358E+04  0.21372521627E+04  0.15906708563E+04 0.  0.
        5    1    3    3  502    0  0.56926040751E+03 -0.48431776956E+03 -0.34843100441E+03  0.82464984588E+03  0.46999998093E+01 0.  1.
       -5    1    3    3    0  502 -0.56926040751E+03  0.48431776956E+03 -0.10790188314E+04  0.13126023168E+04  0.46999998093E+01 0. -1.
</event>
<event>
 5   0  0.2046108E-05  0.1605711E+04  0.7818609E-02  0.8817047E-01
        2   -1    0    0  501    0  0.00000000000E+00  0.00000000000E+00  0.17406405660E+04  0.17406405660E+04  0.25500000920E-02 0. -1.
       -2   -1    0    0    0  501  0.00000000000E+00  0.00000000000E+00 -0.37031012137E+03  0.37031012137E+03  0.25500000920E-02 0.  1.
    10030    2    1    2    0    0  0.00000000000E+00  0.00000000000E+00  0.13703304446E+04  0.21109506874E+04  0.16057108323E+04 0.  0.
        1    1    3    3  502    0  0.16965272961E+03 -0.67969551895E+03  0.16957899997E+03  0.72078088515E+03  0.50400001928E-02 0.  1.
       -1    1    3    3    0  502 -0.16965272961E+03  0.67969551895E+03  0.12007514447E+04  0.13901698022E+04  0.50400001928E-02 0. -1.
</event>
<event>
 5   0  0.7597000E-06  0.1600512E+04  0.7818609E-02  0.8820234E-01
        3   -1    0    0  501    0  0.00000000000E+00  0.00000000000E+00  0.32815572018E+03  0.32815573572E+03  0.10100000352E+00 0.  1.
       -3   -1    0    0    0  501  0.00000000000E+00  0.00000000000E+00 -0.19515416698E+04  0.19515416724E+04  0.10100000352E+00 0. -1.
    10030    2    1    2    0    0  0.00000000000E+00  0.00000000000E+00 -0.16233859497E+04  0.22796974082E+04  0.16005118966E+04 0.  0.
        2    1    3    3  502    0 -0.42095634876E+03 -0.66206924073E+03 -0.10363154381E+04  0.12998036830E+04  0.25500000920E-02 0. -1.
       -2    1    3    3    0  502  0.42095634876E+03  0.66206924073E+03 -0.58707051154E+03  0.97989372516E+03  0.25500000920E-02 0.  1.
</event>
<event>
 5   0  0.1090674E-05  0.1602686E+04  0.7818609E-02  0.8818899E-01
       -1   -1    0    0    0  501  0.00000000000E+00  0.00000000000E+00  0.66354914190E+03  0.66354914192E+03  0.50400001928E-02 0. -1.
        1   -1    0    0  501    0  0.00000000000E+00  0.00000000000E+00 -0.96775169187E+03  0.96775169188E+03  0.50400001928E-02 0.  1.
    10030    2    1    2    0    0  0.00000000000E+00  0.00000000000E+00 -0.30420254996E+03  0.16313008338E+04  0.16026862509E+04 0.  0.
        4    1    3    3  502    0  0.74868702288E+03 -0.21477421107E+03 -0.34384989886E+03  0.85140741471E+03  0.12699999809E+01 0.  1.
       -4    1    3    3    0  502 -0.74868702288E+03  0.21477421107E+03  0.39647348893E+02  0.77989341910E+03  0.12699999809E+01 0. -1.
</event>
<event>
 5   0  0.1990948E-05  0.1595865E+04  0.7818609E-02  0.8823092E-01
       -2   -1    0    0    0  501  0.00000000000E+00  0.00000000000E+00  0.50095679547E+03  0.50095679547E+03  0.25500000920E-02 0.  1.
        2   -1    0    0  501    0  0.00000000000E+00  0.00000000000E+00 -0.12709602698E+04  0.12709602698E+04  0.25500000920E-02 0. -1.
    10030    2    1    2    0    0  0.00000000000E+00  0.00000000000E+00 -0.77000347435E+03  0.17719170653E+04  0.15958648864E+04 0.  0.
        4    1    3    3  502    0 -0.26370306191E+03  0.75301166234E+03 -0.37240549882E+03  0.88048471703E+03  0.12699999809E+01 0.  1.
       -4    1    3    3    0  502  0.26370306191E+03 -0.75301166234E+03 -0.39759797554E+03  0.89143234826E+03  0.12699999809E+01 0. -1.
</event>
<event>
 5   0  0.2125803E-05  0.1599826E+04  0.7818609E-02  0.8820655E-01
       -2   -1    0    0    0  501  0.00000000000E+00  0.00000000000E+00  0.31935048845E+03  0.31935048846E+03  0.25500000920E-02 0. -1.
        2   -1    0    0  501    0  0.00000000000E+00  0.00000000000E+00 -0.20036316701E+04  0.20036316701E+04  0.25500000920E-02 0.  1.
    10030    2    1    2    0    0  0.00000000000E+00  0.00000000000E+00 -0.16842811817E+04  0.23229821586E+04  0.15998259312E+04 0.  0.
        3    1    3    3  502    0  0.58388013833E+02  0.96548796080E+02 -0.19920189491E+04  0.19952118519E+04  0.10100000352E+00 0.  1.
       -3    1    3    3    0  502 -0.58388013833E+02 -0.96548796080E+02  0.30773776748E+03  0.32777030664E+03  0.10100000352E+00 0. -1.
</event>
<event>
 5   0  0.1994525E-05  0.1595980E+04  0.7818609E-02  0.8823022E-01
        2   -1    0    0  501    0  0.00000000000E+00  0.00000000000E+00  0.70856603460E+03  0.70856603461E+03  0.25500000920E-02 0.  1.
       -2   -1    0    0    0  501  0.00000000000E+00  0.00000000000E+00 -0.89869927967E+03  0.89869927967E+03  0.25500000920E-02 0. -1.
    10030    2    1    2    0    0  0.00000000000E+00  0.00000000000E+00 -0.19013324506E+03  0.16072653143E+04  0.15959796802E+04 0.  0.
        5    1    3    3  502    0 -0.11507360556E+01 -0.72204329109E+03 -0.43720100238E+03  0.84410582564E+03  0.46999998093E+01 0. -1.
       -5    1    3    3    0  502  0.11507360556E+01  0.72204329109E+03  0.24706775732E+03  0.76315948864E+03  0.46999998093E+01 0.  1.
</event>
<event>
 5   0  0.1994525E-05  0.1605989E+04  0.7818609E-02  0.8816877E-01
        2   -1    0    0  501    0  0.00000000000E+00  0.00000000000E+00  0.76683611539E+03  0.76683611540E+03  0.25500000920E-02 0.  1.
       -2   -1    0    0    0  501  0.00000000000E+00  0.00000000000E+00 -0.84085809056E+03  0.84085809057E+03  0.25500000920E-02 0. -1.
    10030    2    1    2    0    0  0.00000000000E+00  0.00000000000E+00 -0.74021975170E+02  0.16076942060E+04  0.16059892301E+04 0.  0.
        5    1    3    3  502    0 -0.47444483366E+03  0.16732429260E+03 -0.66352118984E+03  0.83269308779E+03  0.46999998093E+01 0. -1.
       -5    1    3    3    0  502  0.47444483366E+03 -0.16732429260E+03  0.58949921467E+03  0.77500111818E+03  0.46999998093E+01 0.  1.
</event>
<event>
 5   0  0.1994525E-05  0.1600737E+04  0.7818609E-02  0.8820095E-01
        2   -1    0    0  501    0  0.00000000000E+00  0.00000000000E+00  0.13923722961E+04  0.13923722961E+04  0.25500000920E-02 0. -1.
       -2   -1    0    0    0  501  0.00000000000E+00  0.00000000000E+00 -0.46007077952E+03  0.46007077953E+03  0.25500000920E-02 0.  1.
    10030    2    1    2    0    0  0.00000000000E+00  0.00000000000E+00  0.93230151654E+03  0.18524430756E+04  0.16007370898E+04 0.  0.
        5    1    3    3  502    0 -0.37412936714E+02 -0.37195891468E+02  0.13903419573E+04  0.13913504628E+04  0.46999998093E+01 0. -1.
       -5    1    3    3    0  502  0.37412936714E+02  0.37195891468E+02 -0.45804044076E+03  0.46109261277E+03  0.46999998093E+01 0.  1.
</event>
<event>
 5   0  0.1057506E-05  0.1599460E+04  0.7818609E-02  0.8820880E-01
        1   -1    0    0  501    0  0.00000000000E+00  0.00000000000E+00  0.87587770590E+03  0.87587770592E+03  0.50400001928E-02 0. -1.
       -1   -1    0    0    0  501  0.00000000000E+00  0.00000000000E+00 -0.73020283995E+03  0.73020283996E+03  0.50400001928E-02 0.  1.
    10030    2    1    2    0    0  0.00000000000E+00  0.00000000000E+00  0.14567486596E+03  0.16060805459E+04  0.15994603944E+04 0.  0.
        5    1    3    3  502    0  0.28139846797E+03  0.39756337499E+03  0.70973752323E+03  0.86080844373E+03  0.46999998093E+01 0. -1.
       -5    1    3    3    0  502 -0.28139846797E+03 -0.39756337499E+03 -0.56406265728E+03  0.74527210215E+03  0.46999998093E+01 0.  1.
</event>
<event>
 5   0  0.2046108E-05  0.1600085E+04  0.7818609E-02  0.8820496E-01
       -2   -1    0    0    0  501  0.00000000000E+00  0.00000000000E+00  0.31342787614E+03  0.31342787615E+03  0.25500000920E-02 0.  1.
        2   -1    0    0  501    0  0.00000000000E+00  0.00000000000E+00 -0.20421546781E+04  0.20421546781E+04  0.25500000920E-02 0. -1.
    10030    2    1    2    0    0  0.00000000000E+00  0.00000000000E+00 -0.17287268020E+04  0.23555825543E+04  0.16000852522E+04 0.  0.
        1    1    3    3  502    0  0.58961148357E+02  0.61113610686E+03 -0.10923761667E+03  0.62361575914E+03  0.50400001928E-02 0.  1.
       -1    1    3    3    0  502 -0.58961148357E+02 -0.61113610686E+03 -0.16194891853E+04  0.17319667952E+04  0.50400001928E-02 0. -1.
</event>
<event>
 5   0  0.1126485E-05  0.1600314E+04  0.7818609E-02  0.8820355E-01
       -1   -1    0    0    0  501  0.00000000000E+00  0.00000000000E+00  0.84022955776E+03  0.84022955778E+03  0.50400001928E-02 0.  1.
        1   -1    0    0  501    0  0.00000000000E+00  0.00000000000E+00 -0.76199574970E+03  0.76199574971E+03  0.50400001928E-02 0. -1.
    10030    2    1    2    0    0  0.00000000000E+00  0.00000000000E+00  0.78233808066E+02  0.16022253075E+04  0.16003141589E+04 0.  0.
        2    1    3    3  502    0  0.61638082351E+03  0.38409713302E+03  0.37536828857E+03  0.81753120996E+03  0.25500000920E-02 0.  1.
       -2    1    3    3    0  502 -0.61638082351E+03 -0.38409713302E+03 -0.29713448050E+03  0.78469409753E+03  0.25500000920E-02 0. -1.
</event>
<event>
 5   0  0.1126485E-05  0.1599694E+04  0.7818609E-02  0.8820736E-01
       -1   -1    0    0    0  501  0.00000000000E+00  0.00000000000E+00  0.42878939219E+03  0.42878939222E+03  0.50400001928E-02 0. -1.
        1   -1    0    0  501    0  0.00000000000E+00  0.00000000000E+00 -0.14920043010E+04  0.14920043010E+04  0.50400001928E-02 0.  1.
    10030    2    1    2    0    0  0.00000000000E+00  0.00000000000E+00 -0.10632149088E+04  0.19207936932E+04  0.15996944926E+04 0.  0.
        2    1    3    3  502    0 -0.55874404028E+03  0.58787923233E+02  0.15196779967E+03  0.58201815659E+03  0.25500000920E-02 0. -1.
       -2    1    3    3    0  502  0.55874404028E+03 -0.58787923233E+02 -0.12151827085E+04  0.13387755366E+04  0.25500000920E-02 0.  1.
</event>
<event>
 5   0  0.1081831E-05  0.1599855E+04  0.7818609E-02  0.8820637E-01
        1   -1    0    0  501    0  0.00000000000E+00  0.00000000000E+00  0.81960547384E+03  0.81960547386E+03  0.50400001928E-02 0. -1.
       -1   -1    0    0    0  501  0.00000000000E+00  0.00000000000E+00 -0.78072162588E+03  0.78072162589E+03  0.50400001928E-02 0.  1.
    10030    2    1    2    0    0  0.00000000000E+00  0.00000000000E+00  0.38883847966E+02  0.16003270997E+04  0.15998546411E+04 0.  0.
        3    1    3    3  502    0  0.33129161396E+03  0.55658000909E+03 -0.45010938397E+03  0.78875465623E+03  0.10100000352E+00 0.  1.
       -3    1    3    3    0  502 -0.33129161396E+03 -0.55658000909E+03  0.48899323193E+03  0.81157244352E+03  0.10100000352E+00 0. -1.
</event>
<event>
 5   0  0.2046108E-05  0.1599168E+04  0.7818609E-02  0.8821059E-01
       -2   -1    0    0    0  501  0.00000000000E+00  0.00000000000E+00  0.10357408058E+04  0.10357408058E+04  0.25500000920E-02 0.  1.
        2   -1    0    0  501    0  0.00000000000E+00  0.00000000000E+00 -0.61727294380E+03  0.61727294381E+03  0.25500000920E-02 0. -1.
    10030    2    1    2    0    0  0.00000000000E+00  0.00000000000E+00  0.41846786197E+03  0.16530137496E+04  0.15991682541E+04 0.  0.
        1    1    3    3  502    0 -0.74671432620E+03 -0.24299629822E+03  0.53477554401E+02  0.78707644784E+03  0.50400001928E-02 0.  1.
       -1    1    3    3    0  502  0.74671432620E+03  0.24299629822E+03  0.36499030757E+03  0.86593730174E+03  0.50400001928E-02 0. -1.
</event>
<event>
 5   0  0.1090674E-05  0.1601504E+04  0.7818609E-02  0.8819625E-01
       -1   -1    0    0    0  501  0.00000000000E+00  0.00000000000E+00  0.44728992902E+03  0.44728992905E+03  0.50400001928E-02 0.  1.
        1   -1    0    0  501    0  0.00000000000E+00  0.00000000000E+00 -0.14335298899E+04  0.14335298899E+04  0.50400001928E-02 0. -1.
    10030    2    1    2    0    0  0.00000000000E+00  0.00000000000E+00 -0.98623996086E+03  0.18808198189E+04  0.16015036469E+04 0.  0.
        4    1    3    3  502    0  0.27903050071E+01 -0.77369579461E+03 -0.73548362765E+03  0.10674974229E+04  0.12699999809E+01 0. -1.
       -4    1    3    3    0  502 -0.27903050071E+01  0.77369579461E+03 -0.25075633321E+03  0.81332239606E+03  0.12699999809E+01 0.  1.
</event>
<event>
 5   0  0.1090674E-05  0.1599493E+04  0.7818609E-02  0.8820860E-01
        1   -1    0    0  501    0  0.00000000000E+00  0.00000000000E+00  0.10205939569E+04  0.10205939569E+04  0.50400001928E-02 0.  1.
       -1   -1    0    0    0  501  0.00000000000E+00  0.00000000000E+00 -0.62668812604E+03  0.62668812606E+03  0.50400001928E-02 0. -1.
    10030    2    1    2    0    0  0.00000000000E+00  0.00000000000E+00  0.39390583088E+03  0.16472820830E+04  0.15994925625E+04 0.  0.
        4    1    3    3  502    0 -0.23717962218E+03  0.77480758749E+02  0.97948060843E+03  0.10107627399E+04  0.12699999809E+01 0.  1.
       -4    1    3    3    0  502  0.23717962218E+03 -0.77480758749E+02 -0.58557477755E+03  0.63651934311E+03  0.12699999809E+01 0. -1.
</event>
<event>
 5   0  0.1057506E-05  0.1599670E+04  0.7818609E-02  0.8820751E-01
        1   -1    0    0  501    0  0.00000000000E+00  0.00000000000E+00  0.96460683506E+03  0.96460683507E+03  0.50400001928E-02 0.  1.
       -1   -1    0    0    0  501  0.00000000000E+00  0.00000000000E+00 -0.66320939102E+03  0.66320939104E+03  0.50400001928E-02 0. -1.
    10030    2    1    2    0    0  0.00000000000E+00  0.00000000000E+00  0.30139744404E+03  0.16278162261E+04  0.15996703556E+04 0.  0.
        5    1    3    3  502    0 -0.70865500558E+03  0.36223020735E+03  0.23154201178E+03  0.82887660920E+03  0.46999998093E+01 0.  1.
       -5    1    3    3    0  502  0.70865500558E+03 -0.36223020735E+03  0.69855432254E+02  0.79893961691E+03  0.46999998093E+01 0. -1.
</event>
<event>
 5   0  0.2147844E-05  0.1598940E+04  0.7818609E-02  0.8821199E-01
       -2   -1    0    0    0  501  0.00000000000E+00  0.00000000000E+00  0.60680150243E+03  0.60680150244E+03  0.25500000920E-02 0. -1.
        2   -1    0    0  501    0  0.00000000000E+00  0.00000000000E+00 -0.10533140212E+04  0.10533140212E+04  0.25500000920E-02 0.  1.
    10030    2    1    2    0    0  0.00000000000E+00  0.00000000000E+00 -0.44651251879E+03  0.16601155237E+04  0.15989403124E+04 0.  0.
        2    1    3    3  502    0  0.30117311427E+03 -0.15680281803E+03  0.52821737020E+03  0.62793786212E+03  0.25500000920E-02 0. -1.
       -2    1    3    3    0  502 -0.30117311427E+03  0.15680281803E+03 -0.97472988899E+03  0.10321776615E+04  0.25500000920E-02 0.  1.
</event>
<event>
 5   0  0.1990948E-05  0.1599512E+04  0.7818609E-02  0.8820848E-01
       -2   -1    0    0    0  501  0.00000000000E+00  0.00000000000E+00  0.29872049023E+03  0.29872049024E+03  0.25500000920E-02 0. -1.
        2   -1    0    0  501    0  0.00000000000E+00  0.00000000000E+00 -0.21411640163E+04  0.21411640163E+04  0.25500000920E-02 0.  1.
    10030    2    1    2    0    0  0.00000000000E+00  0.00000000000E+00 -0.18424435261E+04  0.24398845065E+04  0.15995118813E+04 0.  0.
        4    1    3    3  502    0  0.76000704725E+03 -0.24789624990E+03 -0.95682226775E+03  0.12468254599E+04  0.12699999809E+01 0. -1.
       -4    1    3    3    0  502 -0.76000704725E+03  0.24789624990E+03 -0.88562125832E+03  0.11930590466E+04  0.12699999809E+01 0.  1.
</event>
<event>
 5   0  0.1994525E-05  0.1598685E+04  0.7818609E-02  0.8821356E-01
       -2   -1    0    0    0  501  0.00000000000E+00  0.00000000000E+00  0.31033939793E+03  0.31033939794E+03  0.25500000920E-02 0. -1.
        2   -1    0    0  501    0  0.00000000000E+00  0.00000000000E+00 -0.20588707915E+04  0.20588707915E+04  0.25500000920E-02 0.  1.
    10030    2    1    2    0    0  0.00000000000E+00  0.00000000000E+00 -0.17485313935E+04  0.23692101894E+04  0.15986853622E+04 0.  0.
        5    1    3    3  502    0  0.22585748479E+03 -0.63728909981E+03 -0.24242031770E+03  0.71828873067E+03  0.46999998093E+01 0. -1.
       -5    1    3    3    0  502 -0.22585748479E+03  0.63728909981E+03 -0.15061110758E+04  0.16509214587E+04  0.46999998093E+01 0.  1.
</event>
<event>
 5   0  0.2125803E-05  0.1600486E+04  0.7818609E-02  0.8820249E-01
        2   -1    0    0  501    0  0.00000000000E+00  0.00000000000E+00  0.85586114452E+03  0.85586114453E+03  0.25500000920E-02 0.  1.
       -2   -1    0    0    0  501  0.00000000000E+00  0.00000000000E+00 -0.74823935959E+03  0.74823935960E+03  0.25500000920E-02 0. -1.
    10030    2    1    2    0    0  0.00000000000E+00  0.00000000000E+00  0.10762178493E+03  0.16041005041E+04  0.16004861695E+04 0.  0.
        3    1    3    3  502    0 -0.11437157335E+03 -0.66768281310E+03  0.48081031014E+03  0.83069835695E+03  0.10100000352E+00 0.  1.
       -3    1    3    3    0  502  0.11437157335E+03  0.66768281310E+03 -0.37318852521E+03  0.77340214717E+03  0.10100000352E+00 0. -1.
</event>
<event>
 5   0  0.1994525E-05  0.1600175E+04  0.7818609E-02  0.8820440E-01
        2   -1    0    0  501    0  0.00000000000E+00  0.00000000000E+00  0.12687039318E+04  0.12687039318E+04  0.25500000920E-02 0. -1.
       -2   -1    0    0    0  501  0.00000000000E+00  0.00000000000E+00 -0.50456228005E+03  0.50456228005E+03  0.25500000920E-02 0.  1.
    10030    2    1    2    0    0  0.00000000000E+00  0.00000000000E+00  0.76414165178E+03  0.17732662119E+04  0.16001751761E+04 0.  0.
        5    1    3    3  502    0  0.30422795866E+03 -0.51580536091E+03 -0.20589483686E+03  0.63326502747E+03  0.46999998093E+01 0.  1.
       -5    1    3    3    0  502 -0.30422795866E+03  0.51580536091E+03  0.97003648864E+03  0.11400011844E+04  0.46999998093E+01 0. -1.
</event>
<event>
 5   0  0.2147844E-05  0.1599752E+04  0.7818609E-02  0.8820700E-01
        2   -1    0    0  501    0  0.00000000000E+00  0.00000000000E+00  0.33735492526E+03  0.33735492527E+03  0.25500000920E-02 0. -1.
       -2   -1    0    0    0  501  0.00000000000E+00  0.00000000000E+00 -0.18965241292E+04  0.18965241292E+04  0.25500000920E-02 0.  1.
    10030    2    1    2    0    0  0.00000000000E+00  0.00000000000E+00 -0.15591692039E+04  0.22338790545E+04  0.15997521756E+04 0.  0.
        2    1    3    3  502    0  0.28323364906E+03 -0.41911691810E+03  0.85638573203E+02  0.51304410748E+03  0.25500000920E-02 0. -1.
       -2    1    3    3    0  502 -0.28323364906E+03  0.41911691810E+03 -0.16448077771E+04  0.17208349470E+04  0.25500000920E-02 0.  1.
</event>
<event>
 5   0  0.1060251E-05  0.1598967E+04  0.7818609E-02  0.8821183E-01
       -1   -1    0    0    0  501  0.00000000000E+00  0.00000000000E+00  0.46028422550E+03  0.46028422552E+03  0.50400001928E-02 0. -1.
        1   -1    0    0  501    0  0.00000000000E+00  0.00000000000E+00 -0.13886504525E+04  0.13886504525E+04  0.50400001928E-02 0.  1.
    10030    2    1    2    0    0  0.00000000000E+00  0.00000000000E+00 -0.92836622703E+03  0.18489346781E+04  0.15989670391E+04 0.  0.
        1    1    3    3  502    0  0.36852121298E+03  0.67519401329E+03 -0.21222224091E+03  0.79795558746E+03  0.50400001928E-02 0. -1.
       -1    1    3    3    0  502 -0.36852121298E+03 -0.67519401329E+03 -0.71614398612E+03  0.10509790906E+04  0.50400001928E-02 0.  1.
</event>
<event>
 5   0  0.1090674E-05  0.1599857E+04  0.7818609E-02  0.8820636E-01
       -1   -1    0    0    0  501  0.00000000000E+00  0.00000000000E+00  0.73156050608E+03  0.73156050610E+03  0.50400001928E-02 0. -1.
        1   -1    0    0  501    0  0.00000000000E+00  0.00000000000E+00 -0.87468594005E+03  0.87468594007E+03  0.50400001928E-02 0.  1.
    10030    2    1    2    0    0  0.00000000000E+00  0.00000000000E+00 -0.14312543397E+03  0.16062464462E+04  0.15998571049E+04 0.  0.
        4    1    3    3  502    0 -0.31012146225E+03 -0.34569715130E+03 -0.72547193764E+03  0.86139014794E+03  0.12699999809E+01 0.  1.
       -4    1    3    3    0  502  0.31012146225E+03  0.34569715130E+03  0.58234650367E+03  0.74485629822E+03  0.12699999809E+01 0. -1.
</event>
<event>
 5   0  0.1990948E-05  0.1600321E+04  0.7818609E-02  0.8820351E-01
       -2   -1    0    0    0  501  0.00000000000E+00  0.00000000000E+00  0.43753604811E+03  0.43753604812E+03  0.25500000920E-02 0. -1.
        2   -1    0    0  501    0  0.00000000000E+00  0.00000000000E+00 -0.14633235316E+04  0.14633235316E+04  0.25500000920E-02 0.  1.
    10030    2    1    2    0    0  0.00000000000E+00  0.00000000000E+00 -0.10257874835E+04  0.19008595797E+04  0.16003209617E+04 0.  0.
        4    1    3    3  502    0  0.39703535377E+03 -0.35352263341E+03  0.19744564946E+03  0.56709939328E+03  0.12699999809E+01 0. -1.
       -4    1    3    3    0  502 -0.39703535377E+03  0.35352263341E+03 -0.12232331330E+04  0.13337601865E+04  0.12699999809E+01 0.  1.
</event>
<event>
 5   0  0.1990948E-05  0.1600054E+04  0.7818609E-02  0.8820515E-01
       -2   -1    0    0    0  501  0.00000000000E+00  0.00000000000E+00  0.58081545928E+03  0.58081545929E+03  0.25500000920E-02 0. -1.
        2   -1    0    0  501    0  0.00000000000E+00  0.00000000000E+00 -0.11019738991E+04  0.11019738991E+04  0.25500000920E-02 0.  1.
    10030    2    1    2    0    0  0.00000000000E+00  0.00000000000E+00 -0.52115843980E+03  0.16827893584E+04  0.16000543445E+04 0.  0.
        4    1    3    3  502    0  0.17680123300E+03 -0.22882890875E+03 -0.10450858020E+04  0.10843557036E+04  0.12699999809E+01 0.  1.
       -4    1    3    3    0  502 -0.17680123300E+03  0.22882890875E+03  0.52392736217E+03  0.59843365481E+03  0.12699999809E+01 0. -1.
</event>
<event>
 5   0  0.1126485E-05  0.1599907E+04  0.7818609E-02  0.8820605E-01
        1   -1    0    0  501    0  0.00000000000E+00  0.00000000000E+00  0.42473723930E+03  0.42473723933E+03  0.50400001928E-02 0. -1.
       -1   -1    0    0    0  501  0.00000000000E+00  0.00000000000E+00 -0.15066389802E+04  0.15066389802E+04  0.50400001928E-02 0.  1.
    10030    2    1    2    0    0  0.00000000000E+00  0.00000000000E+00 -0.10819017409E+04  0.19313762195E+04  0.15999070987E+04 0.  0.
        2    1    3    3  502    0  0.43348688195E+03  0.35136324538E+03 -0.12329070354E+04  0.13533021706E+04  0.25500000920E-02 0.  1.
       -2    1    3    3    0  502 -0.43348688195E+03 -0.35136324538E+03  0.15100529452E+03  0.57807404890E+03  0.25500000920E-02 0. -1.
</event>
<event>
 5   0  0.1126485E-05  0.1599388E+04  0.7818609E-02  0.8820924E-01
       -1   -1    0    0    0  501  0.00000000000E+00  0.00000000000E+00  0.74929549400E+03  0.74929549402E+03  0.50400001928E-02 0. -1.
        1   -1    0    0  501    0  0.00000000000E+00  0.00000000000E+00 -0.85348250950E+03  0.85348250952E+03  0.50400001928E-02 0.  1.
    10030    2    1    2    0    0  0.00000000000E+00  0.00000000000E+00 -0.10418701550E+03  0.16027780035E+04  0.15993881313E+04 0.  0.
        2    1    3    3  502    0  0.85889880572E+02  0.40490608142E+02  0.74362598419E+03  0.74966403495E+03  0.25500000920E-02 0. -1.
       -2    1    3    3    0  502 -0.85889880572E+02 -0.40490608142E+02 -0.84781299970E+03  0.85311396858E+03  0.25500000920E-02 0.  1.
</event>
<event>
 5   0  0.2147844E-05  0.1599835E+04  0.7818609E-02  0.8820649E-01
       -2   -1    0    0    0  501  0.00000000000E+00  0.00000000000E+00  0.56886745409E+03  0.56886745409E+03  0.25500000920E-02 0.  1.
        2   -1    0    0  501    0  0.00000000000E+00  0.00000000000E+00 -0.11248107642E+04  0.11248107642E+04  0.25500000920E-02 0. -1.
    10030    2    1    2    0    0  0.00000000000E+00  0.00000000000E+00 -0.55594331015E+03  0.16936782183E+04  0.15998352863E+04 0.  0.
        2    1    3    3  502    0 -0.55947538159E+03  0.98041941747E+02 -0.87425388602E+03  0.10425664402E+04  0.25500000920E-02 0. -1.
       -2    1    3    3    0  502  0.55947538159E+03 -0.98041941747E+02  0.31831057587E+03  0.65111177816E+03  0.25500000920E-02 0.  1.
</event>
<event>
 5   0  0.2125803E-05  0.1600461E+04  0.7818609E-02  0.8820265E-01
       -2   -1    0    0    0  501  0.00000000000E+00  0.00000000000E+00  0.37095569807E+03  0.37095569808E+03  0.25500000920E-02 0. -1.
        2   -1    0    0  501    0  0.00000000000E+00  0.00000000000E+00 -0.17262685704E+04  0.17262685704E+04  0.25500000920E-02 0.  1.
    10030    2    1    2    0    0  0.00000000000E+00  0.00000000000E+00 -0.13553128723E+04  0.20972242684E+04  0.16004613867E+04 0.  0.
        3    1    3    3  502    0  0.69416701109E+03  0.21675567748E+03 -0.11152518113E+04  0.13314043247E+04  0.10100000352E+00 0.  1.
       -3    1    3    3    0  502 -0.69416701109E+03 -0.21675567748E+03 -0.24006106097E+03  0.76581994373E+03  0.10100000352E+00 0. -1.
</event>
<event>
 5   0  0.2147844E-05  0.1597886E+04  0.7818609E-02  0.8821848E-01
       -2   -1    0    0    0  501  0.00000000000E+00  0.00000000000E+00  0.34349021839E+03  0.34349021840E+03  0.25500000920E-02 0.  1.
        2   -1    0    0  501    0  0.00000000000E+00  0.00000000000E+00 -0.18583048628E+04  0.18583048628E+04  0.25500000920E-02 0. -1.
    10030    2    1    2    0    0  0.00000000000E+00  0.00000000000E+00 -0.15148146444E+04  0.22017950812E+04  0.15978855318E+04 0.  0.
        2    1    3    3  502    0  0.62768452880E+03 -0.19883018340E+03 -0.13809751968E+04  0.15299064690E+04  0.25500000920E-02 0. -1.
       -2    1    3    3    0  502 -0.62768452880E+03  0.19883018340E+03 -0.13383944760E+03  0.67188861225E+03  0.25500000920E-02 0.  1.
</event>
<event>
 5   0  0.2046108E-05  0.1600413E+04  0.7818609E-02  0.8820295E-01
        2   -1    0    0  501    0  0.00000000000E+00  0.00000000000E+00  0.12639686077E+04  0.12639686077E+04  0.25500000920E-02 0. -1.
       -2   -1    0    0    0  501  0.00000000000E+00  0.00000000000E+00 -0.50660287448E+03  0.50660287449E+03  0.25500000920E-02 0.  1.
    10030    2    1    2    0    0  0.00000000000E+00  0.00000000000E+00  0.75736573323E+03  0.17705714822E+04  0.16004126092E+04 0.  0.
        1    1    3    3  502    0  0.48301798604E+03 -0.59085576776E+03  0.11244468117E+03  0.77140178862E+03  0.50400001928E-02 0.  1.
       -1    1    3    3    0  502 -0.48301798604E+03  0.59085576776E+03  0.64492105207E+03  0.99916969358E+03  0.50400001928E-02 0. -1.
</event>
<event>
 5   0  0.1057506E-05  0.1599937E+04  0.7818609E-02  0.8820587E-01
        1   -1    0    0  501    0  0.00000000000E+00  0.00000000000E+00  0.95403713046E+03  0.95403713047E+03  0.50400001928E-02 0.  1.
       -1   -1    0    0    0  501  0.00000000000E+00  0.00000000000E+00 -0.67078020365E+03  0.67078020367E+03  0.50400001928E-02 0. -1.
    10030    2    1    2    0    0  0.00000000000E+00  0.00000000000E+00  0.28325692681E+03  0.16248173341E+04  0.15999365246E+04 0.  0.
        5    1    3    3  502    0  0.51022835937E+03 -0.35962605545E+03 -0.36641437379E+03  0.72384077102E+03  0.46999998093E+01 0. -1.
       -5    1    3    3    0  502 -0.51022835937E+03  0.35962605545E+03  0.64967130060E+03  0.90097656312E+03  0.46999998093E+01 0.  1.
</event>
<event>
 5   0  0.1994525E-05  0.1599880E+04  0.7818609E-02  0.8820622E-01
       -2   -1    0    0    0  501  0.00000000000E+00  0.00000000000E+00  0.86056058675E+03  0.86056058675E+03  0.25500000920E-02 0. -1.
        2   -1    0    0  501    0  0.00000000000E+00  0.00000000000E+00 -0.74359006341E+03  0.74359006341E+03  0.25500000920E-02 0.  1.
    10030    2    1    2    0    0  0.00000000000E+00  0.00000000000E+00  0.11697052334E+03  0.16041506502E+04  0.15998803721E+04 0.  0.
        5    1    3    3  502    0  0.60871632394E+03  0.47014824996E+03 -0.16189053460E+03  0.78600609105E+03  0.46999998093E+01 0.  1.
       -5    1    3    3    0  502 -0.60871632394E+03 -0.47014824996E+03  0.27886105794E+03  0.81814455912E+03  0.46999998093E+01 0. -1.
</event>
<event>
 5   0  0.1990948E-05  0.1599838E+04  0.7818609E-02  0.8820648E-01
       -2   -1    0    0    0  501  0.00000000000E+00  0.00000000000E+00  0.46719902875E+03  0.46719902876E+03  0.25500000920E-02 0.  1.
        2   -1    0    0  501    0  0.00000000000E+00  0.00000000000E+00 -0.13695883256E+04  0.13695883256E+04  0.25500000920E-02 0. -1.
    10030    2    1    2    0    0  0.00000000000E+00  0.00000000000E+00 -0.90238929681E+03  0.18367873543E+04  0.15998379112E+04 0.  0.
        4    1    3    3  502    0  0.35629076379E+03 -0.56432090026E+03  0.55103631883E+02  0.66965603856E+03  0.12699999809E+01 0.  1.
       -4    1    3    3    0  502 -0.35629076379E+03  0.56432090026E+03 -0.95749292870E+03  0.11671313158E+04  0.12699999809E+01 0. -1.
</event>
<event>
 5   0  0.2147844E-05  0.1599769E+04  0.7818609E-02  0.8820690E-01
        2   -1    0    0  501    0  0.00000000000E+00  0.00000000000E+00  0.11162130222E+04  0.11162130222E+04  0.25500000920E-02 0. -1.
       -2   -1    0    0    0  501  0.00000000000E+00  0.00000000000E+00 -0.57320161094E+03  0.57320161095E+03  0.25500000920E-02 0.  1.
    10030    2    1    2    0    0  0.00000000000E+00  0.00000000000E+00  0.54301141127E+03  0.16894146332E+04  0.15997688614E+04 0.  0.
        2    1    3    3  502    0  0.30998738424E+03 -0.54530879949E+02 -0.50505783764E+03  0.59510437288E+03  0.25500000920E-02 0.  1.
       -2    1    3    3    0  502 -0.30998738424E+03  0.54530879949E+02  0.10480692489E+04  0.10943102603E+04  0.25500000920E-02 0. -1.
</event>
<event>
 5   0  0.1081831E-05  0.1600769E+04  0.7818609E-02  0.8820076E-01
       -1   -1    0    0    0  501  0.00000000000E+00  0.00000000000E+00  0.48024717396E+03  0.48024717399E+03  0.50400001928E-02 0.  1.
        1   -1    0    0  501    0  0.00000000000E+00  0.00000000000E+00 -0.13339288458E+04  0.13339288458E+04  0.50400001928E-02 0. -1.
    10030    2    1    2    0    0  0.00000000000E+00  0.00000000000E+00 -0.85368167183E+03  0.18141760198E+04  0.16007692632E+04 0.  0.
        3    1    3    3  502    0  0.30423363742E+03  0.38510484397E+02  0.41102662108E+03  0.51281971197E+03  0.10100000352E+00 0.  1.
       -3    1    3    3    0  502 -0.30423363742E+03 -0.38510484397E+02 -0.12647082929E+04  0.13013563078E+04  0.10100000352E+00 0. -1.
</event>
<event>
 5   0  0.1057506E-05  0.1600805E+04  0.7818609E-02  0.8820054E-01
        1   -1    0    0  501    0  0.00000000000E+00  0.00000000000E+00  0.54189451832E+03  0.54189451834E+03  0.50400001928E-02 0. -1.
       -1   -1    0    0    0  501  0.00000000000E+00  0.00000000000E+00 -0.11822297723E+04  0.11822297723E+04  0.50400001928E-02 0.  1.
    10030    2    1    2    0    0  0.00000000000E+00  0.00000000000E+00 -0.64033525400E+03  0.17241242907E+04  0.16008045890E+04 0.  0.
        5    1    3    3  502    0  0.19950789292E+03  0.17167216460E+03  0.49393701299E+03  0.55970581044E+03  0.46999998093E+01 0. -1.
       -5    1    3    3    0  502 -0.19950789292E+03 -0.17167216460E+03 -0.11342722670E+04  0.11644184802E+04  0.46999998093E+01 0.  1.
</event>
<event>
 5   0  0.2046108E-05  0.1600685E+04  0.7818609E-02  0.8820128E-01
       -2   -1    0    0    0  501  0.00000000000E+00  0.00000000000E+00  0.30343576644E+03  0.30343576645E+03  0.25500000920E-02 0.  1.
        2   -1    0    0  501    0  0.00000000000E+00  0.00000000000E+00 -0.21109829711E+04  0.21109829711E+04  0.25500000920E-02 0. -1.
    10030    2    1    2    0    0  0.00000000000E+00  0.00000000000E+00 -0.18075472047E+04  0.24144187376E+04  0.16006845233E+04 0.  0.
        1    1    3    3  502    0  0.64368489102E+03 -0.12623403340E+03 -0.21208857086E+03  0.68938148512E+03  0.50400001928E-02 0.  1.
       -1    1    3    3    0  502 -0.64368489102E+03  0.12623403340E+03 -0.15954586338E+04  0.17250372524E+04  0.50400001928E-02 0. -1.
</event>
<event>
 5   0  0.1994525E-05  0.1599713E+04  0.7818609E-02  0.8820724E-01
       -2   -1    0    0    0  501  0.00000000000E+00  0.00000000000E+00  0.71937336103E+03  0.71937336103E+03  0.25500000920E-02 0. -1.
        2   -1    0    0  501    0  0.00000000000E+00  0.00000000000E+00 -0.88934391895E+03  0.88934391896E+03  0.25500000920E-02 0.  1.
    10030    2    1    2    0    0  0.00000000000E+00  0.00000000000E+00 -0.16997055793E+03  0.16087172800E+04  0.15997128794E+04 0.  0.
        5    1    3    3  502    0 -0.59760938538E+03 -0.50857810142E+03  0.70674786032E+02  0.78791222742E+03  0.46999998093E+01 0.  1.
       -5    1    3    3    0  502  0.59760938538E+03  0.50857810142E+03 -0.24064534396E+03  0.82080505256E+03  0.46999998093E+01 0. -1.
</event>
<event>
 5   0  0.1994525E-05  0.1599750E+04  0.7818609E-02  0.8820701E-01
        2   -1    0    0  501    0  0.00000000000E+00  0.00000000000E+00  0.35560832337E+03  0.35560832338E+03  0.25500000920E-02 0. -1.
       -2   -1    0    0    0  501  0.00000000000E+00  0.00000000000E+00 -0.17991715754E+04  0.17991715754E+04  0.25500000920E-02 0.  1.
    10030    2    1    2    0    0  0.00000000000E+00  0.00000000000E+00 -0.14435632520E+04  0.21547798988E+04  0.15997504648E+04 0.  0.
        5    1    3    3  502    0 -0.64376490051E+03  0.26391187989E+03 -0.19029933517E+03  0.72133116836E+03  0.46999998093E+01 0.  1.
       -5    1    3    3    0  502  0.64376490051E+03 -0.26391187989E+03 -0.12532639168E+04  0.14334487304E+04  0.46999998093E+01 0. -1.
</event>
<event>
 5   0  0.1090674E-05  0.1599999E+04  0.7818609E-02  0.8820549E-01
       -1   -1    0    0    0  501  0.00000000000E+00  0.00000000000E+00  0.67392287786E+03  0.67392287788E+03  0.50400001928E-02 0.  1.
        1   -1    0    0  501    0  0.00000000000E+00  0.00000000000E+00 -0.94966238365E+03  0.94966238366E+03  0.50400001928E-02 0. -1.
    10030    2    1    2    0    0  0.00000000000E+00  0.00000000000E+00 -0.27573950579E+03  0.16235852615E+04  0.15999990083E+04 0.  0.
        4    1    3    3  502    0 -0.52233238339E+03  0.98246701390E+02 -0.74460880703E+03  0.91483737434E+03  0.12699999809E+01 0. -1.
       -4    1    3    3    0  502  0.52233238339E+03 -0.98246701390E+02  0.46886930124E+03  0.70874788721E+03  0.12699999809E+01 0.  1.
</event>
<event>
 5   0  0.1090674E-05  0.1599715E+04  0.7818609E-02  0.8820723E-01
       -1   -1    0    0    0  501  0.00000000000E+00  0.00000000000E+00  0.46723312253E+03  0.46723312256E+03  0.50400001928E-02 0. -1.
        1   -1    0    0  501    0  0.00000000000E+00  0.00000000000E+00 -0.13692782836E+04  0.13692782836E+04  0.50400001928E-02 0.  1.
    10030    2    1    2    0    0  0.00000000000E+00  0.00000000000E+00 -0.90204516105E+03  0.18365114061E+04  0.15997151848E+04 0.  0.
        4    1    3    3  502    0  0.65840429369E+02 -0.48971869243E+03 -0.11731024694E+04  0.12729219836E+04  0.12699999809E+01 0.  1.
       -4    1    3    3    0  502 -0.65840429369E+02  0.48971869243E+03  0.27105730834E+03  0.56358942250E+03  0.12699999809E+01 0. -1.
</event>
<event>
 5   0  0.1126485E-05  0.1599409E+04  0.7818609E-02  0.8820911E-01
       -1   -1    0    0    0  501  0.00000000000E+00  0.00000000000E+00  0.74432045309E+03  0.74432045310E+03  0.50400001928E-02 0. -1.
        1   -1    0    0  501    0  0.00000000000E+00  0.00000000000E+00 -0.85920931336E+03  0.85920931338E+03  0.50400001928E-02 0.  1.
    10030    2    1    2    0    0  0.00000000000E+00  0.00000000000E+00 -0.11488886028E+03  0.16035297665E+04  0.15994087226E+04 0.  0.
        2    1    3    3  502    0 -0.46842579672E+03 -0.16941300566E+03  0.56979009930E+03  0.75682511242E+03  0.25500000920E-02 0. -1.
       -2    1    3    3    0  502  0.46842579672E+03  0.16941300566E+03 -0.68467895958E+03  0.84670465406E+03  0.25500000920E-02 0.  1.
</event>
<event>
 5   0  0.2046108E-05  0.1600535E+04  0.7818609E-02  0.8820219E-01
        2   -1    0    0  501    0  0.00000000000E+00  0.00000000000E+00  0.15331043607E+04  0.15331043607E+04  0.25500000920E-02 0.  1.
       -2   -1    0    0    0  501  0.00000000000E+00  0.00000000000E+00 -0.41773283999E+03  0.41773284000E+03  0.25500000920E-02 0. -1.
    10030    2    1    2    0    0  0.00000000000E+00  0.00000000000E+00  0.11153715207E+04  0.19508372007E+04  0.16005349588E+04 0.  0.
        1    1    3    3  502    0 -0.63781746843E+02  0.76405159877E+03  0.83718918981E+03  0.11352218710E+04  0.50400001928E-02 0. -1.
       -1    1    3    3    0  502  0.63781746843E+02 -0.76405159877E+03  0.27818233092E+03  0.81561532973E+03  0.50400001928E-02 0.  1.
</event>
<event>
 5   0  0.1994525E-05  0.1601109E+04  0.7818609E-02  0.8819867E-01
        2   -1    0    0  501    0  0.00000000000E+00  0.00000000000E+00  0.60000051997E+03  0.60000051997E+03  0.25500000920E-02 0. -1.
       -2   -1    0    0    0  501  0.00000000000E+00  0.00000000000E+00 -0.10681442860E+04  0.10681442860E+04  0.25500000920E-02 0.  1.
    10030    2    1    2    0    0  0.00000000000E+00  0.00000000000E+00 -0.46814376602E+03  0.16681448060E+04  0.16011085247E+04 0.  0.
        5    1    3    3  502    0  0.45472033455E+03 -0.65882923664E+03 -0.22760798853E+03  0.83225839265E+03  0.46999998093E+01 0.  1.
       -5    1    3    3    0  502 -0.45472033455E+03  0.65882923664E+03 -0.24053577749E+03  0.83588641331E+03  0.46999998093E+01 0. -1.
</event>
<event>
 5   0  0.2125803E-05  0.1599969E+04  0.7818609E-02  0.8820567E-01
        2   -1    0    0  501    0  0.00000000000E+00  0.00000000000E+00  0.20307614904E+04  0.20307614904E+04  0.25500000920E-02 0.  1.
       -2   -1    0    0    0  501  0.00000000000E+00  0.00000000000E+00 -0.31514068902E+03  0.31514068903E+03  0.25500000920E-02 0. -1.
    10030    2    1    2    0    0  0.00000000000E+00  0.00000000000E+00  0.17156208014E+04  0.23459021794E+04  0.15999694689E+04 0.  0.
        3    1    3    3  502    0  0.66725027795E+03 -0.31410402849E+03  0.13123170251E+04  0.15053439005E+04  0.10100000352E+00 0.  1.
       -3    1    3    3    0  502 -0.66725027795E+03  0.31410402849E+03  0.40330377625E+03  0.84055827893E+03  0.10100000352E+00 0. -1.
</event>
<event>
 5   0  0.1090674E-05  0.1598596E+04  0.7818609E-02  0.8821411E-01
        1   -1    0    0  501    0  0.00000000000E+00  0.00000000000E+00  0.10860102629E+04  0.10860102629E+04  0.50400001928E-02 0.  1.
       -1   -1    0    0    0  501  0.00000000000E+00  0.00000000000E+00 -0.58827940177E+03  0.58827940179E+03  0.50400001928E-02 0. -1.
    10030    2    1    2    0    0  0.00000000000E+00  0.00000000000E+00  0.49773086115E+03  0.16742896647E+04  0.15985962189E+04 0.  0.
        4    1    3    3  502    0 -0.67519821335E+03  0.31857439576E+03 -0.50122404486E+02  0.74826208061E+03  0.12699999809E+01 0. -1.
       -4    1    3    3    0  502  0.67519821335E+03 -0.31857439576E+03  0.54785326563E+03  0.92602758410E+03  0.12699999809E+01 0.  1.
</event>
<event>
 5   0  0.2046108E-05  0.1603756E+04  0.7818609E-02  0.8818244E-01
        2   -1    0    0  501    0  0.00000000000E+00  0.00000000000E+00  0.32804356713E+04  0.32804356713E+04  0.25500000920E-02 0.  1.
       -2   -1    0    0    0  501  0.00000000000E+00  0.00000000000E+00 -0.19601307120E+03  0.19601307122E+03  0.25500000920E-02 0. -1.
    10030    2    1    2    0    0  0.00000000000E+00  0.00000000000E+00  0.30844226001E+04  0.34764487425E+04  0.16037559301E+04 0.  0.
        1    1    3    3  502    0 -0.61998861346E+02  0.58723509979E+02  0.32705510289E+04  0.32716656831E+04  0.50400001928E-02 0.  1.
       -1    1    3    3    0  502  0.61998861346E+02 -0.58723509979E+02 -0.18612842874E+03  0.20478305946E+03  0.50400001928E-02 0. -1.
</event>
<event>
 5   0  0.1090674E-05  0.1598494E+04  0.7818609E-02  0.8821473E-01
        1   -1    0    0  501    0  0.00000000000E+00  0.00000000000E+00  0.14484370491E+04  0.14484370491E+04  0.50400001928E-02 0. -1.
       -1   -1    0    0    0  501  0.00000000000E+00  0.00000000000E+00 -0.44102439737E+03  0.44102439740E+03  0.50400001928E-02 0.  1.
    10030    2    1    2    0    0  0.00000000000E+00  0.00000000000E+00  0.10074126517E+04  0.18894614465E+04  0.15984943875E+04 0.  0.
        4    1    3    3  502    0  0.27889041593E+03 -0.74860686231E+03  0.47469571049E+03  0.92926300306E+03  0.12699999809E+01 0. -1.
       -4    1    3    3    0  502 -0.27889041593E+03  0.74860686231E+03  0.53271694121E+03  0.96019844342E+03  0.12699999809E+01 0.  1.
</event>
<event>
 5   0  0.2125803E-05  0.1599544E+04  0.7818609E-02  0.8820828E-01
       -2   -1    0    0    0  501  0.00000000000E+00  0.00000000000E+00  0.11414736206E+04  0.11414736206E+04  0.25500000920E-02 0. -1.
        2   -1    0    0  501    0  0.00000000000E+00  0.00000000000E+00 -0.56035955556E+03  0.56035955557E+03  0.25500000920E-02 0.  1.
    10030    2    1    2    0    0  0.00000000000E+00  0.00000000000E+00  0.58111406500E+03  0.17018331761E+04  0.15995444985E+04 0.  0.
        3    1    3    3  502    0 -0.56760193391E+03 -0.51494477032E+03  0.47250872708E+02  0.76783639340E+03  0.10100000352E+00 0.  1.
       -3    1    3    3    0  502  0.56760193391E+03  0.51494477032E+03  0.53386319229E+03  0.93399678273E+03  0.10100000352E+00 0. -1.
</event>
<event>
 5   0  0.1990948E-05  0.1599878E+04  0.7818609E-02  0.8820623E-01
       -2   -1    0    0    0  501  0.00000000000E+00  0.00000000000E+00  0.52431658356E+03  0.52431658357E+03  0.25500000920E-02 0.  1.
        2   -1    0    0  501    0  0.00000000000E+00  0.00000000000E+00 -0.12204501215E+04  0.12204501215E+04  0.25500000920E-02 0. -1.
    10030    2    1    2    0    0  0.00000000000E+00  0.00000000000E+00 -0.69613353792E+03  0.17447667050E+04  0.15998777930E+04 0.  0.
        4    1    3    3  502    0 -0.40921133158E+03  0.60327823379E+03 -0.70729428449E+03  0.10157092886E+04  0.12699999809E+01 0. -1.
       -4    1    3    3    0  502  0.40921133158E+03 -0.60327823379E+03  0.11160746569E+02  0.72905741641E+03  0.12699999809E+01 0.  1.
</event>
<event>
 5   0  0.1060251E-05  0.1599591E+04  0.7818609E-02  0.8820799E-01
        1   -1    0    0  501    0  0.00000000000E+00  0.00000000000E+00  0.82254474179E+03  0.82254474180E+03  0.50400001928E-02 0. -1.
       -1   -1    0    0    0  501  0.00000000000E+00  0.00000000000E+00 -0.77767570836E+03  0.77767570837E+03  0.50400001928E-02 0.  1.
    10030    2    1    2    0    0  0.00000000000E+00  0.00000000000E+00  0.44869033432E+02  0.16002204502E+04  0.15995912787E+04 0.  0.
        1    1    3    3  502    0 -0.20568248060E+03 -0.41200699990E+03 -0.63174777617E+03  0.78176742290E+03  0.50400001928E-02 0.  1.
       -1    1    3    3    0  502  0.20568248060E+03  0.41200699990E+03  0.67661680960E+03  0.81845302727E+03  0.50400001928E-02 0. -1.
</event>
<event>
 5   0  0.2046108E-05  0.1600893E+04  0.7818609E-02  0.8819999E-01
       -2   -1    0    0    0  501  0.00000000000E+00  0.00000000000E+00  0.85414316436E+03  0.85414316436E+03  0.25500000920E-02 0.  1.
        2   -1    0    0  501    0  0.00000000000E+00  0.00000000000E+00 -0.75012594243E+03  0.75012594243E+03  0.25500000920E-02 0. -1.
    10030    2    1    2    0    0  0.00000000000E+00  0.00000000000E+00  0.10401722193E+03  0.16042691068E+04  0.16008934332E+04 0.  0.
        1    1    3    3  502    0 -0.56879294832E+03  0.18338202063E+03 -0.48161828629E+03  0.76753537851E+03  0.50400001928E-02 0. -1.
       -1    1    3    3    0  502  0.56879294832E+03 -0.18338202063E+03  0.58563550822E+03  0.83673372829E+03  0.50400001928E-02 0.  1.
</event>
<event>
 5   0  0.1057506E-05  0.1600183E+04  0.7818609E-02  0.8820436E-01
        1   -1    0    0  501    0  0.00000000000E+00  0.00000000000E+00  0.82517160755E+03  0.82517160757E+03  0.50400001928E-02 0. -1.
       -1   -1    0    0    0  501  0.00000000000E+00  0.00000000000E+00 -0.77577347688E+03  0.77577347689E+03  0.50400001928E-02 0.  1.
    10030    2    1    2    0    0  0.00000000000E+00  0.00000000000E+00  0.49398130674E+02  0.16009450845E+04  0.16001827984E+04 0.  0.
        5    1    3    3  502    0 -0.16230130519E+03  0.77680819290E+02 -0.75525433257E+03  0.77640660753E+03  0.46999998093E+01 0.  1.
       -5    1    3    3    0  502  0.16230130519E+03 -0.77680819290E+02  0.80465246324E+03  0.82453847694E+03  0.46999998093E+01 0. -1.
</event>
<event>
 5   0  0.1057506E-05  0.1600382E+04  0.7818609E-02  0.8820314E-01
        1   -1    0    0  501    0  0.00000000000E+00  0.00000000000E+00  0.69963053527E+03  0.69963053529E+03  0.50400001928E-02 0. -1.
       -1   -1    0    0    0  501  0.00000000000E+00  0.00000000000E+00 -0.91520500259E+03  0.91520500260E+03  0.50400001928E-02 0.  1.
    10030    2    1    2    0    0  0.00000000000E+00  0.00000000000E+00 -0.21557446732E+03  0.16148355379E+04  0.16003816618E+04 0.  0.
        5    1    3    3  502    0 -0.48759048995E+03  0.37162985498E+02 -0.74687764230E+03  0.89273393346E+03  0.46999998093E+01 0.  1.
       -5    1    3    3    0  502  0.48759048995E+03 -0.37162985498E+02  0.53130317498E+03  0.72210160443E+03  0.46999998093E+01 0. -1.
</event>
<event>
 5   0  0.1060251E-05  0.1599532E+04  0.7818609E-02  0.8820835E-01
       -1   -1    0    0    0  501  0.00000000000E+00  0.00000000000E+00  0.69336240755E+03  0.69336240757E+03  0.50400001928E-02 0.  1.
        1   -1    0    0  501    0  0.00000000000E+00  0.00000000000E+00 -0.92249866068E+03  0.92249866069E+03  0.50400001928E-02 0. -1.
    10030    2    1    2    0    0  0.00000000000E+00  0.00000000000E+00 -0.22913625313E+03  0.16158610683E+04  0.15995322971E+04 0.  0.
        1    1    3    3  502    0  0.33500357454E+03 -0.52348313826E+03  0.39392299299E+03  0.73582424222E+03  0.50400001928E-02 0.  1.
       -1    1    3    3    0  502 -0.33500357454E+03  0.52348313826E+03 -0.62305924611E+03  0.88003682605E+03  0.50400001928E-02 0. -1.
</event>
<event>
 5   0  0.1081831E-05  0.1599839E+04  0.7818609E-02  0.8820647E-01
       -1   -1    0    0    0  501  0.00000000000E+00  0.00000000000E+00  0.45188728520E+03  0.45188728523E+03  0.50400001928E-02 0.  1.
        1   -1    0    0  501    0  0.00000000000E+00  0.00000000000E+00 -0.14159970122E+04  0.14159970122E+04  0.50400001928E-02 0. -1.
    10030    2    1    2    0    0  0.00000000000E+00  0.00000000000E+00 -0.96410972704E+03  0.18678842975E+04  0.15998387991E+04 0.  0.
        3    1    3    3  502    0 -0.51263581296E+03  0.58930542818E+03 -0.28052331389E+03  0.82992150487E+03  0.10100000352E+00 0.  1.
       -3    1    3    3    0  502  0.51263581296E+03 -0.58930542818E+03 -0.68358641315E+03  0.10379627926E+04  0.10100000352E+00 0. -1.
</event>
<event>
 5   0  0.1081831E-05  0.1599900E+04  0.7818609E-02  0.8820610E-01
        1   -1    0    0  501    0  0.00000000000E+00  0.00000000000E+00  0.10368424737E+04  0.10368424737E+04  0.50400001928E-02 0.  1.
       -1   -1    0    0    0  501  0.00000000000E+00  0.00000000000E+00 -0.61718127667E+03  0.61718127669E+03  0.50400001928E-02 0. -1.
    10030    2    1    2    0    0  0.00000000000E+00  0.00000000000E+00  0.41966119704E+03  0.16540237504E+04  0.15998996989E+04 0.  0.
        3    1    3    3  502    0 -0.42522988866E+03 -0.41679327480E+03 -0.34245379998E+03  0.68688551262E+03  0.10100000352E+00 0. -1.
       -3    1    3    3    0  502  0.42522988866E+03  0.41679327480E+03  0.76211499702E+03  0.96713823780E+03  0.10100000352E+00 0.  1.
</event>
<event>
 5   0  0.1090674E-05  0.1599526E+04  0.7818609E-02  0.8820839E-01
        1   -1    0    0  501    0  0.00000000000E+00  0.00000000000E+00  0.18234558801E+04  0.18234558801E+04  0.50400001928E-02 0.  1.
       -1   -1    0    0    0  501  0.00000000000E+00  0.00000000000E+00 -0.35077381740E+03  0.35077381743E+03  0.50400001928E-02 0. -1.
    10030    2    1    2    0    0  0.00000000000E+00  0.00000000000E+00  0.14726820627E+04  0.21742296975E+04  0.15995256546E+04 0.  0.
        4    1    3    3  502    0  0.54664503681E+03 -0.38341074904E+03  0.13795039443E+03  0.68180387427E+03  0.12699999809E+01 0. -1.
       -4    1    3    3    0  502 -0.54664503681E+03  0.38341074904E+03  0.13347316682E+04  0.14924258232E+04  0.12699999809E+01 0.  1.
</event>
<event>
 5   0  0.1081831E-05  0.1601487E+04  0.7818609E-02  0.8819635E-01
       -1   -1    0    0    0  501  0.00000000000E+00  0.00000000000E+00  0.56219851024E+03  0.56219851026E+03  0.50400001928E-02 0.  1.
        1   -1    0    0  501    0  0.00000000000E+00  0.00000000000E+00 -0.11405055859E+04  0.11405055859E+04  0.50400001928E-02 0. -1.
    10030    2    1    2    0    0  0.00000000000E+00  0.00000000000E+00 -0.57830707564E+03  0.17027040962E+04  0.16014874852E+04 0.  0.
        3    1    3    3  502    0  0.71844727666E+03  0.35275864137E+03 -0.31487736509E+03  0.86008889869E+03  0.10100000352E+00 0.  1.
       -3    1    3    3    0  502 -0.71844727666E+03 -0.35275864137E+03 -0.26342971055E+03  0.84261519747E+03  0.10100000352E+00 0. -1.
</event>
<event>
 5   0  0.1060251E-05  0.1600082E+04  0.7818609E-02  0.8820497E-01
       -1   -1    0    0    0  501  0.00000000000E+00  0.00000000000E+00  0.93221944078E+03  0.93221944079E+03  0.50400001928E-02 0.  1.
        1   -1    0    0  501    0  0.00000000000E+00  0.00000000000E+00 -0.68660419167E+03  0.68660419168E+03  0.50400001928E-02 0. -1.
    10030    2    1    2    0    0  0.00000000000E+00  0.00000000000E+00  0.24561524911E+03  0.16188236325E+04  0.16000822174E+04 0.  0.
        1    1    3    3  502    0 -0.19814527402E+02  0.10773607490E+03  0.92459629089E+03  0.93106282199E+03  0.50400001928E-02 0.  1.
       -1    1    3    3    0  502  0.19814527402E+02 -0.10773607490E+03 -0.67898104178E+03  0.68776081049E+03  0.50400001928E-02 0. -1.
</event>
<event>
 5   0  0.1057506E-05  0.1599873E+04  0.7818609E-02  0.8820626E-01
        1   -1    0    0  501    0  0.00000000000E+00  0.00000000000E+00  0.11660411644E+04  0.11660411645E+04  0.50400001928E-02 0. -1.
       -1   -1    0    0    0  501  0.00000000000E+00  0.00000000000E+00 -0.54877851119E+03  0.54877851121E+03  0.50400001928E-02 0.  1.
    10030    2    1    2    0    0  0.00000000000E+00  0.00000000000E+00  0.61726265326E+03  0.17148196757E+04  0.15998729128E+04 0.  0.
        5    1    3    3  502    0 -0.18435702996E+03  0.61763134123E+03  0.81639777333E+03  0.10401843118E+04  0.46999998093E+01 0. -1.
       -5    1    3    3    0  502  0.18435702996E+03 -0.61763134123E+03 -0.19913512007E+03  0.67463536389E+03  0.46999998093E+01 0.  1.
</event>
<event>
 5   0  0.2125803E-05  0.1599982E+04  0.7818609E-02  0.8820559E-01
        2   -1    0    0  501    0  0.00000000000E+00  0.00000000000E+00  0.12411696107E+04  0.12411696107E+04  0.25500000920E-02 0. -1.
       -2   -1    0    0    0  501  0.00000000000E+00  0.00000000000E+00 -0.51563073838E+03  0.51563073838E+03  0.25500000920E-02 0.  1.
    10030    2    1    2    0    0  0.00000000000E+00  0.00000000000E+00  0.72553887232E+03  0.17568003491E+04  0.15999815034E+04 0.  0.
        3    1    3    3  502    0 -0.44240820233E+03  0.10878684267E+03  0.10848125731E+04  0.11765959050E+04  0.10100000352E+00 0. -1.
       -3    1    3    3    0  502  0.44240820233E+03 -0.10878684267E+03 -0.35927370082E+03  0.58020444408E+03  0.10100000352E+00 0.  1.
</event>
<event>
 5   0  0.2147844E-05  0.1600382E+04  0.7818609E-02  0.8820314E-01
        2   -1    0    0  501    0  0.00000000000E+00  0.00000000000E+00  0.21550892643E+04  0.21550892643E+04  0.25500000920E-02 0. -1.
       -2   -1    0    0    0  501  0.00000000000E+00  0.00000000000E+00 -0.29711317390E+03  0.29711317391E+03  0.25500000920E-02 0.  1.
    10030    2    1    2    0    0  0.00000000000E+00  0.00000000000E+00  0.18579760904E+04  0.24522024382E+04  0.16003817187E+04 0.  0.
        2    1    3    3  502    0  0.28857540741E+03  0.31073555300E+03 -0.11077613608E+03  0.43829636320E+03  0.25500000920E-02 0.  1.
       -2    1    3    3    0  502 -0.28857540741E+03 -0.31073555300E+03  0.19687522265E+04  0.20139060750E+04  0.25500000920E-02 0. -1.
</event>
<event>
 5   0  0.1057506E-05  0.1599656E+04  0.7818609E-02  0.8820759E-01
       -1   -1    0    0    0  501  0.00000000000E+00  0.00000000000E+00  0.73191482375E+03  0.73191482377E+03  0.50400001928E-02 0. -1.
        1   -1    0    0  501    0  0.00000000000E+00  0.00000000000E+00 -0.87404251874E+03  0.87404251875E+03  0.50400001928E-02 0.  1.
    10030    2    1    2    0    0  0.00000000000E+00  0.00000000000E+00 -0.14212769499E+03  0.16059573425E+04  0.15996558081E+04 0.  0.
        5    1    3    3  502    0  0.71785141148E+03 -0.11132520475E+03  0.26491646118E+03  0.77324431558E+03  0.46999998093E+01 0. -1.
       -5    1    3    3    0  502 -0.71785141148E+03  0.11132520475E+03 -0.40704415616E+03  0.83271302694E+03  0.46999998093E+01 0.  1.
</event>
<event>
 5   0  0.2125803E-05  0.1608466E+04  0.7818609E-02  0.8815364E-01
       -2   -1    0    0    0  501  0.00000000000E+00  0.00000000000E+00  0.21395656210E+03  0.21395656212E+03  0.25500000920E-02 0.  1.
        2   -1    0    0  501    0  0.00000000000E+00  0.00000000000E+00 -0.30229986684E+04  0.30229986684E+04  0.25500000920E-02 0. -1.
    10030    2    1    2    0    0  0.00000000000E+00  0.00000000000E+00 -0.28090421063E+04  0.32369552305E+04  0.16084656072E+04 0.  0.
        3    1    3    3  502    0  0.11975173213E+03 -0.12112389047E+03 -0.29862842102E+04  0.29911377214E+04  0.10100000352E+00 0. -1.
       -3    1    3    3    0  502 -0.11975173213E+03  0.12112389047E+03  0.17724210389E+03  0.24581750911E+03  0.10100000352E+00 0.  1.
</event>
<event>
 5   0  0.2046108E-05  0.1600097E+04  0.7818609E-02  0.8820489E-01
       -2   -1    0    0    0  501  0.00000000000E+00  0.00000000000E+00  0.30603855445E+03  0.30603855446E+03  0.25500000920E-02 0.  1.
        2   -1    0    0  501    0  0.00000000000E+00  0.00000000000E+00 -0.20914921979E+04  0.20914921979E+04  0.25500000920E-02 0. -1.
    10030    2    1    2    0    0  0.00000000000E+00  0.00000000000E+00 -0.17854536435E+04  0.23975307524E+04  0.16000965582E+04 0.  0.
        1    1    3    3  502    0 -0.75410270398E+03 -0.15505672909E+03 -0.56663407870E+03  0.95592241136E+03  0.50400001928E-02 0.  1.
       -1    1    3    3    0  502  0.75410270398E+03  0.15505672909E+03 -0.12188195648E+04  0.14416083410E+04  0.50400001928E-02 0. -1.
</event>
<event>
 5   0  0.1990948E-05  0.1601091E+04  0.7818609E-02  0.8819878E-01
        2   -1    0    0  501    0  0.00000000000E+00  0.00000000000E+00  0.74419770139E+03  0.74419770139E+03  0.25500000920E-02 0. -1.
       -2   -1    0    0    0  501  0.00000000000E+00  0.00000000000E+00 -0.86115961775E+03  0.86115961775E+03  0.25500000920E-02 0.  1.
    10030    2    1    2    0    0  0.00000000000E+00  0.00000000000E+00 -0.11696191636E+03  0.16053573191E+04  0.16010908882E+04 0.  0.
        4    1    3    3  502    0  0.40344285355E+03  0.22951149408E+03 -0.71246875728E+03  0.85032641085E+03  0.12699999809E+01 0.  1.
       -4    1    3    3    0  502 -0.40344285355E+03 -0.22951149408E+03  0.59550684092E+03  0.75503090829E+03  0.12699999809E+01 0. -1.
</event>
<event>
 5   0  0.2147844E-05  0.1599686E+04  0.7818609E-02  0.8820741E-01
        2   -1    0    0  501    0  0.00000000000E+00  0.00000000000E+00  0.11855938872E+04  0.11855938872E+04  0.25500000920E-02 0. -1.
       -2   -1    0    0    0  501  0.00000000000E+00  0.00000000000E+00 -0.53960230951E+03  0.53960230952E+03  0.25500000920E-02 0.  1.
    10030    2    1    2    0    0  0.00000000000E+00  0.00000000000E+00  0.64599157766E+03  0.17251961967E+04  0.15996864689E+04 0.  0.
        2    1    3    3  502    0  0.63838383627E+03  0.10693160410E+03 -0.18374326897E+03  0.67285204857E+03  0.25500000920E-02 0.  1.
       -2    1    3    3    0  502 -0.63838383627E+03 -0.10693160410E+03  0.82973484663E+03  0.10523441481E+04  0.25500000920E-02 0. -1.
</event>
<event>
 5   0  0.1057506E-05  0.1600396E+04  0.7818609E-02  0.8820304E-01
        1   -1    0    0  501    0  0.00000000000E+00  0.00000000000E+00  0.15950720333E+04  0.15950720333E+04  0.50400001928E-02 0.  1.
       -1   -1    0    0    0  501  0.00000000000E+00  0.00000000000E+00 -0.40143466943E+03  0.40143466946E+03  0.50400001928E-02 0. -1.
    10030    2    1    2    0    0  0.00000000000E+00  0.00000000000E+00  0.11936373639E+04  0.19965067028E+04  0.16003964689E+04 0.  0.
        5    1    3    3  502    0  0.71976646667E+03  0.29261912457E+03  0.83549855663E+03  0.11409512026E+04  0.46999998093E+01 0.  1.
       -5    1    3    3    0  502 -0.71976646667E+03 -0.29261912457E+03  0.35813880724E+03  0.85555550016E+03  0.46999998093E+01 0. -1.
</event>
<event>
 5   0  0.2147844E-05  0.1600096E+04  0.7818609E-02  0.8820489E-01
       -2   -1    0    0    0  501  0.00000000000E+00  0.00000000000E+00  0.45611205162E+03  0.45611205163E+03  0.25500000920E-02 0. -1.
        2   -1    0    0  501    0  0.00000000000E+00  0.00000000000E+00 -0.14033316976E+04  0.14033316976E+04  0.25500000920E-02 0.  1.
    10030    2    1    2    0    0  0.00000000000E+00  0.00000000000E+00 -0.94721964597E+03  0.18594437492E+04  0.16000956218E+04 0.  0.
        2    1    3    3  502    0  0.50250790659E+02  0.31612650666E+03 -0.13256752698E+04  0.13637727198E+04  0.25500000920E-02 0.  1.
       -2    1    3    3    0  502 -0.50250790659E+02 -0.31612650666E+03  0.37845562387E+03  0.49567102943E+03  0.25500000920E-02 0. -1.
</event>
<event>
 5   0  0.1057506E-05  0.1599438E+04  0.7818609E-02  0.8820894E-01
       -1   -1    0    0    0  501  0.00000000000E+00  0.00000000000E+00  0.67891946231E+03  0.67891946233E+03  0.50400001928E-02 0. -1.
        1   -1    0    0  501    0  0.00000000000E+00  0.00000000000E+00 -0.94201190155E+03  0.94201190157E+03  0.50400001928E-02 0.  1.
    10030    2    1    2    0    0  0.00000000000E+00  0.00000000000E+00 -0.26309243924E+03  0.16209313639E+04  0.15994376683E+04 0.  0.
        5    1    3    3  502    0  0.11744921878E+02  0.30189257151E+03  0.61884379126E+03  0.68867031002E+03  0.46999998093E+01 0. -1.
       -5    1    3    3    0  502 -0.11744921878E+02 -0.30189257151E+03 -0.88193623050E+03  0.93226105388E+03  0.46999998093E+01 0.  1.
</event>
<event>
 5   0  0.1090674E-05  0.1599969E+04  0.7818609E-02  0.8820567E-01
        1   -1    0    0  501    0  0.00000000000E+00  0.00000000000E+00  0.63982106560E+03  0.63982106562E+03  0.50400001928E-02 0.  1.
       -1   -1    0    0    0  501  0.00000000000E+00  0.00000000000E+00 -0.10002408927E+04  0.10002408927E+04  0.50400001928E-02 0. -1.
    10030    2    1    2    0    0  0.00000000000E+00  0.00000000000E+00 -0.36041982713E+03  0.16400619584E+04  0.15999689920E+04 0.  0.
        4    1    3    3  502    0 -0.31360981130E+03 -0.59356748319E+02 -0.93214418601E+03  0.98527596831E+03  0.12699999809E+01 0. -1.
       -4    1    3    3    0  502  0.31360981130E+03  0.59356748319E+02  0.57172435889E+03  0.65478599005E+03  0.12699999809E+01 0.  1.
</event>
<event>
 5   0  0.1126485E-05  0.1600088E+04  0.7818609E-02  0.8820494E-01
       -1   -1    0    0    0  501  0.00000000000E+00  0.00000000000E+00  0.44064640030E+03  0.44064640032E+03  0.50400001928E-02 0.  1.
        1   -1    0    0  501    0  0.00000000000E+00  0.00000000000E+00 -0.14525710115E+04  0.14525710115E+04  0.50400001928E-02 0. -1.
    10030    2    1    2    0    0  0.00000000000E+00  0.00000000000E+00 -0.10119246112E+04  0.18932174118E+04  0.16000877319E+04 0.  0.
        2    1    3    3  502    0  0.37196836839E+03 -0.38817917424E+03  0.19505177076E+03  0.57191671743E+03  0.25500000920E-02 0.  1.
       -2    1    3    3    0  502 -0.37196836839E+03  0.38817917424E+03 -0.12069763820E+04  0.13213006944E+04  0.25500000920E-02 0. -1.
</event>
<event>
 5   0  0.1090674E-05  0.1601942E+04  0.7818609E-02  0.8819356E-01
       -1   -1    0    0    0  501  0.00000000000E+00  0.00000000000E+00  0.52241477664E+03  0.52241477667E+03  0.50400001928E-02 0.  1.
        1   -1    0    0  501    0  0.00000000000E+00  0.00000000000E+00 -0.12280560829E+04  0.12280560829E+04  0.50400001928E-02 0. -1.
    10030    2    1    2    0    0  0.00000000000E+00  0.00000000000E+00 -0.70564130630E+03  0.17504708596E+04  0.16019421267E+04 0.  0.
        4    1    3    3  502    0 -0.24461865888E+02 -0.77531502896E+03 -0.13471116184E+03  0.78731219160E+03  0.12699999809E+01 0.  1.
       -4    1    3    3    0  502  0.24461865888E+02  0.77531502896E+03 -0.57093014445E+03  0.96315866801E+03  0.12699999809E+01 0. -1.
</event>
<event>
 5   0  0.2046108E-05  0.1599054E+04  0.7818609E-02  0.8821130E-01
       -2   -1    0    0    0  501  0.00000000000E+00  0.00000000000E+00  0.41059906731E+03  0.41059906732E+03  0.25500000920E-02 0.  1.
        2   -1    0    0  501    0  0.00000000000E+00  0.00000000000E+00 -0.15568546722E+04  0.15568546722E+04  0.25500000920E-02 0. -1.
    10030    2    1    2    0    0  0.00000000000E+00  0.00000000000E+00 -0.11462556048E+04  0.19674537395E+04  0.15990535655E+04 0.  0.
        1    1    3    3  502    0  0.21756062345E+03 -0.66005354398E+03 -0.10594648049E+04  0.12670710236E+04  0.50400001928E-02 0. -1.
       -1    1    3    3    0  502 -0.21756062345E+03  0.66005354398E+03 -0.86790799893E+02  0.70038271592E+03  0.50400001928E-02 0.  1.
</event>
<event>
 5   0  0.1990948E-05  0.1600310E+04  0.7818609E-02  0.8820358E-01
       -2   -1    0    0    0  501  0.00000000000E+00  0.00000000000E+00  0.64350101094E+03  0.64350101095E+03  0.25500000920E-02 0.  1.
        2   -1    0    0  501    0  0.00000000000E+00  0.00000000000E+00 -0.99494445667E+03  0.99494445668E+03  0.25500000920E-02 0. -1.
    10030    2    1    2    0    0  0.00000000000E+00  0.00000000000E+00 -0.35144344573E+03  0.16384454676E+04  0.16003096747E+04 0.  0.
        4    1    3    3  502    0 -0.75704408587E+03  0.22565159621E+03 -0.45362115628E+02  0.79126084527E+03  0.12699999809E+01 0. -1.
       -4    1    3    3    0  502  0.75704408587E+03 -0.22565159621E+03 -0.30608133011E+03  0.84718462236E+03  0.12699999809E+01 0.  1.
</event>
<event>
 5   0  0.1081831E-05  0.1600324E+04  0.7818609E-02  0.8820349E-01
        1   -1    0    0  501    0  0.00000000000E+00  0.00000000000E+00  0.19073659414E+04  0.19073659414E+04  0.50400001928E-02 0.  1.
       -1   -1    0    0    0  501  0.00000000000E+00  0.00000000000E+00 -0.33567718171E+03  0.33567718174E+03  0.50400001928E-02 0. -1.
    10030    2    1    2    0    0  0.00000000000E+00  0.00000000000E+00  0.15716887597E+04  0.22430431231E+04  0.16003239969E+04 0.  0.
        3    1    3    3  502    0  0.86972268381E+02 -0.62848024618E+03  0.10248170213E+03  0.64269285415E+03  0.10100000352E+00 0. -1.
       -3    1    3    3    0  502 -0.86972268381E+02  0.62848024618E+03  0.14692070575E+04  0.16003502690E+04  0.10100000352E+00 0.  1.
</event>
<event>
 5   0  0.2125803E-05  0.1602741E+04  0.7818609E-02  0.8818866E-01
       -2   -1    0    0    0  501  0.00000000000E+00  0.00000000000E+00  0.37538521938E+03  0.37538521939E+03  0.25500000920E-02 0. -1.
        2   -1    0    0  501    0  0.00000000000E+00  0.00000000000E+00 -0.17107625860E+04  0.17107625860E+04  0.25500000920E-02 0.  1.
    10030    2    1    2    0    0  0.00000000000E+00  0.00000000000E+00 -0.13353773667E+04  0.20861478054E+04  0.16027413873E+04 0.  0.
        3    1    3    3  502    0 -0.61747796436E+03  0.28473184104E+03 -0.11570115799E+03  0.68973765008E+03  0.10100000352E+00 0. -1.
       -3    1    3    3    0  502  0.61747796436E+03 -0.28473184104E+03 -0.12196762087E+04  0.13964101554E+04  0.10100000352E+00 0.  1.
</event>
<event>
 5   0  0.1081831E-05  0.1600172E+04  0.7818609E-02  0.8820443E-01
       -1   -1    0    0    0  501  0.00000000000E+00  0.00000000000E+00  0.14016841226E+04  0.14016841226E+04  0.50400001928E-02 0. -1.
        1   -1    0    0  501    0  0.00000000000E+00  0.00000000000E+00 -0.45669149908E+03  0.45669149910E+03  0.50400001928E-02 0.  1.
    10030    2    1    2    0    0  0.00000000000E+00  0.00000000000E+00  0.94499262349E+03  0.18583756217E+04  0.16001715198E+04 0.  0.
        3    1    3    3  502    0  0.70423648134E+03  0.34201017391E+03  0.28089920651E+03  0.83175979413E+03  0.10100000352E+00 0.  1.
       -3    1    3    3    0  502 -0.70423648134E+03 -0.34201017391E+03  0.66409341698E+03  0.10266158276E+04  0.10100000352E+00 0. -1.
</event>
<event>
 5   0  0.1126485E-05  0.1602631E+04  0.7818609E-02  0.8818933E-01
        1   -1    0    0  501    0  0.00000000000E+00  0.00000000000E+00  0.12130808726E+04  0.12130808726E+04  0.50400001928E-02 0. -1.
       -1   -1    0    0    0  501  0.00000000000E+00  0.00000000000E+00 -0.52931862299E+03  0.52931862302E+03  0.50400001928E-02 0.  1.
    10030    2    1    2    0    0  0.00000000000E+00  0.00000000000E+00  0.68376224961E+03  0.17423994956E+04  0.16026307087E+04 0.  0.
        2    1    3    3  502    0 -0.49406705791E+02 -0.15440696725E+03 -0.51130247380E+03  0.53638862202E+03  0.25500000920E-02 0.  1.
       -2    1    3    3    0  502  0.49406705791E+02  0.15440696725E+03  0.11950647234E+04  0.12060108736E+04  0.25500000920E-02 0. -1.
</event>
<event>
 5   0  0.2147844E-05  0.1599628E+04  0.7818609E-02  0.8820777E-01
        2   -1    0    0  501    0  0.00000000000E+00  0.00000000000E+00  0.20610501159E+04  0.20610501159E+04  0.25500000920E-02 0.  1.
       -2   -1    0    0    0  501  0.00000000000E+00  0.00000000000E+00 -0.31037696258E+03  0.31037696260E+03  0.25500000920E-02 0. -1.
    10030    2    1    2    0    0  0.00000000000E+00  0.00000000000E+00  0.17506731533E+04  0.23714270785E+04  0.15996280502E+04 0.  0.
        2    1    3    3  502    0  0.99462361781E+02 -0.44085181250E+03  0.18536197752E+04  0.19079175436E+04  0.25500000920E-02 0.  1.
       -2    1    3    3    0  502 -0.99462361781E+02  0.44085181250E+03 -0.10294662190E+03  0.46350953492E+03  0.25500000920E-02 0. -1.
</event>
<event>
 5   0  0.1057506E-05  0.1599944E+04  0.7818609E-02  0.8820582E-01
        1   -1    0    0  501    0  0.00000000000E+00  0.00000000000E+00  0.15015803125E+04  0.15015803125E+04  0.50400001928E-02 0.  1.
       -1   -1    0    0    0  501  0.00000000000E+00  0.00000000000E+00 -0.42618776725E+03  0.42618776728E+03  0.50400001928E-02 0. -1.
    10030    2    1    2    0    0  0.00000000000E+00  0.00000000000E+00  0.10753925453E+04  0.19277680798E+04  0.15999439500E+04 0.  0.
        5    1    3    3  502    0  0.46369246919E+03 -0.59492432851E+03  0.21666992613E+03  0.78480163706E+03  0.46999998093E+01 0. -1.
       -5    1    3    3    0  502 -0.46369246919E+03  0.59492432851E+03  0.85872261915E+03  0.11429664428E+04  0.46999998093E+01 0.  1.
</event>
<event>
 5   0  0.1060251E-05  0.1599121E+04  0.7818609E-02  0.8821088E-01
       -1   -1    0    0    0  501  0.00000000000E+00  0.00000000000E+00  0.10462112273E+04  0.10462112273E+04  0.50400001928E-02 0. -1.
        1   -1    0    0  501    0  0.00000000000E+00  0.00000000000E+00 -0.61105908203E+03  0.61105908205E+03  0.50400001928E-02 0.  1.
    10030    2    1    2    0    0  0.00000000000E+00  0.00000000000E+00  0.43515214525E+03  0.16572703093E+04  0.15991208487E+04 0.  0.
        1    1    3    3  502    0 -0.16922807739E+03  0.72477729441E+03 -0.85206327345E+02  0.74913309025E+03  0.50400001928E-02 0.  1.
       -1    1    3    3    0  502  0.16922807739E+03 -0.72477729441E+03  0.52035847259E+03  0.90813721909E+03  0.50400001928E-02 0. -1.
</event>
<event>
 5   0  0.1990948E-05  0.1598608E+04  0.7818609E-02  0.8821403E-01
       -2   -1    0    0    0  501  0.00000000000E+00  0.00000000000E+00  0.37520970287E+03  0.37520970288E+03  0.25500000920E-02 0. -1.
        2   -1    0    0  501    0  0.00000000000E+00  0.00000000000E+00 -0.17027468568E+04  0.17027468568E+04  0.25500000920E-02 0.  1.
    10030    2    1    2    0    0  0.00000000000E+00  0.00000000000E+00 -0.13275371539E+04  0.20779565597E+04  0.15986083225E+04 0.  0.
        4    1    3    3  502    0 -0.96918253429E+02  0.61314900002E+03 -0.92556560160E+01  0.62083180020E+03  0.12699999809E+01 0. -1.
       -4    1    3    3    0  502  0.96918253429E+02 -0.61314900002E+03 -0.13182814979E+04  0.14571247595E+04  0.12699999809E+01 0.  1.
</event>
<event>
 5   0  0.1060251E-05  0.1600302E+04  0.7818609E-02  0.8820363E-01
        1   -1    0    0  501    0  0.00000000000E+00  0.00000000000E+00  0.88014717698E+03  0.88014717700E+03  0.50400001928E-02 0.  1.
       -1   -1    0    0    0  501  0.00000000000E+00  0.00000000000E+00 -0.72742525167E+03  0.72742525169E+03  0.50400001928E-02 0. -1.
    10030    2    1    2    0    0  0.00000000000E+00  0.00000000000E+00  0.15272192531E+03  0.16075724287E+04  0.16003015738E+04 0.  0.
        1    1    3    3  502    0 -0.34460061474E+03  0.31992335057E+03  0.72671322997E+03  0.86557070916E+03  0.50400001928E-02 0.  1.
       -1    1    3    3    0  502  0.34460061474E+03 -0.31992335057E+03 -0.57399130467E+03  0.74200171952E+03  0.50400001928E-02 0. -1.
</event>
<event>
 5   0  0.1990948E-05  0.1601751E+04  0.7818609E-02  0.8819473E-01
       -2   -1    0    0    0  501  0.00000000000E+00  0.00000000000E+00  0.28808849875E+03  0.28808849876E+03  0.25500000920E-02 0.  1.
        2   -1    0    0  501    0  0.00000000000E+00  0.00000000000E+00 -0.22264032518E+04  0.22264032518E+04  0.25500000920E-02 0. -1.
    10030    2    1    2    0    0  0.00000000000E+00  0.00000000000E+00 -0.19383147530E+04  0.25144917505E+04  0.16017505055E+04 0.  0.
        4    1    3    3  502    0 -0.46184412933E+03 -0.33086759053E+03 -0.18552846105E+04  0.19403236743E+04  0.12699999809E+01 0. -1.
       -4    1    3    3    0  502  0.46184412933E+03  0.33086759053E+03 -0.83030142502E+02  0.57416807620E+03  0.12699999809E+01 0.  1.
</event>
<event>
 5   0  0.1994525E-05  0.1601192E+04  0.7818609E-02  0.8819816E-01
       -2   -1    0    0    0  501  0.00000000000E+00  0.00000000000E+00  0.64153691087E+03  0.64153691088E+03  0.25500000920E-02 0.  1.
        2   -1    0    0  501    0  0.00000000000E+00  0.00000000000E+00 -0.99909106274E+03  0.99909106275E+03  0.25500000920E-02 0. -1.
    10030    2    1    2    0    0  0.00000000000E+00  0.00000000000E+00 -0.35755415187E+03  0.16406279736E+04  0.16011917987E+04 0.  0.
        5    1    3    3  502    0 -0.59178440879E+03  0.21337334191E+03  0.32859005084E+03  0.70973972768E+03  0.46999998093E+01 0.  1.
       -5    1    3    3    0  502  0.59178440879E+03 -0.21337334191E+03 -0.68614420271E+03  0.93088824595E+03  0.46999998093E+01 0. -1.
</event>
<event>
 5   0  0.1090674E-05  0.1599785E+04  0.7818609E-02  0.8820680E-01
       -1   -1    0    0    0  501  0.00000000000E+00  0.00000000000E+00  0.33584696419E+03  0.33584696423E+03  0.50400001928E-02 0.  1.
        1   -1    0    0  501    0  0.00000000000E+00  0.00000000000E+00 -0.19051178161E+04  0.19051178161E+04  0.50400001928E-02 0. -1.
    10030    2    1    2    0    0  0.00000000000E+00  0.00000000000E+00 -0.15692708519E+04  0.22409647804E+04  0.15997850293E+04 0.  0.
        4    1    3    3  502    0  0.66445878713E+03  0.18134313458E+03 -0.21488074606E+03  0.72150270975E+03  0.12699999809E+01 0.  1.
       -4    1    3    3    0  502 -0.66445878713E+03 -0.18134313458E+03 -0.13543901059E+04  0.15194620706E+04  0.12699999809E+01 0. -1.
</event>
<event>
 5   0  0.1994525E-05  0.1602753E+04  0.7818609E-02  0.8818859E-01
        2   -1    0    0  501    0  0.00000000000E+00  0.00000000000E+00  0.12214512543E+04  0.12214512543E+04  0.25500000920E-02 0.  1.
       -2   -1    0    0    0  501  0.00000000000E+00  0.00000000000E+00 -0.52577121840E+03  0.52577121840E+03  0.25500000920E-02 0. -1.
    10030    2    1    2    0    0  0.00000000000E+00  0.00000000000E+00  0.69568003595E+03  0.17472224727E+04  0.16027525251E+04 0.  0.
        5    1    3    3  502    0  0.51702307201E+03 -0.56678824437E+03  0.60027256987E+03  0.97412063888E+03  0.46999998093E+01 0.  1.
       -5    1    3    3    0  502 -0.51702307201E+03  0.56678824437E+03  0.95407466082E+02  0.77310183387E+03  0.46999998093E+01 0. -1.
</event>
<event>
 5   0  0.1126485E-05  0.1593968E+04  0.7818609E-02  0.8824262E-01
       -1   -1    0    0    0  501  0.00000000000E+00  0.00000000000E+00  0.14522956321E+04  0.14522956322E+04  0.50400001928E-02 0.  1.
        1   -1    0    0  501    0  0.00000000000E+00  0.00000000000E+00 -0.43736524629E+03  0.43736524632E+03  0.50400001928E-02 0. -1.
    10030    2    1    2    0    0  0.00000000000E+00  0.00000000000E+00  0.10149303859E+04  0.18896608785E+04  0.15939681764E+04 0.  0.
        2    1    3    3  502    0  0.61920701323E+03 -0.46203348819E+03  0.73944739330E+03  0.10694272845E+04  0.25500000920E-02 0.  1.
       -2    1    3    3    0  502 -0.61920701323E+03  0.46203348819E+03  0.27548299256E+03  0.82023359394E+03  0.25500000920E-02 0. -1.
</event>
<event>
 5   0  0.2147844E-05  0.1598480E+04  0.7818609E-02  0.8821482E-01
        2   -1    0    0  501    0  0.00000000000E+00  0.00000000000E+00  0.19219908268E+04  0.19219908268E+04  0.25500000920E-02 0. -1.
       -2   -1    0    0    0  501  0.00000000000E+00  0.00000000000E+00 -0.33235586284E+03  0.33235586285E+03  0.25500000920E-02 0.  1.
    10030    2    1    2    0    0  0.00000000000E+00  0.00000000000E+00  0.15896349639E+04  0.22543466896E+04  0.15984804279E+04 0.  0.
        2    1    3    3  502    0 -0.62412387894E+03 -0.23192118536E+03  0.17129809871E+03  0.68750352079E+03  0.25500000920E-02 0.  1.
       -2    1    3    3    0  502  0.62412387894E+03  0.23192118536E+03  0.14183368652E+04  0.15668431688E+04  0.25500000920E-02 0. -1.
</event>
<event>
 5   0  0.1057506E-05  0.1600210E+04  0.7818609E-02  0.8820419E-01
        1   -1    0    0  501    0  0.00000000000E+00  0.00000000000E+00  0.15400140242E+04  0.15400140242E+04  0.50400001928E-02 0. -1.
       -1   -1    0    0    0  501  0.00000000000E+00  0.00000000000E+00 -0.41568990612E+03  0.41568990615E+03  0.50400001928E-02 0.  1.
    10030    2    1    2    0    0  0.00000000000E+00  0.00000000000E+00  0.11243241181E+04  0.19557039304E+04  0.16002103426E+04 0.  0.
        5    1    3    3  502    0  0.11188203567E+03  0.35771092949E+03 -0.30174758742E+03  0.48119475839E+03  0.46999998093E+01 0.  1.
       -5    1    3    3    0  502 -0.11188203567E+03 -0.35771092949E+03  0.14260717055E+04  0.14745091720E+04  0.46999998093E+01 0. -1.
</event>
</LesHouchesEvents>
