<LesHouchesEvents version="3.0">
<header>
<!--
#*********************************************************************
#                                                                    *
#                        MadGraph5_aMC@NLO                           *
#                                                                    *
#                           Going Beyond                             *
#                                                                    *
#                   http://madgraph.hep.uiuc.edu                     *
#                   http://madgraph.phys.ucl.ac.be                   *
#                   http://amcatnlo.cern.ch                          *
#                                                                    *
#                     The MadGraph5_aMC@NLO team                     *
#                                                                    *
#....................................................................*
#                                                                    *
# This file contains all the information necessary to reproduce      *
# the events generated:                                              *
#                                                                    *
# 1. software version                                                *
# 2. proc_card          : code generation info including model       *
# 3. param_card         : model primary parameters in the LH format  *
# 4. run_card           : running parameters (collider and cuts)     *
# 5. pythia_card        : present only if pythia has been run        *
# 6. pgs_card           : present only if pgs has been run           *
# 7. delphes_cards      : present only if delphes has been run       *
#                                                                    *
#                                                                    *
#*********************************************************************
-->
<MGVersion>
#5.2.2.3
</MGVersion>
<MG5ProcCard>
#************************************************************
#*                     MadGraph5_aMC@NLO                    *
#*                                                          *
#*                *                       *                 *
#*                  *        * *        *                   *
#*                    * * * * 5 * * * *                     *
#*                  *        * *        *                   *
#*                *                       *                 *
#*                                                          *
#*                                                          *
#*         VERSION 2.2.3                 2015-02-10         *
#*                                                          *
#*    The MadGraph5_aMC@NLO Development Team - Find us at   *
#*    https://server06.fynu.ucl.ac.be/projects/madgraph     *
#*                                                          *
#************************************************************
#*                                                          *
#*               Command File for MadGraph5_aMC@NLO         *
#*                                                          *
#*     run as ./bin/mg5_aMC  filename                       *
#*                                                          *
#************************************************************
set group_subprocesses Auto
set ignore_six_quark_processes False
set loop_optimized_output True
set gauge unitary
set complex_mass_scheme False
import model sm
define p = g u c d s u~ c~ d~ s~
define j = g u c d s u~ c~ d~ s~
define l+ = e+ mu+
define l- = e- mu-
define vl = ve vm vt
define vl~ = ve~ vm~ vt~
import model Zprime_UFO
generate p p > zph, zph > j j
add process p p > zph, zph > b b~
output Dijet_signal
</MG5ProcCard>
<MGProcCard>
#*********************************************************************
#                        MadGraph/MadEvent                           *
#                   http://madgraph.hep.uiuc.edu                     *
#                                                                    *
#                          proc_card.dat                             *
#*********************************************************************
#                                                                    *
#            This Files is generated by MADGRAPH 5                   *
#                                                                    *
# WARNING: This Files is generated for MADEVENT (compatibility issue)*
#          This files is NOT a valid MG4 proc_card.dat               *
#          Running this in MG4 will NEVER reproduce the result of MG5*
#                                                                    *
#*********************************************************************
#*********************************************************************
# Process(es) requested : mg2 input                                  *
#*********************************************************************
# Begin PROCESS # This is TAG. Do not modify this line
p p > zph , zph > j j           #Process
# Be carefull the coupling are here in MG5 convention
          
end_coup           # End the couplings input

done               # this tells MG there are no more procs
# End PROCESS  # This is TAG. Do not modify this line
#*********************************************************************
# Model information                                                  *
#*********************************************************************
# Begin MODEL  # This is TAG. Do not modify this line
Zprime_UFO
# End   MODEL  # This is TAG. Do not modify this line
#*********************************************************************
# Start multiparticle definitions                                    *
#*********************************************************************
# Begin MULTIPARTICLES # This is TAG. Do not modify this line

# End  MULTIPARTICLES # This is TAG. Do not modify this line
</MGProcCard>
<MGRunCard>
#*********************************************************************
#                       MadGraph5_aMC@NLO                            *
#                                                                    *
#                     run_card.dat MadEvent                          *
#                                                                    *
#  This file is used to set the parameters of the run.               *
#                                                                    *
#  Some notation/conventions:                                        *
#                                                                    *
#   Lines starting with a '# ' are info or comments                  *
#                                                                    *
#   mind the format:   value    = variable     ! comment             *
#*********************************************************************
#
#*******************                                                 
# Running parameters
#*******************                                                 
#                                                                    
#*********************************************************************
# Tag name for the run (one word)                                    *
#*********************************************************************
  tag_1     = run_tag ! name of the run 
#*********************************************************************
# Run to generate the grid pack                                      *
#*********************************************************************
  .false.     = gridpack  !True = setting up the grid pack
#*********************************************************************
# Number of events and rnd seed                                      *
# Warning: Do not generate more than 1M events in a single run       *
# If you want to run Pythia, avoid more than 50k events in a run.    *
#*********************************************************************
  2000 = nevents ! Number of unweighted events requested 
 831 = iseed   ! rnd seed (0=assigned automatically=default))
#*********************************************************************
# Collider type and energy                                           *
# lpp: 0=No PDF, 1=proton, -1=antiproton, 2=photon from proton,      *
#                                         3=photon from electron     *
#*********************************************************************
        1     = lpp1    ! beam 1 type 
        1     = lpp2    ! beam 2 type
     4000     = ebeam1  ! beam 1 total energy in GeV
     4000     = ebeam2  ! beam 2 total energy in GeV
#*********************************************************************
# Beam polarization from -100 (left-handed) to 100 (right-handed)    *
#*********************************************************************
        0     = polbeam1 ! beam polarization for beam 1
        0     = polbeam2 ! beam polarization for beam 2
#*********************************************************************
# PDF CHOICE: this automatically fixes also alpha_s and its evol.    *
#*********************************************************************
 'nn23lo1'    = pdlabel     ! PDF set                                     
 230000    = lhaid     ! if pdlabel=lhapdf, this is the lhapdf number
#*********************************************************************
# Renormalization and factorization scales                           *
#*********************************************************************
 F        = fixed_ren_scale  ! if .true. use fixed ren scale
 F        = fixed_fac_scale  ! if .true. use fixed fac scale
 91.1880  = scale            ! fixed ren scale
 91.1880  = dsqrt_q2fact1    ! fixed fact scale for pdf1
 91.1880  = dsqrt_q2fact2    ! fixed fact scale for pdf2
 1        = scalefact        ! scale factor for event-by-event scales
#*********************************************************************
# Matching - Warning! ickkw > 1 is still beta
#*********************************************************************
 0        = ickkw            ! 0 no matching, 1 MLM, 2 CKKW matching
 1        = highestmult      ! for ickkw=2, highest mult group
 1        = ktscheme         ! for ickkw=1, 1 Durham kT, 2 Pythia pTE
 1        = alpsfact         ! scale factor for QCD emission vx
 F        = chcluster        ! cluster only according to channel diag
 T        = pdfwgt           ! for ickkw=1, perform pdf reweighting
 5        = asrwgtflavor     ! highest quark flavor for a_s reweight
 T        = clusinfo         ! include clustering tag in output
 3.0      = lhe_version       ! Change the way clustering information pass to shower.        
#*********************************************************************
#**********************************************************
#
#**********************************************************
# Automatic ptj and mjj cuts if xqcut > 0
# (turn off for VBF and single top processes)
#**********************************************************
   T  = auto_ptj_mjj  ! Automatic setting of ptj and mjj
#**********************************************************
#                                                                    
#**********************************
# BW cutoff (M+/-bwcutoff*Gamma)
#**********************************
  15  = bwcutoff      ! (M+/-bwcutoff*Gamma)
#**********************************************************
# Apply pt/E/eta/dr/mij cuts on decay products or not
# (note that etmiss/ptll/ptheavy/ht/sorted cuts always apply)
#**********************************************************
   T  = cut_decays    ! Cut decay products 
#*************************************************************
# Number of helicities to sum per event (0 = all helicities)
# 0 gives more stable result, but longer run time (needed for
# long decay chains e.g.).
# Use >=2 if most helicities contribute, e.g. pure QCD.
#*************************************************************
   0  = nhel          ! Number of helicities used per event
#*******************                                                 
# Standard Cuts
#*******************                                                 
#                                                                    
#*********************************************************************
# Minimum and maximum pt's (for max, -1 means no cut)                *
#*********************************************************************
 20  = ptj       ! minimum pt for the jets 
  0  = ptb       ! minimum pt for the b 
 10  = pta       ! minimum pt for the photons 
 10  = ptl       ! minimum pt for the charged leptons 
  0  = misset    ! minimum missing Et (sum of neutrino's momenta)
  0  = ptheavy   ! minimum pt for one heavy final state
 1.0 = ptonium   ! minimum pt for the quarkonium states
 -1  = ptjmax    ! maximum pt for the jets
 -1  = ptbmax    ! maximum pt for the b
 -1  = ptamax    ! maximum pt for the photons
 -1  = ptlmax    ! maximum pt for the charged leptons
 -1  = missetmax ! maximum missing Et (sum of neutrino's momenta)
#*********************************************************************
# Minimum and maximum E's (in the center of mass frame)              *
#*********************************************************************
  0  = ej     ! minimum E for the jets 
  0  = eb     ! minimum E for the b 
  0  = ea     ! minimum E for the photons 
  0  = el     ! minimum E for the charged leptons 
 -1   = ejmax ! maximum E for the jets
 -1   = ebmax ! maximum E for the b
 -1   = eamax ! maximum E for the photons
 -1   = elmax ! maximum E for the charged leptons
#*********************************************************************
# Maximum and minimum absolute rapidity (for max, -1 means no cut)   *
#*********************************************************************
   5  = etaj    ! max rap for the jets 
  -1  = etab    ! max rap for the b
 2.5  = etaa    ! max rap for the photons 
 2.5  = etal    ! max rap for the charged leptons 
 0.6  = etaonium ! max rap for the quarkonium states
   0  = etajmin ! min rap for the jets
   0  = etabmin ! min rap for the b
   0  = etaamin ! min rap for the photons
   0  = etalmin ! main rap for the charged leptons
#*********************************************************************
# Minimum and maximum DeltaR distance                                *
#*********************************************************************
 0.4 = drjj    ! min distance between jets 
 0   = drbb    ! min distance between b's 
 0.4 = drll    ! min distance between leptons 
 0.4 = draa    ! min distance between gammas 
 0   = drbj    ! min distance between b and jet 
 0.4 = draj    ! min distance between gamma and jet 
 0.4 = drjl    ! min distance between jet and lepton 
 0   = drab    ! min distance between gamma and b 
 0   = drbl    ! min distance between b and lepton 
 0.4 = dral    ! min distance between gamma and lepton 
 -1  = drjjmax ! max distance between jets
 -1  = drbbmax ! max distance between b's
 -1  = drllmax ! max distance between leptons
 -1  = draamax ! max distance between gammas
 -1  = drbjmax ! max distance between b and jet
 -1  = drajmax ! max distance between gamma and jet
 -1  = drjlmax ! max distance between jet and lepton
 -1  = drabmax ! max distance between gamma and b
 -1  = drblmax ! max distance between b and lepton
 -1  = dralmax ! maxdistance between gamma and lepton
#*********************************************************************
# Minimum and maximum invariant mass for pairs                       *
# WARNING: for four lepton final state mmll cut require to have      *
#          different lepton masses for each flavor!                  *           
#*********************************************************************
 0   = mmjj    ! min invariant mass of a jet pair 
 0   = mmbb    ! min invariant mass of a b pair 
 0   = mmaa    ! min invariant mass of gamma gamma pair
 0   = mmll    ! min invariant mass of l+l- (same flavour) lepton pair
 -1  = mmjjmax ! max invariant mass of a jet pair
 -1  = mmbbmax ! max invariant mass of a b pair
 -1  = mmaamax ! max invariant mass of gamma gamma pair
 -1  = mmllmax ! max invariant mass of l+l- (same flavour) lepton pair
#*********************************************************************
# Minimum and maximum invariant mass for all letpons                 *
#*********************************************************************
 0   = mmnl    ! min invariant mass for all letpons (l+- and vl) 
 -1  = mmnlmax ! max invariant mass for all letpons (l+- and vl) 
#*********************************************************************
# Minimum and maximum pt for 4-momenta sum of leptons                *
#*********************************************************************
 0   = ptllmin  ! Minimum pt for 4-momenta sum of leptons(l and vl)
 -1  = ptllmax  ! Maximum pt for 4-momenta sum of leptons(l and vl)
#*********************************************************************
# Inclusive cuts                                                     *
#*********************************************************************
 0  = xptj ! minimum pt for at least one jet  
 0  = xptb ! minimum pt for at least one b 
 0  = xpta ! minimum pt for at least one photon 
 0  = xptl ! minimum pt for at least one charged lepton 
#*********************************************************************
# Control the pt's of the jets sorted by pt                          *
#*********************************************************************
 0   = ptj1min ! minimum pt for the leading jet in pt
 0   = ptj2min ! minimum pt for the second jet in pt
 0   = ptj3min ! minimum pt for the third jet in pt
 0   = ptj4min ! minimum pt for the fourth jet in pt
 -1  = ptj1max ! maximum pt for the leading jet in pt 
 -1  = ptj2max ! maximum pt for the second jet in pt
 -1  = ptj3max ! maximum pt for the third jet in pt
 -1  = ptj4max ! maximum pt for the fourth jet in pt
 0   = cutuse  ! reject event if fails any (0) / all (1) jet pt cuts
#*********************************************************************
# Control the pt's of leptons sorted by pt                           *
#*********************************************************************
 0   = ptl1min ! minimum pt for the leading lepton in pt
 0   = ptl2min ! minimum pt for the second lepton in pt
 0   = ptl3min ! minimum pt for the third lepton in pt
 0   = ptl4min ! minimum pt for the fourth lepton in pt
 -1  = ptl1max ! maximum pt for the leading lepton in pt 
 -1  = ptl2max ! maximum pt for the second lepton in pt
 -1  = ptl3max ! maximum pt for the third lepton in pt
 -1  = ptl4max ! maximum pt for the fourth lepton in pt
#*********************************************************************
# Control the Ht(k)=Sum of k leading jets                            *
#*********************************************************************
 0   = htjmin ! minimum jet HT=Sum(jet pt)
 -1  = htjmax ! maximum jet HT=Sum(jet pt)
 0   = ihtmin  !inclusive Ht for all partons (including b)
 -1  = ihtmax  !inclusive Ht for all partons (including b)
 0   = ht2min ! minimum Ht for the two leading jets
 0   = ht3min ! minimum Ht for the three leading jets
 0   = ht4min ! minimum Ht for the four leading jets
 -1  = ht2max ! maximum Ht for the two leading jets
 -1  = ht3max ! maximum Ht for the three leading jets
 -1  = ht4max ! maximum Ht for the four leading jets
#***********************************************************************
# Photon-isolation cuts, according to hep-ph/9801442                   *
# When ptgmin=0, all the other parameters are ignored                  *
# When ptgmin>0, pta and draj are not going to be used                 *
#***********************************************************************
   0 = ptgmin ! Min photon transverse momentum
 0.4 = R0gamma ! Radius of isolation code
 1.0 = xn ! n parameter of eq.(3.4) in hep-ph/9801442
 1.0 = epsgamma ! epsilon_gamma parameter of eq.(3.4) in hep-ph/9801442
 .true. = isoEM ! isolate photons from EM energy (photons and leptons)
#*********************************************************************
# WBF cuts                                                           *
#*********************************************************************
 0   = xetamin ! minimum rapidity for two jets in the WBF case  
 0   = deltaeta ! minimum rapidity for two jets in the WBF case 
#*********************************************************************
# KT DURHAM CUT                                                      *
#*********************************************************************
 -1    =  ktdurham        
 0.4  =  dparameter 
#*********************************************************************
# maximal pdg code for quark to be considered as a light jet         *
# (otherwise b cuts are applied)                                     *
#*********************************************************************
 4 = maxjetflavor    ! Maximum jet pdg code
#*********************************************************************
# Jet measure cuts                                                   *
#*********************************************************************
 0   = xqcut   ! minimum kt jet measure between partons
#*********************************************************************
#
#*********************************************************************
# Store info for systematics studies                                 *
# WARNING: If use_syst is T, matched Pythia output is                *
#          meaningful ONLY if plotted taking matchscale              *
#          reweighting into account!                                 *
#*********************************************************************
   F  = use_syst      ! Enable systematics studies
#
#**************************************
# Parameter of the systematics study
#  will be used by SysCalc (if installed)
#**************************************                                  
#
0.5 1 2 = sys_scalefact  # factorization/renormalization scale factor
0.5 1 2 = sys_alpsfact  # \alpha_s emission scale factors
30 50 = sys_matchscale # variation of merging scale
# PDF sets and number of members (0 or none for all members).
CT10nlo.LHgrid = sys_pdf # matching scales
# MSTW2008nlo68cl.LHgrid 1  = sys_pdf
</MGRunCard>
<slha>
######################################################################
## PARAM_CARD AUTOMATICALY GENERATED BY MG5 FOLLOWING UFO MODEL   ####
######################################################################
##                                                                  ##
##  Width set on Auto will be computed following the information    ##
##        present in the decay.py files of the model.               ##
##        See  arXiv:1402.1178 for more details.                    ##
##                                                                  ##
######################################################################

###################################
## INFORMATION FOR CKMBLOCK
###################################
Block ckmblock 
    1 2.277360e-01 # cabi 

###################################
## INFORMATION FOR FRBLOCK
###################################
Block frblock 
    1 4.000000e-01 # gz 

###################################
## INFORMATION FOR MASS
###################################
Block mass 
    1 5.040000e-03 # MD 
    2 2.550000e-03 # MU 
    3 1.010000e-01 # MS 
    4 1.270000e+00 # MC 
    5 4.700000e+00 # MB 
    6 1.720000e+02 # MT 
   11 5.110000e-04 # Me 
   13 1.056600e-01 # MM 
   15 1.777000e+00 # MTA 
   23 9.118760e+01 # MZ 
   25 1.200000e+02 # MH 
  10030 6.000000e+02 # MZph 
  10031 3.000000e+02 # MZpl 
## Dependent parameters, given by model restrictions.
## Those values should be edited following the 
## analytical expression. MG5 ignores those values 
## but they are important for interfacing the output of MG5
## to external program such as Pythia.
  12 0.000000 # ve : 0.0 
  14 0.000000 # vm : 0.0 
  16 0.000000 # vt : 0.0 
  21 0.000000 # g : 0.0 
  22 0.000000 # a : 0.0 
  24 79.824360 # w+ : cmath.sqrt(MZ__exp__2/2. + cmath.sqrt(MZ__exp__4/4. - (aEW*cmath.pi*MZ__exp__2)/(Gf*sqrt__2))) 

###################################
## INFORMATION FOR SMINPUTS
###################################
Block sminputs 
    1 1.279000e+02 # aEWM1 
    2 1.166370e-05 # Gf 
    3 1.184000e-01 # aS 

###################################
## INFORMATION FOR YUKAWA
###################################
Block yukawa 
    1 5.040000e-03 # ymdo 
    2 2.550000e-03 # ymup 
    3 1.010000e-01 # yms 
    4 1.270000e+00 # ymc 
    5 4.700000e+00 # ymb 
    6 1.720000e+02 # ymt 
   11 5.110000e-04 # yme 
   13 1.056600e-01 # ymm 
   15 1.777000e+00 # ymtau 

###################################
## INFORMATION FOR DECAY
###################################
DECAY   6 1.508336e+00 # WT 
DECAY  23 2.495200e+00 # WZ 
DECAY  24 2.085000e+00 # WW 
DECAY  25 5.753088e-03 # WH 
## Dependent parameters, given by model restrictions.
## Those values should be edited following the 
## analytical expression. MG5 ignores those values 
## but they are important for interfacing the output of MG5
## to external program such as Pythia.
DECAY  1 0.000000 # d : 0.0 
DECAY  2 0.000000 # u : 0.0 
DECAY  3 0.000000 # s : 0.0 
DECAY  4 0.000000 # c : 0.0 
DECAY  5 0.000000 # b : 0.0 
DECAY  11 0.000000 # e- : 0.0 
DECAY  12 0.000000 # ve : 0.0 
DECAY  13 0.000000 # mu- : 0.0 
DECAY  14 0.000000 # vm : 0.0 
DECAY  15 0.000000 # ta- : 0.0 
DECAY  16 0.000000 # vt : 0.0 
DECAY  21 0.000000 # g : 0.0 
DECAY  22 0.000000 # a : 0.0 
DECAY  10030 0.308725 # zph : (gz__exp__2*MZph*(5 + cmath.sqrt(1 - (4*MT__exp__2)/MZph__exp__2)))/(144.*cmath.pi) 
DECAY  10031 0.132629 # zpl : (5*gz__exp__2*MZpl)/(144.*cmath.pi) 
#===========================================================
# QUANTUM NUMBERS OF NEW STATE(S) (NON SM PDG CODE)
#===========================================================

Block QNUMBERS 10030  # zph 
        1 0  # 3 times electric charge
        2 3  # number of spin states (2S+1)
        3 1  # colour rep (1: singlet, 3: triplet, 8: octet)
        4 0  # Particle/Antiparticle distinction (0=own anti)
Block QNUMBERS 10031  # zpl 
        1 0  # 3 times electric charge
        2 3  # number of spin states (2S+1)
        3 1  # colour rep (1: singlet, 3: triplet, 8: octet)
        4 0  # Particle/Antiparticle distinction (0=own anti)
</slha>
## END BANNER##
<MGGenerationInfo>
#  Number of Events        :         4192
#  Integrated weight (pb)  :  0.30355E+01
#  Max wgt                 :  0.98663E-03
#  Average wgt             :  0.72412E-03
</MGGenerationInfo>
</header>
<init>
     2212     2212  0.40000000000E+04  0.40000000000E+04 0 0  247000  247000 2   1
  0.30334750772E+01  0.56076567446E-02  0.98663170000E-03   0
</init>
<event>
 5   0  0.9866317E-03  0.6002637E+03  0.7818609E-02  0.9904859E-01
        2   -1    0    0  501    0  0.00000000000E+00  0.00000000000E+00  0.30807071392E+03  0.30807071393E+03  0.25500000920E-02 0. -1.
       -2   -1    0    0    0  501  0.00000000000E+00  0.00000000000E+00 -0.29239759466E+03  0.29239759468E+03  0.25500000920E-02 0.  1.
    10030    2    1    2    0    0  0.00000000000E+00  0.00000000000E+00  0.15673119260E+02  0.60046830861E+03  0.60026372785E+03 0.  0.
        1    1    3    3  502    0  0.66499587787E+02 -0.21787788925E+03  0.20331596885E+03  0.30533645871E+03  0.50400001928E-02 0. -1.
       -1    1    3    3    0  502 -0.66499587787E+02  0.21787788925E+03 -0.18764284959E+03  0.29513184990E+03  0.50400001928E-02 0.  1.
</event>
<event>
 5   0  0.3794375E-03  0.5999679E+03  0.7818609E-02  0.9905473E-01
       -3   -1    0    0    0  501  0.00000000000E+00  0.00000000000E+00  0.94455911675E+03  0.94455912215E+03  0.10100000352E+00 0. -1.
        3   -1    0    0  501    0  0.00000000000E+00  0.00000000000E+00 -0.95272319016E+02  0.95272372552E+02  0.10100000352E+00 0.  1.
    10030    2    1    2    0    0  0.00000000000E+00  0.00000000000E+00  0.84928679774E+03  0.10398314947E+04  0.59996789295E+03 0.  0.
        1    1    3    3  502    0  0.22688124259E+03 -0.19601780726E+03  0.44129324412E+03  0.53351457931E+03  0.50400001928E-02 0.  1.
       -1    1    3    3    0  502 -0.22688124259E+03  0.19601780726E+03  0.40799355362E+03  0.50631691540E+03  0.50400001928E-02 0. -1.
</event>
<event>
 5   0  0.9866317E-03  0.6022766E+03  0.7818609E-02  0.9900694E-01
       -2   -1    0    0    0  501  0.00000000000E+00  0.00000000000E+00  0.64237245273E+02  0.64237245324E+02  0.25500000920E-02 0. -1.
        2   -1    0    0  501    0  0.00000000000E+00  0.00000000000E+00 -0.14117085096E+04  0.14117085096E+04  0.25500000920E-02 0.  1.
    10030    2    1    2    0    0  0.00000000000E+00  0.00000000000E+00 -0.13474712643E+04  0.14759457549E+04  0.60227656712E+03 0.  0.
        1    1    3    3  502    0 -0.19952229223E+03  0.22296189797E+03 -0.59015890903E+03  0.66167113506E+03  0.50400001928E-02 0.  1.
       -1    1    3    3    0  502  0.19952229223E+03 -0.22296189797E+03 -0.75731235531E+03  0.81427461988E+03  0.50400001928E-02 0. -1.
</event>
<event>
 5   0  0.9428629E-03  0.6009114E+03  0.7818609E-02  0.9903517E-01
        2   -1    0    0  501    0  0.00000000000E+00  0.00000000000E+00  0.59231754284E+03  0.59231754285E+03  0.25500000920E-02 0.  1.
       -2   -1    0    0    0  501  0.00000000000E+00  0.00000000000E+00 -0.15240746221E+03  0.15240746223E+03  0.25500000920E-02 0. -1.
    10030    2    1    2    0    0  0.00000000000E+00  0.00000000000E+00  0.43991008064E+03  0.74472500507E+03  0.60091135298E+03 0.  0.
        3    1    3    3  502    0 -0.87329725591E+01  0.86894618269E+02 -0.13633049463E+03  0.16190414899E+03  0.10100000352E+00 0. -1.
       -3    1    3    3    0  502  0.87329725591E+01 -0.86894618269E+02  0.57624057527E+03  0.58282085608E+03  0.10100000352E+00 0.  1.
</event>
<event>
 5   0  0.9866317E-03  0.5994126E+03  0.7818609E-02  0.9906626E-01
        2   -1    0    0  501    0  0.00000000000E+00  0.00000000000E+00  0.22723123502E+04  0.22723123502E+04  0.25500000920E-02 0.  1.
       -2   -1    0    0    0  501  0.00000000000E+00  0.00000000000E+00 -0.39529715287E+02  0.39529715369E+02  0.25500000920E-02 0. -1.
    10030    2    1    2    0    0  0.00000000000E+00  0.00000000000E+00  0.22327826349E+04  0.23118420655E+04  0.59941258026E+03 0.  0.
        1    1    3    3  502    0 -0.34292027163E+02 -0.10083800348E+03  0.35926230583E+02  0.11240524962E+03  0.50400001928E-02 0. -1.
       -1    1    3    3    0  502  0.34292027163E+02  0.10083800348E+03  0.21968564043E+04  0.21994368159E+04  0.50400001928E-02 0.  1.
</event>
<event>
 5   0  0.9428629E-03  0.6013848E+03  0.7818609E-02  0.9902537E-01
       -2   -1    0    0    0  501  0.00000000000E+00  0.00000000000E+00  0.16702021221E+03  0.16702021223E+03  0.25500000920E-02 0.  1.
        2   -1    0    0  501    0  0.00000000000E+00  0.00000000000E+00 -0.54134726090E+03  0.54134726091E+03  0.25500000920E-02 0. -1.
    10030    2    1    2    0    0  0.00000000000E+00  0.00000000000E+00 -0.37432704870E+03  0.70836747313E+03  0.60138484983E+03 0.  0.
        3    1    3    3  502    0  0.26590359048E+03 -0.77240716317E+02 -0.49067966483E+02  0.28120903830E+03  0.10100000352E+00 0.  1.
       -3    1    3    3    0  502 -0.26590359048E+03  0.77240716317E+02 -0.32525908221E+03  0.42715843483E+03  0.10100000352E+00 0. -1.
</event>
<event>
 5   0  0.5785798E-03  0.6047404E+03  0.7818609E-02  0.9895620E-01
       -1   -1    0    0    0  501  0.00000000000E+00  0.00000000000E+00  0.54449091263E+03  0.54449091266E+03  0.50400001928E-02 0. -1.
        1   -1    0    0  501    0  0.00000000000E+00  0.00000000000E+00 -0.16791418278E+03  0.16791418285E+03  0.50400001928E-02 0.  1.
    10030    2    1    2    0    0  0.00000000000E+00  0.00000000000E+00  0.37657672986E+03  0.71240509551E+03  0.60474042914E+03 0.  0.
        1    1    3    3  502    0  0.28120640658E+03  0.43018254649E+02  0.30900174747E+03  0.42001153948E+03  0.50400001928E-02 0. -1.
       -1    1    3    3    0  502 -0.28120640658E+03 -0.43018254649E+02  0.67574982388E+02  0.29239355603E+03  0.50400001928E-02 0.  1.
</event>
<event>
 5   0  0.5491236E-03  0.5998048E+03  0.7818609E-02  0.9905811E-01
        1   -1    0    0  501    0  0.00000000000E+00  0.00000000000E+00  0.99805761016E+03  0.99805761017E+03  0.50400001928E-02 0.  1.
       -1   -1    0    0    0  501  0.00000000000E+00  0.00000000000E+00 -0.90116481926E+02  0.90116482067E+02  0.50400001928E-02 0. -1.
    10030    2    1    2    0    0  0.00000000000E+00  0.00000000000E+00  0.90794112823E+03  0.10881740922E+04  0.59980477047E+03 0.  0.
        3    1    3    3  502    0  0.95703521331E+02 -0.25945086800E+03  0.66450938053E+03  0.71975457200E+03  0.10100000352E+00 0.  1.
       -3    1    3    3    0  502 -0.95703521331E+02  0.25945086800E+03  0.24343174770E+03  0.36841952024E+03  0.10100000352E+00 0. -1.
</event>
<event>
 5   0  0.9866317E-03  0.6003548E+03  0.7818609E-02  0.9904670E-01
       -2   -1    0    0    0  501  0.00000000000E+00  0.00000000000E+00  0.15376665659E+03  0.15376665661E+03  0.25500000920E-02 0.  1.
        2   -1    0    0  501    0  0.00000000000E+00  0.00000000000E+00 -0.58599488706E+03  0.58599488707E+03  0.25500000920E-02 0. -1.
    10030    2    1    2    0    0  0.00000000000E+00  0.00000000000E+00 -0.43222823047E+03  0.73976154368E+03  0.60035481034E+03 0.  0.
        1    1    3    3  502    0  0.23570795536E+03 -0.12648695024E+03 -0.38393551992E+03  0.46793554287E+03  0.50400001928E-02 0. -1.
       -1    1    3    3    0  502 -0.23570795536E+03  0.12648695024E+03 -0.48292710554E+02  0.27182600081E+03  0.50400001928E-02 0.  1.
</event>
<event>
 5   0  0.3794375E-03  0.6003899E+03  0.7818609E-02  0.9904598E-01
        4   -1    0    0  501    0  0.00000000000E+00  0.00000000000E+00  0.19404211145E+03  0.19404626747E+03  0.12699999809E+01 0.  1.
       -4   -1    0    0    0  501  0.00000000000E+00  0.00000000000E+00 -0.46440980093E+03  0.46441153743E+03  0.12699999809E+01 0. -1.
    10030    2    1    2    0    0  0.00000000000E+00  0.00000000000E+00 -0.27036768948E+03  0.65845780490E+03  0.60038986777E+03 0.  0.
        5    1    3    3  502    0  0.52002185555E+02 -0.17011405140E+03  0.12996752600E+03  0.22035577051E+03  0.46999998093E+01 0.  1.
       -5    1    3    3    0  502 -0.52002185555E+02  0.17011405140E+03 -0.40033521547E+03  0.43810203438E+03  0.46999998093E+01 0. -1.
</event>
<event>
 5   0  0.9866317E-03  0.6002343E+03  0.7818609E-02  0.9904920E-01
        2   -1    0    0  501    0  0.00000000000E+00  0.00000000000E+00  0.86130822251E+03  0.86130822251E+03  0.25500000920E-02 0. -1.
       -2   -1    0    0    0  501  0.00000000000E+00  0.00000000000E+00 -0.10457385081E+03  0.10457385084E+03  0.25500000920E-02 0.  1.
    10030    2    1    2    0    0  0.00000000000E+00  0.00000000000E+00  0.75673437170E+03  0.96588207335E+03  0.60023434616E+03 0.  0.
        1    1    3    3  502    0 -0.24213400653E+02  0.12279847725E+03  0.81730505143E+03  0.82683329753E+03  0.50400001928E-02 0. -1.
       -1    1    3    3    0  502  0.24213400653E+02 -0.12279847725E+03 -0.60570679733E+02  0.13904877582E+03  0.50400001928E-02 0.  1.
</event>
<event>
 5   0  0.3794375E-03  0.6074587E+03  0.7818609E-02  0.9890051E-01
       -4   -1    0    0    0  501  0.00000000000E+00  0.00000000000E+00  0.34776641527E+03  0.34776873420E+03  0.12699999809E+01 0. -1.
        4   -1    0    0  501    0  0.00000000000E+00  0.00000000000E+00 -0.26526387685E+03  0.26526691702E+03  0.12699999809E+01 0.  1.
    10030    2    1    2    0    0  0.00000000000E+00  0.00000000000E+00  0.82502538412E+02  0.61303565122E+03  0.60745867417E+03 0.  0.
        1    1    3    3  502    0  0.56750183159E+02  0.96636654144E+02  0.32614122034E+03  0.34485840839E+03  0.50400001928E-02 0. -1.
       -1    1    3    3    0  502 -0.56750183159E+02 -0.96636654144E+02 -0.24363868192E+03  0.26817724282E+03  0.50400001928E-02 0.  1.
</event>
<event>
 5   0  0.9571790E-03  0.6000164E+03  0.7818609E-02  0.9905372E-01
        2   -1    0    0  501    0  0.00000000000E+00  0.00000000000E+00  0.36245192187E+03  0.36245192188E+03  0.25500000920E-02 0. -1.
       -2   -1    0    0    0  501  0.00000000000E+00  0.00000000000E+00 -0.24832239399E+03  0.24832239401E+03  0.25500000920E-02 0.  1.
    10030    2    1    2    0    0  0.00000000000E+00  0.00000000000E+00  0.11412952788E+03  0.61077431589E+03  0.60001642962E+03 0.  0.
        5    1    3    3  502    0  0.29319301922E+03  0.59128388806E+02  0.33751602826E+02  0.30103085153E+03  0.46999998093E+01 0.  1.
       -5    1    3    3    0  502 -0.29319301922E+03 -0.59128388806E+02  0.80377925050E+02  0.30974346436E+03  0.46999998093E+01 0. -1.
</event>
<event>
 5   0  0.5574736E-03  0.5989339E+03  0.7818609E-02  0.9907620E-01
        1   -1    0    0  501    0  0.00000000000E+00  0.00000000000E+00  0.42178655125E+03  0.42178655128E+03  0.50400001928E-02 0. -1.
       -1   -1    0    0    0  501  0.00000000000E+00  0.00000000000E+00 -0.21262048418E+03  0.21262048424E+03  0.50400001928E-02 0.  1.
    10030    2    1    2    0    0  0.00000000000E+00  0.00000000000E+00  0.20916606707E+03  0.63440703552E+03  0.59893392215E+03 0.  0.
        5    1    3    3  502    0 -0.94813353361E+02  0.27648559961E+03  0.17342881820E+03  0.33990219732E+03  0.46999998093E+01 0.  1.
       -5    1    3    3    0  502  0.94813353361E+02 -0.27648559961E+03  0.35737248876E+02  0.29450483820E+03  0.46999998093E+01 0. -1.
</event>
<event>
 5   0  0.5574736E-03  0.6014778E+03  0.7818609E-02  0.9902345E-01
       -1   -1    0    0    0  501  0.00000000000E+00  0.00000000000E+00  0.22287196753E+03  0.22287196759E+03  0.50400001928E-02 0. -1.
        1   -1    0    0  501    0  0.00000000000E+00  0.00000000000E+00 -0.40581092616E+03  0.40581092619E+03  0.50400001928E-02 0.  1.
    10030    2    1    2    0    0  0.00000000000E+00  0.00000000000E+00 -0.18293895863E+03  0.62868289378E+03  0.60147777877E+03 0.  0.
        5    1    3    3  502    0  0.15341348339E+03 -0.15955830975E+03 -0.30421236635E+03  0.37624699991E+03  0.46999998093E+01 0.  1.
       -5    1    3    3    0  502 -0.15341348339E+03  0.15955830975E+03  0.12127340773E+03  0.25243589388E+03  0.46999998093E+01 0. -1.
</event>
<event>
 5   0  0.3794375E-03  0.6006111E+03  0.7818609E-02  0.9904139E-01
        3   -1    0    0  501    0  0.00000000000E+00  0.00000000000E+00  0.75624907759E+02  0.75624975204E+02  0.10100000352E+00 0.  1.
       -3   -1    0    0    0  501  0.00000000000E+00  0.00000000000E+00 -0.11925090728E+04  0.11925090770E+04  0.10100000352E+00 0. -1.
    10030    2    1    2    0    0  0.00000000000E+00  0.00000000000E+00 -0.11168841650E+04  0.12681340522E+04  0.60061113578E+03 0.  0.
        3    1    3    3  502    0  0.12453131509E+03 -0.28403996371E+02  0.15412276014E+02  0.12865606826E+03  0.10100000352E+00 0.  1.
       -3    1    3    3    0  502 -0.12453131509E+03  0.28403996371E+02 -0.11322964410E+04  0.11394779840E+04  0.10100000352E+00 0. -1.
</event>
<event>
 5   0  0.5785798E-03  0.5930994E+03  0.7818609E-02  0.9919827E-01
       -1   -1    0    0    0  501  0.00000000000E+00  0.00000000000E+00  0.83996290196E+03  0.83996290198E+03  0.50400001928E-02 0. -1.
        1   -1    0    0  501    0  0.00000000000E+00  0.00000000000E+00 -0.10469713671E+03  0.10469713683E+03  0.50400001928E-02 0.  1.
    10030    2    1    2    0    0  0.00000000000E+00  0.00000000000E+00  0.73526576525E+03  0.94466003881E+03  0.59309935372E+03 0.  0.
        1    1    3    3  502    0 -0.25908124183E+02 -0.28887951933E+03  0.26920258638E+03  0.39571787946E+03  0.50400001928E-02 0. -1.
       -1    1    3    3    0  502  0.25908124183E+02  0.28887951933E+03  0.46606317887E+03  0.54894215935E+03  0.50400001928E-02 0.  1.
</event>
<event>
 5   0  0.5491236E-03  0.5991029E+03  0.7818609E-02  0.9907269E-01
        1   -1    0    0  501    0  0.00000000000E+00  0.00000000000E+00  0.51916430554E+03  0.51916430557E+03  0.50400001928E-02 0. -1.
       -1   -1    0    0    0  501  0.00000000000E+00  0.00000000000E+00 -0.17283751823E+03  0.17283751831E+03  0.50400001928E-02 0.  1.
    10030    2    1    2    0    0  0.00000000000E+00  0.00000000000E+00  0.34632678731E+03  0.69200182388E+03  0.59910289654E+03 0.  0.
        3    1    3    3  502    0  0.29064777775E+02 -0.75849166674E+02 -0.15987405853E+03  0.17932535287E+03  0.10100000352E+00 0.  1.
       -3    1    3    3    0  502 -0.29064777775E+02  0.75849166674E+02  0.50620084584E+03  0.51267647100E+03  0.10100000352E+00 0. -1.
</event>
<event>
 5   0  0.5491236E-03  0.5999513E+03  0.7818609E-02  0.9905507E-01
        1   -1    0    0  501    0  0.00000000000E+00  0.00000000000E+00  0.46406279295E+03  0.46406279298E+03  0.50400001928E-02 0. -1.
       -1   -1    0    0    0  501  0.00000000000E+00  0.00000000000E+00 -0.19390778238E+03  0.19390778245E+03  0.50400001928E-02 0.  1.
    10030    2    1    2    0    0  0.00000000000E+00  0.00000000000E+00  0.27015501057E+03  0.65797057543E+03  0.59995128835E+03 0.  0.
        3    1    3    3  502    0 -0.21133284452E+03  0.20147561374E+03  0.21051452547E+03  0.35995884451E+03  0.10100000352E+00 0. -1.
       -3    1    3    3    0  502  0.21133284452E+03 -0.20147561374E+03  0.59640485105E+02  0.29801173093E+03  0.10100000352E+00 0.  1.
</event>
<event>
 5   0  0.9866317E-03  0.5976121E+03  0.7818609E-02  0.9910373E-01
       -2   -1    0    0    0  501  0.00000000000E+00  0.00000000000E+00  0.72993415630E+02  0.72993415674E+02  0.25500000920E-02 0.  1.
        2   -1    0    0  501    0  0.00000000000E+00  0.00000000000E+00 -0.12231931082E+04  0.12231931082E+04  0.25500000920E-02 0. -1.
    10030    2    1    2    0    0  0.00000000000E+00  0.00000000000E+00 -0.11501996925E+04  0.12961865238E+04  0.59761205801E+03 0.  0.
        1    1    3    3  502    0 -0.22661983722E+03 -0.58789843871E+02 -0.97780106509E+03  0.10054390679E+04  0.50400001928E-02 0. -1.
       -1    1    3    3    0  502  0.22661983722E+03  0.58789843871E+02 -0.17239862745E+03  0.29074745594E+03  0.50400001928E-02 0.  1.
</event>
<event>
 5   0  0.5503975E-03  0.6005398E+03  0.7818609E-02  0.9904287E-01
       -1   -1    0    0    0  501  0.00000000000E+00  0.00000000000E+00  0.88087888412E+02  0.88087888556E+02  0.50400001928E-02 0.  1.
        1   -1    0    0  501    0  0.00000000000E+00  0.00000000000E+00 -0.10235462075E+04  0.10235462075E+04  0.50400001928E-02 0. -1.
    10030    2    1    2    0    0  0.00000000000E+00  0.00000000000E+00 -0.93545831906E+03  0.11116340960E+04  0.60053983780E+03 0.  0.
        4    1    3    3  502    0  0.15319831428E+03 -0.54884148920E+02 -0.62238137139E+00  0.16273903514E+03  0.12699999809E+01 0.  1.
       -4    1    3    3    0  502 -0.15319831428E+03  0.54884148920E+02 -0.93483593769E+03  0.94889506090E+03  0.12699999809E+01 0. -1.
</event>
<event>
 5   0  0.5785798E-03  0.5963103E+03  0.7818609E-02  0.9913091E-01
       -1   -1    0    0    0  501  0.00000000000E+00  0.00000000000E+00  0.93772330957E+02  0.93772331093E+02  0.50400001928E-02 0.  1.
        1   -1    0    0  501    0  0.00000000000E+00  0.00000000000E+00 -0.94800335173E+03  0.94800335174E+03  0.50400001928E-02 0. -1.
    10030    2    1    2    0    0  0.00000000000E+00  0.00000000000E+00 -0.85423102077E+03  0.10417756828E+04  0.59631026865E+03 0.  0.
        1    1    3    3  502    0  0.26340779759E+03 -0.11462930144E+03 -0.28764839246E+03  0.40652815682E+03  0.50400001928E-02 0. -1.
       -1    1    3    3    0  502 -0.26340779759E+03  0.11462930144E+03 -0.56658262831E+03  0.63524752601E+03  0.50400001928E-02 0.  1.
</event>
<event>
 5   0  0.9530666E-03  0.6002690E+03  0.7818609E-02  0.9904848E-01
        2   -1    0    0  501    0  0.00000000000E+00  0.00000000000E+00  0.50442590222E+03  0.50442590223E+03  0.25500000920E-02 0. -1.
       -2   -1    0    0    0  501  0.00000000000E+00  0.00000000000E+00 -0.17858069445E+03  0.17858069447E+03  0.25500000920E-02 0.  1.
    10030    2    1    2    0    0  0.00000000000E+00  0.00000000000E+00  0.32584520777E+03  0.68300659669E+03  0.60026903277E+03 0.  0.
        2    1    3    3  502    0 -0.13705548260E+03 -0.57747487728E+02  0.45954998444E+03  0.48301673455E+03  0.25500000920E-02 0. -1.
       -2    1    3    3    0  502  0.13705548260E+03  0.57747487728E+02 -0.13370477667E+03  0.19998986214E+03  0.25500000920E-02 0.  1.
</event>
<event>
 5   0  0.5491236E-03  0.6011765E+03  0.7818609E-02  0.9902968E-01
        1   -1    0    0  501    0  0.00000000000E+00  0.00000000000E+00  0.20638644566E+03  0.20638644572E+03  0.50400001928E-02 0. -1.
       -1   -1    0    0    0  501  0.00000000000E+00  0.00000000000E+00 -0.43778692042E+03  0.43778692045E+03  0.50400001928E-02 0.  1.
    10030    2    1    2    0    0  0.00000000000E+00  0.00000000000E+00 -0.23140047476E+03  0.64417336617E+03  0.60117646824E+03 0.  0.
        3    1    3    3  502    0 -0.25067598782E+03  0.12325340142E+03 -0.23465079863E+03  0.36481619938E+03  0.10100000352E+00 0.  1.
       -3    1    3    3    0  502  0.25067598782E+03 -0.12325340142E+03  0.32503238633E+01  0.27935716679E+03  0.10100000352E+00 0. -1.
</event>
<event>
 5   0  0.3794375E-03  0.6000754E+03  0.7818609E-02  0.9905250E-01
       -3   -1    0    0    0  501  0.00000000000E+00  0.00000000000E+00  0.13037129583E+03  0.13037133496E+03  0.10100000352E+00 0. -1.
        3   -1    0    0  501    0  0.00000000000E+00  0.00000000000E+00 -0.69050932078E+03  0.69050932817E+03  0.10100000352E+00 0.  1.
    10030    2    1    2    0    0  0.00000000000E+00  0.00000000000E+00 -0.56013802495E+03  0.82088066312E+03  0.60007537535E+03 0.  0.
        2    1    3    3  502    0  0.25836021531E+03  0.10945980504E+03 -0.13470945826E+03  0.31125245047E+03  0.25500000920E-02 0. -1.
       -2    1    3    3    0  502 -0.25836021531E+03 -0.10945980504E+03 -0.42542856669E+03  0.50962821266E+03  0.25500000920E-02 0.  1.
</event>
<event>
 5   0  0.9428629E-03  0.6005614E+03  0.7818609E-02  0.9904242E-01
        2   -1    0    0  501    0  0.00000000000E+00  0.00000000000E+00  0.66052666870E+03  0.66052666870E+03  0.25500000920E-02 0. -1.
       -2   -1    0    0    0  501  0.00000000000E+00  0.00000000000E+00 -0.13651000309E+03  0.13651000311E+03  0.25500000920E-02 0.  1.
    10030    2    1    2    0    0  0.00000000000E+00  0.00000000000E+00  0.52401666561E+03  0.79703667182E+03  0.60056139602E+03 0.  0.
        3    1    3    3  502    0  0.28934626546E+03 -0.14047242029E+02  0.15708853084E+03  0.32953816633E+03  0.10100000352E+00 0.  1.
       -3    1    3    3    0  502 -0.28934626546E+03  0.14047242029E+02  0.36692813477E+03  0.46749850549E+03  0.10100000352E+00 0. -1.
</event>
<event>
 5   0  0.5503975E-03  0.5982420E+03  0.7818609E-02  0.9909060E-01
       -1   -1    0    0    0  501  0.00000000000E+00  0.00000000000E+00  0.13285581759E+03  0.13285581768E+03  0.50400001928E-02 0. -1.
        1   -1    0    0  501    0  0.00000000000E+00  0.00000000000E+00 -0.67346213364E+03  0.67346213366E+03  0.50400001928E-02 0.  1.
    10030    2    1    2    0    0  0.00000000000E+00  0.00000000000E+00 -0.54060631605E+03  0.80631795134E+03  0.59824196585E+03 0.  0.
        4    1    3    3  502    0 -0.24055312468E+03 -0.94046200945E+02 -0.66960936554E+02  0.26682554906E+03  0.12699999809E+01 0. -1.
       -4    1    3    3    0  502  0.24055312468E+03  0.94046200945E+02 -0.47364537950E+03  0.53949240229E+03  0.12699999809E+01 0.  1.
</event>
<event>
 5   0  0.9530666E-03  0.5994814E+03  0.7818609E-02  0.9906483E-01
        2   -1    0    0  501    0  0.00000000000E+00  0.00000000000E+00  0.85837157722E+03  0.85837157722E+03  0.25500000920E-02 0. -1.
       -2   -1    0    0    0  501  0.00000000000E+00  0.00000000000E+00 -0.10466852484E+03  0.10466852487E+03  0.25500000920E-02 0.  1.
    10030    2    1    2    0    0  0.00000000000E+00  0.00000000000E+00  0.75370305238E+03  0.96304010209E+03  0.59948139843E+03 0.  0.
        2    1    3    3  502    0 -0.67779419174E+02 -0.86723313093E+01 -0.91989180703E+02  0.11459174650E+03  0.25500000920E-02 0.  1.
       -2    1    3    3    0  502  0.67779419174E+02  0.86723313093E+01  0.84569223308E+03  0.84844835559E+03  0.25500000920E-02 0. -1.
</event>
<event>
 5   0  0.5653633E-03  0.5999970E+03  0.7818609E-02  0.9905412E-01
        1   -1    0    0  501    0  0.00000000000E+00  0.00000000000E+00  0.84676578579E+03  0.84676578581E+03  0.50400001928E-02 0.  1.
       -1   -1    0    0    0  501  0.00000000000E+00  0.00000000000E+00 -0.10628570822E+03  0.10628570834E+03  0.50400001928E-02 0. -1.
    10030    2    1    2    0    0  0.00000000000E+00  0.00000000000E+00  0.74048007757E+03  0.95305149415E+03  0.59999700433E+03 0.  0.
        2    1    3    3  502    0 -0.17114803400E+02  0.29862118976E+03  0.33361758449E+03  0.44807167301E+03  0.25500000920E-02 0. -1.
       -2    1    3    3    0  502  0.17114803400E+02 -0.29862118976E+03  0.40686249309E+03  0.50497982113E+03  0.25500000920E-02 0.  1.
</event>
<event>
 5   0  0.9428629E-03  0.6003024E+03  0.7818609E-02  0.9904779E-01
       -2   -1    0    0    0  501  0.00000000000E+00  0.00000000000E+00  0.23805925812E+03  0.23805925813E+03  0.25500000920E-02 0.  1.
        2   -1    0    0  501    0  0.00000000000E+00  0.00000000000E+00 -0.37843829510E+03  0.37843829511E+03  0.25500000920E-02 0. -1.
    10030    2    1    2    0    0  0.00000000000E+00  0.00000000000E+00 -0.14037903698E+03  0.61649755324E+03  0.60030238974E+03 0.  0.
        3    1    3    3  502    0  0.16800884681E+03  0.21242162427E+03 -0.20306643010E+03  0.33850539774E+03  0.10100000352E+00 0. -1.
       -3    1    3    3    0  502 -0.16800884681E+03 -0.21242162427E+03  0.62687393116E+02  0.27799215550E+03  0.10100000352E+00 0.  1.
</event>
<event>
 5   0  0.9571790E-03  0.5978331E+03  0.7818609E-02  0.9909912E-01
        2   -1    0    0  501    0  0.00000000000E+00  0.00000000000E+00  0.81851305807E+03  0.81851305807E+03  0.25500000920E-02 0. -1.
       -2   -1    0    0    0  501  0.00000000000E+00  0.00000000000E+00 -0.10916269723E+03  0.10916269726E+03  0.25500000920E-02 0.  1.
    10030    2    1    2    0    0  0.00000000000E+00  0.00000000000E+00  0.70935036084E+03  0.92767575534E+03  0.59783306417E+03 0.  0.
        5    1    3    3  502    0  0.26405664623E+03  0.13956344255E+03  0.37203350590E+03  0.47711097915E+03  0.46999998093E+01 0.  1.
       -5    1    3    3    0  502 -0.26405664623E+03 -0.13956344255E+03  0.33731685494E+03  0.45056477619E+03  0.46999998093E+01 0. -1.
</event>
<event>
 5   0  0.5653633E-03  0.6001835E+03  0.7818609E-02  0.9905025E-01
        1   -1    0    0  501    0  0.00000000000E+00  0.00000000000E+00  0.62150094690E+03  0.62150094692E+03  0.50400001928E-02 0. -1.
       -1   -1    0    0    0  501  0.00000000000E+00  0.00000000000E+00 -0.14489930523E+03  0.14489930531E+03  0.50400001928E-02 0.  1.
    10030    2    1    2    0    0  0.00000000000E+00  0.00000000000E+00  0.47660164168E+03  0.76640025224E+03  0.60018349009E+03 0.  0.
        2    1    3    3  502    0  0.18665516555E+03  0.15580125785E+03  0.46291536475E+03  0.52288126539E+03  0.25500000920E-02 0. -1.
       -2    1    3    3    0  502 -0.18665516555E+03 -0.15580125785E+03  0.13686276929E+02  0.24351898685E+03  0.25500000920E-02 0.  1.
</event>
<event>
 5   0  0.9428629E-03  0.6000045E+03  0.7818609E-02  0.9905397E-01
       -2   -1    0    0    0  501  0.00000000000E+00  0.00000000000E+00  0.80632990137E+02  0.80632990178E+02  0.25500000920E-02 0.  1.
        2   -1    0    0  501    0  0.00000000000E+00  0.00000000000E+00 -0.11161851390E+04  0.11161851390E+04  0.25500000920E-02 0. -1.
    10030    2    1    2    0    0  0.00000000000E+00  0.00000000000E+00 -0.10355521488E+04  0.11968181292E+04  0.60000448441E+03 0.  0.
        3    1    3    3  502    0  0.25310433718E+03 -0.24701158935E+02 -0.20031830311E+03  0.32372733204E+03  0.10100000352E+00 0.  1.
       -3    1    3    3    0  502 -0.25310433718E+03  0.24701158935E+02 -0.83523384573E+03  0.87309079711E+03  0.10100000352E+00 0. -1.
</event>
<event>
 5   0  0.9866317E-03  0.6017917E+03  0.7818609E-02  0.9901696E-01
        2   -1    0    0  501    0  0.00000000000E+00  0.00000000000E+00  0.14121838859E+04  0.14121838859E+04  0.25500000920E-02 0.  1.
       -2   -1    0    0    0  501  0.00000000000E+00  0.00000000000E+00 -0.64112266058E+02  0.64112266109E+02  0.25500000920E-02 0. -1.
    10030    2    1    2    0    0  0.00000000000E+00  0.00000000000E+00  0.13480716199E+04  0.14762961520E+04  0.60179168840E+03 0.  0.
        1    1    3    3  502    0 -0.13839821170E+03 -0.38760192542E+02  0.13225352842E+04  0.13303217639E+04  0.50400001928E-02 0.  1.
       -1    1    3    3    0  502  0.13839821170E+03  0.38760192542E+02  0.25536335663E+02  0.14597438813E+03  0.50400001928E-02 0. -1.
</event>
<event>
 5   0  0.5491236E-03  0.5952515E+03  0.7818609E-02  0.9915307E-01
        1   -1    0    0  501    0  0.00000000000E+00  0.00000000000E+00  0.80599416765E+03  0.80599416767E+03  0.50400001928E-02 0.  1.
       -1   -1    0    0    0  501  0.00000000000E+00  0.00000000000E+00 -0.10990290434E+03  0.10990290445E+03  0.50400001928E-02 0. -1.
    10030    2    1    2    0    0  0.00000000000E+00  0.00000000000E+00  0.69609126331E+03  0.91589707212E+03  0.59525154335E+03 0.  0.
        3    1    3    3  502    0 -0.88192756905E+02 -0.58158658707E+02 -0.80083402683E+02  0.13256603464E+03  0.10100000352E+00 0. -1.
       -3    1    3    3    0  502  0.88192756905E+02  0.58158658707E+02  0.77617466599E+03  0.78333103748E+03  0.10100000352E+00 0.  1.
</event>
<event>
 5   0  0.9428629E-03  0.5997062E+03  0.7818609E-02  0.9906016E-01
       -2   -1    0    0    0  501  0.00000000000E+00  0.00000000000E+00  0.64523473410E+02  0.64523473461E+02  0.25500000920E-02 0.  1.
        2   -1    0    0  501    0  0.00000000000E+00  0.00000000000E+00 -0.13934753501E+04  0.13934753501E+04  0.25500000920E-02 0. -1.
    10030    2    1    2    0    0  0.00000000000E+00  0.00000000000E+00 -0.13289518767E+04  0.14579988235E+04  0.59970616051E+03 0.  0.
        3    1    3    3  502    0 -0.27097791612E+03  0.23053568465E+02 -0.35741997094E+03  0.44912085665E+03  0.10100000352E+00 0.  1.
       -3    1    3    3    0  502  0.27097791612E+03 -0.23053568465E+02 -0.97153190573E+03  0.10088779669E+04  0.10100000352E+00 0. -1.
</event>
<event>
 5   0  0.5503975E-03  0.6014026E+03  0.7818609E-02  0.9902500E-01
        1   -1    0    0  501    0  0.00000000000E+00  0.00000000000E+00  0.12216617184E+04  0.12216617184E+04  0.50400001928E-02 0. -1.
       -1   -1    0    0    0  501  0.00000000000E+00  0.00000000000E+00 -0.74014983838E+02  0.74014984009E+02  0.50400001928E-02 0.  1.
    10030    2    1    2    0    0  0.00000000000E+00  0.00000000000E+00  0.11476467346E+04  0.12956767025E+04  0.60140260213E+03 0.  0.
        4    1    3    3  502    0 -0.10552884891E+03 -0.25237500244E+03  0.30482050059E+03  0.40956883462E+03  0.12699999809E+01 0.  1.
       -4    1    3    3    0  502  0.10552884891E+03  0.25237500244E+03  0.84282623401E+03  0.88610786783E+03  0.12699999809E+01 0. -1.
</event>
<event>
 5   0  0.5785798E-03  0.5998336E+03  0.7818609E-02  0.9905751E-01
       -1   -1    0    0    0  501  0.00000000000E+00  0.00000000000E+00  0.20436235884E+03  0.20436235890E+03  0.50400001928E-02 0. -1.
        1   -1    0    0  501    0  0.00000000000E+00  0.00000000000E+00 -0.44015001954E+03  0.44015001957E+03  0.50400001928E-02 0.  1.
    10030    2    1    2    0    0  0.00000000000E+00  0.00000000000E+00 -0.23578766070E+03  0.64451237847E+03  0.59983363116E+03 0.  0.
        1    1    3    3  502    0 -0.16048549886E+02 -0.66189896382E+02 -0.43173078570E+03  0.43706993683E+03  0.50400001928E-02 0.  1.
       -1    1    3    3    0  502  0.16048549886E+02  0.66189896382E+02  0.19594312500E+03  0.20744244164E+03  0.50400001928E-02 0. -1.
</event>
<event>
 5   0  0.5491236E-03  0.5999503E+03  0.7818609E-02  0.9905509E-01
       -1   -1    0    0    0  501  0.00000000000E+00  0.00000000000E+00  0.13960325849E+03  0.13960325858E+03  0.50400001928E-02 0. -1.
        1   -1    0    0  501    0  0.00000000000E+00  0.00000000000E+00 -0.64457724586E+03  0.64457724588E+03  0.50400001928E-02 0.  1.
    10030    2    1    2    0    0  0.00000000000E+00  0.00000000000E+00 -0.50497398738E+03  0.78418050446E+03  0.59995027765E+03 0.  0.
        3    1    3    3  502    0  0.15602294999E+03  0.23326659891E+03 -0.39099144016E+03  0.48128035860E+03  0.10100000352E+00 0.  1.
       -3    1    3    3    0  502 -0.15602294999E+03 -0.23326659891E+03 -0.11398254721E+03  0.30290014586E+03  0.10100000352E+00 0. -1.
</event>
<event>
 5   0  0.9681801E-03  0.5992144E+03  0.7818609E-02  0.9907037E-01
       -2   -1    0    0    0  501  0.00000000000E+00  0.00000000000E+00  0.17164981790E+03  0.17164981792E+03  0.25500000920E-02 0.  1.
        2   -1    0    0  501    0  0.00000000000E+00  0.00000000000E+00 -0.52295119561E+03  0.52295119561E+03  0.25500000920E-02 0. -1.
    10030    2    1    2    0    0  0.00000000000E+00  0.00000000000E+00 -0.35130137770E+03  0.69460101353E+03  0.59921441073E+03 0.  0.
        4    1    3    3  502    0 -0.57925077965E+02 -0.48751931000E+01  0.16504706591E+03  0.17498922547E+03  0.12699999809E+01 0.  1.
       -4    1    3    3    0  502  0.57925077965E+02  0.48751931000E+01 -0.51634844362E+03  0.51961178806E+03  0.12699999809E+01 0. -1.
</event>
<event>
 5   0  0.9681801E-03  0.6008474E+03  0.7818609E-02  0.9903650E-01
        2   -1    0    0  501    0  0.00000000000E+00  0.00000000000E+00  0.72501328946E+03  0.72501328947E+03  0.25500000920E-02 0.  1.
       -2   -1    0    0    0  501  0.00000000000E+00  0.00000000000E+00 -0.12448653657E+03  0.12448653659E+03  0.25500000920E-02 0. -1.
    10030    2    1    2    0    0  0.00000000000E+00  0.00000000000E+00  0.60052675290E+03  0.84949982606E+03  0.60084737957E+03 0.  0.
        4    1    3    3  502    0  0.96760313744E+02 -0.23440577076E+03  0.72534080722E+02  0.26376396541E+03  0.12699999809E+01 0. -1.
       -4    1    3    3    0  502 -0.96760313744E+02  0.23440577076E+03  0.52799267217E+03  0.58573586065E+03  0.12699999809E+01 0.  1.
</event>
<event>
 5   0  0.3794375E-03  0.5993232E+03  0.7818609E-02  0.9906811E-01
       -4   -1    0    0    0  501  0.00000000000E+00  0.00000000000E+00  0.48916445596E+03  0.48916610459E+03  0.12699999809E+01 0.  1.
        4   -1    0    0  501    0  0.00000000000E+00  0.00000000000E+00 -0.18356821739E+03  0.18357261052E+03  0.12699999809E+01 0. -1.
    10030    2    1    2    0    0  0.00000000000E+00  0.00000000000E+00  0.30559623858E+03  0.67273871511E+03  0.59932321645E+03 0.  0.
        1    1    3    3  502    0 -0.28553851203E+03  0.64013872060E+02  0.22525844602E+03  0.36928496476E+03  0.50400001928E-02 0. -1.
       -1    1    3    3    0  502  0.28553851203E+03 -0.64013872060E+02  0.80337792559E+02  0.30345375036E+03  0.50400001928E-02 0.  1.
</event>
<event>
 5   0  0.5491236E-03  0.5994797E+03  0.7818609E-02  0.9906486E-01
       -1   -1    0    0    0  501  0.00000000000E+00  0.00000000000E+00  0.88971398168E+02  0.88971398310E+02  0.50400001928E-02 0.  1.
        1   -1    0    0  501    0  0.00000000000E+00  0.00000000000E+00 -0.10098073575E+04  0.10098073575E+04  0.50400001928E-02 0. -1.
    10030    2    1    2    0    0  0.00000000000E+00  0.00000000000E+00 -0.92083595936E+03  0.10987787559E+04  0.59947968294E+03 0.  0.
        3    1    3    3  502    0 -0.12854171026E+03  0.23822644585E+03 -0.22448648414E+03  0.35166603837E+03  0.10100000352E+00 0.  1.
       -3    1    3    3    0  502  0.12854171026E+03 -0.23822644585E+03 -0.69634947522E+03  0.74711271748E+03  0.10100000352E+00 0. -1.
</event>
<event>
 5   0  0.5574736E-03  0.6004672E+03  0.7818609E-02  0.9904437E-01
        1   -1    0    0  501    0  0.00000000000E+00  0.00000000000E+00  0.64056349754E+03  0.64056349756E+03  0.50400001928E-02 0. -1.
       -1   -1    0    0    0  501  0.00000000000E+00  0.00000000000E+00 -0.14072020360E+03  0.14072020369E+03  0.50400001928E-02 0.  1.
    10030    2    1    2    0    0  0.00000000000E+00  0.00000000000E+00  0.49984329394E+03  0.78128370125E+03  0.60046723753E+03 0.  0.
        5    1    3    3  502    0 -0.21319767657E+01 -0.26685683694E+03  0.71041534932E+02  0.27619939614E+03  0.46999998093E+01 0.  1.
       -5    1    3    3    0  502  0.21319767657E+01  0.26685683694E+03  0.42880175900E+03  0.50508430511E+03  0.46999998093E+01 0. -1.
</event>
<event>
 5   0  0.9530666E-03  0.6021918E+03  0.7818609E-02  0.9900869E-01
        2   -1    0    0  501    0  0.00000000000E+00  0.00000000000E+00  0.12815071322E+04  0.12815071322E+04  0.25500000920E-02 0.  1.
       -2   -1    0    0    0  501  0.00000000000E+00  0.00000000000E+00 -0.70743846566E+02  0.70743846612E+02  0.25500000920E-02 0. -1.
    10030    2    1    2    0    0  0.00000000000E+00  0.00000000000E+00  0.12107632856E+04  0.13522509788E+04  0.60219180986E+03 0.  0.
        2    1    3    3  502    0 -0.63992688487E+02  0.79947002836E+02  0.12412017277E+04  0.12454189321E+04  0.25500000920E-02 0.  1.
       -2    1    3    3    0  502  0.63992688487E+02 -0.79947002836E+02 -0.30438442113E+02  0.10683204672E+03  0.25500000920E-02 0. -1.
</event>
<event>
 5   0  0.9428629E-03  0.5945625E+03  0.7818609E-02  0.9916752E-01
        2   -1    0    0  501    0  0.00000000000E+00  0.00000000000E+00  0.17289363376E+04  0.17289363376E+04  0.25500000920E-02 0.  1.
       -2   -1    0    0    0  501  0.00000000000E+00  0.00000000000E+00 -0.51115899114E+02  0.51115899178E+02  0.25500000920E-02 0. -1.
    10030    2    1    2    0    0  0.00000000000E+00  0.00000000000E+00  0.16778204385E+04  0.17800522368E+04  0.59456247937E+03 0.  0.
        3    1    3    3  502    0  0.26276590831E+03 -0.12097797413E+03  0.10440412781E+04  0.10833761090E+04  0.10100000352E+00 0.  1.
       -3    1    3    3    0  502 -0.26276590831E+03  0.12097797413E+03  0.63377916038E+03  0.69667612785E+03  0.10100000352E+00 0. -1.
</event>
<event>
 5   0  0.9866317E-03  0.6007488E+03  0.7818609E-02  0.9903854E-01
       -2   -1    0    0    0  501  0.00000000000E+00  0.00000000000E+00  0.18995986241E+03  0.18995986243E+03  0.25500000920E-02 0.  1.
        2   -1    0    0  501    0  0.00000000000E+00  0.00000000000E+00 -0.47496756651E+03  0.47496756652E+03  0.25500000920E-02 0. -1.
    10030    2    1    2    0    0  0.00000000000E+00  0.00000000000E+00 -0.28500770410E+03  0.66492742894E+03  0.60074877808E+03 0.  0.
        1    1    3    3  502    0 -0.35590640915E+01 -0.29998779250E+03 -0.12610813852E+03  0.32543602323E+03  0.50400001928E-02 0.  1.
       -1    1    3    3    0  502  0.35590640915E+01  0.29998779250E+03 -0.15889956558E+03  0.33949140572E+03  0.50400001928E-02 0. -1.
</event>
<event>
 5   0  0.9530666E-03  0.5999806E+03  0.7818609E-02  0.9905446E-01
       -2   -1    0    0    0  501  0.00000000000E+00  0.00000000000E+00  0.29860974102E+03  0.29860974103E+03  0.25500000920E-02 0. -1.
        2   -1    0    0  501    0  0.00000000000E+00  0.00000000000E+00 -0.30137721504E+03  0.30137721505E+03  0.25500000920E-02 0.  1.
    10030    2    1    2    0    0  0.00000000000E+00  0.00000000000E+00 -0.27674740192E+01  0.59998695609E+03  0.59998057349E+03 0.  0.
        2    1    3    3  502    0  0.28525280807E+03 -0.40842637479E+02  0.82025103069E+02  0.29960875002E+03  0.25500000920E-02 0. -1.
       -2    1    3    3    0  502 -0.28525280807E+03  0.40842637479E+02 -0.84792577088E+02  0.30037820607E+03  0.25500000920E-02 0.  1.
</event>
<event>
 5   0  0.9428629E-03  0.6005962E+03  0.7818609E-02  0.9904170E-01
       -2   -1    0    0    0  501  0.00000000000E+00  0.00000000000E+00  0.17781958175E+03  0.17781958177E+03  0.25500000920E-02 0. -1.
        2   -1    0    0  501    0  0.00000000000E+00  0.00000000000E+00 -0.50713728619E+03  0.50713728620E+03  0.25500000920E-02 0.  1.
    10030    2    1    2    0    0  0.00000000000E+00  0.00000000000E+00 -0.32931770444E+03  0.68495686796E+03  0.60059617091E+03 0.  0.
        3    1    3    3  502    0 -0.10350552764E+03 -0.24660275715E+03 -0.32041691552E+03  0.41736473742E+03  0.10100000352E+00 0. -1.
       -3    1    3    3    0  502  0.10350552764E+03  0.24660275715E+03 -0.89007889281E+01  0.26759213055E+03  0.10100000352E+00 0.  1.
</event>
<event>
 5   0  0.5491236E-03  0.5991766E+03  0.7818609E-02  0.9907116E-01
       -1   -1    0    0    0  501  0.00000000000E+00  0.00000000000E+00  0.39477360642E+03  0.39477360645E+03  0.50400001928E-02 0.  1.
        1   -1    0    0  501    0  0.00000000000E+00  0.00000000000E+00 -0.22735343416E+03  0.22735343422E+03  0.50400001928E-02 0. -1.
    10030    2    1    2    0    0  0.00000000000E+00  0.00000000000E+00  0.16742017225E+03  0.62212704067E+03  0.59917655216E+03 0.  0.
        3    1    3    3  502    0  0.10376942427E+02 -0.20943854667E+03 -0.13845029803E+03  0.25127809493E+03  0.10100000352E+00 0. -1.
       -3    1    3    3    0  502 -0.10376942427E+02  0.20943854667E+03  0.30587047029E+03  0.37084894574E+03  0.10100000352E+00 0.  1.
</event>
<event>
 5   0  0.9571790E-03  0.6010568E+03  0.7818609E-02  0.9903216E-01
       -2   -1    0    0    0  501  0.00000000000E+00  0.00000000000E+00  0.17717471327E+03  0.17717471329E+03  0.25500000920E-02 0.  1.
        2   -1    0    0  501    0  0.00000000000E+00  0.00000000000E+00 -0.50976422409E+03  0.50976422409E+03  0.25500000920E-02 0. -1.
    10030    2    1    2    0    0  0.00000000000E+00  0.00000000000E+00 -0.33258951082E+03  0.68693893738E+03  0.60105683673E+03 0.  0.
        5    1    3    3  502    0  0.20826801458E+03  0.21560457443E+03 -0.14247603515E+03  0.33193735704E+03  0.46999998093E+01 0.  1.
       -5    1    3    3    0  502 -0.20826801458E+03 -0.21560457443E+03 -0.19011347567E+03  0.35500158034E+03  0.46999998093E+01 0. -1.
</event>
<event>
 5   0  0.5574736E-03  0.5998650E+03  0.7818609E-02  0.9905686E-01
        1   -1    0    0  501    0  0.00000000000E+00  0.00000000000E+00  0.17413819102E+03  0.17413819110E+03  0.50400001928E-02 0.  1.
       -1   -1    0    0    0  501  0.00000000000E+00  0.00000000000E+00 -0.51659835530E+03  0.51659835532E+03  0.50400001928E-02 0. -1.
    10030    2    1    2    0    0  0.00000000000E+00  0.00000000000E+00 -0.34246016427E+03  0.69073654642E+03  0.59986499518E+03 0.  0.
        5    1    3    3  502    0 -0.12817734537E+03  0.25876946646E+03 -0.26439627363E+03  0.39155912471E+03  0.46999998093E+01 0. -1.
       -5    1    3    3    0  502  0.12817734537E+03 -0.25876946646E+03 -0.78063890647E+02  0.29917742171E+03  0.46999998093E+01 0.  1.
</event>
<event>
 5   0  0.5491236E-03  0.6008134E+03  0.7818609E-02  0.9903720E-01
       -1   -1    0    0    0  501  0.00000000000E+00  0.00000000000E+00  0.13170034762E+03  0.13170034772E+03  0.50400001928E-02 0. -1.
        1   -1    0    0  501    0  0.00000000000E+00  0.00000000000E+00 -0.68522369884E+03  0.68522369886E+03  0.50400001928E-02 0.  1.
    10030    2    1    2    0    0  0.00000000000E+00  0.00000000000E+00 -0.55352335122E+03  0.81692404658E+03  0.60081344653E+03 0.  0.
        3    1    3    3  502    0 -0.41399592404E+02 -0.91096411141E+02 -0.66189850581E+03  0.66941924425E+03  0.10100000352E+00 0.  1.
       -3    1    3    3    0  502  0.41399592404E+02  0.91096411141E+02  0.10837515460E+03  0.14750480233E+03  0.10100000352E+00 0. -1.
</event>
<event>
 5   0  0.3794375E-03  0.6002245E+03  0.7818609E-02  0.9904940E-01
        3   -1    0    0  501    0  0.00000000000E+00  0.00000000000E+00  0.37443852505E+03  0.37443853867E+03  0.10100000352E+00 0.  1.
       -3   -1    0    0    0  501  0.00000000000E+00  0.00000000000E+00 -0.24053978926E+03  0.24053981047E+03  0.10100000352E+00 0. -1.
    10030    2    1    2    0    0  0.00000000000E+00  0.00000000000E+00  0.13389873579E+03  0.61497834914E+03  0.60022454004E+03 0.  0.
        3    1    3    3  502    0  0.15761676025E+02  0.29857725212E+03  0.93481027410E+02  0.31326589122E+03  0.10100000352E+00 0.  1.
       -3    1    3    3    0  502 -0.15761676025E+02 -0.29857725212E+03  0.40417708382E+02  0.30171245792E+03  0.10100000352E+00 0. -1.
</event>
<event>
 5   0  0.9428629E-03  0.5987515E+03  0.7818609E-02  0.9908000E-01
        2   -1    0    0  501    0  0.00000000000E+00  0.00000000000E+00  0.28054791946E+03  0.28054791947E+03  0.25500000920E-02 0. -1.
       -2   -1    0    0    0  501  0.00000000000E+00  0.00000000000E+00 -0.31946710800E+03  0.31946710801E+03  0.25500000920E-02 0.  1.
    10030    2    1    2    0    0  0.00000000000E+00  0.00000000000E+00 -0.38919188544E+02  0.60001502748E+03  0.59875147596E+03 0.  0.
        3    1    3    3  502    0  0.24410211404E+03 -0.26101929351E+02  0.15224571159E+03  0.28887007407E+03  0.10100000352E+00 0. -1.
       -3    1    3    3    0  502 -0.24410211404E+03  0.26101929351E+02 -0.19116490013E+03  0.31114495342E+03  0.10100000352E+00 0.  1.
</event>
<event>
 5   0  0.5785798E-03  0.6003662E+03  0.7818609E-02  0.9904647E-01
       -1   -1    0    0    0  501  0.00000000000E+00  0.00000000000E+00  0.19741088479E+03  0.19741088485E+03  0.50400001928E-02 0. -1.
        1   -1    0    0  501    0  0.00000000000E+00  0.00000000000E+00 -0.45645856043E+03  0.45645856046E+03  0.50400001928E-02 0.  1.
    10030    2    1    2    0    0  0.00000000000E+00  0.00000000000E+00 -0.25904767564E+03  0.65386944531E+03  0.60036618264E+03 0.  0.
        1    1    3    3  502    0 -0.22896155265E+03 -0.16383141269E+03 -0.24294782126E+03  0.37187063377E+03  0.50400001928E-02 0.  1.
       -1    1    3    3    0  502  0.22896155265E+03  0.16383141269E+03 -0.16099854381E+02  0.28199881154E+03  0.50400001928E-02 0. -1.
</event>
<event>
 5   0  0.5491236E-03  0.5996460E+03  0.7818609E-02  0.9906141E-01
       -1   -1    0    0    0  501  0.00000000000E+00  0.00000000000E+00  0.12754780691E+03  0.12754780701E+03  0.50400001928E-02 0. -1.
        1   -1    0    0  501    0  0.00000000000E+00  0.00000000000E+00 -0.70478536833E+03  0.70478536835E+03  0.50400001928E-02 0.  1.
    10030    2    1    2    0    0  0.00000000000E+00  0.00000000000E+00 -0.57723756142E+03  0.83233317535E+03  0.59964598930E+03 0.  0.
        3    1    3    3  502    0 -0.12020396596E+03  0.15018099171E+03  0.30601947889E+02  0.19478144962E+03  0.10100000352E+00 0. -1.
       -3    1    3    3    0  502  0.12020396596E+03 -0.15018099171E+03 -0.60783950931E+03  0.63755172573E+03  0.10100000352E+00 0.  1.
</event>
<event>
 5   0  0.5653633E-03  0.5999032E+03  0.7818609E-02  0.9905607E-01
        1   -1    0    0  501    0  0.00000000000E+00  0.00000000000E+00  0.65408048076E+03  0.65408048078E+03  0.50400001928E-02 0.  1.
       -1   -1    0    0    0  501  0.00000000000E+00  0.00000000000E+00 -0.13755336844E+03  0.13755336854E+03  0.50400001928E-02 0. -1.
    10030    2    1    2    0    0  0.00000000000E+00  0.00000000000E+00  0.51652711232E+03  0.79163384931E+03  0.59990323688E+03 0.  0.
        2    1    3    3  502    0  0.73029944818E+02  0.27437734406E+03  0.38589493780E+03  0.47909414816E+03  0.25500000920E-02 0.  1.
       -2    1    3    3    0  502 -0.73029944818E+02 -0.27437734406E+03  0.13063217452E+03  0.31253970116E+03  0.25500000920E-02 0. -1.
</event>
<event>
 5   0  0.5574736E-03  0.6017201E+03  0.7818609E-02  0.9901844E-01
       -1   -1    0    0    0  501  0.00000000000E+00  0.00000000000E+00  0.60219676337E+02  0.60219676548E+02  0.50400001928E-02 0. -1.
        1   -1    0    0  501    0  0.00000000000E+00  0.00000000000E+00 -0.15031095071E+04  0.15031095071E+04  0.50400001928E-02 0.  1.
    10030    2    1    2    0    0  0.00000000000E+00  0.00000000000E+00 -0.14428898307E+04  0.15633291836E+04  0.60172009501E+03 0.  0.
        5    1    3    3  502    0 -0.19619756875E+03  0.26893618618E+02 -0.13311471374E+03  0.23865952677E+03  0.46999998093E+01 0. -1.
       -5    1    3    3    0  502  0.19619756875E+03 -0.26893618618E+02 -0.13097751170E+04  0.13246696568E+04  0.46999998093E+01 0.  1.
</event>
<event>
 5   0  0.9681801E-03  0.5999763E+03  0.7818609E-02  0.9905455E-01
       -2   -1    0    0    0  501  0.00000000000E+00  0.00000000000E+00  0.99864864919E+02  0.99864864952E+02  0.25500000920E-02 0.  1.
        2   -1    0    0  501    0  0.00000000000E+00  0.00000000000E+00 -0.90114680816E+03  0.90114680817E+03  0.25500000920E-02 0. -1.
    10030    2    1    2    0    0  0.00000000000E+00  0.00000000000E+00 -0.80128194324E+03  0.10010116731E+04  0.59997634716E+03 0.  0.
        4    1    3    3  502    0 -0.88387818342E+02 -0.15866290832E+03 -0.79898779637E+03  0.81937136670E+03  0.12699999809E+01 0. -1.
       -4    1    3    3    0  502  0.88387818342E+02  0.15866290832E+03 -0.22941468693E+01  0.18164030642E+03  0.12699999809E+01 0.  1.
</event>
<event>
 5   0  0.9866317E-03  0.5967778E+03  0.7818609E-02  0.9912114E-01
        2   -1    0    0  501    0  0.00000000000E+00  0.00000000000E+00  0.19056249184E+04  0.19056249184E+04  0.25500000920E-02 0.  1.
       -2   -1    0    0    0  501  0.00000000000E+00  0.00000000000E+00 -0.46722696938E+02  0.46722697008E+02  0.25500000920E-02 0. -1.
    10030    2    1    2    0    0  0.00000000000E+00  0.00000000000E+00  0.18589022214E+04  0.19523476154E+04  0.59677779988E+03 0.  0.
        1    1    3    3  502    0  0.11126561561E+03 -0.14938059218E+00  0.18352196104E+04  0.18385894261E+04  0.50400001928E-02 0.  1.
       -1    1    3    3    0  502 -0.11126561561E+03  0.14938059218E+00  0.23682611066E+02  0.11375818926E+03  0.50400001928E-02 0. -1.
</event>
<event>
 5   0  0.5503975E-03  0.5995889E+03  0.7818609E-02  0.9906259E-01
        1   -1    0    0  501    0  0.00000000000E+00  0.00000000000E+00  0.63034286778E+03  0.63034286780E+03  0.50400001928E-02 0.  1.
       -1   -1    0    0    0  501  0.00000000000E+00  0.00000000000E+00 -0.14258386186E+03  0.14258386195E+03  0.50400001928E-02 0. -1.
    10030    2    1    2    0    0  0.00000000000E+00  0.00000000000E+00  0.48775900593E+03  0.77292672975E+03  0.59958892727E+03 0.  0.
        4    1    3    3  502    0 -0.23302988591E+03 -0.21724296369E+02  0.23669365125E+01  0.23405573710E+03  0.12699999809E+01 0. -1.
       -4    1    3    3    0  502  0.23302988591E+03  0.21724296369E+02  0.48539206941E+03  0.53887099266E+03  0.12699999809E+01 0.  1.
</event>
<event>
 5   0  0.9530666E-03  0.6005949E+03  0.7818609E-02  0.9904173E-01
       -2   -1    0    0    0  501  0.00000000000E+00  0.00000000000E+00  0.50290062924E+02  0.50290062989E+02  0.25500000920E-02 0.  1.
        2   -1    0    0  501    0  0.00000000000E+00  0.00000000000E+00 -0.17931684415E+04  0.17931684415E+04  0.25500000920E-02 0. -1.
    10030    2    1    2    0    0  0.00000000000E+00  0.00000000000E+00 -0.17428783786E+04  0.18434585045E+04  0.60059488449E+03 0.  0.
        2    1    3    3  502    0  0.16888228916E+03 -0.94150950902E+02 -0.16619486700E+03  0.25496345419E+03  0.25500000920E-02 0.  1.
       -2    1    3    3    0  502 -0.16888228916E+03  0.94150950902E+02 -0.15766835116E+04  0.15884950503E+04  0.25500000920E-02 0. -1.
</event>
<event>
 5   0  0.5491236E-03  0.5991814E+03  0.7818609E-02  0.9907106E-01
       -1   -1    0    0    0  501  0.00000000000E+00  0.00000000000E+00  0.34785724144E+03  0.34785724147E+03  0.50400001928E-02 0.  1.
        1   -1    0    0  501    0  0.00000000000E+00  0.00000000000E+00 -0.25802133691E+03  0.25802133696E+03  0.50400001928E-02 0. -1.
    10030    2    1    2    0    0  0.00000000000E+00  0.00000000000E+00  0.89835904522E+02  0.60587857844E+03  0.59918140998E+03 0.  0.
        3    1    3    3  502    0  0.14818896006E+03 -0.25555475033E+03 -0.55030176027E+01  0.29546318164E+03  0.10100000352E+00 0. -1.
       -3    1    3    3    0  502 -0.14818896006E+03  0.25555475033E+03  0.95338922125E+02  0.31041539680E+03  0.10100000352E+00 0.  1.
</event>
<event>
 5   0  0.9530666E-03  0.6006357E+03  0.7818609E-02  0.9904088E-01
       -2   -1    0    0    0  501  0.00000000000E+00  0.00000000000E+00  0.35751441534E+03  0.35751441535E+03  0.25500000920E-02 0. -1.
        2   -1    0    0  501    0  0.00000000000E+00  0.00000000000E+00 -0.25227178942E+03  0.25227178943E+03  0.25500000920E-02 0.  1.
    10030    2    1    2    0    0  0.00000000000E+00  0.00000000000E+00  0.10524262592E+03  0.60978620478E+03  0.60063566763E+03 0.  0.
        2    1    3    3  502    0 -0.13014319293E+03 -0.25306801087E+03  0.15005281908E+03  0.32170874609E+03  0.25500000920E-02 0. -1.
       -2    1    3    3    0  502  0.13014319293E+03  0.25306801087E+03 -0.44810193161E+02  0.28807745869E+03  0.25500000920E-02 0.  1.
</event>
<event>
 5   0  0.5653633E-03  0.6002802E+03  0.7818609E-02  0.9904825E-01
       -1   -1    0    0    0  501  0.00000000000E+00  0.00000000000E+00  0.72908138926E+03  0.72908138927E+03  0.50400001928E-02 0.  1.
        1   -1    0    0  501    0  0.00000000000E+00  0.00000000000E+00 -0.12355831405E+03  0.12355831415E+03  0.50400001928E-02 0. -1.
    10030    2    1    2    0    0  0.00000000000E+00  0.00000000000E+00  0.60552307520E+03  0.85263970343E+03  0.60028015897E+03 0.  0.
        2    1    3    3  502    0  0.89729704245E+02  0.28586052072E+03  0.27749552057E+03  0.40837656773E+03  0.25500000920E-02 0.  1.
       -2    1    3    3    0  502 -0.89729704245E+02 -0.28586052072E+03  0.32802755463E+03  0.44426313569E+03  0.25500000920E-02 0. -1.
</event>
<event>
 5   0  0.5653633E-03  0.5968178E+03  0.7818609E-02  0.9912030E-01
        1   -1    0    0  501    0  0.00000000000E+00  0.00000000000E+00  0.38480771711E+03  0.38480771714E+03  0.50400001928E-02 0.  1.
       -1   -1    0    0    0  501  0.00000000000E+00  0.00000000000E+00 -0.23140875358E+03  0.23140875364E+03  0.50400001928E-02 0. -1.
    10030    2    1    2    0    0  0.00000000000E+00  0.00000000000E+00  0.15339896352E+03  0.61621647078E+03  0.59681780876E+03 0.  0.
        2    1    3    3  502    0 -0.22924931690E+03  0.17041995084E+03  0.16581634835E+03  0.33029270402E+03  0.25500000920E-02 0.  1.
       -2    1    3    3    0  502  0.22924931690E+03 -0.17041995084E+03 -0.12417384829E+02  0.28592376676E+03  0.25500000920E-02 0. -1.
</event>
<event>
 5   0  0.5653633E-03  0.6008102E+03  0.7818609E-02  0.9903727E-01
        1   -1    0    0  501    0  0.00000000000E+00  0.00000000000E+00  0.16944568244E+03  0.16944568252E+03  0.50400001928E-02 0.  1.
       -1   -1    0    0    0  501  0.00000000000E+00  0.00000000000E+00 -0.53257904197E+03  0.53257904199E+03  0.50400001928E-02 0. -1.
    10030    2    1    2    0    0  0.00000000000E+00  0.00000000000E+00 -0.36313335952E+03  0.70202472451E+03  0.60081018385E+03 0.  0.
        2    1    3    3  502    0  0.28486813585E+03 -0.12476473212E+02 -0.29203253483E+03  0.40815256781E+03  0.25500000920E-02 0. -1.
       -2    1    3    3    0  502 -0.28486813585E+03  0.12476473212E+02 -0.71100824695E+02  0.29387215670E+03  0.25500000920E-02 0.  1.
</event>
<event>
 5   0  0.9681801E-03  0.5954338E+03  0.7818609E-02  0.9914925E-01
       -2   -1    0    0    0  501  0.00000000000E+00  0.00000000000E+00  0.48391412720E+02  0.48391412787E+02  0.25500000920E-02 0.  1.
        2   -1    0    0  501    0  0.00000000000E+00  0.00000000000E+00 -0.18316339225E+04  0.18316339225E+04  0.25500000920E-02 0. -1.
    10030    2    1    2    0    0  0.00000000000E+00  0.00000000000E+00 -0.17832425098E+04  0.18800253353E+04  0.59543380206E+03 0.  0.
        4    1    3    3  502    0 -0.14430722761E+02  0.18219818085E+03 -0.16336403034E+04  0.16438329224E+04  0.12699999809E+01 0. -1.
       -4    1    3    3    0  502  0.14430722761E+02 -0.18219818085E+03 -0.14960220636E+03  0.23619241290E+03  0.12699999809E+01 0.  1.
</event>
<event>
 5   0  0.5574736E-03  0.5997074E+03  0.7818609E-02  0.9906013E-01
       -1   -1    0    0    0  501  0.00000000000E+00  0.00000000000E+00  0.15969770452E+03  0.15969770459E+03  0.50400001928E-02 0.  1.
        1   -1    0    0  501    0  0.00000000000E+00  0.00000000000E+00 -0.56301519852E+03  0.56301519855E+03  0.50400001928E-02 0. -1.
    10030    2    1    2    0    0  0.00000000000E+00  0.00000000000E+00 -0.40331749401E+03  0.72271290314E+03  0.59970737814E+03 0.  0.
        5    1    3    3  502    0  0.19718466091E+03  0.15844509299E+03 -0.77016396950E+01  0.25311665936E+03  0.46999998093E+01 0.  1.
       -5    1    3    3    0  502 -0.19718466091E+03 -0.15844509299E+03 -0.39561585431E+03  0.46959624378E+03  0.46999998093E+01 0. -1.
</event>
<event>
 5   0  0.9571790E-03  0.5997334E+03  0.7818609E-02  0.9905959E-01
        2   -1    0    0  501    0  0.00000000000E+00  0.00000000000E+00  0.95935023129E+03  0.95935023129E+03  0.25500000920E-02 0. -1.
       -2   -1    0    0    0  501  0.00000000000E+00  0.00000000000E+00 -0.93730153672E+02  0.93730153707E+02  0.25500000920E-02 0.  1.
    10030    2    1    2    0    0  0.00000000000E+00  0.00000000000E+00  0.86562007761E+03  0.10530803850E+04  0.59973342286E+03 0.  0.
        5    1    3    3  502    0  0.86390537879E+02 -0.50514944049E+02  0.92909384103E+03  0.93447982324E+03  0.46999998093E+01 0. -1.
       -5    1    3    3    0  502 -0.86390537879E+02  0.50514944049E+02 -0.63473763418E+02  0.11860056175E+03  0.46999998093E+01 0.  1.
</event>
<event>
 5   0  0.9571790E-03  0.6003971E+03  0.7818609E-02  0.9904583E-01
       -2   -1    0    0    0  501  0.00000000000E+00  0.00000000000E+00  0.10380975496E+03  0.10380975499E+03  0.25500000920E-02 0.  1.
        2   -1    0    0  501    0  0.00000000000E+00  0.00000000000E+00 -0.86811850391E+03  0.86811850391E+03  0.25500000920E-02 0. -1.
    10030    2    1    2    0    0  0.00000000000E+00  0.00000000000E+00 -0.76430874895E+03  0.97192825891E+03  0.60039709921E+03 0.  0.
        5    1    3    3  502    0  0.92534207006E+02 -0.28546355444E+03 -0.39302076925E+03  0.49450928751E+03  0.46999998093E+01 0.  1.
       -5    1    3    3    0  502 -0.92534207006E+02  0.28546355444E+03 -0.37128797970E+03  0.47741897139E+03  0.46999998093E+01 0. -1.
</event>
<event>
 5   0  0.9681801E-03  0.6006098E+03  0.7818609E-02  0.9904142E-01
       -2   -1    0    0    0  501  0.00000000000E+00  0.00000000000E+00  0.10957255027E+03  0.10957255030E+03  0.25500000920E-02 0.  1.
        2   -1    0    0  501    0  0.00000000000E+00  0.00000000000E+00 -0.82304391471E+03  0.82304391471E+03  0.25500000920E-02 0. -1.
    10030    2    1    2    0    0  0.00000000000E+00  0.00000000000E+00 -0.71347136444E+03  0.93261646501E+03  0.60060975927E+03 0.  0.
        4    1    3    3  502    0 -0.77373891586E+02  0.12765721274E+03  0.47877682108E+02  0.15677043219E+03  0.12699999809E+01 0.  1.
       -4    1    3    3    0  502  0.77373891586E+02 -0.12765721274E+03 -0.76134904655E+03  0.77584603282E+03  0.12699999809E+01 0. -1.
</event>
<event>
 5   0  0.5503975E-03  0.5999528E+03  0.7818609E-02  0.9905504E-01
        1   -1    0    0  501    0  0.00000000000E+00  0.00000000000E+00  0.19514652230E+03  0.19514652236E+03  0.50400001928E-02 0. -1.
       -1   -1    0    0    0  501  0.00000000000E+00  0.00000000000E+00 -0.46111929501E+03  0.46111929504E+03  0.50400001928E-02 0.  1.
    10030    2    1    2    0    0  0.00000000000E+00  0.00000000000E+00 -0.26597277271E+03  0.65626581740E+03  0.59995275419E+03 0.  0.
        4    1    3    3  502    0  0.17913166021E+03 -0.42405417140E+02  0.12609476191E+03  0.22313196314E+03  0.12699999809E+01 0. -1.
       -4    1    3    3    0  502 -0.17913166021E+03  0.42405417140E+02 -0.39206753463E+03  0.43313385425E+03  0.12699999809E+01 0.  1.
</event>
<event>
 5   0  0.5653633E-03  0.5996266E+03  0.7818609E-02  0.9906181E-01
       -1   -1    0    0    0  501  0.00000000000E+00  0.00000000000E+00  0.72811938181E+02  0.72811938356E+02  0.50400001928E-02 0.  1.
        1   -1    0    0  501    0  0.00000000000E+00  0.00000000000E+00 -0.12345230878E+04  0.12345230878E+04  0.50400001928E-02 0. -1.
    10030    2    1    2    0    0  0.00000000000E+00  0.00000000000E+00 -0.11617111496E+04  0.13073350262E+04  0.59962661339E+03 0.  0.
        2    1    3    3  502    0  0.21145921388E+01 -0.84854433985E+02 -0.12077794728E+04  0.12107584406E+04  0.25500000920E-02 0. -1.
       -2    1    3    3    0  502 -0.21145921388E+01  0.84854433985E+02  0.46068323227E+02  0.96576585559E+02  0.25500000920E-02 0.  1.
</event>
<event>
 5   0  0.3794375E-03  0.5990629E+03  0.7818609E-02  0.9907352E-01
        3   -1    0    0  501    0  0.00000000000E+00  0.00000000000E+00  0.24811122834E+03  0.24811124890E+03  0.10100000352E+00 0. -1.
       -3   -1    0    0    0  501  0.00000000000E+00  0.00000000000E+00 -0.36160827816E+03  0.36160829226E+03  0.10100000352E+00 0.  1.
    10030    2    1    2    0    0  0.00000000000E+00  0.00000000000E+00 -0.11349704982E+03  0.60971954116E+03  0.59906288364E+03 0.  0.
        4    1    3    3  502    0 -0.43860773223E+02 -0.29035315927E+03 -0.11686485391E+03  0.31605020409E+03  0.12699999809E+01 0.  1.
       -4    1    3    3    0  502  0.43860773223E+02  0.29035315927E+03  0.33678040900E+01  0.29366933707E+03  0.12699999809E+01 0. -1.
</event>
<event>
 5   0  0.9530666E-03  0.5965455E+03  0.7818609E-02  0.9912599E-01
        2   -1    0    0  501    0  0.00000000000E+00  0.00000000000E+00  0.15430102507E+04  0.15430102507E+04  0.25500000920E-02 0.  1.
       -2   -1    0    0    0  501  0.00000000000E+00  0.00000000000E+00 -0.57657833436E+02  0.57657833493E+02  0.25500000920E-02 0. -1.
    10030    2    1    2    0    0  0.00000000000E+00  0.00000000000E+00  0.14853524173E+04  0.16006680842E+04  0.59654548216E+03 0.  0.
        2    1    3    3  502    0  0.16134280611E+03  0.55807341834E+01  0.69704518537E+02  0.17584472011E+03  0.25500000920E-02 0. -1.
       -2    1    3    3    0  502 -0.16134280611E+03 -0.55807341834E+01  0.14156478987E+04  0.14248233641E+04  0.25500000920E-02 0.  1.
</event>
<event>
 5   0  0.5653633E-03  0.6011228E+03  0.7818609E-02  0.9903079E-01
       -1   -1    0    0    0  501  0.00000000000E+00  0.00000000000E+00  0.65680300342E+03  0.65680300344E+03  0.50400001928E-02 0.  1.
        1   -1    0    0  501    0  0.00000000000E+00  0.00000000000E+00 -0.13754072028E+03  0.13754072038E+03  0.50400001928E-02 0. -1.
    10030    2    1    2    0    0  0.00000000000E+00  0.00000000000E+00  0.51926228313E+03  0.79434372381E+03  0.60112281014E+03 0.  0.
        2    1    3    3  502    0 -0.15015986690E+03  0.23772223960E+03  0.11930195490E+03  0.30543870953E+03  0.25500000920E-02 0. -1.
       -2    1    3    3    0  502  0.15015986690E+03 -0.23772223960E+03  0.39996032823E+03  0.48890501429E+03  0.25500000920E-02 0.  1.
</event>
<event>
 5   0  0.9428629E-03  0.5997815E+03  0.7818609E-02  0.9905859E-01
        2   -1    0    0  501    0  0.00000000000E+00  0.00000000000E+00  0.39767365143E+02  0.39767365224E+02  0.25500000920E-02 0.  1.
       -2   -1    0    0    0  501  0.00000000000E+00  0.00000000000E+00 -0.22615141949E+04  0.22615141949E+04  0.25500000920E-02 0. -1.
    10030    2    1    2    0    0  0.00000000000E+00  0.00000000000E+00 -0.22217468298E+04  0.23012815601E+04  0.59978149641E+03 0.  0.
        3    1    3    3  502    0  0.72311331267E+02 -0.12148871364E+03 -0.96125468969E+02  0.17096359892E+03  0.10100000352E+00 0.  1.
       -3    1    3    3    0  502 -0.72311331267E+02  0.12148871364E+03 -0.21256213608E+04  0.21303179612E+04  0.10100000352E+00 0. -1.
</event>
<event>
 5   0  0.9571790E-03  0.5989676E+03  0.7818609E-02  0.9907550E-01
        2   -1    0    0  501    0  0.00000000000E+00  0.00000000000E+00  0.81257461350E+03  0.81257461351E+03  0.25500000920E-02 0. -1.
       -2   -1    0    0    0  501  0.00000000000E+00  0.00000000000E+00 -0.11037822508E+03  0.11037822511E+03  0.25500000920E-02 0.  1.
    10030    2    1    2    0    0  0.00000000000E+00  0.00000000000E+00  0.70219638843E+03  0.92295283861E+03  0.59896759043E+03 0.  0.
        5    1    3    3  502    0  0.26878327827E+03  0.97589454737E+02  0.21413684934E+03  0.35727417007E+03  0.46999998093E+01 0.  1.
       -5    1    3    3    0  502 -0.26878327827E+03 -0.97589454737E+02  0.48805953909E+03  0.56567866855E+03  0.46999998093E+01 0. -1.
</event>
<event>
 5   0  0.5574736E-03  0.6013989E+03  0.7818609E-02  0.9902508E-01
       -1   -1    0    0    0  501  0.00000000000E+00  0.00000000000E+00  0.35755546196E+03  0.35755546200E+03  0.50400001928E-02 0. -1.
        1   -1    0    0  501    0  0.00000000000E+00  0.00000000000E+00 -0.25288431445E+03  0.25288431450E+03  0.50400001928E-02 0.  1.
    10030    2    1    2    0    0  0.00000000000E+00  0.00000000000E+00  0.10467114752E+03  0.61043977650E+03  0.60139892884E+03 0.  0.
        5    1    3    3  502    0 -0.12468472585E+03 -0.17827770969E+03 -0.15831460831E+03  0.26910003314E+03  0.46999998093E+01 0.  1.
       -5    1    3    3    0  502  0.12468472585E+03  0.17827770969E+03  0.26298575582E+03  0.34133974336E+03  0.46999998093E+01 0. -1.
</event>
<event>
 5   0  0.5491236E-03  0.6007277E+03  0.7818609E-02  0.9903897E-01
        1   -1    0    0  501    0  0.00000000000E+00  0.00000000000E+00  0.11192837622E+04  0.11192837622E+04  0.50400001928E-02 0. -1.
       -1   -1    0    0    0  501  0.00000000000E+00  0.00000000000E+00 -0.80603728906E+02  0.80603729063E+02  0.50400001928E-02 0.  1.
    10030    2    1    2    0    0  0.00000000000E+00  0.00000000000E+00  0.10386800333E+04  0.11998874912E+04  0.60072770882E+03 0.  0.
        3    1    3    3  502    0  0.28692556805E+03  0.34412483719E+02  0.68293020716E+03  0.74155524318E+03  0.10100000352E+00 0. -1.
       -3    1    3    3    0  502 -0.28692556805E+03 -0.34412483719E+02  0.35574982610E+03  0.45833224806E+03  0.10100000352E+00 0.  1.
</event>
<event>
 5   0  0.9428629E-03  0.5892371E+03  0.7818609E-02  0.9927991E-01
        2   -1    0    0  501    0  0.00000000000E+00  0.00000000000E+00  0.20650391371E+04  0.20650391371E+04  0.25500000920E-02 0. -1.
       -2   -1    0    0    0  501  0.00000000000E+00  0.00000000000E+00 -0.42033146926E+02  0.42033147003E+02  0.25500000920E-02 0.  1.
    10030    2    1    2    0    0  0.00000000000E+00  0.00000000000E+00  0.20230059902E+04  0.21070722841E+04  0.58923711201E+03 0.  0.
        3    1    3    3  502    0  0.14049580130E+03 -0.68975382757E+01  0.19372030490E+04  0.19423033516E+04  0.10100000352E+00 0. -1.
       -3    1    3    3    0  502 -0.14049580130E+03  0.68975382757E+01  0.85802941179E+02  0.16476893255E+03  0.10100000352E+00 0.  1.
</event>
<event>
 5   0  0.9866317E-03  0.6028062E+03  0.7818609E-02  0.9899601E-01
       -2   -1    0    0    0  501  0.00000000000E+00  0.00000000000E+00  0.45222473053E+02  0.45222473125E+02  0.25500000920E-02 0. -1.
        2   -1    0    0  501    0  0.00000000000E+00  0.00000000000E+00 -0.20088205463E+04  0.20088205463E+04  0.25500000920E-02 0.  1.
    10030    2    1    2    0    0  0.00000000000E+00  0.00000000000E+00 -0.19635980732E+04  0.20540430194E+04  0.60280621462E+03 0.  0.
        1    1    3    3  502    0 -0.22252563821E+03 -0.18634812065E+03 -0.12586346257E+04  0.12916672957E+04  0.50400001928E-02 0. -1.
       -1    1    3    3    0  502  0.22252563821E+03  0.18634812065E+03 -0.70496344754E+03  0.76237572372E+03  0.50400001928E-02 0.  1.
</event>
<event>
 5   0  0.9866317E-03  0.5995829E+03  0.7818609E-02  0.9906272E-01
       -2   -1    0    0    0  501  0.00000000000E+00  0.00000000000E+00  0.10217623791E+04  0.10217623791E+04  0.25500000920E-02 0.  1.
        2   -1    0    0  501    0  0.00000000000E+00  0.00000000000E+00 -0.87960682450E+02  0.87960682487E+02  0.25500000920E-02 0. -1.
    10030    2    1    2    0    0  0.00000000000E+00  0.00000000000E+00  0.93380169669E+03  0.11097230616E+04  0.59958290901E+03 0.  0.
        1    1    3    3  502    0 -0.15978736176E+03 -0.14027790128E+03  0.75745601474E+02  0.22571505650E+03  0.50400001928E-02 0. -1.
       -1    1    3    3    0  502  0.15978736176E+03  0.14027790128E+03  0.85805609522E+03  0.88400800513E+03  0.50400001928E-02 0.  1.
</event>
<event>
 5   0  0.9530666E-03  0.6002452E+03  0.7818609E-02  0.9904898E-01
        2   -1    0    0  501    0  0.00000000000E+00  0.00000000000E+00  0.66757559300E+03  0.66757559300E+03  0.25500000920E-02 0.  1.
       -2   -1    0    0    0  501  0.00000000000E+00  0.00000000000E+00 -0.13492638992E+03  0.13492638994E+03  0.25500000920E-02 0. -1.
    10030    2    1    2    0    0  0.00000000000E+00  0.00000000000E+00  0.53264920308E+03  0.80250198295E+03  0.60024516582E+03 0.  0.
        2    1    3    3  502    0  0.41431007659E+02 -0.26827233101E+03  0.43747072806E+03  0.51484678293E+03  0.25500000920E-02 0.  1.
       -2    1    3    3    0  502 -0.41431007659E+02  0.26827233101E+03  0.95178475017E+02  0.28765520001E+03  0.25500000920E-02 0. -1.
</event>
<event>
 5   0  0.5785798E-03  0.6004209E+03  0.7818609E-02  0.9904533E-01
        1   -1    0    0  501    0  0.00000000000E+00  0.00000000000E+00  0.57044822974E+03  0.57044822976E+03  0.50400001928E-02 0. -1.
       -1   -1    0    0    0  501  0.00000000000E+00  0.00000000000E+00 -0.15799207977E+03  0.15799207985E+03  0.50400001928E-02 0.  1.
    10030    2    1    2    0    0  0.00000000000E+00  0.00000000000E+00  0.41245614996E+03  0.72844030962E+03  0.60042085992E+03 0.  0.
        1    1    3    3  502    0  0.17401850465E+03  0.75923186648E+02  0.48836157752E+03  0.52396927453E+03  0.50400001928E-02 0. -1.
       -1    1    3    3    0  502 -0.17401850465E+03 -0.75923186648E+02 -0.75905427556E+02  0.20447103508E+03  0.50400001928E-02 0.  1.
</event>
<event>
 5   0  0.9866317E-03  0.6012385E+03  0.7818609E-02  0.9902840E-01
       -2   -1    0    0    0  501  0.00000000000E+00  0.00000000000E+00  0.10157053872E+03  0.10157053875E+03  0.25500000920E-02 0.  1.
        2   -1    0    0  501    0  0.00000000000E+00  0.00000000000E+00 -0.88974565384E+03  0.88974565384E+03  0.25500000920E-02 0. -1.
    10030    2    1    2    0    0  0.00000000000E+00  0.00000000000E+00 -0.78817511512E+03  0.99131619259E+03  0.60123853967E+03 0.  0.
        1    1    3    3  502    0  0.21467780671E+03  0.44769042003E+01 -0.47193148008E+02  0.21984948626E+03  0.50400001928E-02 0.  1.
       -1    1    3    3    0  502 -0.21467780671E+03 -0.44769042003E+01 -0.74098196711E+03  0.77146670633E+03  0.50400001928E-02 0. -1.
</event>
<event>
 5   0  0.9681801E-03  0.6010209E+03  0.7818609E-02  0.9903290E-01
       -2   -1    0    0    0  501  0.00000000000E+00  0.00000000000E+00  0.17514856715E+03  0.17514856717E+03  0.25500000920E-02 0.  1.
        2   -1    0    0  501    0  0.00000000000E+00  0.00000000000E+00 -0.51559966302E+03  0.51559966303E+03  0.25500000920E-02 0. -1.
    10030    2    1    2    0    0  0.00000000000E+00  0.00000000000E+00 -0.34045109587E+03  0.69074823020E+03  0.60102093877E+03 0.  0.
        4    1    3    3  502    0  0.26723745615E+03  0.10228208285E+03 -0.27573179859E+03  0.39737528874E+03  0.12699999809E+01 0. -1.
       -4    1    3    3    0  502 -0.26723745615E+03 -0.10228208285E+03 -0.64719297279E+02  0.29337294146E+03  0.12699999809E+01 0.  1.
</event>
<event>
 5   0  0.9428629E-03  0.5996576E+03  0.7818609E-02  0.9906117E-01
       -2   -1    0    0    0  501  0.00000000000E+00  0.00000000000E+00  0.96583182704E+02  0.96583182737E+02  0.25500000920E-02 0. -1.
        2   -1    0    0  501    0  0.00000000000E+00  0.00000000000E+00 -0.93077602676E+03  0.93077602676E+03  0.25500000920E-02 0.  1.
    10030    2    1    2    0    0  0.00000000000E+00  0.00000000000E+00 -0.83419284406E+03  0.10273592095E+04  0.59965760587E+03 0.  0.
        3    1    3    3  502    0 -0.15685296919E+03  0.13444406670E+03 -0.78938393326E+03  0.81596878942E+03  0.10100000352E+00 0.  1.
       -3    1    3    3    0  502  0.15685296919E+03 -0.13444406670E+03 -0.44808910798E+02  0.21139042008E+03  0.10100000352E+00 0. -1.
</event>
<event>
 5   0  0.5491236E-03  0.6001843E+03  0.7818609E-02  0.9905024E-01
        1   -1    0    0  501    0  0.00000000000E+00  0.00000000000E+00  0.16960313317E+03  0.16960313325E+03  0.50400001928E-02 0.  1.
       -1   -1    0    0    0  501  0.00000000000E+00  0.00000000000E+00 -0.53097657709E+03  0.53097657711E+03  0.50400001928E-02 0. -1.
    10030    2    1    2    0    0  0.00000000000E+00  0.00000000000E+00 -0.36137344391E+03  0.70057971036E+03  0.60018427554E+03 0.  0.
        3    1    3    3  502    0  0.23990748906E+03  0.11516253858E+03 -0.34258589588E+03  0.43380078360E+03  0.10100000352E+00 0. -1.
       -3    1    3    3    0  502 -0.23990748906E+03 -0.11516253858E+03 -0.18787548031E+02  0.26677892675E+03  0.10100000352E+00 0.  1.
</event>
<event>
 5   0  0.3794375E-03  0.5995152E+03  0.7818609E-02  0.9906412E-01
        4   -1    0    0  501    0  0.00000000000E+00  0.00000000000E+00  0.13703614727E+03  0.13704203208E+03  0.12699999809E+01 0.  1.
       -4   -1    0    0    0  501  0.00000000000E+00  0.00000000000E+00 -0.65567947893E+03  0.65568070888E+03  0.12699999809E+01 0. -1.
    10030    2    1    2    0    0  0.00000000000E+00  0.00000000000E+00 -0.51864333167E+03  0.79272274096E+03  0.59951516958E+03 0.  0.
        3    1    3    3  502    0 -0.21275976134E+03  0.15222238037E+03 -0.45282687233E+03  0.52296324501E+03  0.10100000352E+00 0. -1.
       -3    1    3    3    0  502  0.21275976134E+03 -0.15222238037E+03 -0.65816459337E+02  0.26975949594E+03  0.10100000352E+00 0.  1.
</event>
<event>
 5   0  0.9866317E-03  0.6005435E+03  0.7818609E-02  0.9904279E-01
       -2   -1    0    0    0  501  0.00000000000E+00  0.00000000000E+00  0.76095493367E+03  0.76095493367E+03  0.25500000920E-02 0. -1.
        2   -1    0    0  501    0  0.00000000000E+00  0.00000000000E+00 -0.11848682294E+03  0.11848682297E+03  0.25500000920E-02 0.  1.
    10030    2    1    2    0    0  0.00000000000E+00  0.00000000000E+00  0.64246811073E+03  0.87944175664E+03  0.60054352883E+03 0.  0.
        1    1    3    3  502    0  0.25407501551E+03 -0.12647116902E+03  0.17764674557E+03  0.33482448586E+03  0.50400001928E-02 0. -1.
       -1    1    3    3    0  502 -0.25407501551E+03  0.12647116902E+03  0.46482136516E+03  0.54461727078E+03  0.50400001928E-02 0.  1.
</event>
<event>
 5   0  0.9681801E-03  0.5993480E+03  0.7818609E-02  0.9906760E-01
       -2   -1    0    0    0  501  0.00000000000E+00  0.00000000000E+00  0.30598366602E+03  0.30598366603E+03  0.25500000920E-02 0.  1.
        2   -1    0    0  501    0  0.00000000000E+00  0.00000000000E+00 -0.29349443890E+03  0.29349443892E+03  0.25500000920E-02 0. -1.
    10030    2    1    2    0    0  0.00000000000E+00  0.00000000000E+00  0.12489227112E+02  0.59947810494E+03  0.59934799367E+03 0.  0.
        4    1    3    3  502    0 -0.11539012276E+01  0.29053810624E+03 -0.67182281480E+02  0.29820931325E+03  0.12699999809E+01 0.  1.
       -4    1    3    3    0  502  0.11539012276E+01 -0.29053810624E+03  0.79671508592E+02  0.30126879169E+03  0.12699999809E+01 0. -1.
</event>
<event>
 5   0  0.9428629E-03  0.5989151E+03  0.7818609E-02  0.9907659E-01
       -2   -1    0    0    0  501  0.00000000000E+00  0.00000000000E+00  0.60459760337E+02  0.60459760390E+02  0.25500000920E-02 0.  1.
        2   -1    0    0  501    0  0.00000000000E+00  0.00000000000E+00 -0.14832148793E+04  0.14832148793E+04  0.25500000920E-02 0. -1.
    10030    2    1    2    0    0  0.00000000000E+00  0.00000000000E+00 -0.14227551190E+04  0.15436746397E+04  0.59891507302E+03 0.  0.
        3    1    3    3  502    0 -0.23286613144E+02  0.11565449413E+03 -0.14207931026E+04  0.14256827413E+04  0.10100000352E+00 0. -1.
       -3    1    3    3    0  502  0.23286613144E+02 -0.11565449413E+03 -0.19620163472E+01  0.11799189833E+03  0.10100000352E+00 0.  1.
</event>
<event>
 5   0  0.5785798E-03  0.6107152E+03  0.7818609E-02  0.9883421E-01
       -1   -1    0    0    0  501  0.00000000000E+00  0.00000000000E+00  0.17564782367E+03  0.17564782375E+03  0.50400001928E-02 0.  1.
        1   -1    0    0  501    0  0.00000000000E+00  0.00000000000E+00 -0.53085349520E+03  0.53085349522E+03  0.50400001928E-02 0. -1.
    10030    2    1    2    0    0  0.00000000000E+00  0.00000000000E+00 -0.35520567152E+03  0.70650131897E+03  0.61071519108E+03 0.  0.
        1    1    3    3  502    0 -0.22969315998E+03  0.18127304822E+03 -0.27861576349E+03  0.40403664369E+03  0.50400001928E-02 0. -1.
       -1    1    3    3    0  502  0.22969315998E+03 -0.18127304822E+03 -0.76589908029E+02  0.30246467528E+03  0.50400001928E-02 0.  1.
</event>
<event>
 5   0  0.9530666E-03  0.6009889E+03  0.7818609E-02  0.9903357E-01
        2   -1    0    0  501    0  0.00000000000E+00  0.00000000000E+00  0.48145168994E+03  0.48145168995E+03  0.25500000920E-02 0. -1.
       -2   -1    0    0    0  501  0.00000000000E+00  0.00000000000E+00 -0.18755133940E+03  0.18755133941E+03  0.25500000920E-02 0.  1.
    10030    2    1    2    0    0  0.00000000000E+00  0.00000000000E+00  0.29390035054E+03  0.66900302936E+03  0.60098888279E+03 0.  0.
        2    1    3    3  502    0  0.60245221568E+02  0.12426625517E+03 -0.15013354358E+03  0.20398938651E+03  0.25500000920E-02 0.  1.
       -2    1    3    3    0  502 -0.60245221568E+02 -0.12426625517E+03  0.44403389412E+03  0.46501364285E+03  0.25500000920E-02 0. -1.
</event>
<event>
 5   0  0.5503975E-03  0.6005473E+03  0.7818609E-02  0.9904271E-01
       -1   -1    0    0    0  501  0.00000000000E+00  0.00000000000E+00  0.17552034465E+03  0.17552034473E+03  0.50400001928E-02 0.  1.
        1   -1    0    0  501    0  0.00000000000E+00  0.00000000000E+00 -0.51369690942E+03  0.51369690945E+03  0.50400001928E-02 0. -1.
    10030    2    1    2    0    0  0.00000000000E+00  0.00000000000E+00 -0.33817656477E+03  0.68921725417E+03  0.60054727915E+03 0.  0.
        4    1    3    3  502    0 -0.29326581083E+03 -0.63206549528E+02 -0.15444768541E+03  0.33742496075E+03  0.12699999809E+01 0.  1.
       -4    1    3    3    0  502  0.29326581083E+03  0.63206549528E+02 -0.18372887936E+03  0.35179229343E+03  0.12699999809E+01 0. -1.
</event>
<event>
 5   0  0.5653633E-03  0.5980583E+03  0.7818609E-02  0.9909443E-01
       -1   -1    0    0    0  501  0.00000000000E+00  0.00000000000E+00  0.20359365975E+03  0.20359365981E+03  0.50400001928E-02 0. -1.
        1   -1    0    0  501    0  0.00000000000E+00  0.00000000000E+00 -0.43920049717E+03  0.43920049720E+03  0.50400001928E-02 0.  1.
    10030    2    1    2    0    0  0.00000000000E+00  0.00000000000E+00 -0.23560683742E+03  0.64279415701E+03  0.59805831358E+03 0.  0.
        2    1    3    3  502    0 -0.16114981114E+03 -0.20392879366E+03 -0.27672231472E+03  0.37964648555E+03  0.25500000920E-02 0.  1.
       -2    1    3    3    0  502  0.16114981114E+03  0.20392879366E+03  0.41115477299E+02  0.26314767146E+03  0.25500000920E-02 0. -1.
</event>
<event>
 5   0  0.9571790E-03  0.6010405E+03  0.7818609E-02  0.9903250E-01
       -2   -1    0    0    0  501  0.00000000000E+00  0.00000000000E+00  0.18101653733E+03  0.18101653734E+03  0.25500000920E-02 0. -1.
        2   -1    0    0  501    0  0.00000000000E+00  0.00000000000E+00 -0.49891802740E+03  0.49891802741E+03  0.25500000920E-02 0.  1.
    10030    2    1    2    0    0  0.00000000000E+00  0.00000000000E+00 -0.31790149008E+03  0.67993456475E+03  0.60104047697E+03 0.  0.
        5    1    3    3  502    0 -0.33769619101E+02 -0.24408161248E+03  0.35593858959E+02  0.24900850090E+03  0.46999998093E+01 0. -1.
       -5    1    3    3    0  502  0.33769619101E+02  0.24408161248E+03 -0.35349534903E+03  0.43092606386E+03  0.46999998093E+01 0.  1.
</event>
<event>
 5   0  0.5785798E-03  0.5996463E+03  0.7818609E-02  0.9906140E-01
       -1   -1    0    0    0  501  0.00000000000E+00  0.00000000000E+00  0.39146899462E+02  0.39146899787E+02  0.50400001928E-02 0.  1.
        1   -1    0    0  501    0  0.00000000000E+00  0.00000000000E+00 -0.22963226763E+04  0.22963226763E+04  0.50400001928E-02 0. -1.
    10030    2    1    2    0    0  0.00000000000E+00  0.00000000000E+00 -0.22571757768E+04  0.23354695761E+04  0.59964627349E+03 0.  0.
        1    1    3    3  502    0  0.11933292920E+03 -0.11095898907E+03 -0.21088084834E+04  0.21150946705E+04  0.50400001928E-02 0. -1.
       -1    1    3    3    0  502 -0.11933292920E+03  0.11095898907E+03 -0.14836729340E+03  0.22037490561E+03  0.50400001928E-02 0.  1.
</event>
<event>
 5   0  0.9681801E-03  0.6046569E+03  0.7818609E-02  0.9895791E-01
        2   -1    0    0  501    0  0.00000000000E+00  0.00000000000E+00  0.23021287616E+03  0.23021287617E+03  0.25500000920E-02 0.  1.
       -2   -1    0    0    0  501  0.00000000000E+00  0.00000000000E+00 -0.39703470639E+03  0.39703470640E+03  0.25500000920E-02 0. -1.
    10030    2    1    2    0    0  0.00000000000E+00  0.00000000000E+00 -0.16682183023E+03  0.62724758258E+03  0.60465693315E+03 0.  0.
        4    1    3    3  502    0 -0.17564432048E+03  0.17657903845E+03  0.94368096880E+02  0.26634195078E+03  0.12699999809E+01 0.  1.
       -4    1    3    3    0  502  0.17564432048E+03 -0.17657903845E+03 -0.26118992711E+03  0.36090563180E+03  0.12699999809E+01 0. -1.
</event>
<event>
 5   0  0.5574736E-03  0.6000818E+03  0.7818609E-02  0.9905236E-01
        1   -1    0    0  501    0  0.00000000000E+00  0.00000000000E+00  0.17779196770E+04  0.17779196770E+04  0.50400001928E-02 0. -1.
       -1   -1    0    0    0  501  0.00000000000E+00  0.00000000000E+00 -0.50634763461E+02  0.50634763712E+02  0.50400001928E-02 0.  1.
    10030    2    1    2    0    0  0.00000000000E+00  0.00000000000E+00  0.17272849135E+04  0.18285544407E+04  0.60008180287E+03 0.  0.
        5    1    3    3  502    0  0.39287511072E+02  0.15004274041E+03  0.16461563592E+04  0.16534537131E+04  0.46999998093E+01 0. -1.
       -5    1    3    3    0  502 -0.39287511072E+02 -0.15004274041E+03  0.81128554305E+02  0.17510072757E+03  0.46999998093E+01 0.  1.
</event>
<event>
 5   0  0.9428629E-03  0.5988060E+03  0.7818609E-02  0.9907886E-01
       -2   -1    0    0    0  501  0.00000000000E+00  0.00000000000E+00  0.64853608699E+02  0.64853608749E+02  0.25500000920E-02 0.  1.
        2   -1    0    0  501    0  0.00000000000E+00  0.00000000000E+00 -0.13822229332E+04  0.13822229332E+04  0.25500000920E-02 0. -1.
    10030    2    1    2    0    0  0.00000000000E+00  0.00000000000E+00 -0.13173693245E+04  0.14470765420E+04  0.59880596284E+03 0.  0.
        3    1    3    3  502    0 -0.20714730820E+03 -0.13088409106E+03 -0.10744632483E+04  0.11020489711E+04  0.10100000352E+00 0. -1.
       -3    1    3    3    0  502  0.20714730820E+03  0.13088409106E+03 -0.24290607624E+03  0.34502757087E+03  0.10100000352E+00 0.  1.
</event>
<event>
 5   0  0.9571790E-03  0.5997361E+03  0.7818609E-02  0.9905954E-01
        2   -1    0    0  501    0  0.00000000000E+00  0.00000000000E+00  0.31714997234E+03  0.31714997235E+03  0.25500000920E-02 0. -1.
       -2   -1    0    0    0  501  0.00000000000E+00  0.00000000000E+00 -0.28352779707E+03  0.28352779708E+03  0.25500000920E-02 0.  1.
    10030    2    1    2    0    0  0.00000000000E+00  0.00000000000E+00  0.33622175271E+02  0.60067776943E+03  0.59973605196E+03 0.  0.
        5    1    3    3  502    0  0.30227184364E+02  0.12344632797E+03  0.28879976634E+03  0.31556310557E+03  0.46999998093E+01 0. -1.
       -5    1    3    3    0  502 -0.30227184364E+02 -0.12344632797E+03 -0.25517759107E+03  0.28511466386E+03  0.46999998093E+01 0.  1.
</event>
<event>
 5   0  0.5491236E-03  0.5992222E+03  0.7818609E-02  0.9907021E-01
        1   -1    0    0  501    0  0.00000000000E+00  0.00000000000E+00  0.19233931031E+03  0.19233931038E+03  0.50400001928E-02 0. -1.
       -1   -1    0    0    0  501  0.00000000000E+00  0.00000000000E+00 -0.46671075734E+03  0.46671075736E+03  0.50400001928E-02 0.  1.
    10030    2    1    2    0    0  0.00000000000E+00  0.00000000000E+00 -0.27437144702E+03  0.65905006774E+03  0.59922224662E+03 0.  0.
        3    1    3    3  502    0  0.24571998435E+03  0.11468229345E+03  0.29588757876E+01  0.27118094382E+03  0.10100000352E+00 0. -1.
       -3    1    3    3    0  502 -0.24571998435E+03 -0.11468229345E+03 -0.27733032281E+03  0.38786912392E+03  0.10100000352E+00 0.  1.
</event>
<event>
 5   0  0.9530666E-03  0.5990440E+03  0.7818609E-02  0.9907392E-01
       -2   -1    0    0    0  501  0.00000000000E+00  0.00000000000E+00  0.11138050014E+03  0.11138050017E+03  0.25500000920E-02 0. -1.
        2   -1    0    0  501    0  0.00000000000E+00  0.00000000000E+00 -0.80546791511E+03  0.80546791512E+03  0.25500000920E-02 0.  1.
    10030    2    1    2    0    0  0.00000000000E+00  0.00000000000E+00 -0.69408741497E+03  0.91684841529E+03  0.59904396916E+03 0.  0.
        2    1    3    3  502    0  0.15840844757E+03  0.47146522788E+02  0.35271914894E+02  0.16899745223E+03  0.25500000920E-02 0. -1.
       -2    1    3    3    0  502 -0.15840844757E+03 -0.47146522788E+02 -0.72935932987E+03  0.74785096306E+03  0.25500000920E-02 0.  1.
</event>
<event>
 5   0  0.9681801E-03  0.5993053E+03  0.7818609E-02  0.9906848E-01
       -2   -1    0    0    0  501  0.00000000000E+00  0.00000000000E+00  0.22114741771E+03  0.22114741772E+03  0.25500000920E-02 0. -1.
        2   -1    0    0  501    0  0.00000000000E+00  0.00000000000E+00 -0.40602643858E+03  0.40602643859E+03  0.25500000920E-02 0.  1.
    10030    2    1    2    0    0  0.00000000000E+00  0.00000000000E+00 -0.18487902087E+03  0.62717385631E+03  0.59930525918E+03 0.  0.
        4    1    3    3  502    0 -0.27328879216E+03  0.10553981078E+02  0.35695764224E+02  0.27581506652E+03  0.12699999809E+01 0. -1.
       -4    1    3    3    0  502  0.27328879216E+03 -0.10553981078E+02 -0.22057478510E+03  0.35135878979E+03  0.12699999809E+01 0.  1.
</event>
<event>
 5   0  0.9681801E-03  0.6020709E+03  0.7818609E-02  0.9901119E-01
       -2   -1    0    0    0  501  0.00000000000E+00  0.00000000000E+00  0.13709722171E+03  0.13709722174E+03  0.25500000920E-02 0.  1.
        2   -1    0    0  501    0  0.00000000000E+00  0.00000000000E+00 -0.66100794848E+03  0.66100794849E+03  0.25500000920E-02 0. -1.
    10030    2    1    2    0    0  0.00000000000E+00  0.00000000000E+00 -0.52391072677E+03  0.79810517022E+03  0.60207093694E+03 0.  0.
        4    1    3    3  502    0 -0.90355460432E+02  0.15442491354E+03 -0.58287534232E+03  0.60971832902E+03  0.12699999809E+01 0. -1.
       -4    1    3    3    0  502  0.90355460432E+02 -0.15442491354E+03  0.58964615553E+02  0.18838684121E+03  0.12699999809E+01 0.  1.
</event>
<event>
 5   0  0.5653633E-03  0.6003278E+03  0.7818609E-02  0.9904726E-01
        1   -1    0    0  501    0  0.00000000000E+00  0.00000000000E+00  0.43404851860E+03  0.43404851863E+03  0.50400001928E-02 0.  1.
       -1   -1    0    0    0  501  0.00000000000E+00  0.00000000000E+00 -0.20757672076E+03  0.20757672082E+03  0.50400001928E-02 0. -1.
    10030    2    1    2    0    0  0.00000000000E+00  0.00000000000E+00  0.22647179784E+03  0.64162523945E+03  0.60032780435E+03 0.  0.
        2    1    3    3  502    0  0.28221983636E+03 -0.33024112660E+02  0.21663693156E+03  0.35730965307E+03  0.25500000920E-02 0. -1.
       -2    1    3    3    0  502 -0.28221983636E+03  0.33024112660E+02  0.98348662745E+01  0.28431558637E+03  0.25500000920E-02 0.  1.
</event>
<event>
 5   0  0.5491236E-03  0.5996762E+03  0.7818609E-02  0.9906078E-01
        1   -1    0    0  501    0  0.00000000000E+00  0.00000000000E+00  0.12341563197E+04  0.12341563198E+04  0.50400001928E-02 0. -1.
       -1   -1    0    0    0  501  0.00000000000E+00  0.00000000000E+00 -0.72845632166E+02  0.72845632341E+02  0.50400001928E-02 0.  1.
    10030    2    1    2    0    0  0.00000000000E+00  0.00000000000E+00  0.11613106876E+04  0.13070019521E+04  0.59967623740E+03 0.  0.
        3    1    3    3  502    0  0.31936978965E+02 -0.75327648594E+01 -0.68920512521E+02  0.76333219629E+02  0.10100000352E+00 0.  1.
       -3    1    3    3    0  502 -0.31936978965E+02  0.75327648594E+01  0.12302312001E+04  0.12306687325E+04  0.10100000352E+00 0. -1.
</event>
<event>
 5   0  0.5785798E-03  0.5962953E+03  0.7818609E-02  0.9913122E-01
        1   -1    0    0  501    0  0.00000000000E+00  0.00000000000E+00  0.55925247258E+03  0.55925247261E+03  0.50400001928E-02 0. -1.
       -1   -1    0    0    0  501  0.00000000000E+00  0.00000000000E+00 -0.15894794703E+03  0.15894794711E+03  0.50400001928E-02 0.  1.
    10030    2    1    2    0    0  0.00000000000E+00  0.00000000000E+00  0.40030452555E+03  0.71820041972E+03  0.59629533765E+03 0.  0.
        1    1    3    3  502    0 -0.27104779876E+03  0.11118817306E+03  0.13350089662E+03  0.32195063047E+03  0.50400001928E-02 0. -1.
       -1    1    3    3    0  502  0.27104779876E+03 -0.11118817306E+03  0.26680362894E+03  0.39624978925E+03  0.50400001928E-02 0.  1.
</event>
<event>
 5   0  0.5653633E-03  0.5979390E+03  0.7818609E-02  0.9909691E-01
        1   -1    0    0  501    0  0.00000000000E+00  0.00000000000E+00  0.70511268919E+03  0.70511268921E+03  0.50400001928E-02 0. -1.
       -1   -1    0    0    0  501  0.00000000000E+00  0.00000000000E+00 -0.12676379350E+03  0.12676379361E+03  0.50400001928E-02 0.  1.
    10030    2    1    2    0    0  0.00000000000E+00  0.00000000000E+00  0.57834889569E+03  0.83187648282E+03  0.59793899147E+03 0.  0.
        2    1    3    3  502    0 -0.49723247339E+02 -0.22746296956E+03  0.55008644916E+03  0.59733316115E+03  0.25500000920E-02 0. -1.
       -2    1    3    3    0  502  0.49723247339E+02  0.22746296956E+03  0.28262446526E+02  0.23454332167E+03  0.25500000920E-02 0.  1.
</event>
<event>
 5   0  0.5785798E-03  0.5998201E+03  0.7818609E-02  0.9905779E-01
        1   -1    0    0  501    0  0.00000000000E+00  0.00000000000E+00  0.44813995802E+03  0.44813995805E+03  0.50400001928E-02 0.  1.
       -1   -1    0    0    0  501  0.00000000000E+00  0.00000000000E+00 -0.20070970686E+03  0.20070970692E+03  0.50400001928E-02 0. -1.
    10030    2    1    2    0    0  0.00000000000E+00  0.00000000000E+00  0.24743025116E+03  0.64884966497E+03  0.59982010515E+03 0.  0.
        1    1    3    3  502    0  0.10908798336E+03  0.29837075966E+02 -0.17675880190E+03  0.20984306824E+03  0.50400001928E-02 0. -1.
       -1    1    3    3    0  502 -0.10908798336E+03 -0.29837075966E+02  0.42418905305E+03  0.43900659673E+03  0.50400001928E-02 0.  1.
</event>
<event>
 5   0  0.9530666E-03  0.6001407E+03  0.7818609E-02  0.9905114E-01
       -2   -1    0    0    0  501  0.00000000000E+00  0.00000000000E+00  0.27350812355E+03  0.27350812356E+03  0.25500000920E-02 0.  1.
        2   -1    0    0  501    0  0.00000000000E+00  0.00000000000E+00 -0.32921216060E+03  0.32921216061E+03  0.25500000920E-02 0. -1.
    10030    2    1    2    0    0  0.00000000000E+00  0.00000000000E+00 -0.55704037055E+02  0.60272028417E+03  0.60014065119E+03 0.  0.
        2    1    3    3  502    0  0.21578002209E+02 -0.73633061761E+02  0.26348932010E+03  0.27443407182E+03  0.25500000920E-02 0.  1.
       -2    1    3    3    0  502 -0.21578002209E+02  0.73633061761E+02 -0.31919335715E+03  0.32828621235E+03  0.25500000920E-02 0. -1.
</event>
<event>
 5   0  0.5503975E-03  0.5984601E+03  0.7818609E-02  0.9908606E-01
       -1   -1    0    0    0  501  0.00000000000E+00  0.00000000000E+00  0.34959946727E+03  0.34959946731E+03  0.50400001928E-02 0. -1.
        1   -1    0    0  501    0  0.00000000000E+00  0.00000000000E+00 -0.25611770208E+03  0.25611770213E+03  0.50400001928E-02 0.  1.
    10030    2    1    2    0    0  0.00000000000E+00  0.00000000000E+00  0.93481765190E+02  0.60571716944E+03  0.59846006461E+03 0.  0.
        4    1    3    3  502    0 -0.14218759523E+02 -0.23356790130E+02 -0.25484776672E+03  0.25631369427E+03  0.12699999809E+01 0.  1.
       -4    1    3    3    0  502  0.14218759523E+02  0.23356790130E+02  0.34832953191E+03  0.34940347518E+03  0.12699999809E+01 0. -1.
</event>
<event>
 5   0  0.9681801E-03  0.5997586E+03  0.7818609E-02  0.9905907E-01
       -2   -1    0    0    0  501  0.00000000000E+00  0.00000000000E+00  0.92861178864E+02  0.92861178899E+02  0.25500000920E-02 0. -1.
        2   -1    0    0  501    0  0.00000000000E+00  0.00000000000E+00 -0.96840879482E+03  0.96840879482E+03  0.25500000920E-02 0.  1.
    10030    2    1    2    0    0  0.00000000000E+00  0.00000000000E+00 -0.87554761595E+03  0.10612699737E+04  0.59975855919E+03 0.  0.
        4    1    3    3  502    0  0.12077249821E+03  0.23517601694E+03 -0.18732792332E+03  0.32401715854E+03  0.12699999809E+01 0. -1.
       -4    1    3    3    0  502 -0.12077249821E+03 -0.23517601694E+03 -0.68821969263E+03  0.73725281518E+03  0.12699999809E+01 0.  1.
</event>
<event>
 5   0  0.5503975E-03  0.6000936E+03  0.7818609E-02  0.9905212E-01
        1   -1    0    0  501    0  0.00000000000E+00  0.00000000000E+00  0.47386332748E+03  0.47386332751E+03  0.50400001928E-02 0.  1.
       -1   -1    0    0    0  501  0.00000000000E+00  0.00000000000E+00 -0.18998744367E+03  0.18998744374E+03  0.50400001928E-02 0. -1.
    10030    2    1    2    0    0  0.00000000000E+00  0.00000000000E+00  0.28387588381E+03  0.66385077124E+03  0.60009360026E+03 0.  0.
        4    1    3    3  502    0 -0.69444914624E+02 -0.26697179785E+03  0.27250270127E+03  0.38775749137E+03  0.12699999809E+01 0.  1.
       -4    1    3    3    0  502  0.69444914624E+02  0.26697179785E+03  0.11373182539E+02  0.27609327988E+03  0.12699999809E+01 0. -1.
</event>
<event>
 5   0  0.5491236E-03  0.6006547E+03  0.7818609E-02  0.9904049E-01
       -1   -1    0    0    0  501  0.00000000000E+00  0.00000000000E+00  0.64782068916E+02  0.64782069112E+02  0.50400001928E-02 0. -1.
        1   -1    0    0  501    0  0.00000000000E+00  0.00000000000E+00 -0.13923066859E+04  0.13923066859E+04  0.50400001928E-02 0.  1.
    10030    2    1    2    0    0  0.00000000000E+00  0.00000000000E+00 -0.13275246170E+04  0.14570887550E+04  0.60065466893E+03 0.  0.
        3    1    3    3  502    0  0.87482905178E+02 -0.30411043019E+02 -0.13567973712E+04  0.13599548548E+04  0.10100000352E+00 0.  1.
       -3    1    3    3    0  502 -0.87482905178E+02  0.30411043019E+02  0.29272754245E+02  0.97133900251E+02  0.10100000352E+00 0. -1.
</event>
<event>
 5   0  0.9530666E-03  0.5988112E+03  0.7818609E-02  0.9907875E-01
       -2   -1    0    0    0  501  0.00000000000E+00  0.00000000000E+00  0.29434681062E+03  0.29434681063E+03  0.25500000920E-02 0. -1.
        2   -1    0    0  501    0  0.00000000000E+00  0.00000000000E+00 -0.30455135566E+03  0.30455135567E+03  0.25500000920E-02 0.  1.
    10030    2    1    2    0    0  0.00000000000E+00  0.00000000000E+00 -0.10204545047E+02  0.59889816630E+03  0.59881122306E+03 0.  0.
        2    1    3    3  502    0 -0.82946627170E+02 -0.28768561117E+03 -0.43495850308E+01  0.29943625821E+03  0.25500000920E-02 0.  1.
       -2    1    3    3    0  502  0.82946627170E+02  0.28768561117E+03 -0.58549600159E+01  0.29946190809E+03  0.25500000920E-02 0. -1.
</event>
<event>
 5   0  0.9428629E-03  0.6000155E+03  0.7818609E-02  0.9905374E-01
        2   -1    0    0  501    0  0.00000000000E+00  0.00000000000E+00  0.15003398810E+04  0.15003398810E+04  0.25500000920E-02 0. -1.
       -2   -1    0    0    0  501  0.00000000000E+00  0.00000000000E+00 -0.59989512894E+02  0.59989512948E+02  0.25500000920E-02 0.  1.
    10030    2    1    2    0    0  0.00000000000E+00  0.00000000000E+00  0.14403503681E+04  0.15603293939E+04  0.60001552873E+03 0.  0.
        3    1    3    3  502    0 -0.73620914464E+02  0.27021450163E+03  0.44047246388E+03  0.52196926880E+03  0.10100000352E+00 0.  1.
       -3    1    3    3    0  502  0.73620914464E+02 -0.27021450163E+03  0.99987790422E+03  0.10383601251E+04  0.10100000352E+00 0. -1.
</event>
<event>
 5   0  0.9571790E-03  0.5983749E+03  0.7818609E-02  0.9908783E-01
        2   -1    0    0  501    0  0.00000000000E+00  0.00000000000E+00  0.60362013207E+03  0.60362013208E+03  0.25500000920E-02 0.  1.
       -2   -1    0    0    0  501  0.00000000000E+00  0.00000000000E+00 -0.14829383391E+03  0.14829383393E+03  0.25500000920E-02 0. -1.
    10030    2    1    2    0    0  0.00000000000E+00  0.00000000000E+00  0.45532629816E+03  0.75191396601E+03  0.59837494473E+03 0.  0.
        5    1    3    3  502    0  0.19044373476E+03  0.16883327434E+03  0.30103804869E+02  0.25632366200E+03  0.46999998093E+01 0. -1.
       -5    1    3    3    0  502 -0.19044373476E+03 -0.16883327434E+03  0.42522249329E+03  0.49559030401E+03  0.46999998093E+01 0.  1.
</event>
<event>
 5   0  0.5503975E-03  0.5963400E+03  0.7818609E-02  0.9913029E-01
        1   -1    0    0  501    0  0.00000000000E+00  0.00000000000E+00  0.41177617522E+03  0.41177617525E+03  0.50400001928E-02 0.  1.
       -1   -1    0    0    0  501  0.00000000000E+00  0.00000000000E+00 -0.21590700486E+03  0.21590700492E+03  0.50400001928E-02 0. -1.
    10030    2    1    2    0    0  0.00000000000E+00  0.00000000000E+00  0.19586917036E+03  0.62768318016E+03  0.59634003954E+03 0.  0.
        4    1    3    3  502    0  0.62716584085E+01 -0.29104805691E+03  0.16578541578E+03  0.33501451030E+03  0.12699999809E+01 0.  1.
       -4    1    3    3    0  502 -0.62716584085E+01  0.29104805691E+03  0.30083754584E+02  0.29266866986E+03  0.12699999809E+01 0. -1.
</event>
<event>
 5   0  0.5785798E-03  0.6014540E+03  0.7818609E-02  0.9902394E-01
       -1   -1    0    0    0  501  0.00000000000E+00  0.00000000000E+00  0.39386953385E+03  0.39386953388E+03  0.50400001928E-02 0.  1.
        1   -1    0    0  501    0  0.00000000000E+00  0.00000000000E+00 -0.22961087073E+03  0.22961087078E+03  0.50400001928E-02 0. -1.
    10030    2    1    2    0    0  0.00000000000E+00  0.00000000000E+00  0.16425866312E+03  0.62348040466E+03  0.60145399374E+03 0.  0.
        1    1    3    3  502    0  0.18228317050E+03 -0.18489229428E+03 -0.75165578177E+02  0.27030016444E+03  0.50400001928E-02 0. -1.
       -1    1    3    3    0  502 -0.18228317050E+03  0.18489229428E+03  0.23942424130E+03  0.35318024021E+03  0.50400001928E-02 0.  1.
</event>
<event>
 5   0  0.5491236E-03  0.5996187E+03  0.7818609E-02  0.9906197E-01
        1   -1    0    0  501    0  0.00000000000E+00  0.00000000000E+00  0.50530631797E+03  0.50530631800E+03  0.50400001928E-02 0.  1.
       -1   -1    0    0    0  501  0.00000000000E+00  0.00000000000E+00 -0.17788350202E+03  0.17788350209E+03  0.50400001928E-02 0. -1.
    10030    2    1    2    0    0  0.00000000000E+00  0.00000000000E+00  0.32742281595E+03  0.68318982009E+03  0.59961873709E+03 0.  0.
        3    1    3    3  502    0 -0.12368087264E+03  0.20613524526E+02  0.47399734671E+03  0.49030130587E+03  0.10100000352E+00 0.  1.
       -3    1    3    3    0  502  0.12368087264E+03 -0.20613524526E+02 -0.14657453076E+03  0.19288851422E+03  0.10100000352E+00 0. -1.
</event>
<event>
 5   0  0.9428629E-03  0.6055727E+03  0.7818609E-02  0.9893912E-01
        2   -1    0    0  501    0  0.00000000000E+00  0.00000000000E+00  0.15788308020E+04  0.15788308020E+04  0.25500000920E-02 0. -1.
       -2   -1    0    0    0  501  0.00000000000E+00  0.00000000000E+00 -0.58068009498E+02  0.58068009554E+02  0.25500000920E-02 0.  1.
    10030    2    1    2    0    0  0.00000000000E+00  0.00000000000E+00  0.15207627925E+04  0.16368988115E+04  0.60557266138E+03 0.  0.
        3    1    3    3  502    0 -0.21171722607E+02  0.50666712386E+02  0.15652587508E+04  0.15662216717E+04  0.10100000352E+00 0. -1.
       -3    1    3    3    0  502  0.21171722607E+02 -0.50666712386E+02 -0.44495958375E+02  0.70677139832E+02  0.10100000352E+00 0.  1.
</event>
<event>
 5   0  0.9530666E-03  0.6000981E+03  0.7818609E-02  0.9905202E-01
        2   -1    0    0  501    0  0.00000000000E+00  0.00000000000E+00  0.52958818483E+03  0.52958818483E+03  0.25500000920E-02 0. -1.
       -2   -1    0    0    0  501  0.00000000000E+00  0.00000000000E+00 -0.16999896896E+03  0.16999896898E+03  0.25500000920E-02 0.  1.
    10030    2    1    2    0    0  0.00000000000E+00  0.00000000000E+00  0.35958921586E+03  0.69958715381E+03  0.60009814332E+03 0.  0.
        2    1    3    3  502    0  0.11926518792E+03  0.25010408034E+03  0.31400312328E+03  0.41877702598E+03  0.25500000920E-02 0. -1.
       -2    1    3    3    0  502 -0.11926518792E+03 -0.25010408034E+03  0.45586092578E+02  0.28081012783E+03  0.25500000920E-02 0.  1.
</event>
<event>
 5   0  0.3794375E-03  0.6005375E+03  0.7818609E-02  0.9904291E-01
       -4   -1    0    0    0  501  0.00000000000E+00  0.00000000000E+00  0.76419659875E+03  0.76419765404E+03  0.12699999809E+01 0.  1.
        4   -1    0    0  501    0  0.00000000000E+00  0.00000000000E+00 -0.11797730081E+03  0.11798413625E+03  0.12699999809E+01 0. -1.
    10030    2    1    2    0    0  0.00000000000E+00  0.00000000000E+00  0.64621929794E+03  0.88218179028E+03  0.60053753428E+03 0.  0.
        3    1    3    3  502    0 -0.22396672488E+03 -0.19031001058E+03  0.23276601701E+03  0.37491202016E+03  0.10100000352E+00 0. -1.
       -3    1    3    3    0  502  0.22396672488E+03  0.19031001058E+03  0.41345328092E+03  0.50726977013E+03  0.10100000352E+00 0.  1.
</event>
<event>
 5   0  0.5653633E-03  0.5989422E+03  0.7818609E-02  0.9907603E-01
       -1   -1    0    0    0  501  0.00000000000E+00  0.00000000000E+00  0.66475227549E+02  0.66475227740E+02  0.50400001928E-02 0. -1.
        1   -1    0    0  501    0  0.00000000000E+00  0.00000000000E+00 -0.13491184170E+04  0.13491184170E+04  0.50400001928E-02 0.  1.
    10030    2    1    2    0    0  0.00000000000E+00  0.00000000000E+00 -0.12826431894E+04  0.14155936447E+04  0.59894224730E+03 0.  0.
        2    1    3    3  502    0 -0.59123176305E+02  0.28297392392E+03 -0.45652812516E+03  0.54035888136E+03  0.25500000920E-02 0. -1.
       -2    1    3    3    0  502  0.59123176305E+02 -0.28297392392E+03 -0.82611506428E+03  0.87523476338E+03  0.25500000920E-02 0.  1.
</event>
<event>
 5   0  0.9866317E-03  0.5984169E+03  0.7818609E-02  0.9908696E-01
       -2   -1    0    0    0  501  0.00000000000E+00  0.00000000000E+00  0.20800506780E+03  0.20800506782E+03  0.25500000920E-02 0.  1.
        2   -1    0    0  501    0  0.00000000000E+00  0.00000000000E+00 -0.43040152970E+03  0.43040152971E+03  0.25500000920E-02 0. -1.
    10030    2    1    2    0    0  0.00000000000E+00  0.00000000000E+00 -0.22239646190E+03  0.63840659752E+03  0.59841690944E+03 0.  0.
        1    1    3    3  502    0  0.24033526273E+03  0.16369246153E+02 -0.30053113487E+03  0.38515964714E+03  0.50400001928E-02 0. -1.
       -1    1    3    3    0  502 -0.24033526273E+03 -0.16369246153E+02  0.78134672973E+02  0.25324695039E+03  0.50400001928E-02 0.  1.
</event>
<event>
 5   0  0.5491236E-03  0.5985782E+03  0.7818609E-02  0.9908360E-01
        1   -1    0    0  501    0  0.00000000000E+00  0.00000000000E+00  0.12417780095E+04  0.12417780095E+04  0.50400001928E-02 0. -1.
       -1   -1    0    0    0  501  0.00000000000E+00  0.00000000000E+00 -0.72133632325E+02  0.72133632501E+02  0.50400001928E-02 0.  1.
    10030    2    1    2    0    0  0.00000000000E+00  0.00000000000E+00  0.11696443772E+04  0.13139116420E+04  0.59857817698E+03 0.  0.
        3    1    3    3  502    0  0.20953982912E+03 -0.11352437534E+03  0.18740685566E+03  0.30317662102E+03  0.10100000352E+00 0.  1.
       -3    1    3    3    0  502 -0.20953982912E+03  0.11352437534E+03  0.98223752151E+03  0.10107350210E+04  0.10100000352E+00 0. -1.
</event>
<event>
 5   0  0.9866317E-03  0.5979142E+03  0.7818609E-02  0.9909743E-01
       -2   -1    0    0    0  501  0.00000000000E+00  0.00000000000E+00  0.17499656725E+03  0.17499656726E+03  0.25500000920E-02 0.  1.
        2   -1    0    0  501    0  0.00000000000E+00  0.00000000000E+00 -0.51072627062E+03  0.51072627062E+03  0.25500000920E-02 0. -1.
    10030    2    1    2    0    0  0.00000000000E+00  0.00000000000E+00 -0.33572970337E+03  0.68572283789E+03  0.59791418839E+03 0.  0.
        1    1    3    3  502    0  0.25308270390E+03  0.80943221085E+02 -0.32499985552E+03  0.41979467144E+03  0.50400001928E-02 0. -1.
       -1    1    3    3    0  502 -0.25308270390E+03 -0.80943221085E+02 -0.10729847847E+02  0.26592816645E+03  0.50400001928E-02 0.  1.
</event>
<event>
 5   0  0.3794375E-03  0.5974517E+03  0.7818609E-02  0.9910707E-01
       -4   -1    0    0    0  501  0.00000000000E+00  0.00000000000E+00  0.37594518660E+03  0.37594733172E+03  0.12699999809E+01 0.  1.
        4   -1    0    0  501    0  0.00000000000E+00  0.00000000000E+00 -0.23736289362E+03  0.23736629113E+03  0.12699999809E+01 0. -1.
    10030    2    1    2    0    0  0.00000000000E+00  0.00000000000E+00  0.13858229298E+03  0.61331362285E+03  0.59745171190E+03 0.  0.
        3    1    3    3  502    0 -0.14941280774E+03  0.31932087378E+02  0.33280312962E+03  0.36619909695E+03  0.10100000352E+00 0.  1.
       -3    1    3    3    0  502  0.14941280774E+03 -0.31932087378E+02 -0.19422083665E+03  0.24711452590E+03  0.10100000352E+00 0. -1.
</event>
<event>
 5   0  0.5503975E-03  0.6001734E+03  0.7818609E-02  0.9905046E-01
       -1   -1    0    0    0  501  0.00000000000E+00  0.00000000000E+00  0.29301909837E+03  0.29301909841E+03  0.50400001928E-02 0. -1.
        1   -1    0    0  501    0  0.00000000000E+00  0.00000000000E+00 -0.30732481494E+03  0.30732481498E+03  0.50400001928E-02 0.  1.
    10030    2    1    2    0    0  0.00000000000E+00  0.00000000000E+00 -0.14305716573E+02  0.60034391339E+03  0.60017344228E+03 0.  0.
        4    1    3    3  502    0  0.26527309826E+03 -0.11622188578E+03  0.71438433657E+02  0.29829918890E+03  0.12699999809E+01 0.  1.
       -4    1    3    3    0  502 -0.26527309826E+03  0.11622188578E+03 -0.85744150229E+02  0.30204472449E+03  0.12699999809E+01 0. -1.
</event>
<event>
 5   0  0.9681801E-03  0.6045977E+03  0.7818609E-02  0.9895913E-01
        2   -1    0    0  501    0  0.00000000000E+00  0.00000000000E+00  0.93319983865E+03  0.93319983865E+03  0.25500000920E-02 0.  1.
       -2   -1    0    0    0  501  0.00000000000E+00  0.00000000000E+00 -0.97926061445E+02  0.97926061478E+02  0.25500000920E-02 0. -1.
    10030    2    1    2    0    0  0.00000000000E+00  0.00000000000E+00  0.83527377720E+03  0.10311259001E+04  0.60459766708E+03 0.  0.
        4    1    3    3  502    0 -0.23148467302E+03  0.17381878991E+03  0.56616840699E+03  0.63588238185E+03  0.12699999809E+01 0.  1.
       -4    1    3    3    0  502  0.23148467302E+03 -0.17381878991E+03  0.26910537021E+03  0.39524351828E+03  0.12699999809E+01 0. -1.
</event>
<event>
 5   0  0.9530666E-03  0.6004310E+03  0.7818609E-02  0.9904512E-01
        2   -1    0    0  501    0  0.00000000000E+00  0.00000000000E+00  0.28019646657E+03  0.28019646659E+03  0.25500000920E-02 0. -1.
       -2   -1    0    0    0  501  0.00000000000E+00  0.00000000000E+00 -0.32166478038E+03  0.32166478039E+03  0.25500000920E-02 0.  1.
    10030    2    1    2    0    0  0.00000000000E+00  0.00000000000E+00 -0.41468313806E+02  0.60186124698E+03  0.60043096153E+03 0.  0.
        2    1    3    3  502    0 -0.81556875499E+02  0.20571515777E+03 -0.22409444878E+03  0.31494217257E+03  0.25500000920E-02 0.  1.
       -2    1    3    3    0  502  0.81556875499E+02 -0.20571515777E+03  0.18262613498E+03  0.28691907441E+03  0.25500000920E-02 0. -1.
</event>
<event>
 5   0  0.5574736E-03  0.6006764E+03  0.7818609E-02  0.9904004E-01
        1   -1    0    0  501    0  0.00000000000E+00  0.00000000000E+00  0.43421836535E+03  0.43421836538E+03  0.50400001928E-02 0. -1.
       -1   -1    0    0    0  501  0.00000000000E+00  0.00000000000E+00 -0.20773656923E+03  0.20773656929E+03  0.50400001928E-02 0.  1.
    10030    2    1    2    0    0  0.00000000000E+00  0.00000000000E+00  0.22648179612E+03  0.64195493468E+03  0.60067639722E+03 0.  0.
        5    1    3    3  502    0 -0.29329490873E+03 -0.61338762011E+02  0.91957629670E+02  0.31346872709E+03  0.46999998093E+01 0. -1.
       -5    1    3    3    0  502  0.29329490873E+03  0.61338762011E+02  0.13452416645E+03  0.32848620758E+03  0.46999998093E+01 0.  1.
</event>
<event>
 5   0  0.9571790E-03  0.6004582E+03  0.7818609E-02  0.9904456E-01
        2   -1    0    0  501    0  0.00000000000E+00  0.00000000000E+00  0.13974196466E+04  0.13974196466E+04  0.25500000920E-02 0. -1.
       -2   -1    0    0    0  501  0.00000000000E+00  0.00000000000E+00 -0.64502828034E+02  0.64502828084E+02  0.25500000920E-02 0.  1.
    10030    2    1    2    0    0  0.00000000000E+00  0.00000000000E+00  0.13329168186E+04  0.14619224747E+04  0.60045822234E+03 0.  0.
        5    1    3    3  502    0 -0.26699162803E+03 -0.12994261496E+03  0.77385549480E+03  0.82888119139E+03  0.46999998093E+01 0. -1.
       -5    1    3    3    0  502  0.26699162803E+03  0.12994261496E+03  0.55906132377E+03  0.63304128329E+03  0.46999998093E+01 0.  1.
</event>
<event>
 5   0  0.9530666E-03  0.5941010E+03  0.7818609E-02  0.9917721E-01
       -2   -1    0    0    0  501  0.00000000000E+00  0.00000000000E+00  0.17964163252E+03  0.17964163254E+03  0.25500000920E-02 0.  1.
        2   -1    0    0  501    0  0.00000000000E+00  0.00000000000E+00 -0.49119455044E+03  0.49119455044E+03  0.25500000920E-02 0. -1.
    10030    2    1    2    0    0  0.00000000000E+00  0.00000000000E+00 -0.31155291792E+03  0.67083618298E+03  0.59410097099E+03 0.  0.
        2    1    3    3  502    0 -0.15103256996E+03  0.21721460563E+03 -0.32519338764E+01  0.26458192903E+03  0.25500000920E-02 0.  1.
       -2    1    3    3    0  502  0.15103256996E+03 -0.21721460563E+03 -0.30830098404E+03  0.40625425395E+03  0.25500000920E-02 0. -1.
</event>
<event>
 5   0  0.3794375E-03  0.5998481E+03  0.7818609E-02  0.9905721E-01
        4   -1    0    0  501    0  0.00000000000E+00  0.00000000000E+00  0.27502009183E+03  0.27502302414E+03  0.12699999809E+01 0.  1.
       -4   -1    0    0    0  501  0.00000000000E+00  0.00000000000E+00 -0.32707724849E+03  0.32707971410E+03  0.12699999809E+01 0. -1.
    10030    2    1    2    0    0  0.00000000000E+00  0.00000000000E+00 -0.52057156660E+02  0.60210273824E+03  0.59984811398E+03 0.  0.
        4    1    3    3  502    0 -0.31166769853E+02 -0.27402535940E+03  0.92276896838E+02  0.29082280469E+03  0.12699999809E+01 0.  1.
       -4    1    3    3    0  502  0.31166769853E+02  0.27402535940E+03 -0.14433405350E+03  0.31127993356E+03  0.12699999809E+01 0. -1.
</event>
<event>
 5   0  0.5491236E-03  0.6002088E+03  0.7818609E-02  0.9904973E-01
       -1   -1    0    0    0  501  0.00000000000E+00  0.00000000000E+00  0.89290238306E+03  0.89290238307E+03  0.50400001928E-02 0. -1.
        1   -1    0    0  501    0  0.00000000000E+00  0.00000000000E+00 -0.10086505061E+03  0.10086505074E+03  0.50400001928E-02 0.  1.
    10030    2    1    2    0    0  0.00000000000E+00  0.00000000000E+00  0.79203733244E+03  0.99376743381E+03  0.60020877745E+03 0.  0.
        3    1    3    3  502    0  0.24775202330E+03 -0.12518051891E+03  0.58488064779E+03  0.64740760710E+03  0.10100000352E+00 0. -1.
       -3    1    3    3    0  502 -0.24775202330E+03  0.12518051891E+03  0.20715668465E+03  0.34635982671E+03  0.10100000352E+00 0.  1.
</event>
<event>
 5   0  0.9866317E-03  0.6010010E+03  0.7818609E-02  0.9903332E-01
       -2   -1    0    0    0  501  0.00000000000E+00  0.00000000000E+00  0.56644164623E+02  0.56644164680E+02  0.25500000920E-02 0.  1.
        2   -1    0    0  501    0  0.00000000000E+00  0.00000000000E+00 -0.15941719627E+04  0.15941719627E+04  0.25500000920E-02 0. -1.
    10030    2    1    2    0    0  0.00000000000E+00  0.00000000000E+00 -0.15375277981E+04  0.16508161274E+04  0.60100096220E+03 0.  0.
        1    1    3    3  502    0 -0.20818315669E+03  0.15483712802E+03 -0.11852045555E+04  0.12132702095E+04  0.50400001928E-02 0. -1.
       -1    1    3    3    0  502  0.20818315669E+03 -0.15483712802E+03 -0.35232324260E+03  0.43754591787E+03  0.50400001928E-02 0.  1.
</event>
<event>
 5   0  0.5491236E-03  0.6008970E+03  0.7818609E-02  0.9903547E-01
       -1   -1    0    0    0  501  0.00000000000E+00  0.00000000000E+00  0.24215718701E+03  0.24215718706E+03  0.50400001928E-02 0.  1.
        1   -1    0    0  501    0  0.00000000000E+00  0.00000000000E+00 -0.37277154598E+03  0.37277154601E+03  0.50400001928E-02 0. -1.
    10030    2    1    2    0    0  0.00000000000E+00  0.00000000000E+00 -0.13061435897E+03  0.61492873307E+03  0.60089702611E+03 0.  0.
        3    1    3    3  502    0  0.76670050686E+02 -0.23161785865E+03  0.11412738950E+03  0.26935144394E+03  0.10100000352E+00 0.  1.
       -3    1    3    3    0  502 -0.76670050686E+02  0.23161785865E+03 -0.24474174847E+03  0.34557728913E+03  0.10100000352E+00 0. -1.
</event>
<event>
 5   0  0.9530666E-03  0.6008693E+03  0.7818609E-02  0.9903604E-01
        2   -1    0    0  501    0  0.00000000000E+00  0.00000000000E+00  0.89501391938E+03  0.89501391938E+03  0.25500000920E-02 0.  1.
       -2   -1    0    0    0  501  0.00000000000E+00  0.00000000000E+00 -0.10084868488E+03  0.10084868491E+03  0.25500000920E-02 0. -1.
    10030    2    1    2    0    0  0.00000000000E+00  0.00000000000E+00  0.79416523450E+03  0.99586260430E+03  0.60086929274E+03 0.  0.
        2    1    3    3  502    0 -0.15591690015E+03  0.22251086652E+03  0.60958696892E+03  0.66739601299E+03  0.25500000920E-02 0.  1.
       -2    1    3    3    0  502  0.15591690015E+03 -0.22251086652E+03  0.18457826558E+03  0.32846659131E+03  0.25500000920E-02 0. -1.
</event>
<event>
 5   0  0.9428629E-03  0.5986851E+03  0.7818609E-02  0.9908138E-01
       -2   -1    0    0    0  501  0.00000000000E+00  0.00000000000E+00  0.13138861724E+03  0.13138861727E+03  0.25500000920E-02 0.  1.
        2   -1    0    0  501    0  0.00000000000E+00  0.00000000000E+00 -0.68199172118E+03  0.68199172119E+03  0.25500000920E-02 0. -1.
    10030    2    1    2    0    0  0.00000000000E+00  0.00000000000E+00 -0.55060310394E+03  0.81338033845E+03  0.59868505654E+03 0.  0.
        3    1    3    3  502    0  0.13061724613E+03  0.21337301993E+03 -0.51988533539E+02  0.25552246172E+03  0.10100000352E+00 0.  1.
       -3    1    3    3    0  502 -0.13061724613E+03 -0.21337301993E+03 -0.49861457040E+03  0.55785787674E+03  0.10100000352E+00 0. -1.
</event>
<event>
 5   0  0.9866317E-03  0.6011930E+03  0.7818609E-02  0.9902934E-01
       -2   -1    0    0    0  501  0.00000000000E+00  0.00000000000E+00  0.19022892765E+03  0.19022892766E+03  0.25500000920E-02 0. -1.
        2   -1    0    0  501    0  0.00000000000E+00  0.00000000000E+00 -0.47499748385E+03  0.47499748386E+03  0.25500000920E-02 0.  1.
    10030    2    1    2    0    0  0.00000000000E+00  0.00000000000E+00 -0.28476855620E+03  0.66522641152E+03  0.60119302057E+03 0.  0.
        1    1    3    3  502    0  0.18032525242E+02  0.41411453383E+02  0.18645267294E+03  0.19184545788E+03  0.50400001928E-02 0. -1.
       -1    1    3    3    0  502 -0.18032525242E+02 -0.41411453383E+02 -0.47122122915E+03  0.47338095363E+03  0.50400001928E-02 0.  1.
</event>
<event>
 5   0  0.9571790E-03  0.5986352E+03  0.7818609E-02  0.9908242E-01
       -2   -1    0    0    0  501  0.00000000000E+00  0.00000000000E+00  0.15082227529E+03  0.15082227531E+03  0.25500000920E-02 0. -1.
        2   -1    0    0  501    0  0.00000000000E+00  0.00000000000E+00 -0.59401718673E+03  0.59401718674E+03  0.25500000920E-02 0.  1.
    10030    2    1    2    0    0  0.00000000000E+00  0.00000000000E+00 -0.44319491144E+03  0.74483946204E+03  0.59863519333E+03 0.  0.
        5    1    3    3  502    0 -0.41581026360E+01 -0.27158610284E+03 -0.65236722357E+02  0.27938185520E+03  0.46999998093E+01 0.  1.
       -5    1    3    3    0  502  0.41581026360E+01  0.27158610284E+03 -0.37795818909E+03  0.46545760684E+03  0.46999998093E+01 0. -1.
</event>
<event>
 5   0  0.5503975E-03  0.6003973E+03  0.7818609E-02  0.9904582E-01
       -1   -1    0    0    0  501  0.00000000000E+00  0.00000000000E+00  0.75302939604E+02  0.75302939773E+02  0.50400001928E-02 0.  1.
        1   -1    0    0  501    0  0.00000000000E+00  0.00000000000E+00 -0.11967556741E+04  0.11967556742E+04  0.50400001928E-02 0. -1.
    10030    2    1    2    0    0  0.00000000000E+00  0.00000000000E+00 -0.11214527345E+04  0.12720586139E+04  0.60039726970E+03 0.  0.
        4    1    3    3  502    0  0.11698839082E+03 -0.19636579428E+03 -0.14841398183E+03  0.27253280840E+03  0.12699999809E+01 0.  1.
       -4    1    3    3    0  502 -0.11698839082E+03  0.19636579428E+03 -0.97303875271E+03  0.99952580553E+03  0.12699999809E+01 0. -1.
</event>
<event>
 5   0  0.5491236E-03  0.5991132E+03  0.7818609E-02  0.9907248E-01
        1   -1    0    0  501    0  0.00000000000E+00  0.00000000000E+00  0.28399209153E+03  0.28399209158E+03  0.50400001928E-02 0. -1.
       -1   -1    0    0    0  501  0.00000000000E+00  0.00000000000E+00 -0.31597416245E+03  0.31597416249E+03  0.50400001928E-02 0.  1.
    10030    2    1    2    0    0  0.00000000000E+00  0.00000000000E+00 -0.31982070919E+02  0.59996625407E+03  0.59911322232E+03 0.  0.
        3    1    3    3  502    0  0.64157275341E+02 -0.22941569159E+03  0.16588924987E+03  0.29028773476E+03  0.10100000352E+00 0. -1.
       -3    1    3    3    0  502 -0.64157275341E+02  0.22941569159E+03 -0.19787132079E+03  0.30967851931E+03  0.10100000352E+00 0.  1.
</event>
<event>
 5   0  0.3794375E-03  0.6072394E+03  0.7818609E-02  0.9890499E-01
        3   -1    0    0  501    0  0.00000000000E+00  0.00000000000E+00  0.25070434441E+03  0.25070436476E+03  0.10100000352E+00 0. -1.
       -3   -1    0    0    0  501  0.00000000000E+00  0.00000000000E+00 -0.36770365452E+03  0.36770366840E+03  0.10100000352E+00 0.  1.
    10030    2    1    2    0    0  0.00000000000E+00  0.00000000000E+00 -0.11699931011E+03  0.61840803315E+03  0.60723937364E+03 0.  0.
        2    1    3    3  502    0  0.17308772283E+03  0.21761764050E+03 -0.18267723259E+03  0.33269771349E+03  0.25500000920E-02 0.  1.
       -2    1    3    3    0  502 -0.17308772283E+03 -0.21761764050E+03  0.65677922475E+02  0.28571031966E+03  0.25500000920E-02 0. -1.
</event>
<event>
 5   0  0.9681801E-03  0.5950816E+03  0.7818609E-02  0.9915663E-01
        2   -1    0    0  501    0  0.00000000000E+00  0.00000000000E+00  0.64834111010E+03  0.64834111010E+03  0.25500000920E-02 0.  1.
       -2   -1    0    0    0  501  0.00000000000E+00  0.00000000000E+00 -0.13654930665E+03  0.13654930667E+03  0.25500000920E-02 0. -1.
    10030    2    1    2    0    0  0.00000000000E+00  0.00000000000E+00  0.51179180345E+03  0.78489041677E+03  0.59508160471E+03 0.  0.
        4    1    3    3  502    0  0.82663748663E+02  0.13954581903E+03 -0.73112150146E+02  0.17791382844E+03  0.12699999809E+01 0. -1.
       -4    1    3    3    0  502 -0.82663748663E+02 -0.13954581903E+03  0.58490395360E+03  0.60697658833E+03  0.12699999809E+01 0.  1.
</event>
<event>
 5   0  0.5503975E-03  0.6003607E+03  0.7818609E-02  0.9904658E-01
        1   -1    0    0  501    0  0.00000000000E+00  0.00000000000E+00  0.24074164914E+03  0.24074164919E+03  0.50400001928E-02 0. -1.
       -1   -1    0    0    0  501  0.00000000000E+00  0.00000000000E+00 -0.37429431012E+03  0.37429431015E+03  0.50400001928E-02 0.  1.
    10030    2    1    2    0    0  0.00000000000E+00  0.00000000000E+00 -0.13355266098E+03  0.61503595934E+03  0.60036065663E+03 0.  0.
        4    1    3    3  502    0  0.16386486420E+02 -0.86455771617E+02 -0.36078198234E+03  0.37136016085E+03  0.12699999809E+01 0.  1.
       -4    1    3    3    0  502 -0.16386486420E+02  0.86455771617E+02  0.22722932136E+03  0.24367579849E+03  0.12699999809E+01 0. -1.
</event>
<event>
 5   0  0.3794375E-03  0.6009389E+03  0.7818609E-02  0.9903460E-01
       -3   -1    0    0    0  501  0.00000000000E+00  0.00000000000E+00  0.22658208509E+03  0.22658210760E+03  0.10100000352E+00 0.  1.
        3   -1    0    0  501    0  0.00000000000E+00  0.00000000000E+00 -0.39845113469E+03  0.39845114749E+03  0.10100000352E+00 0. -1.
    10030    2    1    2    0    0  0.00000000000E+00  0.00000000000E+00 -0.17186904960E+03  0.62503325509E+03  0.60093893181E+03 0.  0.
        4    1    3    3  502    0  0.97498128535E+02 -0.28416868664E+03 -0.90874645900E+02  0.31387504154E+03  0.12699999809E+01 0. -1.
       -4    1    3    3    0  502 -0.97498128535E+02  0.28416868664E+03 -0.80994403699E+02  0.31115821356E+03  0.12699999809E+01 0.  1.
</event>
<event>
 5   0  0.5785798E-03  0.5982287E+03  0.7818609E-02  0.9909088E-01
       -1   -1    0    0    0  501  0.00000000000E+00  0.00000000000E+00  0.93979869958E+02  0.93979870093E+02  0.50400001928E-02 0. -1.
        1   -1    0    0  501    0  0.00000000000E+00  0.00000000000E+00 -0.95200609161E+03  0.95200609162E+03  0.50400001928E-02 0.  1.
    10030    2    1    2    0    0  0.00000000000E+00  0.00000000000E+00 -0.85802622165E+03  0.10459859617E+04  0.59822874811E+03 0.  0.
        1    1    3    3  502    0 -0.17476583624E+03  0.10506748502E+03 -0.81163340654E+03  0.83685784968E+03  0.50400001928E-02 0.  1.
       -1    1    3    3    0  502  0.17476583624E+03 -0.10506748502E+03 -0.46392815109E+02  0.20912811204E+03  0.50400001928E-02 0. -1.
</event>
<event>
 5   0  0.9866317E-03  0.6105099E+03  0.7818609E-02  0.9883838E-01
       -2   -1    0    0    0  501  0.00000000000E+00  0.00000000000E+00  0.13058902864E+03  0.13058902867E+03  0.25500000920E-02 0. -1.
        2   -1    0    0  501    0  0.00000000000E+00  0.00000000000E+00 -0.71354078730E+03  0.71354078730E+03  0.25500000920E-02 0.  1.
    10030    2    1    2    0    0  0.00000000000E+00  0.00000000000E+00 -0.58295175866E+03  0.84412981597E+03  0.61050994529E+03 0.  0.
        1    1    3    3  502    0 -0.53624731039E+02 -0.19877320319E+03 -0.60309461464E+03  0.63726722206E+03  0.50400001928E-02 0.  1.
       -1    1    3    3    0  502  0.53624731039E+02  0.19877320319E+03  0.20142855980E+02  0.20686259391E+03  0.50400001928E-02 0. -1.
</event>
<event>
 5   0  0.5574736E-03  0.6004940E+03  0.7818609E-02  0.9904382E-01
        1   -1    0    0  501    0  0.00000000000E+00  0.00000000000E+00  0.59081253076E+03  0.59081253078E+03  0.50400001928E-02 0.  1.
       -1   -1    0    0    0  501  0.00000000000E+00  0.00000000000E+00 -0.15258355117E+03  0.15258355126E+03  0.50400001928E-02 0. -1.
    10030    2    1    2    0    0  0.00000000000E+00  0.00000000000E+00  0.43822897958E+03  0.74339608204E+03  0.60049404347E+03 0.  0.
        5    1    3    3  502    0 -0.78751270745E+02 -0.22767269481E+03  0.44087973351E+03  0.50242775403E+03  0.46999998093E+01 0.  1.
       -5    1    3    3    0  502  0.78751270745E+02  0.22767269481E+03 -0.26507539235E+01  0.24096832800E+03  0.46999998093E+01 0. -1.
</event>
<event>
 5   0  0.9681801E-03  0.6034562E+03  0.7818609E-02  0.9898261E-01
        2   -1    0    0  501    0  0.00000000000E+00  0.00000000000E+00  0.34889770114E+03  0.34889770115E+03  0.25500000920E-02 0. -1.
       -2   -1    0    0    0  501  0.00000000000E+00  0.00000000000E+00 -0.26093567212E+03  0.26093567214E+03  0.25500000920E-02 0.  1.
    10030    2    1    2    0    0  0.00000000000E+00  0.00000000000E+00  0.87962029018E+02  0.60983337329E+03  0.60345623257E+03 0.  0.
        4    1    3    3  502    0 -0.31721783566E+02  0.28536656956E+03 -0.49723695376E+02  0.29140077103E+03  0.12699999809E+01 0.  1.
       -4    1    3    3    0  502  0.31721783566E+02 -0.28536656956E+03  0.13768572439E+03  0.31843260225E+03  0.12699999809E+01 0. -1.
</event>
<event>
 5   0  0.9866317E-03  0.5999454E+03  0.7818609E-02  0.9905519E-01
       -2   -1    0    0    0  501  0.00000000000E+00  0.00000000000E+00  0.19736128751E+03  0.19736128753E+03  0.25500000920E-02 0.  1.
        2   -1    0    0  501    0  0.00000000000E+00  0.00000000000E+00 -0.45593356056E+03  0.45593356057E+03  0.25500000920E-02 0. -1.
    10030    2    1    2    0    0  0.00000000000E+00  0.00000000000E+00 -0.25857227305E+03  0.65329484810E+03  0.59994544598E+03 0.  0.
        1    1    3    3  502    0  0.98572230600E+02  0.31490516136E+02  0.17731019892E+03  0.20529745229E+03  0.50400001928E-02 0.  1.
       -1    1    3    3    0  502 -0.98572230600E+02 -0.31490516136E+02 -0.43588247197E+03  0.44799739581E+03  0.50400001928E-02 0. -1.
</event>
<event>
 5   0  0.9428629E-03  0.5997697E+03  0.7818609E-02  0.9905884E-01
       -2   -1    0    0    0  501  0.00000000000E+00  0.00000000000E+00  0.13599935722E+03  0.13599935725E+03  0.25500000920E-02 0. -1.
        2   -1    0    0  501    0  0.00000000000E+00  0.00000000000E+00 -0.66126001118E+03  0.66126001119E+03  0.25500000920E-02 0.  1.
    10030    2    1    2    0    0  0.00000000000E+00  0.00000000000E+00 -0.52526065396E+03  0.79725936843E+03  0.59976974411E+03 0.  0.
        3    1    3    3  502    0 -0.19597637303E+03  0.21048059296E+03 -0.37559614500E+03  0.47305527493E+03  0.10100000352E+00 0. -1.
       -3    1    3    3    0  502  0.19597637303E+03 -0.21048059296E+03 -0.14966450896E+03  0.32420409350E+03  0.10100000352E+00 0.  1.
</event>
<event>
 5   0  0.9530666E-03  0.5996653E+03  0.7818609E-02  0.9906101E-01
       -2   -1    0    0    0  501  0.00000000000E+00  0.00000000000E+00  0.40824005366E+03  0.40824005367E+03  0.25500000920E-02 0.  1.
        2   -1    0    0  501    0  0.00000000000E+00  0.00000000000E+00 -0.22021261672E+03  0.22021261674E+03  0.25500000920E-02 0. -1.
    10030    2    1    2    0    0  0.00000000000E+00  0.00000000000E+00  0.18802743694E+03  0.62845267041E+03  0.59966527488E+03 0.  0.
        2    1    3    3  502    0  0.25152705534E+02  0.26133233104E+02 -0.21790492502E+03  0.22090305752E+03  0.25500000920E-02 0. -1.
       -2    1    3    3    0  502 -0.25152705534E+02 -0.26133233104E+02  0.40593236196E+03  0.40754961288E+03  0.25500000920E-02 0.  1.
</event>
<event>
 5   0  0.9866317E-03  0.5995385E+03  0.7818609E-02  0.9906364E-01
       -2   -1    0    0    0  501  0.00000000000E+00  0.00000000000E+00  0.55896017416E+03  0.55896017416E+03  0.25500000920E-02 0. -1.
        2   -1    0    0  501    0  0.00000000000E+00  0.00000000000E+00 -0.16076566241E+03  0.16076566243E+03  0.25500000920E-02 0.  1.
    10030    2    1    2    0    0  0.00000000000E+00  0.00000000000E+00  0.39819451175E+03  0.71972583660E+03  0.59953849808E+03 0.  0.
        1    1    3    3  502    0  0.17203830065E+03 -0.30746551991E+02 -0.93282435774E+02  0.19810133821E+03  0.50400001928E-02 0.  1.
       -1    1    3    3    0  502 -0.17203830065E+03  0.30746551991E+02  0.49147694752E+03  0.52162449839E+03  0.50400001928E-02 0. -1.
</event>
<event>
 5   0  0.9571790E-03  0.5928760E+03  0.7818609E-02  0.9920297E-01
        2   -1    0    0  501    0  0.00000000000E+00  0.00000000000E+00  0.11684477565E+04  0.11684477565E+04  0.25500000920E-02 0. -1.
       -2   -1    0    0    0  501  0.00000000000E+00  0.00000000000E+00 -0.75207024783E+02  0.75207024827E+02  0.25500000920E-02 0.  1.
    10030    2    1    2    0    0  0.00000000000E+00  0.00000000000E+00  0.10932407317E+04  0.12436547814E+04  0.59287597156E+03 0.  0.
        5    1    3    3  502    0 -0.28848176321E+03  0.29702403007E+02  0.67506576708E+03  0.73473793990E+03  0.46999998093E+01 0.  1.
       -5    1    3    3    0  502  0.28848176321E+03 -0.29702403007E+02  0.41817496467E+03  0.50891684146E+03  0.46999998093E+01 0. -1.
</event>
<event>
 5   0  0.3794375E-03  0.5991529E+03  0.7818609E-02  0.9907165E-01
       -3   -1    0    0    0  501  0.00000000000E+00  0.00000000000E+00  0.12258548751E+03  0.12258552911E+03  0.10100000352E+00 0. -1.
        3   -1    0    0  501    0  0.00000000000E+00  0.00000000000E+00 -0.73210975887E+03  0.73210976584E+03  0.10100000352E+00 0.  1.
    10030    2    1    2    0    0  0.00000000000E+00  0.00000000000E+00 -0.60952427137E+03  0.85469529495E+03  0.59915291022E+03 0.  0.
        3    1    3    3  502    0  0.26847554651E+03  0.26251426192E+01 -0.11519223575E+03  0.29215624556E+03  0.10100000352E+00 0. -1.
       -3    1    3    3    0  502 -0.26847554651E+03 -0.26251426192E+01 -0.49433203562E+03  0.56253904939E+03  0.10100000352E+00 0.  1.
</event>
<event>
 5   0  0.9530666E-03  0.5994974E+03  0.7818609E-02  0.9906449E-01
       -2   -1    0    0    0  501  0.00000000000E+00  0.00000000000E+00  0.33148823546E+03  0.33148823547E+03  0.25500000920E-02 0. -1.
        2   -1    0    0  501    0  0.00000000000E+00  0.00000000000E+00 -0.27104814219E+03  0.27104814221E+03  0.25500000920E-02 0.  1.
    10030    2    1    2    0    0  0.00000000000E+00  0.00000000000E+00  0.60440093269E+02  0.60253637768E+03  0.59949735742E+03 0.  0.
        2    1    3    3  502    0  0.12327016332E+03 -0.46408976837E+02 -0.24040303491E+03  0.27412213609E+03  0.25500000920E-02 0.  1.
       -2    1    3    3    0  502 -0.12327016332E+03  0.46408976837E+02  0.30084312818E+03  0.32841424158E+03  0.25500000920E-02 0. -1.
</event>
<event>
 5   0  0.5491236E-03  0.6025815E+03  0.7818609E-02  0.9900065E-01
        1   -1    0    0  501    0  0.00000000000E+00  0.00000000000E+00  0.94795968696E+03  0.94795968697E+03  0.50400001928E-02 0.  1.
       -1   -1    0    0    0  501  0.00000000000E+00  0.00000000000E+00 -0.95759475699E+02  0.95759475832E+02  0.50400001928E-02 0. -1.
    10030    2    1    2    0    0  0.00000000000E+00  0.00000000000E+00  0.85220021126E+03  0.10437191628E+04  0.60258152206E+03 0.  0.
        3    1    3    3  502    0  0.68008876111E+02 -0.50006892255E+02 -0.74857968266E+02  0.11282562704E+03  0.10100000352E+00 0. -1.
       -3    1    3    3    0  502 -0.68008876111E+02  0.50006892255E+02  0.92705817952E+03  0.93089353576E+03  0.10100000352E+00 0.  1.
</event>
<event>
 5   0  0.5785798E-03  0.5856384E+03  0.7818609E-02  0.9935658E-01
        1   -1    0    0  501    0  0.00000000000E+00  0.00000000000E+00  0.63081202575E+03  0.63081202577E+03  0.50400001928E-02 0.  1.
       -1   -1    0    0    0  501  0.00000000000E+00  0.00000000000E+00 -0.13592493940E+03  0.13592493949E+03  0.50400001928E-02 0. -1.
    10030    2    1    2    0    0  0.00000000000E+00  0.00000000000E+00  0.49488708635E+03  0.76673696526E+03  0.58563840863E+03 0.  0.
        1    1    3    3  502    0  0.26817610890E+03  0.10839518460E+03  0.18780307147E+03  0.34487379592E+03  0.50400001928E-02 0. -1.
       -1    1    3    3    0  502 -0.26817610890E+03 -0.10839518460E+03  0.30708401488E+03  0.42186316934E+03  0.50400001928E-02 0.  1.
</event>
<event>
 5   0  0.9530666E-03  0.6002896E+03  0.7818609E-02  0.9904805E-01
        2   -1    0    0  501    0  0.00000000000E+00  0.00000000000E+00  0.14128966984E+04  0.14128966984E+04  0.25500000920E-02 0.  1.
       -2   -1    0    0    0  501  0.00000000000E+00  0.00000000000E+00 -0.63760424643E+02  0.63760424694E+02  0.25500000920E-02 0. -1.
    10030    2    1    2    0    0  0.00000000000E+00  0.00000000000E+00  0.13491362738E+04  0.14766571231E+04  0.60028957515E+03 0.  0.
        2    1    3    3  502    0  0.15377901591E+03 -0.10981759379E+02  0.13080520409E+04  0.13171061940E+04  0.25500000920E-02 0.  1.
       -2    1    3    3    0  502 -0.15377901591E+03  0.10981759379E+02  0.41084232935E+02  0.15955092909E+03  0.25500000920E-02 0. -1.
</event>
<event>
 5   0  0.9571790E-03  0.6049885E+03  0.7818609E-02  0.9895110E-01
       -2   -1    0    0    0  501  0.00000000000E+00  0.00000000000E+00  0.37045531491E+03  0.37045531491E+03  0.25500000920E-02 0.  1.
        2   -1    0    0  501    0  0.00000000000E+00  0.00000000000E+00 -0.24700083218E+03  0.24700083220E+03  0.25500000920E-02 0. -1.
    10030    2    1    2    0    0  0.00000000000E+00  0.00000000000E+00  0.12345448272E+03  0.61745614711E+03  0.60498849931E+03 0.  0.
        5    1    3    3  502    0 -0.18959850144E+03  0.36121746264E+02  0.29939596280E+03  0.35624767345E+03  0.46999998093E+01 0.  1.
       -5    1    3    3    0  502  0.18959850144E+03 -0.36121746264E+02 -0.17594148008E+03  0.26120847366E+03  0.46999998093E+01 0. -1.
</event>
<event>
 5   0  0.9571790E-03  0.6054912E+03  0.7818609E-02  0.9894079E-01
        2   -1    0    0  501    0  0.00000000000E+00  0.00000000000E+00  0.88813394505E+03  0.88813394506E+03  0.25500000920E-02 0.  1.
       -2   -1    0    0    0  501  0.00000000000E+00  0.00000000000E+00 -0.10319939332E+03  0.10319939335E+03  0.25500000920E-02 0. -1.
    10030    2    1    2    0    0  0.00000000000E+00  0.00000000000E+00  0.78493455173E+03  0.99133333841E+03  0.60549115380E+03 0.  0.
        5    1    3    3  502    0 -0.19917562620E+03  0.11173479129E+03  0.71776804030E+03  0.75323876914E+03  0.46999998093E+01 0.  1.
       -5    1    3    3    0  502  0.19917562620E+03 -0.11173479129E+03  0.67166511432E+02  0.23809456927E+03  0.46999998093E+01 0. -1.
</event>
<event>
 5   0  0.5503975E-03  0.6021185E+03  0.7818609E-02  0.9901021E-01
       -1   -1    0    0    0  501  0.00000000000E+00  0.00000000000E+00  0.65989795612E+03  0.65989795614E+03  0.50400001928E-02 0.  1.
        1   -1    0    0  501    0  0.00000000000E+00  0.00000000000E+00 -0.13734951777E+03  0.13734951786E+03  0.50400001928E-02 0. -1.
    10030    2    1    2    0    0  0.00000000000E+00  0.00000000000E+00  0.52254843835E+03  0.79724747400E+03  0.60211848035E+03 0.  0.
        4    1    3    3  502    0  0.73167137900E+02 -0.18859274153E+02 -0.12458724167E+03  0.14571443297E+03  0.12699999809E+01 0. -1.
       -4    1    3    3    0  502 -0.73167137900E+02  0.18859274153E+02  0.64713568002E+03  0.65153304103E+03  0.12699999809E+01 0.  1.
</event>
<event>
 5   0  0.5574736E-03  0.5999923E+03  0.7818609E-02  0.9905422E-01
       -1   -1    0    0    0  501  0.00000000000E+00  0.00000000000E+00  0.93301236993E+03  0.93301236994E+03  0.50400001928E-02 0.  1.
        1   -1    0    0  501    0  0.00000000000E+00  0.00000000000E+00 -0.96459267420E+02  0.96459267552E+02  0.50400001928E-02 0. -1.
    10030    2    1    2    0    0  0.00000000000E+00  0.00000000000E+00  0.83655310251E+03  0.10294716375E+04  0.59999229919E+03 0.  0.
        5    1    3    3  502    0  0.12316993344E+03 -0.15184717660E+03  0.80858876974E+03  0.83190521461E+03  0.46999998093E+01 0.  1.
       -5    1    3    3    0  502 -0.12316993344E+03  0.15184717660E+03  0.27964332763E+02  0.19756642288E+03  0.46999998093E+01 0. -1.
</event>
<event>
 5   0  0.9866317E-03  0.5987150E+03  0.7818609E-02  0.9908076E-01
        2   -1    0    0  501    0  0.00000000000E+00  0.00000000000E+00  0.12415552424E+04  0.12415552424E+04  0.25500000920E-02 0.  1.
       -2   -1    0    0    0  501  0.00000000000E+00  0.00000000000E+00 -0.72179563490E+02  0.72179563535E+02  0.25500000920E-02 0. -1.
    10030    2    1    2    0    0  0.00000000000E+00  0.00000000000E+00  0.11693756790E+04  0.13137348060E+04  0.59871500893E+03 0.  0.
        1    1    3    3  502    0 -0.11167387854E+03  0.69221599551E+02 -0.55316183206E+01  0.13150393081E+03  0.50400001928E-02 0. -1.
       -1    1    3    3    0  502  0.11167387854E+03 -0.69221599551E+02  0.11749072973E+04  0.11822308752E+04  0.50400001928E-02 0.  1.
</event>
<event>
 5   0  0.9681801E-03  0.6003591E+03  0.7818609E-02  0.9904661E-01
        2   -1    0    0  501    0  0.00000000000E+00  0.00000000000E+00  0.15960052223E+04  0.15960052223E+04  0.25500000920E-02 0. -1.
       -2   -1    0    0    0  501  0.00000000000E+00  0.00000000000E+00 -0.56458316154E+02  0.56458316212E+02  0.25500000920E-02 0.  1.
    10030    2    1    2    0    0  0.00000000000E+00  0.00000000000E+00  0.15395469061E+04  0.16524635385E+04  0.60035911744E+03 0.  0.
        4    1    3    3  502    0 -0.16529218599E+03  0.90616281089E+02  0.12677336560E+03  0.22716935593E+03  0.12699999809E+01 0.  1.
       -4    1    3    3    0  502  0.16529218599E+03 -0.90616281089E+02  0.14127735405E+04  0.14252941826E+04  0.12699999809E+01 0. -1.
</event>
<event>
 5   0  0.9530666E-03  0.5995883E+03  0.7818609E-02  0.9906261E-01
       -2   -1    0    0    0  501  0.00000000000E+00  0.00000000000E+00  0.21892105467E+03  0.21892105469E+03  0.25500000920E-02 0.  1.
        2   -1    0    0  501    0  0.00000000000E+00  0.00000000000E+00 -0.41054311434E+03  0.41054311435E+03  0.25500000920E-02 0. -1.
    10030    2    1    2    0    0  0.00000000000E+00  0.00000000000E+00 -0.19162205967E+03  0.62946416903E+03  0.59958829737E+03 0.  0.
        2    1    3    3  502    0 -0.12458086205E+03 -0.25267599928E+03 -0.20344254805E+03  0.34749737001E+03  0.25500000920E-02 0. -1.
       -2    1    3    3    0  502  0.12458086205E+03  0.25267599928E+03  0.11820488379E+02  0.28196679902E+03  0.25500000920E-02 0.  1.
</event>
<event>
 5   0  0.9530666E-03  0.6000259E+03  0.7818609E-02  0.9905352E-01
        2   -1    0    0  501    0  0.00000000000E+00  0.00000000000E+00  0.43099656900E+03  0.43099656901E+03  0.25500000920E-02 0.  1.
       -2   -1    0    0    0  501  0.00000000000E+00  0.00000000000E+00 -0.20883641240E+03  0.20883641242E+03  0.25500000920E-02 0. -1.
    10030    2    1    2    0    0  0.00000000000E+00  0.00000000000E+00  0.22216015660E+03  0.63983298143E+03  0.60002592356E+03 0.  0.
        2    1    3    3  502    0 -0.38999186280E+02  0.22612543601E+03 -0.95014187965E+02  0.24835729355E+03  0.25500000920E-02 0. -1.
       -2    1    3    3    0  502  0.38999186280E+02 -0.22612543601E+03  0.31717434456E+03  0.39147568787E+03  0.25500000920E-02 0.  1.
</event>
<event>
 5   0  0.3794375E-03  0.5997166E+03  0.7818609E-02  0.9905994E-01
       -4   -1    0    0    0  501  0.00000000000E+00  0.00000000000E+00  0.10354396967E+04  0.10354404756E+04  0.12699999809E+01 0. -1.
        4   -1    0    0  501    0  0.00000000000E+00  0.00000000000E+00 -0.86832064409E+02  0.86841351380E+02  0.12699999809E+01 0.  1.
    10030    2    1    2    0    0  0.00000000000E+00  0.00000000000E+00  0.94860763233E+03  0.11222818270E+04  0.59971664895E+03 0.  0.
        1    1    3    3  502    0  0.10520288277E+03  0.11651993179E+03 -0.37911896883E+01  0.15703157068E+03  0.50400001928E-02 0.  1.
       -1    1    3    3    0  502 -0.10520288277E+03 -0.11651993179E+03  0.95239882202E+03  0.96525025629E+03  0.50400001928E-02 0. -1.
</event>
<event>
 5   0  0.5785798E-03  0.5977333E+03  0.7818609E-02  0.9910120E-01
       -1   -1    0    0    0  501  0.00000000000E+00  0.00000000000E+00  0.26601403839E+03  0.26601403844E+03  0.50400001928E-02 0. -1.
        1   -1    0    0  501    0  0.00000000000E+00  0.00000000000E+00 -0.33577658394E+03  0.33577658398E+03  0.50400001928E-02 0.  1.
    10030    2    1    2    0    0  0.00000000000E+00  0.00000000000E+00 -0.69762545550E+02  0.60179062242E+03  0.59773333558E+03 0.  0.
        1    1    3    3  502    0 -0.16436573213E+03 -0.15093461645E+03 -0.23503699687E+03  0.32409835276E+03  0.50400001928E-02 0.  1.
       -1    1    3    3    0  502  0.16436573213E+03  0.15093461645E+03  0.16527445132E+03  0.27769226965E+03  0.50400001928E-02 0. -1.
</event>
<event>
 5   0  0.9571790E-03  0.5990297E+03  0.7818609E-02  0.9907421E-01
       -2   -1    0    0    0  501  0.00000000000E+00  0.00000000000E+00  0.64794057218E+02  0.64794057268E+02  0.25500000920E-02 0. -1.
        2   -1    0    0  501    0  0.00000000000E+00  0.00000000000E+00 -0.13845271870E+04  0.13845271870E+04  0.25500000920E-02 0.  1.
    10030    2    1    2    0    0  0.00000000000E+00  0.00000000000E+00 -0.13197331297E+04  0.14493212442E+04  0.59902966140E+03 0.  0.
        5    1    3    3  502    0  0.47320912067E+00  0.84016562288E+02 -0.13553392039E+04  0.13579489881E+04  0.46999998093E+01 0.  1.
       -5    1    3    3    0  502 -0.47320912067E+00 -0.84016562288E+02  0.35606074193E+02  0.91372256092E+02  0.46999998093E+01 0. -1.
</event>
<event>
 5   0  0.9866317E-03  0.6002545E+03  0.7818609E-02  0.9904878E-01
       -2   -1    0    0    0  501  0.00000000000E+00  0.00000000000E+00  0.43663976127E+02  0.43663976202E+02  0.25500000920E-02 0.  1.
        2   -1    0    0  501    0  0.00000000000E+00  0.00000000000E+00 -0.20629449864E+04  0.20629449864E+04  0.25500000920E-02 0. -1.
    10030    2    1    2    0    0  0.00000000000E+00  0.00000000000E+00 -0.20192810103E+04  0.21066089626E+04  0.60025454840E+03 0.  0.
        1    1    3    3  502    0 -0.14810050162E+03  0.56076486536E+02 -0.11489684250E+03  0.19565177067E+03  0.50400001928E-02 0.  1.
       -1    1    3    3    0  502  0.14810050162E+03 -0.56076486536E+02 -0.19043841678E+04  0.19109571919E+04  0.50400001928E-02 0. -1.
</event>
<event>
 5   0  0.5503975E-03  0.5998400E+03  0.7818609E-02  0.9905738E-01
       -1   -1    0    0    0  501  0.00000000000E+00  0.00000000000E+00  0.19600160497E+03  0.19600160504E+03  0.50400001928E-02 0. -1.
        1   -1    0    0  501    0  0.00000000000E+00  0.00000000000E+00 -0.45893498609E+03  0.45893498611E+03  0.50400001928E-02 0.  1.
    10030    2    1    2    0    0  0.00000000000E+00  0.00000000000E+00 -0.26293338111E+03  0.65493659115E+03  0.59983995826E+03 0.  0.
        4    1    3    3  502    0 -0.27581701218E+03  0.10204702811E+03 -0.19570770524E+03  0.35325874220E+03  0.12699999809E+01 0.  1.
       -4    1    3    3    0  502  0.27581701218E+03 -0.10204702811E+03 -0.67225675876E+02  0.30167784895E+03  0.12699999809E+01 0. -1.
</event>
<event>
 5   0  0.5491236E-03  0.6001804E+03  0.7818609E-02  0.9905032E-01
        1   -1    0    0  501    0  0.00000000000E+00  0.00000000000E+00  0.40924250011E+03  0.40924250014E+03  0.50400001928E-02 0. -1.
       -1   -1    0    0    0  501  0.00000000000E+00  0.00000000000E+00 -0.22005077821E+03  0.22005077827E+03  0.50400001928E-02 0.  1.
    10030    2    1    2    0    0  0.00000000000E+00  0.00000000000E+00  0.18919172190E+03  0.62929327840E+03  0.60018040838E+03 0.  0.
        3    1    3    3  502    0 -0.46490268883E+02  0.20646481854E+03 -0.12848011412E+03  0.24758072688E+03  0.10100000352E+00 0.  1.
       -3    1    3    3    0  502  0.46490268883E+02 -0.20646481854E+03  0.31767183602E+03  0.38171255153E+03  0.10100000352E+00 0. -1.
</event>
<event>
 5   0  0.9571790E-03  0.5995112E+03  0.7818609E-02  0.9906421E-01
        2   -1    0    0  501    0  0.00000000000E+00  0.00000000000E+00  0.17426908936E+04  0.17426908936E+04  0.25500000920E-02 0. -1.
       -2   -1    0    0    0  501  0.00000000000E+00  0.00000000000E+00 -0.51560151020E+02  0.51560151083E+02  0.25500000920E-02 0.  1.
    10030    2    1    2    0    0  0.00000000000E+00  0.00000000000E+00  0.16911307426E+04  0.17942510447E+04  0.59951115324E+03 0.  0.
        5    1    3    3  502    0 -0.24229935144E+03  0.86218329758E+01  0.31821071674E+03  0.40007931959E+03  0.46999998093E+01 0.  1.
       -5    1    3    3    0  502  0.24229935144E+03 -0.86218329758E+01  0.13729200259E+04  0.13941717251E+04  0.46999998093E+01 0. -1.
</event>
<event>
 5   0  0.3794375E-03  0.5994734E+03  0.7818609E-02  0.9906499E-01
        4   -1    0    0  501    0  0.00000000000E+00  0.00000000000E+00  0.49426170672E+03  0.49426333834E+03  0.12699999809E+01 0. -1.
       -4   -1    0    0    0  501  0.00000000000E+00  0.00000000000E+00 -0.18176615932E+03  0.18177059601E+03  0.12699999809E+01 0.  1.
    10030    2    1    2    0    0  0.00000000000E+00  0.00000000000E+00  0.31249554740E+03  0.67603393435E+03  0.59947344666E+03 0.  0.
        2    1    3    3  502    0  0.82815982143E+02  0.25377450526E+03  0.25221940770E+01  0.26695757694E+03  0.25500000920E-02 0. -1.
       -2    1    3    3    0  502 -0.82815982143E+02 -0.25377450526E+03  0.30997335332E+03  0.40907635741E+03  0.25500000920E-02 0.  1.
</event>
<event>
 5   0  0.9530666E-03  0.6003998E+03  0.7818609E-02  0.9904577E-01
       -2   -1    0    0    0  501  0.00000000000E+00  0.00000000000E+00  0.10332415516E+03  0.10332415519E+03  0.25500000920E-02 0.  1.
        2   -1    0    0  501    0  0.00000000000E+00  0.00000000000E+00 -0.87220625199E+03  0.87220625199E+03  0.25500000920E-02 0. -1.
    10030    2    1    2    0    0  0.00000000000E+00  0.00000000000E+00 -0.76888209682E+03  0.97553040718E+03  0.60039978058E+03 0.  0.
        2    1    3    3  502    0  0.90875105245E+02  0.10351413427E+03  0.48947165989E+02  0.14618237175E+03  0.25500000920E-02 0.  1.
       -2    1    3    3    0  502 -0.90875105245E+02 -0.10351413427E+03 -0.81782926281E+03  0.82934803543E+03  0.25500000920E-02 0. -1.
</event>
<event>
 5   0  0.9681801E-03  0.5977011E+03  0.7818609E-02  0.9910187E-01
       -2   -1    0    0    0  501  0.00000000000E+00  0.00000000000E+00  0.13753997465E+03  0.13753997467E+03  0.25500000920E-02 0. -1.
        2   -1    0    0  501    0  0.00000000000E+00  0.00000000000E+00 -0.64935060300E+03  0.64935060300E+03  0.25500000920E-02 0.  1.
    10030    2    1    2    0    0  0.00000000000E+00  0.00000000000E+00 -0.51181062835E+03  0.78689057768E+03  0.59770114769E+03 0.  0.
        4    1    3    3  502    0  0.46589224820E+02 -0.14736665138E+03 -0.59264480035E+03  0.61246792413E+03  0.12699999809E+01 0.  1.
       -4    1    3    3    0  502 -0.46589224820E+02  0.14736665138E+03  0.80834172001E+02  0.17442265355E+03  0.12699999809E+01 0. -1.
</event>
<event>
 5   0  0.5785798E-03  0.6000754E+03  0.7818609E-02  0.9905250E-01
        1   -1    0    0  501    0  0.00000000000E+00  0.00000000000E+00  0.13680329015E+03  0.13680329024E+03  0.50400001928E-02 0.  1.
       -1   -1    0    0    0  501  0.00000000000E+00  0.00000000000E+00 -0.65804437578E+03  0.65804437580E+03  0.50400001928E-02 0. -1.
    10030    2    1    2    0    0  0.00000000000E+00  0.00000000000E+00 -0.52124108563E+03  0.79484766604E+03  0.60007544764E+03 0.  0.
        1    1    3    3  502    0 -0.19380345203E+03  0.94027151803E+02  0.16028772491E+02  0.21600417790E+03  0.50400001928E-02 0.  1.
       -1    1    3    3    0  502  0.19380345203E+03 -0.94027151803E+02 -0.53726985812E+03  0.57884348814E+03  0.50400001928E-02 0. -1.
</event>
<event>
 5   0  0.5785798E-03  0.5998815E+03  0.7818609E-02  0.9905652E-01
       -1   -1    0    0    0  501  0.00000000000E+00  0.00000000000E+00  0.15018102557E+03  0.15018102566E+03  0.50400001928E-02 0. -1.
        1   -1    0    0  501    0  0.00000000000E+00  0.00000000000E+00 -0.59904001077E+03  0.59904001079E+03  0.50400001928E-02 0.  1.
    10030    2    1    2    0    0  0.00000000000E+00  0.00000000000E+00 -0.44885898520E+03  0.74922103645E+03  0.59988146568E+03 0.  0.
        1    1    3    3  502    0  0.22426328029E+02  0.29243637300E+03 -0.30284983945E+03  0.42159221734E+03  0.50400001928E-02 0.  1.
       -1    1    3    3    0  502 -0.22426328029E+02 -0.29243637300E+03 -0.14600914575E+03  0.32762881911E+03  0.50400001928E-02 0. -1.
</event>
<event>
 5   0  0.5491236E-03  0.6003486E+03  0.7818609E-02  0.9904683E-01
       -1   -1    0    0    0  501  0.00000000000E+00  0.00000000000E+00  0.42048139313E+03  0.42048139316E+03  0.50400001928E-02 0.  1.
        1   -1    0    0  501    0  0.00000000000E+00  0.00000000000E+00 -0.21428919864E+03  0.21428919870E+03  0.50400001928E-02 0. -1.
    10030    2    1    2    0    0  0.00000000000E+00  0.00000000000E+00  0.20619219449E+03  0.63477059186E+03  0.60034863473E+03 0.  0.
        3    1    3    3  502    0 -0.34188115861E+02 -0.29498329400E+03  0.14943398255E+03  0.33243720662E+03  0.10100000352E+00 0.  1.
       -3    1    3    3    0  502  0.34188115861E+02  0.29498329400E+03  0.56758211949E+02  0.30233338524E+03  0.10100000352E+00 0. -1.
</event>
<event>
 5   0  0.9866317E-03  0.5997743E+03  0.7818609E-02  0.9905874E-01
       -2   -1    0    0    0  501  0.00000000000E+00  0.00000000000E+00  0.54361661413E+03  0.54361661414E+03  0.25500000920E-02 0.  1.
        2   -1    0    0  501    0  0.00000000000E+00  0.00000000000E+00 -0.16543332158E+03  0.16543332160E+03  0.25500000920E-02 0. -1.
    10030    2    1    2    0    0  0.00000000000E+00  0.00000000000E+00  0.37818329256E+03  0.70904993574E+03  0.59977429805E+03 0.  0.
        1    1    3    3  502    0 -0.14163887665E+03 -0.60425516449E+02 -0.11512423287E+03  0.19226649068E+03  0.50400001928E-02 0. -1.
       -1    1    3    3    0  502  0.14163887665E+03  0.60425516449E+02  0.49330752543E+03  0.51678344506E+03  0.50400001928E-02 0.  1.
</event>
<event>
 5   0  0.5574736E-03  0.6015999E+03  0.7818609E-02  0.9902092E-01
        1   -1    0    0  501    0  0.00000000000E+00  0.00000000000E+00  0.69878630004E+03  0.69878630005E+03  0.50400001928E-02 0. -1.
       -1   -1    0    0    0  501  0.00000000000E+00  0.00000000000E+00 -0.12948252359E+03  0.12948252368E+03  0.50400001928E-02 0.  1.
    10030    2    1    2    0    0  0.00000000000E+00  0.00000000000E+00  0.56930377645E+03  0.82826882374E+03  0.60159991231E+03 0.  0.
        5    1    3    3  502    0  0.35945167159E+02 -0.58104618981E+02 -0.11860583980E+03  0.13695852300E+03  0.46999998093E+01 0.  1.
       -5    1    3    3    0  502 -0.35945167159E+02  0.58104618981E+02  0.68790961625E+03  0.69131030074E+03  0.46999998093E+01 0. -1.
</event>
<event>
 5   0  0.9681801E-03  0.5998783E+03  0.7818609E-02  0.9905659E-01
       -2   -1    0    0    0  501  0.00000000000E+00  0.00000000000E+00  0.18601121660E+03  0.18601121662E+03  0.25500000920E-02 0.  1.
        2   -1    0    0  501    0  0.00000000000E+00  0.00000000000E+00 -0.48364545124E+03  0.48364545124E+03  0.25500000920E-02 0. -1.
    10030    2    1    2    0    0  0.00000000000E+00  0.00000000000E+00 -0.29763423463E+03  0.66965666786E+03  0.59987825031E+03 0.  0.
        4    1    3    3  502    0  0.19618713290E+03 -0.15628200176E+03  0.34777505618E+02  0.25322824287E+03  0.12699999809E+01 0.  1.
       -4    1    3    3    0  502 -0.19618713290E+03  0.15628200176E+03 -0.33241174025E+03  0.41642842500E+03  0.12699999809E+01 0. -1.
</event>
<event>
 5   0  0.5503975E-03  0.6001812E+03  0.7818609E-02  0.9905030E-01
        1   -1    0    0  501    0  0.00000000000E+00  0.00000000000E+00  0.75697488671E+03  0.75697488673E+03  0.50400001928E-02 0.  1.
       -1   -1    0    0    0  501  0.00000000000E+00  0.00000000000E+00 -0.11896612404E+03  0.11896612414E+03  0.50400001928E-02 0. -1.
    10030    2    1    2    0    0  0.00000000000E+00  0.00000000000E+00  0.63800876267E+03  0.87594101087E+03  0.60018120037E+03 0.  0.
        4    1    3    3  502    0 -0.15620740234E+03 -0.24043895752E+03  0.44823971297E+03  0.53210158619E+03  0.12699999809E+01 0.  1.
       -4    1    3    3    0  502  0.15620740234E+03  0.24043895752E+03  0.18976904970E+03  0.34383942468E+03  0.12699999809E+01 0. -1.
</event>
<event>
 5   0  0.5574736E-03  0.5995337E+03  0.7818609E-02  0.9906374E-01
        1   -1    0    0  501    0  0.00000000000E+00  0.00000000000E+00  0.39163407502E+03  0.39163407505E+03  0.50400001928E-02 0.  1.
       -1   -1    0    0    0  501  0.00000000000E+00  0.00000000000E+00 -0.22944930034E+03  0.22944930040E+03  0.50400001928E-02 0. -1.
    10030    2    1    2    0    0  0.00000000000E+00  0.00000000000E+00  0.16218477468E+03  0.62108337545E+03  0.59953370057E+03 0.  0.
        5    1    3    3  502    0 -0.25790573145E+03 -0.14517713893E+03  0.13019118036E+03  0.32336295617E+03  0.46999998093E+01 0.  1.
       -5    1    3    3    0  502  0.25790573145E+03  0.14517713893E+03  0.31993594320E+02  0.29772041928E+03  0.46999998093E+01 0. -1.
</event>
<event>
 5   0  0.9866317E-03  0.6013175E+03  0.7818609E-02  0.9902677E-01
       -2   -1    0    0    0  501  0.00000000000E+00  0.00000000000E+00  0.14850672019E+03  0.14850672021E+03  0.25500000920E-02 0. -1.
        2   -1    0    0  501    0  0.00000000000E+00  0.00000000000E+00 -0.60869750553E+03  0.60869750553E+03  0.25500000920E-02 0.  1.
    10030    2    1    2    0    0  0.00000000000E+00  0.00000000000E+00 -0.46019078534E+03  0.75720422574E+03  0.60131745407E+03 0.  0.
        1    1    3    3  502    0  0.97681744889E+02 -0.19818286641E+03  0.26671127966E+02  0.22255228805E+03  0.50400001928E-02 0. -1.
       -1    1    3    3    0  502 -0.97681744889E+02  0.19818286641E+03 -0.48686191331E+03  0.53465193769E+03  0.50400001928E-02 0.  1.
</event>
<event>
 5   0  0.5491236E-03  0.5996573E+03  0.7818609E-02  0.9906117E-01
        1   -1    0    0  501    0  0.00000000000E+00  0.00000000000E+00  0.80933958405E+03  0.80933958407E+03  0.50400001928E-02 0.  1.
       -1   -1    0    0    0  501  0.00000000000E+00  0.00000000000E+00 -0.11107478075E+03  0.11107478086E+03  0.50400001928E-02 0. -1.
    10030    2    1    2    0    0  0.00000000000E+00  0.00000000000E+00  0.69826480331E+03  0.92041436493E+03  0.59965729182E+03 0.  0.
        3    1    3    3  502    0  0.26202798680E+03  0.14412187459E+03  0.31594778925E+03  0.43503194864E+03  0.10100000352E+00 0. -1.
       -3    1    3    3    0  502 -0.26202798680E+03 -0.14412187459E+03  0.38231701406E+03  0.48538241629E+03  0.10100000352E+00 0.  1.
</event>
<event>
 5   0  0.9530666E-03  0.5994038E+03  0.7818609E-02  0.9906644E-01
        2   -1    0    0  501    0  0.00000000000E+00  0.00000000000E+00  0.34833707984E+03  0.34833707985E+03  0.25500000920E-02 0.  1.
       -2   -1    0    0    0  501  0.00000000000E+00  0.00000000000E+00 -0.25785718271E+03  0.25785718272E+03  0.25500000920E-02 0. -1.
    10030    2    1    2    0    0  0.00000000000E+00  0.00000000000E+00  0.90479897133E+02  0.60619426258E+03  0.59940376392E+03 0.  0.
        2    1    3    3  502    0  0.16970489164E+03 -0.75452760638E+02 -0.19264458698E+03  0.26759074392E+03  0.25500000920E-02 0. -1.
       -2    1    3    3    0  502 -0.16970489164E+03  0.75452760638E+02  0.28312448411E+03  0.33860351865E+03  0.25500000920E-02 0.  1.
</event>
<event>
 5   0  0.9530666E-03  0.5990590E+03  0.7818609E-02  0.9907360E-01
        2   -1    0    0  501    0  0.00000000000E+00  0.00000000000E+00  0.92641431583E+03  0.92641431583E+03  0.25500000920E-02 0. -1.
       -2   -1    0    0    0  501  0.00000000000E+00  0.00000000000E+00 -0.96844276710E+02  0.96844276744E+02  0.25500000920E-02 0.  1.
    10030    2    1    2    0    0  0.00000000000E+00  0.00000000000E+00  0.82957003912E+03  0.10232585926E+04  0.59905901001E+03 0.  0.
        2    1    3    3  502    0  0.15901666387E+02  0.22207947692E+03  0.72541150280E+02  0.23416740925E+03  0.25500000920E-02 0.  1.
       -2    1    3    3    0  502 -0.15901666387E+02 -0.22207947692E+03  0.75702888884E+03  0.78909118333E+03  0.25500000920E-02 0. -1.
</event>
<event>
 5   0  0.9681801E-03  0.6001586E+03  0.7818609E-02  0.9905077E-01
        2   -1    0    0  501    0  0.00000000000E+00  0.00000000000E+00  0.10552852438E+04  0.10552852438E+04  0.25500000920E-02 0.  1.
       -2   -1    0    0    0  501  0.00000000000E+00  0.00000000000E+00 -0.85330096453E+02  0.85330096491E+02  0.25500000920E-02 0. -1.
    10030    2    1    2    0    0  0.00000000000E+00  0.00000000000E+00  0.96995514739E+03  0.11406153403E+04  0.60015861792E+03 0.  0.
        4    1    3    3  502    0  0.14276804200E+03 -0.10641856057E+03  0.25937869931E+02  0.17995002042E+03  0.12699999809E+01 0. -1.
       -4    1    3    3    0  502 -0.14276804200E+03  0.10641856057E+03  0.94401727746E+03  0.96066531992E+03  0.12699999809E+01 0.  1.
</event>
<event>
 5   0  0.9571790E-03  0.5999889E+03  0.7818609E-02  0.9905429E-01
        2   -1    0    0  501    0  0.00000000000E+00  0.00000000000E+00  0.96537573748E+03  0.96537573748E+03  0.25500000920E-02 0.  1.
       -2   -1    0    0    0  501  0.00000000000E+00  0.00000000000E+00 -0.93224487099E+02  0.93224487134E+02  0.25500000920E-02 0. -1.
    10030    2    1    2    0    0  0.00000000000E+00  0.00000000000E+00  0.87215125038E+03  0.10586002246E+04  0.59998885991E+03 0.  0.
        5    1    3    3  502    0  0.55177584707E+02 -0.39613956922E+02 -0.79411558286E+02  0.10460457459E+03  0.46999998093E+01 0. -1.
       -5    1    3    3    0  502 -0.55177584707E+02  0.39613956922E+02  0.95156280866E+03  0.95399565003E+03  0.46999998093E+01 0.  1.
</event>
<event>
 5   0  0.9866317E-03  0.5933771E+03  0.7818609E-02  0.9919243E-01
        2   -1    0    0  501    0  0.00000000000E+00  0.00000000000E+00  0.75097079894E+02  0.75097079937E+02  0.25500000920E-02 0. -1.
       -2   -1    0    0    0  501  0.00000000000E+00  0.00000000000E+00 -0.11721373017E+04  0.11721373017E+04  0.25500000920E-02 0.  1.
    10030    2    1    2    0    0  0.00000000000E+00  0.00000000000E+00 -0.10970402218E+04  0.12472343816E+04  0.59337707613E+03 0.  0.
        1    1    3    3  502    0 -0.20626482722E+03 -0.15776734768E+01 -0.10028027836E+03  0.22935518798E+03  0.50400001928E-02 0. -1.
       -1    1    3    3    0  502  0.20626482722E+03  0.15776734768E+01 -0.99675994342E+03  0.10178791936E+04  0.50400001928E-02 0.  1.
</event>
<event>
 5   0  0.9571790E-03  0.6005180E+03  0.7818609E-02  0.9904332E-01
        2   -1    0    0  501    0  0.00000000000E+00  0.00000000000E+00  0.98093945978E+03  0.98093945979E+03  0.25500000920E-02 0.  1.
       -2   -1    0    0    0  501  0.00000000000E+00  0.00000000000E+00 -0.91907273074E+02  0.91907273110E+02  0.25500000920E-02 0. -1.
    10030    2    1    2    0    0  0.00000000000E+00  0.00000000000E+00  0.88903218671E+03  0.10728467329E+04  0.60051801245E+03 0.  0.
        5    1    3    3  502    0 -0.51996302334E+02 -0.29170586707E+03  0.35814209180E+03  0.46484812171E+03  0.46999998093E+01 0. -1.
       -5    1    3    3    0  502  0.51996302334E+02  0.29170586707E+03  0.53089009491E+03  0.60799861119E+03  0.46999998093E+01 0.  1.
</event>
<event>
 5   0  0.5503975E-03  0.5994345E+03  0.7818609E-02  0.9906580E-01
        1   -1    0    0  501    0  0.00000000000E+00  0.00000000000E+00  0.25685620769E+03  0.25685620773E+03  0.50400001928E-02 0.  1.
       -1   -1    0    0    0  501  0.00000000000E+00  0.00000000000E+00 -0.34973046360E+03  0.34973046363E+03  0.50400001928E-02 0. -1.
    10030    2    1    2    0    0  0.00000000000E+00  0.00000000000E+00 -0.92874255913E+02  0.60658667137E+03  0.59943453560E+03 0.  0.
        4    1    3    3  502    0  0.26188569671E+03  0.11991133950E+03 -0.13028699479E+03  0.31613155709E+03  0.12699999809E+01 0.  1.
       -4    1    3    3    0  502 -0.26188569671E+03 -0.11991133950E+03  0.37412738873E+02  0.29045511428E+03  0.12699999809E+01 0. -1.
</event>
<event>
 5   0  0.5491236E-03  0.5995436E+03  0.7818609E-02  0.9906353E-01
       -1   -1    0    0    0  501  0.00000000000E+00  0.00000000000E+00  0.22029168437E+03  0.22029168443E+03  0.50400001928E-02 0. -1.
        1   -1    0    0  501    0  0.00000000000E+00  0.00000000000E+00 -0.40792787403E+03  0.40792787406E+03  0.50400001928E-02 0.  1.
    10030    2    1    2    0    0  0.00000000000E+00  0.00000000000E+00 -0.18763618965E+03  0.62821955849E+03  0.59954355472E+03 0.  0.
        3    1    3    3  502    0 -0.14785352859E+03 -0.29885297082E+02  0.17762706745E+03  0.23303472314E+03  0.10100000352E+00 0. -1.
       -3    1    3    3    0  502  0.14785352859E+03  0.29885297082E+02 -0.36526325710E+03  0.39518483535E+03  0.10100000352E+00 0.  1.
</event>
<event>
 5   0  0.9681801E-03  0.6001125E+03  0.7818609E-02  0.9905173E-01
        2   -1    0    0  501    0  0.00000000000E+00  0.00000000000E+00  0.12806533294E+04  0.12806533294E+04  0.25500000920E-02 0. -1.
       -2   -1    0    0    0  501  0.00000000000E+00  0.00000000000E+00 -0.70302986572E+02  0.70302986618E+02  0.25500000920E-02 0.  1.
    10030    2    1    2    0    0  0.00000000000E+00  0.00000000000E+00  0.12103503428E+04  0.13509563160E+04  0.60011250230E+03 0.  0.
        4    1    3    3  502    0  0.24979712277E+03 -0.11244507760E+03  0.88079107608E+03  0.92240827762E+03  0.12699999809E+01 0. -1.
       -4    1    3    3    0  502 -0.24979712277E+03  0.11244507760E+03  0.32955926675E+03  0.42854803840E+03  0.12699999809E+01 0.  1.
</event>
<event>
 5   0  0.9530666E-03  0.5960265E+03  0.7818609E-02  0.9913684E-01
        2   -1    0    0  501    0  0.00000000000E+00  0.00000000000E+00  0.88721661420E+03  0.88721661421E+03  0.25500000920E-02 0.  1.
       -2   -1    0    0    0  501  0.00000000000E+00  0.00000000000E+00 -0.10010169136E+03  0.10010169140E+03  0.25500000920E-02 0. -1.
    10030    2    1    2    0    0  0.00000000000E+00  0.00000000000E+00  0.78711492284E+03  0.98731830560E+03  0.59602645480E+03 0.  0.
        2    1    3    3  502    0  0.29914944006E+01 -0.13972662976E+03 -0.42449800718E+02  0.14606322498E+03  0.25500000920E-02 0. -1.
       -2    1    3    3    0  502 -0.29914944006E+01  0.13972662976E+03  0.82956472356E+03  0.84125508063E+03  0.25500000920E-02 0.  1.
</event>
<event>
 5   0  0.5574736E-03  0.5993609E+03  0.7818609E-02  0.9906733E-01
       -1   -1    0    0    0  501  0.00000000000E+00  0.00000000000E+00  0.44624863030E+02  0.44624863315E+02  0.50400001928E-02 0. -1.
        1   -1    0    0  501    0  0.00000000000E+00  0.00000000000E+00 -0.20125188712E+04  0.20125188712E+04  0.50400001928E-02 0.  1.
    10030    2    1    2    0    0  0.00000000000E+00  0.00000000000E+00 -0.19678940081E+04  0.20571437345E+04  0.59936092389E+03 0.  0.
        5    1    3    3  502    0  0.23361496230E+02  0.26474337053E+02 -0.20052276134E+04  0.20055439466E+04  0.46999998093E+01 0.  1.
       -5    1    3    3    0  502 -0.23361496230E+02 -0.26474337053E+02  0.37333605297E+02  0.51599787898E+02  0.46999998093E+01 0. -1.
</event>
<event>
 5   0  0.5653633E-03  0.6101309E+03  0.7818609E-02  0.9884608E-01
       -1   -1    0    0    0  501  0.00000000000E+00  0.00000000000E+00  0.45882686749E+02  0.45882687026E+02  0.50400001928E-02 0.  1.
        1   -1    0    0  501    0  0.00000000000E+00  0.00000000000E+00 -0.20283231086E+04  0.20283231087E+04  0.50400001928E-02 0. -1.
    10030    2    1    2    0    0  0.00000000000E+00  0.00000000000E+00 -0.19824404219E+04  0.20742057957E+04  0.61013085191E+03 0.  0.
        2    1    3    3  502    0 -0.19873392194E+03  0.17011726474E+03 -0.45768901655E+03  0.52717576895E+03  0.25500000920E-02 0.  1.
       -2    1    3    3    0  502  0.19873392194E+03 -0.17011726474E+03 -0.15247514053E+04  0.15470300267E+04  0.25500000920E-02 0. -1.
</event>
<event>
 5   0  0.9571790E-03  0.6013520E+03  0.7818609E-02  0.9902605E-01
        2   -1    0    0  501    0  0.00000000000E+00  0.00000000000E+00  0.95403507022E+03  0.95403507022E+03  0.25500000920E-02 0. -1.
       -2   -1    0    0    0  501  0.00000000000E+00  0.00000000000E+00 -0.94761787308E+02  0.94761787342E+02  0.25500000920E-02 0.  1.
    10030    2    1    2    0    0  0.00000000000E+00  0.00000000000E+00  0.85927328291E+03  0.10487968576E+04  0.60135203809E+03 0.  0.
        5    1    3    3  502    0 -0.75277392015E+02 -0.23998471024E+03  0.71687637414E+03  0.75973230332E+03  0.46999998093E+01 0. -1.
       -5    1    3    3    0  502  0.75277392015E+02  0.23998471024E+03  0.14239690877E+03  0.28906455425E+03  0.46999998093E+01 0.  1.
</event>
<event>
 5   0  0.5653633E-03  0.6000169E+03  0.7818609E-02  0.9905371E-01
        1   -1    0    0  501    0  0.00000000000E+00  0.00000000000E+00  0.10594934806E+04  0.10594934806E+04  0.50400001928E-02 0.  1.
       -1   -1    0    0    0  501  0.00000000000E+00  0.00000000000E+00 -0.84951047070E+02  0.84951047219E+02  0.50400001928E-02 0. -1.
    10030    2    1    2    0    0  0.00000000000E+00  0.00000000000E+00  0.97454243352E+03  0.11444445278E+04  0.60001693520E+03 0.  0.
        2    1    3    3  502    0 -0.49982565482E+01  0.17024687092E+03  0.16204656412E+02  0.17108936414E+03  0.25500000920E-02 0. -1.
       -2    1    3    3    0  502  0.49982565482E+01 -0.17024687092E+03  0.95833777711E+03  0.97335516368E+03  0.25500000920E-02 0.  1.
</event>
<event>
 5   0  0.5491236E-03  0.5995870E+03  0.7818609E-02  0.9906263E-01
       -1   -1    0    0    0  501  0.00000000000E+00  0.00000000000E+00  0.92956027786E+02  0.92956027923E+02  0.50400001928E-02 0. -1.
        1   -1    0    0  501    0  0.00000000000E+00  0.00000000000E+00 -0.96686721799E+03  0.96686721800E+03  0.50400001928E-02 0.  1.
    10030    2    1    2    0    0  0.00000000000E+00  0.00000000000E+00 -0.87391119020E+03  0.10598232459E+04  0.59958697804E+03 0.  0.
        3    1    3    3  502    0  0.28396851988E+03  0.11218304046E+02 -0.26822579049E+03  0.39078006028E+03  0.10100000352E+00 0. -1.
       -3    1    3    3    0  502 -0.28396851988E+03 -0.11218304046E+02 -0.60568539972E+03  0.66904318565E+03  0.10100000352E+00 0.  1.
</event>
<event>
 5   0  0.5785798E-03  0.6161789E+03  0.7818609E-02  0.9872397E-01
        1   -1    0    0  501    0  0.00000000000E+00  0.00000000000E+00  0.64693150346E+03  0.64693150348E+03  0.50400001928E-02 0. -1.
       -1   -1    0    0    0  501  0.00000000000E+00  0.00000000000E+00 -0.14672202315E+03  0.14672202323E+03  0.50400001928E-02 0.  1.
    10030    2    1    2    0    0  0.00000000000E+00  0.00000000000E+00  0.50020948032E+03  0.79365352672E+03  0.61617886711E+03 0.  0.
        1    1    3    3  502    0  0.44848009978E+02  0.32701659975E+02 -0.14022909851E+03  0.15081426544E+03  0.50400001928E-02 0.  1.
       -1    1    3    3    0  502 -0.44848009978E+02 -0.32701659975E+02  0.64043857883E+03  0.64283926128E+03  0.50400001928E-02 0. -1.
</event>
<event>
 5   0  0.9866317E-03  0.5996632E+03  0.7818609E-02  0.9906105E-01
        2   -1    0    0  501    0  0.00000000000E+00  0.00000000000E+00  0.36056162115E+03  0.36056162116E+03  0.25500000920E-02 0.  1.
       -2   -1    0    0    0  501  0.00000000000E+00  0.00000000000E+00 -0.24933047452E+03  0.24933047453E+03  0.25500000920E-02 0. -1.
    10030    2    1    2    0    0  0.00000000000E+00  0.00000000000E+00  0.11123114663E+03  0.60989209569E+03  0.59966323916E+03 0.  0.
        1    1    3    3  502    0  0.20680436823E+03  0.12123842809E+03  0.23877689243E+03  0.33835071678E+03  0.50400001928E-02 0.  1.
       -1    1    3    3    0  502 -0.20680436823E+03 -0.12123842809E+03 -0.12754574579E+03  0.27154137891E+03  0.50400001928E-02 0. -1.
</event>
<event>
 5   0  0.5574736E-03  0.6005686E+03  0.7818609E-02  0.9904227E-01
       -1   -1    0    0    0  501  0.00000000000E+00  0.00000000000E+00  0.29128003830E+03  0.29128003834E+03  0.50400001928E-02 0. -1.
        1   -1    0    0  501    0  0.00000000000E+00  0.00000000000E+00 -0.30956693669E+03  0.30956693673E+03  0.50400001928E-02 0.  1.
    10030    2    1    2    0    0  0.00000000000E+00  0.00000000000E+00 -0.18286898388E+02  0.60084697507E+03  0.60056862788E+03 0.  0.
        5    1    3    3  502    0 -0.10072098874E+03 -0.38569778287E+02  0.27119390287E+03  0.29189136391E+03  0.46999998093E+01 0. -1.
       -5    1    3    3    0  502  0.10072098874E+03  0.38569778287E+02 -0.28948080126E+03  0.30895561116E+03  0.46999998093E+01 0.  1.
</event>
<event>
 5   0  0.9428629E-03  0.6031577E+03  0.7818609E-02  0.9898876E-01
        2   -1    0    0  501    0  0.00000000000E+00  0.00000000000E+00  0.58751262765E+03  0.58751262766E+03  0.25500000920E-02 0. -1.
       -2   -1    0    0    0  501  0.00000000000E+00  0.00000000000E+00 -0.15480482850E+03  0.15480482852E+03  0.25500000920E-02 0.  1.
    10030    2    1    2    0    0  0.00000000000E+00  0.00000000000E+00  0.43270779915E+03  0.74231745618E+03  0.60315766289E+03 0.  0.
        3    1    3    3  502    0 -0.14446323642E+03 -0.24620558808E+03  0.33607546777E+03  0.44094619685E+03  0.10100000352E+00 0. -1.
       -3    1    3    3    0  502  0.14446323642E+03  0.24620558808E+03  0.96632331387E+02  0.30137125933E+03  0.10100000352E+00 0.  1.
</event>
<event>
 5   0  0.9571790E-03  0.6020885E+03  0.7818609E-02  0.9901083E-01
       -2   -1    0    0    0  501  0.00000000000E+00  0.00000000000E+00  0.65789136517E+02  0.65789136567E+02  0.25500000920E-02 0. -1.
        2   -1    0    0  501    0  0.00000000000E+00  0.00000000000E+00 -0.13775469826E+04  0.13775469826E+04  0.25500000920E-02 0.  1.
    10030    2    1    2    0    0  0.00000000000E+00  0.00000000000E+00 -0.13117578460E+04  0.14433361191E+04  0.60208845374E+03 0.  0.
        5    1    3    3  502    0 -0.32113859931E+02 -0.28787600083E+03 -0.45963424859E+03  0.54331355986E+03  0.46999998093E+01 0. -1.
       -5    1    3    3    0  502  0.32113859931E+02  0.28787600083E+03 -0.85212359745E+03  0.90002255926E+03  0.46999998093E+01 0.  1.
</event>
<event>
 5   0  0.9681801E-03  0.6008248E+03  0.7818609E-02  0.9903696E-01
       -2   -1    0    0    0  501  0.00000000000E+00  0.00000000000E+00  0.36652449771E+03  0.36652449772E+03  0.25500000920E-02 0. -1.
        2   -1    0    0  501    0  0.00000000000E+00  0.00000000000E+00 -0.24622532231E+03  0.24622532232E+03  0.25500000920E-02 0.  1.
    10030    2    1    2    0    0  0.00000000000E+00  0.00000000000E+00  0.12029917540E+03  0.61274982004E+03  0.60082480838E+03 0.  0.
        4    1    3    3  502    0  0.28114594384E+03  0.81304084628E+02  0.12926339613E+03  0.31994379881E+03  0.12699999809E+01 0. -1.
       -4    1    3    3    0  502 -0.28114594384E+03 -0.81304084628E+02 -0.89642207247E+01  0.29280602123E+03  0.12699999809E+01 0.  1.
</event>
<event>
 5   0  0.9866317E-03  0.6051932E+03  0.7818609E-02  0.9894690E-01
       -2   -1    0    0    0  501  0.00000000000E+00  0.00000000000E+00  0.25203058874E+03  0.25203058875E+03  0.25500000920E-02 0.  1.
        2   -1    0    0  501    0  0.00000000000E+00  0.00000000000E+00 -0.36330789083E+03  0.36330789084E+03  0.25500000920E-02 0. -1.
    10030    2    1    2    0    0  0.00000000000E+00  0.00000000000E+00 -0.11127730209E+03  0.61533847959E+03  0.60519319767E+03 0.  0.
        1    1    3    3  502    0  0.24583695256E+03  0.14182834561E+03 -0.16234370174E+03  0.32696569298E+03  0.50400001928E-02 0. -1.
       -1    1    3    3    0  502 -0.24583695256E+03 -0.14182834561E+03  0.51066399645E+02  0.28837278662E+03  0.50400001928E-02 0.  1.
</event>
<event>
 5   0  0.5653633E-03  0.6004279E+03  0.7818609E-02  0.9904519E-01
        1   -1    0    0  501    0  0.00000000000E+00  0.00000000000E+00  0.11742195543E+03  0.11742195554E+03  0.50400001928E-02 0.  1.
       -1   -1    0    0    0  501  0.00000000000E+00  0.00000000000E+00 -0.76756010488E+03  0.76756010489E+03  0.50400001928E-02 0. -1.
    10030    2    1    2    0    0  0.00000000000E+00  0.00000000000E+00 -0.65013814945E+03  0.88498206043E+03  0.60042787570E+03 0.  0.
        2    1    3    3  502    0 -0.20017651561E+03  0.53104299032E+02 -0.64541412125E+03  0.67782747944E+03  0.25500000920E-02 0. -1.
       -2    1    3    3    0  502  0.20017651561E+03 -0.53104299032E+02 -0.47240282001E+01  0.20715458099E+03  0.25500000920E-02 0.  1.
</event>
<event>
 5   0  0.5491236E-03  0.6008110E+03  0.7818609E-02  0.9903725E-01
        1   -1    0    0  501    0  0.00000000000E+00  0.00000000000E+00  0.96730298636E+03  0.96730298637E+03  0.50400001928E-02 0.  1.
       -1   -1    0    0    0  501  0.00000000000E+00  0.00000000000E+00 -0.93293911468E+02  0.93293911605E+02  0.50400001928E-02 0. -1.
    10030    2    1    2    0    0  0.00000000000E+00  0.00000000000E+00  0.87400907489E+03  0.10605968980E+04  0.60081104934E+03 0.  0.
        3    1    3    3  502    0  0.64174538839E+02  0.29295596415E+03  0.40633236837E+03  0.50502234817E+03  0.10100000352E+00 0. -1.
       -3    1    3    3    0  502 -0.64174538839E+02 -0.29295596415E+03  0.46767670652E+03  0.55557454981E+03  0.10100000352E+00 0.  1.
</event>
<event>
 5   0  0.3794375E-03  0.5916889E+03  0.7818609E-02  0.9922801E-01
       -3   -1    0    0    0  501  0.00000000000E+00  0.00000000000E+00  0.56776767718E+02  0.56776857553E+02  0.10100000352E+00 0.  1.
        3   -1    0    0  501    0  0.00000000000E+00  0.00000000000E+00 -0.15415436020E+04  0.15415436053E+04  0.10100000352E+00 0. -1.
    10030    2    1    2    0    0  0.00000000000E+00  0.00000000000E+00 -0.14847668343E+04  0.15983204629E+04  0.59168889615E+03 0.  0.
        4    1    3    3  502    0  0.47929886113E+02 -0.12574111166E+02 -0.15302466825E+04  0.15310492822E+04  0.12699999809E+01 0. -1.
       -4    1    3    3    0  502 -0.47929886113E+02  0.12574111166E+02  0.45479848228E+02  0.67271180674E+02  0.12699999809E+01 0.  1.
</event>
<event>
 5   0  0.9428629E-03  0.5987296E+03  0.7818609E-02  0.9908045E-01
       -2   -1    0    0    0  501  0.00000000000E+00  0.00000000000E+00  0.13927092497E+03  0.13927092499E+03  0.25500000920E-02 0.  1.
        2   -1    0    0  501    0  0.00000000000E+00  0.00000000000E+00 -0.64348878671E+03  0.64348878672E+03  0.25500000920E-02 0. -1.
    10030    2    1    2    0    0  0.00000000000E+00  0.00000000000E+00 -0.50421786175E+03  0.78275971171E+03  0.59872958351E+03 0.  0.
        3    1    3    3  502    0 -0.97280776892E+02 -0.82816070946E+02 -0.60605858352E+03  0.61937796863E+03  0.10100000352E+00 0. -1.
       -3    1    3    3    0  502  0.97280776892E+02  0.82816070946E+02  0.10184072177E+03  0.16338174308E+03  0.10100000352E+00 0.  1.
</event>
<event>
 5   0  0.9428629E-03  0.6002922E+03  0.7818609E-02  0.9904800E-01
       -2   -1    0    0    0  501  0.00000000000E+00  0.00000000000E+00  0.16269196275E+03  0.16269196277E+03  0.25500000920E-02 0. -1.
        2   -1    0    0  501    0  0.00000000000E+00  0.00000000000E+00 -0.55373163160E+03  0.55373163160E+03  0.25500000920E-02 0.  1.
    10030    2    1    2    0    0  0.00000000000E+00  0.00000000000E+00 -0.39103966885E+03  0.71642359437E+03  0.60029221548E+03 0.  0.
        3    1    3    3  502    0 -0.22902699321E+03 -0.83302073638E+02 -0.40461381488E+03  0.47233986544E+03  0.10100000352E+00 0.  1.
       -3    1    3    3    0  502  0.22902699321E+03  0.83302073638E+02  0.13574146034E+02  0.24408372893E+03  0.10100000352E+00 0. -1.
</event>
<event>
 5   0  0.5653633E-03  0.5968688E+03  0.7818609E-02  0.9911924E-01
        1   -1    0    0  501    0  0.00000000000E+00  0.00000000000E+00  0.10040580585E+04  0.10040580585E+04  0.50400001928E-02 0.  1.
       -1   -1    0    0    0  501  0.00000000000E+00  0.00000000000E+00 -0.88703113729E+02  0.88703113872E+02  0.50400001928E-02 0. -1.
    10030    2    1    2    0    0  0.00000000000E+00  0.00000000000E+00  0.91535494478E+03  0.10927611724E+04  0.59686875019E+03 0.  0.
        2    1    3    3  502    0  0.21447598844E+03 -0.20174354412E+03  0.36868610968E+03  0.47183668222E+03  0.25500000920E-02 0.  1.
       -2    1    3    3    0  502 -0.21447598844E+03  0.20174354412E+03  0.54666883510E+03  0.62092449017E+03  0.25500000920E-02 0. -1.
</event>
<event>
 5   0  0.5785798E-03  0.6008513E+03  0.7818609E-02  0.9903641E-01
        1   -1    0    0  501    0  0.00000000000E+00  0.00000000000E+00  0.25822004380E+03  0.25822004385E+03  0.50400001928E-02 0. -1.
       -1   -1    0    0    0  501  0.00000000000E+00  0.00000000000E+00 -0.34952968658E+03  0.34952968662E+03  0.50400001928E-02 0.  1.
    10030    2    1    2    0    0  0.00000000000E+00  0.00000000000E+00 -0.91309642788E+02  0.60774973047E+03  0.60085129942E+03 0.  0.
        1    1    3    3  502    0  0.80572281682E+02  0.78964433541E+02 -0.32729064227E+03  0.34618844418E+03  0.50400001928E-02 0.  1.
       -1    1    3    3    0  502 -0.80572281682E+02 -0.78964433541E+02  0.23598099949E+03  0.26156128629E+03  0.50400001928E-02 0. -1.
</event>
<event>
 5   0  0.9571790E-03  0.5948151E+03  0.7818609E-02  0.9916222E-01
        2   -1    0    0  501    0  0.00000000000E+00  0.00000000000E+00  0.51769318757E+03  0.51769318757E+03  0.25500000920E-02 0. -1.
       -2   -1    0    0    0  501  0.00000000000E+00  0.00000000000E+00 -0.17085648877E+03  0.17085648879E+03  0.25500000920E-02 0.  1.
    10030    2    1    2    0    0  0.00000000000E+00  0.00000000000E+00  0.34683669879E+03  0.68854967637E+03  0.59481506470E+03 0.  0.
        5    1    3    3  502    0 -0.13463141356E+03  0.22148374983E+03  0.34215804728E+03  0.42927251051E+03  0.46999998093E+01 0. -1.
       -5    1    3    3    0  502  0.13463141356E+03 -0.22148374983E+03  0.46786515083E+01  0.25927716586E+03  0.46999998093E+01 0.  1.
</event>
<event>
 5   0  0.3794375E-03  0.5963517E+03  0.7818609E-02  0.9913004E-01
       -3   -1    0    0    0  501  0.00000000000E+00  0.00000000000E+00  0.62872737943E+02  0.62872819067E+02  0.10100000352E+00 0.  1.
        3   -1    0    0  501    0  0.00000000000E+00  0.00000000000E+00 -0.14141069790E+04  0.14141069826E+04  0.10100000352E+00 0. -1.
    10030    2    1    2    0    0  0.00000000000E+00  0.00000000000E+00 -0.13512342411E+04  0.14769798017E+04  0.59635170861E+03 0.  0.
        5    1    3    3  502    0 -0.14835543307E+02  0.56248550728E+02  0.48588929050E+02  0.75940547988E+02  0.46999998093E+01 0.  1.
       -5    1    3    3    0  502  0.14835543307E+02 -0.56248550728E+02 -0.13998231701E+04  0.14010392537E+04  0.46999998093E+01 0. -1.
</event>
<event>
 5   0  0.5503975E-03  0.5998920E+03  0.7818609E-02  0.9905630E-01
       -1   -1    0    0    0  501  0.00000000000E+00  0.00000000000E+00  0.45314537038E+03  0.45314537041E+03  0.50400001928E-02 0. -1.
        1   -1    0    0  501    0  0.00000000000E+00  0.00000000000E+00 -0.19854027914E+03  0.19854027920E+03  0.50400001928E-02 0.  1.
    10030    2    1    2    0    0  0.00000000000E+00  0.00000000000E+00  0.25460509125E+03  0.65168564961E+03  0.59989201813E+03 0.  0.
        4    1    3    3  502    0  0.22761015634E+03 -0.39478137405E+02  0.33513438298E+03  0.40704001542E+03  0.12699999809E+01 0. -1.
       -4    1    3    3    0  502 -0.22761015634E+03  0.39478137405E+02 -0.80529291729E+02  0.24464563419E+03  0.12699999809E+01 0.  1.
</event>
<event>
 5   0  0.5503975E-03  0.5999198E+03  0.7818609E-02  0.9905572E-01
        1   -1    0    0  501    0  0.00000000000E+00  0.00000000000E+00  0.93520905174E+02  0.93520905310E+02  0.50400001928E-02 0.  1.
       -1   -1    0    0    0  501  0.00000000000E+00  0.00000000000E+00 -0.96209440946E+03  0.96209440947E+03  0.50400001928E-02 0. -1.
    10030    2    1    2    0    0  0.00000000000E+00  0.00000000000E+00 -0.86857350428E+03  0.10556153148E+04  0.59991979502E+03 0.  0.
        4    1    3    3  502    0  0.42555431210E+02  0.22466806353E+03 -0.92691467030E+02  0.24673877777E+03  0.12699999809E+01 0.  1.
       -4    1    3    3    0  502 -0.42555431210E+02 -0.22466806353E+03 -0.77588203725E+03  0.80887653701E+03  0.12699999809E+01 0. -1.
</event>
<event>
 5   0  0.9681801E-03  0.6006084E+03  0.7818609E-02  0.9904145E-01
       -2   -1    0    0    0  501  0.00000000000E+00  0.00000000000E+00  0.77526418348E+02  0.77526418390E+02  0.25500000920E-02 0.  1.
        2   -1    0    0  501    0  0.00000000000E+00  0.00000000000E+00 -0.11632499039E+04  0.11632499039E+04  0.25500000920E-02 0. -1.
    10030    2    1    2    0    0  0.00000000000E+00  0.00000000000E+00 -0.10857234856E+04  0.12407763223E+04  0.60060835400E+03 0.  0.
        4    1    3    3  502    0  0.11673788256E+03 -0.14862088168E+03 -0.60734995268E+02  0.19851008097E+03  0.12699999809E+01 0.  1.
       -4    1    3    3    0  502 -0.11673788256E+03  0.14862088168E+03 -0.10249884903E+04  0.10422662414E+04  0.12699999809E+01 0. -1.
</event>
<event>
 5   0  0.5785798E-03  0.6003255E+03  0.7818609E-02  0.9904731E-01
       -1   -1    0    0    0  501  0.00000000000E+00  0.00000000000E+00  0.65990538017E+02  0.65990538210E+02  0.50400001928E-02 0. -1.
        1   -1    0    0  501    0  0.00000000000E+00  0.00000000000E+00 -0.13653121176E+04  0.13653121176E+04  0.50400001928E-02 0.  1.
    10030    2    1    2    0    0  0.00000000000E+00  0.00000000000E+00 -0.12993215796E+04  0.14313026558E+04  0.60032551619E+03 0.  0.
        1    1    3    3  502    0  0.33855293762E+02  0.20973172603E+03 -0.11552265386E+04  0.11745986265E+04  0.50400001928E-02 0.  1.
       -1    1    3    3    0  502 -0.33855293762E+02 -0.20973172603E+03 -0.14409504098E+03  0.25670402934E+03  0.50400001928E-02 0. -1.
</event>
<event>
 5   0  0.5785798E-03  0.5999347E+03  0.7818609E-02  0.9905541E-01
       -1   -1    0    0    0  501  0.00000000000E+00  0.00000000000E+00  0.56365112714E+02  0.56365112940E+02  0.50400001928E-02 0.  1.
        1   -1    0    0  501    0  0.00000000000E+00  0.00000000000E+00 -0.15963849494E+04  0.15963849494E+04  0.50400001928E-02 0. -1.
    10030    2    1    2    0    0  0.00000000000E+00  0.00000000000E+00 -0.15400198367E+04  0.16527500624E+04  0.59993472246E+03 0.  0.
        1    1    3    3  502    0  0.28552924015E+03 -0.41984903326E+02 -0.99535091882E+03  0.10363460478E+04  0.50400001928E-02 0.  1.
       -1    1    3    3    0  502 -0.28552924015E+03  0.41984903326E+02 -0.54466891790E+03  0.61640401462E+03  0.50400001928E-02 0. -1.
</event>
<event>
 5   0  0.5785798E-03  0.6008386E+03  0.7818609E-02  0.9903668E-01
       -1   -1    0    0    0  501  0.00000000000E+00  0.00000000000E+00  0.97174913906E+02  0.97174914037E+02  0.50400001928E-02 0.  1.
        1   -1    0    0  501    0  0.00000000000E+00  0.00000000000E+00 -0.92875569522E+03  0.92875569524E+03  0.50400001928E-02 0. -1.
    10030    2    1    2    0    0  0.00000000000E+00  0.00000000000E+00 -0.83158078132E+03  0.10259306093E+04  0.60083859662E+03 0.  0.
        1    1    3    3  502    0 -0.28337707001E+01  0.11253796957E+03  0.59798889312E+02  0.12747051440E+03  0.50400001928E-02 0.  1.
       -1    1    3    3    0  502  0.28337707001E+01 -0.11253796957E+03 -0.89137967063E+03  0.89846009488E+03  0.50400001928E-02 0. -1.
</event>
<event>
 5   0  0.5574736E-03  0.5996107E+03  0.7818609E-02  0.9906214E-01
        1   -1    0    0  501    0  0.00000000000E+00  0.00000000000E+00  0.30256764873E+03  0.30256764877E+03  0.50400001928E-02 0.  1.
       -1   -1    0    0    0  501  0.00000000000E+00  0.00000000000E+00 -0.29706831397E+03  0.29706831401E+03  0.50400001928E-02 0. -1.
    10030    2    1    2    0    0  0.00000000000E+00  0.00000000000E+00  0.54993347661E+01  0.59963596278E+03  0.59961074472E+03 0.  0.
        5    1    3    3  502    0 -0.79692171807E+02  0.39667106218E+02  0.28900784103E+03  0.30244329012E+03  0.46999998093E+01 0.  1.
       -5    1    3    3    0  502  0.79692171807E+02 -0.39667106218E+02 -0.28350850626E+03  0.29719267266E+03  0.46999998093E+01 0. -1.
</event>
<event>
 5   0  0.5491236E-03  0.5986800E+03  0.7818609E-02  0.9908148E-01
        1   -1    0    0  501    0  0.00000000000E+00  0.00000000000E+00  0.20101870168E+03  0.20101870174E+03  0.50400001928E-02 0.  1.
       -1   -1    0    0    0  501  0.00000000000E+00  0.00000000000E+00 -0.44575174643E+03  0.44575174645E+03  0.50400001928E-02 0. -1.
    10030    2    1    2    0    0  0.00000000000E+00  0.00000000000E+00 -0.24473304475E+03  0.64677044820E+03  0.59868000591E+03 0.  0.
        3    1    3    3  502    0  0.10299909382E+03 -0.24048864630E+03  0.34786128119E+02  0.26391985002E+03  0.10100000352E+00 0.  1.
       -3    1    3    3    0  502 -0.10299909382E+03  0.24048864630E+03 -0.27951917286E+03  0.38285059818E+03  0.10100000352E+00 0. -1.
</event>
<event>
 5   0  0.5653633E-03  0.5991400E+03  0.7818609E-02  0.9907192E-01
        1   -1    0    0  501    0  0.00000000000E+00  0.00000000000E+00  0.27101231555E+03  0.27101231560E+03  0.50400001928E-02 0.  1.
       -1   -1    0    0    0  501  0.00000000000E+00  0.00000000000E+00 -0.33113693369E+03  0.33113693373E+03  0.50400001928E-02 0. -1.
    10030    2    1    2    0    0  0.00000000000E+00  0.00000000000E+00 -0.60124618144E+02  0.60214924933E+03  0.59914000764E+03 0.  0.
        2    1    3    3  502    0  0.13508943733E+03 -0.19559627381E+03  0.15315837977E+03  0.28278003414E+03  0.25500000920E-02 0.  1.
       -2    1    3    3    0  502 -0.13508943733E+03  0.19559627381E+03 -0.21328299791E+03  0.31936921519E+03  0.25500000920E-02 0. -1.
</event>
<event>
 5   0  0.5653633E-03  0.6001725E+03  0.7818609E-02  0.9905048E-01
        1   -1    0    0  501    0  0.00000000000E+00  0.00000000000E+00  0.49602446010E+03  0.49602446013E+03  0.50400001928E-02 0. -1.
       -1   -1    0    0    0  501  0.00000000000E+00  0.00000000000E+00 -0.18154703874E+03  0.18154703881E+03  0.50400001928E-02 0.  1.
    10030    2    1    2    0    0  0.00000000000E+00  0.00000000000E+00  0.31447742136E+03  0.67757149894E+03  0.60017254822E+03 0.  0.
        2    1    3    3  502    0  0.14817147095E+03 -0.22352037435E+03  0.52031015828E+01  0.26822232350E+03  0.25500000920E-02 0.  1.
       -2    1    3    3    0  502 -0.14817147095E+03  0.22352037435E+03  0.30927431978E+03  0.40934917544E+03  0.25500000920E-02 0. -1.
</event>
<event>
 5   0  0.5653633E-03  0.5994004E+03  0.7818609E-02  0.9906651E-01
       -1   -1    0    0    0  501  0.00000000000E+00  0.00000000000E+00  0.62491805491E+03  0.62491805493E+03  0.50400001928E-02 0. -1.
        1   -1    0    0  501    0  0.00000000000E+00  0.00000000000E+00 -0.14373116615E+03  0.14373116624E+03  0.50400001928E-02 0.  1.
    10030    2    1    2    0    0  0.00000000000E+00  0.00000000000E+00  0.48118688876E+03  0.76864922117E+03  0.59940036978E+03 0.  0.
        2    1    3    3  502    0 -0.20537244925E+03  0.26190367469E+02 -0.37287448717E+02  0.21036666109E+03  0.25500000920E-02 0.  1.
       -2    1    3    3    0  502  0.20537244925E+03 -0.26190367469E+02  0.51847433748E+03  0.55828256008E+03  0.25500000920E-02 0. -1.
</event>
<event>
 5   0  0.9571790E-03  0.5997074E+03  0.7818609E-02  0.9906013E-01
       -2   -1    0    0    0  501  0.00000000000E+00  0.00000000000E+00  0.70522267323E+02  0.70522267370E+02  0.25500000920E-02 0. -1.
        2   -1    0    0  501    0  0.00000000000E+00  0.00000000000E+00 -0.12749484012E+04  0.12749484012E+04  0.25500000920E-02 0.  1.
    10030    2    1    2    0    0  0.00000000000E+00  0.00000000000E+00 -0.12044261339E+04  0.13454706685E+04  0.59970743535E+03 0.  0.
        5    1    3    3  502    0  0.18709592189E+03  0.16767147105E+03 -0.23512386776E+03  0.34412778060E+03  0.46999998093E+01 0. -1.
       -5    1    3    3    0  502 -0.18709592189E+03 -0.16767147105E+03 -0.96930226610E+03  0.10013428880E+04  0.46999998093E+01 0.  1.
</event>
<event>
 5   0  0.5785798E-03  0.5997518E+03  0.7818609E-02  0.9905921E-01
       -1   -1    0    0    0  501  0.00000000000E+00  0.00000000000E+00  0.31484335842E+03  0.31484335846E+03  0.50400001928E-02 0. -1.
        1   -1    0    0  501    0  0.00000000000E+00  0.00000000000E+00 -0.28561997890E+03  0.28561997894E+03  0.50400001928E-02 0.  1.
    10030    2    1    2    0    0  0.00000000000E+00  0.00000000000E+00  0.29223379519E+02  0.60046333740E+03  0.59975179337E+03 0.  0.
        1    1    3    3  502    0 -0.94004132800E+02  0.19211080808E+03 -0.19583334189E+03  0.28998971945E+03  0.50400001928E-02 0.  1.
       -1    1    3    3    0  502  0.94004132800E+02 -0.19211080808E+03  0.22505672141E+03  0.31047361795E+03  0.50400001928E-02 0. -1.
</event>
<event>
 5   0  0.5574736E-03  0.6016484E+03  0.7818609E-02  0.9901992E-01
        1   -1    0    0  501    0  0.00000000000E+00  0.00000000000E+00  0.10298554756E+04  0.10298554756E+04  0.50400001928E-02 0.  1.
       -1   -1    0    0    0  501  0.00000000000E+00  0.00000000000E+00 -0.87871758460E+02  0.87871758605E+02  0.50400001928E-02 0. -1.
    10030    2    1    2    0    0  0.00000000000E+00  0.00000000000E+00  0.94198371711E+03  0.11177272342E+04  0.60164844115E+03 0.  0.
        5    1    3    3  502    0  0.16028897033E+02  0.26438653531E+03  0.20619570639E+03  0.33570213720E+03  0.46999998093E+01 0. -1.
       -5    1    3    3    0  502 -0.16028897033E+02 -0.26438653531E+03  0.73578801072E+03  0.78202509698E+03  0.46999998093E+01 0.  1.
</event>
<event>
 5   0  0.9571790E-03  0.5975623E+03  0.7818609E-02  0.9910477E-01
        2   -1    0    0  501    0  0.00000000000E+00  0.00000000000E+00  0.11748579628E+04  0.11748579628E+04  0.25500000920E-02 0.  1.
       -2   -1    0    0    0  501  0.00000000000E+00  0.00000000000E+00 -0.75983792093E+02  0.75983792136E+02  0.25500000920E-02 0. -1.
    10030    2    1    2    0    0  0.00000000000E+00  0.00000000000E+00  0.10988741707E+04  0.12508417550E+04  0.59756225856E+03 0.  0.
        5    1    3    3  502    0 -0.92792157913E+02 -0.27181120729E+03  0.72149532698E+03  0.77657537550E+03  0.46999998093E+01 0. -1.
       -5    1    3    3    0  502  0.92792157913E+02  0.27181120729E+03  0.37737884375E+03  0.47426637946E+03  0.46999998093E+01 0.  1.
</event>
<event>
 5   0  0.5503975E-03  0.5983163E+03  0.7818609E-02  0.9908905E-01
        1   -1    0    0  501    0  0.00000000000E+00  0.00000000000E+00  0.10243582064E+04  0.10243582064E+04  0.50400001928E-02 0. -1.
       -1   -1    0    0    0  501  0.00000000000E+00  0.00000000000E+00 -0.87367490797E+02  0.87367490943E+02  0.50400001928E-02 0.  1.
    10030    2    1    2    0    0  0.00000000000E+00  0.00000000000E+00  0.93699071563E+03  0.11117256974E+04  0.59831632524E+03 0.  0.
        4    1    3    3  502    0  0.28355140853E+03 -0.64054581667E+02  0.33724521874E+03  0.44524189064E+03  0.12699999809E+01 0.  1.
       -4    1    3    3    0  502 -0.28355140853E+03  0.64054581667E+02  0.59974549689E+03  0.66648380675E+03  0.12699999809E+01 0. -1.
</event>
<event>
 5   0  0.9681801E-03  0.5999140E+03  0.7818609E-02  0.9905584E-01
       -2   -1    0    0    0  501  0.00000000000E+00  0.00000000000E+00  0.86134912204E+02  0.86134912241E+02  0.25500000920E-02 0. -1.
        2   -1    0    0  501    0  0.00000000000E+00  0.00000000000E+00 -0.10445729890E+04  0.10445729890E+04  0.25500000920E-02 0.  1.
    10030    2    1    2    0    0  0.00000000000E+00  0.00000000000E+00 -0.95843807675E+03  0.11307079012E+04  0.59991400289E+03 0.  0.
        4    1    3    3  502    0 -0.11194092405E+03 -0.64020378474E+02 -0.98965514347E+03  0.99802219175E+03  0.12699999809E+01 0.  1.
       -4    1    3    3    0  502  0.11194092405E+03  0.64020378474E+02  0.31217066717E+02  0.13268570945E+03  0.12699999809E+01 0. -1.
</event>
<event>
 5   0  0.9866317E-03  0.6001549E+03  0.7818609E-02  0.9905085E-01
        2   -1    0    0  501    0  0.00000000000E+00  0.00000000000E+00  0.12655211242E+04  0.12655211242E+04  0.25500000920E-02 0.  1.
       -2   -1    0    0    0  501  0.00000000000E+00  0.00000000000E+00 -0.71153674644E+02  0.71153674690E+02  0.25500000920E-02 0. -1.
    10030    2    1    2    0    0  0.00000000000E+00  0.00000000000E+00  0.11943674496E+04  0.13366747989E+04  0.60015490787E+03 0.  0.
        1    1    3    3  502    0  0.68506041770E+02  0.28681830402E+03  0.47340456678E+03  0.55773622901E+03  0.50400001928E-02 0.  1.
       -1    1    3    3    0  502 -0.68506041770E+02 -0.28681830402E+03  0.72096288280E+03  0.77893856990E+03  0.50400001928E-02 0. -1.
</event>
<event>
 5   0  0.5491236E-03  0.6002316E+03  0.7818609E-02  0.9904926E-01
       -1   -1    0    0    0  501  0.00000000000E+00  0.00000000000E+00  0.51829687781E+02  0.51829688026E+02  0.50400001928E-02 0. -1.
        1   -1    0    0  501    0  0.00000000000E+00  0.00000000000E+00 -0.17377971599E+04  0.17377971599E+04  0.50400001928E-02 0.  1.
    10030    2    1    2    0    0  0.00000000000E+00  0.00000000000E+00 -0.16859674721E+04  0.17896268479E+04  0.60023157015E+03 0.  0.
        3    1    3    3  502    0  0.21164897093E+03 -0.56308405156E+02 -0.14547746383E+04  0.14711679652E+04  0.10100000352E+00 0.  1.
       -3    1    3    3    0  502 -0.21164897093E+03  0.56308405156E+02 -0.23119283386E+03  0.31845888277E+03  0.10100000352E+00 0. -1.
</event>
<event>
 5   0  0.9428629E-03  0.5999825E+03  0.7818609E-02  0.9905442E-01
       -2   -1    0    0    0  501  0.00000000000E+00  0.00000000000E+00  0.86921977539E+02  0.86921977576E+02  0.25500000920E-02 0. -1.
        2   -1    0    0  501    0  0.00000000000E+00  0.00000000000E+00 -0.10353509185E+04  0.10353509185E+04  0.25500000920E-02 0.  1.
    10030    2    1    2    0    0  0.00000000000E+00  0.00000000000E+00 -0.94842894096E+03  0.11222728961E+04  0.59998249743E+03 0.  0.
        3    1    3    3  502    0 -0.18923364597E+03 -0.23118140365E+03 -0.52511587187E+03  0.60415304621E+03  0.10100000352E+00 0. -1.
       -3    1    3    3    0  502  0.18923364597E+03  0.23118140365E+03 -0.42331306909E+03  0.51811984987E+03  0.10100000352E+00 0.  1.
</event>
<event>
 5   0  0.5503975E-03  0.6003096E+03  0.7818609E-02  0.9904764E-01
       -1   -1    0    0    0  501  0.00000000000E+00  0.00000000000E+00  0.40318451277E+03  0.40318451281E+03  0.50400001928E-02 0.  1.
        1   -1    0    0  501    0  0.00000000000E+00  0.00000000000E+00 -0.22345330909E+03  0.22345330915E+03  0.50400001928E-02 0. -1.
    10030    2    1    2    0    0  0.00000000000E+00  0.00000000000E+00  0.17973120369E+03  0.62663782195E+03  0.60030963204E+03 0.  0.
        4    1    3    3  502    0 -0.29509273942E+03  0.24777901885E+02  0.14097873473E+03  0.32797909358E+03  0.12699999809E+01 0. -1.
       -4    1    3    3    0  502  0.29509273942E+03 -0.24777901885E+02  0.38752468951E+02  0.29865872837E+03  0.12699999809E+01 0.  1.
</event>
<event>
 5   0  0.9530666E-03  0.5994124E+03  0.7818609E-02  0.9906626E-01
       -2   -1    0    0    0  501  0.00000000000E+00  0.00000000000E+00  0.86369405142E+02  0.86369405179E+02  0.25500000920E-02 0.  1.
        2   -1    0    0  501    0  0.00000000000E+00  0.00000000000E+00 -0.10399956319E+04  0.10399956319E+04  0.25500000920E-02 0. -1.
    10030    2    1    2    0    0  0.00000000000E+00  0.00000000000E+00 -0.95362622676E+03  0.11263650371E+04  0.59941239260E+03 0.  0.
        2    1    3    3  502    0 -0.73739363547E+02  0.25710676924E+03 -0.22273323114E+03  0.34806820709E+03  0.25500000920E-02 0.  1.
       -2    1    3    3    0  502  0.73739363547E+02 -0.25710676924E+03 -0.73089299562E+03  0.77829682999E+03  0.25500000920E-02 0. -1.
</event>
<event>
 5   0  0.5503975E-03  0.6009379E+03  0.7818609E-02  0.9903462E-01
        1   -1    0    0  501    0  0.00000000000E+00  0.00000000000E+00  0.29562574820E+03  0.29562574824E+03  0.50400001928E-02 0. -1.
       -1   -1    0    0    0  501  0.00000000000E+00  0.00000000000E+00 -0.30539147752E+03  0.30539147756E+03  0.50400001928E-02 0.  1.
    10030    2    1    2    0    0  0.00000000000E+00  0.00000000000E+00 -0.97657293238E+01  0.60101722580E+03  0.60093788052E+03 0.  0.
        4    1    3    3  502    0 -0.80063094682E+02  0.28390143127E+03  0.52307282060E+02  0.29957934920E+03  0.12699999809E+01 0. -1.
       -4    1    3    3    0  502  0.80063094682E+02 -0.28390143127E+03 -0.62073011384E+02  0.30143787660E+03  0.12699999809E+01 0.  1.
</event>
<event>
 5   0  0.5503975E-03  0.5996475E+03  0.7818609E-02  0.9906138E-01
        1   -1    0    0  501    0  0.00000000000E+00  0.00000000000E+00  0.84170441689E+03  0.84170441691E+03  0.50400001928E-02 0. -1.
       -1   -1    0    0    0  501  0.00000000000E+00  0.00000000000E+00 -0.10680028347E+03  0.10680028359E+03  0.50400001928E-02 0.  1.
    10030    2    1    2    0    0  0.00000000000E+00  0.00000000000E+00  0.73490413342E+03  0.94850470050E+03  0.59964746439E+03 0.  0.
        4    1    3    3  502    0  0.26741543058E+03 -0.77071616178E+02  0.54388586928E+03  0.61095376113E+03  0.12699999809E+01 0. -1.
       -4    1    3    3    0  502 -0.26741543058E+03  0.77071616178E+02  0.19101826414E+03  0.33755093937E+03  0.12699999809E+01 0.  1.
</event>
<event>
 5   0  0.5653633E-03  0.6009025E+03  0.7818609E-02  0.9903535E-01
       -1   -1    0    0    0  501  0.00000000000E+00  0.00000000000E+00  0.19313746107E+03  0.19313746114E+03  0.50400001928E-02 0.  1.
        1   -1    0    0  501    0  0.00000000000E+00  0.00000000000E+00 -0.46739232321E+03  0.46739232324E+03  0.50400001928E-02 0. -1.
    10030    2    1    2    0    0  0.00000000000E+00  0.00000000000E+00 -0.27425486214E+03  0.66052978437E+03  0.60090254338E+03 0.  0.
        2    1    3    3  502    0 -0.21479476338E+03  0.17454964067E+03 -0.86228551830E+01  0.27690922894E+03  0.25500000920E-02 0.  1.
       -2    1    3    3    0  502  0.21479476338E+03 -0.17454964067E+03 -0.26563200695E+03  0.38362055544E+03  0.25500000920E-02 0. -1.
</event>
<event>
 5   0  0.9530666E-03  0.6015240E+03  0.7818609E-02  0.9902249E-01
       -2   -1    0    0    0  501  0.00000000000E+00  0.00000000000E+00  0.15260941968E+03  0.15260941970E+03  0.25500000920E-02 0.  1.
        2   -1    0    0  501    0  0.00000000000E+00  0.00000000000E+00 -0.59274051808E+03  0.59274051809E+03  0.25500000920E-02 0. -1.
    10030    2    1    2    0    0  0.00000000000E+00  0.00000000000E+00 -0.44013109841E+03  0.74534993779E+03  0.60152401945E+03 0.  0.
        2    1    3    3  502    0 -0.11054610236E+03 -0.56671950944E+02  0.11933464598E+03  0.17225826107E+03  0.25500000920E-02 0.  1.
       -2    1    3    3    0  502  0.11054610236E+03  0.56671950944E+02 -0.55946574439E+03  0.57309167671E+03  0.25500000920E-02 0. -1.
</event>
<event>
 5   0  0.9866317E-03  0.6011654E+03  0.7818609E-02  0.9902991E-01
        2   -1    0    0  501    0  0.00000000000E+00  0.00000000000E+00  0.65657814264E+03  0.65657814264E+03  0.25500000920E-02 0.  1.
       -2   -1    0    0    0  501  0.00000000000E+00  0.00000000000E+00 -0.13760734060E+03  0.13760734063E+03  0.25500000920E-02 0. -1.
    10030    2    1    2    0    0  0.00000000000E+00  0.00000000000E+00  0.51897080204E+03  0.79418548327E+03  0.60116544185E+03 0.  0.
        1    1    3    3  502    0  0.89867728669E+02 -0.99756422965E+02  0.61476020684E+03  0.62925167025E+03  0.50400001928E-02 0.  1.
       -1    1    3    3    0  502 -0.89867728669E+02  0.99756422965E+02 -0.95789404801E+02  0.16493381302E+03  0.50400001928E-02 0. -1.
</event>
<event>
 5   0  0.3794375E-03  0.6000115E+03  0.7818609E-02  0.9905382E-01
       -4   -1    0    0    0  501  0.00000000000E+00  0.00000000000E+00  0.29769174189E+03  0.29769445089E+03  0.12699999809E+01 0.  1.
        4   -1    0    0  501    0  0.00000000000E+00  0.00000000000E+00 -0.30233234152E+03  0.30233500894E+03  0.12699999809E+01 0. -1.
    10030    2    1    2    0    0  0.00000000000E+00  0.00000000000E+00 -0.46405996285E+01  0.60002945982E+03  0.60001151447E+03 0.  0.
        4    1    3    3  502    0  0.63955700381E+02 -0.23185170340E+02  0.28987666219E+03  0.29775489235E+03  0.12699999809E+01 0.  1.
       -4    1    3    3    0  502 -0.63955700381E+02  0.23185170340E+02 -0.29451726182E+03  0.30227456748E+03  0.12699999809E+01 0. -1.
</event>
<event>
 5   0  0.9866317E-03  0.5993654E+03  0.7818609E-02  0.9906723E-01
        2   -1    0    0  501    0  0.00000000000E+00  0.00000000000E+00  0.14633005810E+04  0.14633005810E+04  0.25500000920E-02 0. -1.
       -2   -1    0    0    0  501  0.00000000000E+00  0.00000000000E+00 -0.61374761604E+02  0.61374761657E+02  0.25500000920E-02 0.  1.
    10030    2    1    2    0    0  0.00000000000E+00  0.00000000000E+00  0.14019258194E+04  0.15246753427E+04  0.59936541228E+03 0.  0.
        1    1    3    3  502    0 -0.83577636076E+00 -0.89033388270E+02  0.14288770179E+04  0.14316484118E+04  0.50400001928E-02 0. -1.
       -1    1    3    3    0  502  0.83577636076E+00  0.89033388270E+02 -0.26951198449E+02  0.93026930897E+02  0.50400001928E-02 0.  1.
</event>
<event>
 5   0  0.5785798E-03  0.6004025E+03  0.7818609E-02  0.9904571E-01
        1   -1    0    0  501    0  0.00000000000E+00  0.00000000000E+00  0.41371097896E+03  0.41371097899E+03  0.50400001928E-02 0. -1.
       -1   -1    0    0    0  501  0.00000000000E+00  0.00000000000E+00 -0.21783516658E+03  0.21783516664E+03  0.50400001928E-02 0.  1.
    10030    2    1    2    0    0  0.00000000000E+00  0.00000000000E+00  0.19587581238E+03  0.63154614563E+03  0.60040253180E+03 0.  0.
        1    1    3    3  502    0  0.28287365307E+02 -0.31341053791E+02  0.41057265568E+03  0.41273761920E+03  0.50400001928E-02 0. -1.
       -1    1    3    3    0  502 -0.28287365307E+02  0.31341053791E+02 -0.21469684330E+03  0.21880852643E+03  0.50400001928E-02 0.  1.
</event>
<event>
 5   0  0.9571790E-03  0.6002777E+03  0.7818609E-02  0.9904830E-01
        2   -1    0    0  501    0  0.00000000000E+00  0.00000000000E+00  0.12029956686E+04  0.12029956686E+04  0.25500000920E-02 0.  1.
       -2   -1    0    0    0  501  0.00000000000E+00  0.00000000000E+00 -0.74882495963E+02  0.74882496006E+02  0.25500000920E-02 0. -1.
    10030    2    1    2    0    0  0.00000000000E+00  0.00000000000E+00  0.11281131726E+04  0.12778781646E+04  0.60027766350E+03 0.  0.
        5    1    3    3  502    0 -0.25974113166E+03  0.11192828817E+02  0.88316890565E+03  0.92065201939E+03  0.46999998093E+01 0.  1.
       -5    1    3    3    0  502  0.25974113166E+03 -0.11192828817E+02  0.24494426695E+03  0.35722614519E+03  0.46999998093E+01 0. -1.
</event>
<event>
 5   0  0.5574736E-03  0.5943584E+03  0.7818609E-02  0.9917180E-01
        1   -1    0    0  501    0  0.00000000000E+00  0.00000000000E+00  0.52883753195E+03  0.52883753197E+03  0.50400001928E-02 0.  1.
       -1   -1    0    0    0  501  0.00000000000E+00  0.00000000000E+00 -0.16699925218E+03  0.16699925226E+03  0.50400001928E-02 0. -1.
    10030    2    1    2    0    0  0.00000000000E+00  0.00000000000E+00  0.36183827977E+03  0.69583678423E+03  0.59435838480E+03 0.  0.
        5    1    3    3  502    0  0.26139384245E+03  0.12392067384E+01  0.34634172310E+03  0.43393888471E+03  0.46999998093E+01 0.  1.
       -5    1    3    3    0  502 -0.26139384245E+03 -0.12392067384E+01  0.15496556671E+02  0.26189789952E+03  0.46999998093E+01 0. -1.
</event>
<event>
 5   0  0.9681801E-03  0.5997536E+03  0.7818609E-02  0.9905917E-01
       -2   -1    0    0    0  501  0.00000000000E+00  0.00000000000E+00  0.54678826290E+02  0.54678826349E+02  0.25500000920E-02 0.  1.
        2   -1    0    0  501    0  0.00000000000E+00  0.00000000000E+00 -0.16446239500E+04  0.16446239500E+04  0.25500000920E-02 0. -1.
    10030    2    1    2    0    0  0.00000000000E+00  0.00000000000E+00 -0.15899451237E+04  0.16993027764E+04  0.59975364051E+03 0.  0.
        4    1    3    3  502    0  0.20081556103E+03  0.59366175514E+02 -0.18680625605E+03  0.28062327513E+03  0.12699999809E+01 0.  1.
       -4    1    3    3    0  502 -0.20081556103E+03 -0.59366175514E+02 -0.14031388677E+04  0.14186795012E+04  0.12699999809E+01 0. -1.
</event>
<event>
 5   0  0.9681801E-03  0.5981332E+03  0.7818609E-02  0.9909287E-01
       -2   -1    0    0    0  501  0.00000000000E+00  0.00000000000E+00  0.13275182290E+03  0.13275182292E+03  0.25500000920E-02 0. -1.
        2   -1    0    0  501    0  0.00000000000E+00  0.00000000000E+00 -0.67374456238E+03  0.67374456238E+03  0.25500000920E-02 0.  1.
    10030    2    1    2    0    0  0.00000000000E+00  0.00000000000E+00 -0.54099273948E+03  0.80649638531E+03  0.59813315854E+03 0.  0.
        4    1    3    3  502    0  0.26879895056E+03 -0.12163902806E+03 -0.33641810939E+03  0.44746808399E+03  0.12699999809E+01 0. -1.
       -4    1    3    3    0  502 -0.26879895056E+03  0.12163902806E+03 -0.20457463009E+03  0.35902830131E+03  0.12699999809E+01 0.  1.
</event>
<event>
 5   0  0.5653633E-03  0.5991655E+03  0.7818609E-02  0.9907139E-01
       -1   -1    0    0    0  501  0.00000000000E+00  0.00000000000E+00  0.28207952816E+03  0.28207952821E+03  0.50400001928E-02 0.  1.
        1   -1    0    0  501    0  0.00000000000E+00  0.00000000000E+00 -0.31817210887E+03  0.31817210891E+03  0.50400001928E-02 0. -1.
    10030    2    1    2    0    0  0.00000000000E+00  0.00000000000E+00 -0.36092580712E+02  0.60025163712E+03  0.59916554764E+03 0.  0.
        2    1    3    3  502    0  0.11361486090E+03  0.16780089661E+03  0.20299899500E+03  0.28683456817E+03  0.25500000920E-02 0.  1.
       -2    1    3    3    0  502 -0.11361486090E+03 -0.16780089661E+03 -0.23909157572E+03  0.31341706894E+03  0.25500000920E-02 0. -1.
</event>
<event>
 5   0  0.3794375E-03  0.6001084E+03  0.7818609E-02  0.9905181E-01
       -3   -1    0    0    0  501  0.00000000000E+00  0.00000000000E+00  0.75164945666E+03  0.75164946344E+03  0.10100000352E+00 0.  1.
        3   -1    0    0  501    0  0.00000000000E+00  0.00000000000E+00 -0.11977992112E+03  0.11977996371E+03  0.10100000352E+00 0. -1.
    10030    2    1    2    0    0  0.00000000000E+00  0.00000000000E+00  0.63186953554E+03  0.87142942715E+03  0.60010843734E+03 0.  0.
        1    1    3    3  502    0 -0.48155001720E+02 -0.14894080744E+03 -0.55791672977E+02  0.16617755297E+03  0.50400001928E-02 0. -1.
       -1    1    3    3    0  502  0.48155001720E+02  0.14894080744E+03  0.68766120851E+03  0.70525187418E+03  0.50400001928E-02 0.  1.
</event>
<event>
 5   0  0.5785798E-03  0.5999898E+03  0.7818609E-02  0.9905427E-01
       -1   -1    0    0    0  501  0.00000000000E+00  0.00000000000E+00  0.87131923432E+03  0.87131923433E+03  0.50400001928E-02 0. -1.
        1   -1    0    0  501    0  0.00000000000E+00  0.00000000000E+00 -0.10328813797E+03  0.10328813809E+03  0.50400001928E-02 0.  1.
    10030    2    1    2    0    0  0.00000000000E+00  0.00000000000E+00  0.76803109635E+03  0.97460737242E+03  0.59998980444E+03 0.  0.
        1    1    3    3  502    0 -0.23375490911E+02 -0.96926361922E+02 -0.75586806126E+02  0.12511793835E+03  0.50400001928E-02 0.  1.
       -1    1    3    3    0  502  0.23375490911E+02  0.96926361922E+02  0.84361790247E+03  0.84948943408E+03  0.50400001928E-02 0. -1.
</event>
<event>
 5   0  0.5574736E-03  0.5986654E+03  0.7818609E-02  0.9908179E-01
        1   -1    0    0  501    0  0.00000000000E+00  0.00000000000E+00  0.35140621647E+03  0.35140621650E+03  0.50400001928E-02 0.  1.
       -1   -1    0    0    0  501  0.00000000000E+00  0.00000000000E+00 -0.25497573481E+03  0.25497573486E+03  0.50400001928E-02 0. -1.
    10030    2    1    2    0    0  0.00000000000E+00  0.00000000000E+00  0.96430481657E+02  0.60638195137E+03  0.59866537661E+03 0.  0.
        5    1    3    3  502    0  0.19068936090E+03 -0.13885269184E+01  0.28186937908E+03  0.34034805307E+03  0.46999998093E+01 0.  1.
       -5    1    3    3    0  502 -0.19068936090E+03  0.13885269184E+01 -0.18543889742E+03  0.26603389830E+03  0.46999998093E+01 0. -1.
</event>
<event>
 5   0  0.9681801E-03  0.5860688E+03  0.7818609E-02  0.9934738E-01
       -2   -1    0    0    0  501  0.00000000000E+00  0.00000000000E+00  0.13644508019E+03  0.13644508022E+03  0.25500000920E-02 0. -1.
        2   -1    0    0  501    0  0.00000000000E+00  0.00000000000E+00 -0.62933122089E+03  0.62933122089E+03  0.25500000920E-02 0.  1.
    10030    2    1    2    0    0  0.00000000000E+00  0.00000000000E+00 -0.49288614070E+03  0.76577630111E+03  0.58606876359E+03 0.  0.
        4    1    3    3  502    0  0.44013934136E+02  0.22051630381E+03 -0.93919620683E+00  0.22487143356E+03  0.12699999809E+01 0. -1.
       -4    1    3    3    0  502 -0.44013934136E+02 -0.22051630381E+03 -0.49194694449E+03  0.54090486755E+03  0.12699999809E+01 0.  1.
</event>
<event>
 5   0  0.9571790E-03  0.6011455E+03  0.7818609E-02  0.9903032E-01
       -2   -1    0    0    0  501  0.00000000000E+00  0.00000000000E+00  0.47756356583E+02  0.47756356651E+02  0.25500000920E-02 0. -1.
        2   -1    0    0  501    0  0.00000000000E+00  0.00000000000E+00 -0.18917686513E+04  0.18917686513E+04  0.25500000920E-02 0.  1.
    10030    2    1    2    0    0  0.00000000000E+00  0.00000000000E+00 -0.18440122947E+04  0.19395250079E+04  0.60114550103E+03 0.  0.
        5    1    3    3  502    0 -0.15343285197E+03 -0.85080801578E+02 -0.13473254746E+03  0.22125851894E+03  0.46999998093E+01 0. -1.
       -5    1    3    3    0  502  0.15343285197E+03  0.85080801578E+02 -0.17092797473E+04  0.17182664890E+04  0.46999998093E+01 0.  1.
</event>
<event>
 5   0  0.9866317E-03  0.6005373E+03  0.7818609E-02  0.9904292E-01
       -2   -1    0    0    0  501  0.00000000000E+00  0.00000000000E+00  0.79245199759E+02  0.79245199800E+02  0.25500000920E-02 0. -1.
        2   -1    0    0  501    0  0.00000000000E+00  0.00000000000E+00 -0.11377505173E+04  0.11377505173E+04  0.25500000920E-02 0.  1.
    10030    2    1    2    0    0  0.00000000000E+00  0.00000000000E+00 -0.10585053175E+04  0.12169957171E+04  0.60053731623E+03 0.  0.
        1    1    3    3  502    0  0.10779014028E+03  0.26398097733E+03 -0.33853870257E+03  0.44262074499E+03  0.50400001928E-02 0. -1.
       -1    1    3    3    0  502 -0.10779014028E+03 -0.26398097733E+03 -0.71996661497E+03  0.77437497211E+03  0.50400001928E-02 0.  1.
</event>
<event>
 5   0  0.9866317E-03  0.6000506E+03  0.7818609E-02  0.9905301E-01
        2   -1    0    0  501    0  0.00000000000E+00  0.00000000000E+00  0.65922635573E+03  0.65922635573E+03  0.25500000920E-02 0. -1.
       -2   -1    0    0    0  501  0.00000000000E+00  0.00000000000E+00 -0.13654671577E+03  0.13654671580E+03  0.25500000920E-02 0.  1.
    10030    2    1    2    0    0  0.00000000000E+00  0.00000000000E+00  0.52267963995E+03  0.79577307153E+03  0.60005064399E+03 0.  0.
        1    1    3    3  502    0  0.13035646962E+03  0.13291098187E+03  0.57336369318E+03  0.60283004484E+03  0.50400001928E-02 0. -1.
       -1    1    3    3    0  502 -0.13035646962E+03 -0.13291098187E+03 -0.50684053228E+02  0.19294302669E+03  0.50400001928E-02 0.  1.
</event>
<event>
 5   0  0.5574736E-03  0.5996893E+03  0.7818609E-02  0.9906051E-01
        1   -1    0    0  501    0  0.00000000000E+00  0.00000000000E+00  0.54700550246E+03  0.54700550248E+03  0.50400001928E-02 0.  1.
       -1   -1    0    0    0  501  0.00000000000E+00  0.00000000000E+00 -0.16436180860E+03  0.16436180868E+03  0.50400001928E-02 0. -1.
    10030    2    1    2    0    0  0.00000000000E+00  0.00000000000E+00  0.38264369386E+03  0.71136731116E+03  0.59968929867E+03 0.  0.
        5    1    3    3  502    0  0.13147912080E+03 -0.26765898695E+03  0.15463250822E+03  0.33594850067E+03  0.46999998093E+01 0. -1.
       -5    1    3    3    0  502 -0.13147912080E+03  0.26765898695E+03  0.22801118563E+03  0.37541881050E+03  0.46999998093E+01 0.  1.
</event>
<event>
 5   0  0.5574736E-03  0.6003573E+03  0.7818609E-02  0.9904665E-01
        1   -1    0    0  501    0  0.00000000000E+00  0.00000000000E+00  0.43441415681E+03  0.43441415684E+03  0.50400001928E-02 0. -1.
       -1   -1    0    0    0  501  0.00000000000E+00  0.00000000000E+00 -0.20742239316E+03  0.20742239322E+03  0.50400001928E-02 0.  1.
    10030    2    1    2    0    0  0.00000000000E+00  0.00000000000E+00  0.22699176365E+03  0.64183655006E+03  0.60035730713E+03 0.  0.
        5    1    3    3  502    0 -0.23315711158E+03  0.98756005450E+02 -0.58790855197E+02  0.25998738805E+03  0.46999998093E+01 0.  1.
       -5    1    3    3    0  502  0.23315711158E+03 -0.98756005450E+02  0.28578261885E+03  0.38184916201E+03  0.46999998093E+01 0. -1.
</event>
<event>
 5   0  0.9681801E-03  0.5997092E+03  0.7818609E-02  0.9906010E-01
       -2   -1    0    0    0  501  0.00000000000E+00  0.00000000000E+00  0.37763542247E+03  0.37763542248E+03  0.25500000920E-02 0. -1.
        2   -1    0    0  501    0  0.00000000000E+00  0.00000000000E+00 -0.23809413596E+03  0.23809413598E+03  0.25500000920E-02 0.  1.
    10030    2    1    2    0    0  0.00000000000E+00  0.00000000000E+00  0.13954128651E+03  0.61572955846E+03  0.59970919496E+03 0.  0.
        4    1    3    3  502    0 -0.83100799572E+02 -0.23908901877E+03  0.23481900625E+03  0.34526928676E+03  0.12699999809E+01 0. -1.
       -4    1    3    3    0  502  0.83100799572E+02  0.23908901877E+03 -0.95277719738E+02  0.27046027170E+03  0.12699999809E+01 0.  1.
</event>
<event>
 5   0  0.5503975E-03  0.6004334E+03  0.7818609E-02  0.9904507E-01
        1   -1    0    0  501    0  0.00000000000E+00  0.00000000000E+00  0.87283331674E+03  0.87283331676E+03  0.50400001928E-02 0. -1.
       -1   -1    0    0    0  501  0.00000000000E+00  0.00000000000E+00 -0.10326147095E+03  0.10326147107E+03  0.50400001928E-02 0.  1.
    10030    2    1    2    0    0  0.00000000000E+00  0.00000000000E+00  0.76957184579E+03  0.97609478783E+03  0.60043335100E+03 0.  0.
        4    1    3    3  502    0 -0.51457994929E+01  0.27559052485E+03  0.19139620664E+03  0.33557523367E+03  0.12699999809E+01 0.  1.
       -4    1    3    3    0  502  0.51457994929E+01 -0.27559052485E+03  0.57817563916E+03  0.64051955416E+03  0.12699999809E+01 0. -1.
</event>
<event>
 5   0  0.9681801E-03  0.5996787E+03  0.7818609E-02  0.9906073E-01
       -2   -1    0    0    0  501  0.00000000000E+00  0.00000000000E+00  0.89313110323E+02  0.89313110360E+02  0.25500000920E-02 0.  1.
        2   -1    0    0  501    0  0.00000000000E+00  0.00000000000E+00 -0.10066118429E+04  0.10066118429E+04  0.25500000920E-02 0. -1.
    10030    2    1    2    0    0  0.00000000000E+00  0.00000000000E+00 -0.91729873261E+03  0.10959249533E+04  0.59967869598E+03 0.  0.
        4    1    3    3  502    0 -0.20163907161E+03 -0.46645932163E+02 -0.62166487735E+02  0.21610285349E+03  0.12699999809E+01 0.  1.
       -4    1    3    3    0  502  0.20163907161E+03  0.46645932163E+02 -0.85513224488E+03  0.87982209981E+03  0.12699999809E+01 0. -1.
</event>
<event>
 5   0  0.5491236E-03  0.5999180E+03  0.7818609E-02  0.9905576E-01
       -1   -1    0    0    0  501  0.00000000000E+00  0.00000000000E+00  0.64737153064E+03  0.64737153066E+03  0.50400001928E-02 0.  1.
        1   -1    0    0  501    0  0.00000000000E+00  0.00000000000E+00 -0.13898571594E+03  0.13898571603E+03  0.50400001928E-02 0. -1.
    10030    2    1    2    0    0  0.00000000000E+00  0.00000000000E+00  0.50838581470E+03  0.78635724669E+03  0.59991798009E+03 0.  0.
        3    1    3    3  502    0 -0.55439940453E+02 -0.56517190797E+02 -0.12504389401E+03  0.14799920771E+03  0.10100000352E+00 0. -1.
       -3    1    3    3    0  502  0.55439940453E+02  0.56517190797E+02  0.63342970871E+03  0.63835803898E+03  0.10100000352E+00 0.  1.
</event>
<event>
 5   0  0.5503975E-03  0.5983527E+03  0.7818609E-02  0.9908830E-01
       -1   -1    0    0    0  501  0.00000000000E+00  0.00000000000E+00  0.90276870108E+02  0.90276870249E+02  0.50400001928E-02 0. -1.
        1   -1    0    0  501    0  0.00000000000E+00  0.00000000000E+00 -0.99146632899E+03  0.99146632900E+03  0.50400001928E-02 0.  1.
    10030    2    1    2    0    0  0.00000000000E+00  0.00000000000E+00 -0.90118945888E+03  0.10817431993E+04  0.59835266217E+03 0.  0.
        4    1    3    3  502    0 -0.82059535503E+02 -0.21474530203E+02 -0.96926707389E+03  0.97297235123E+03  0.12699999809E+01 0.  1.
       -4    1    3    3    0  502  0.82059535503E+02  0.21474530203E+02  0.68077615013E+02  0.10877084803E+03  0.12699999809E+01 0. -1.
</event>
<event>
 5   0  0.5653633E-03  0.6004302E+03  0.7818609E-02  0.9904514E-01
       -1   -1    0    0    0  501  0.00000000000E+00  0.00000000000E+00  0.11106486800E+03  0.11106486811E+03  0.50400001928E-02 0. -1.
        1   -1    0    0  501    0  0.00000000000E+00  0.00000000000E+00 -0.81149969723E+03  0.81149969725E+03  0.50400001928E-02 0.  1.
    10030    2    1    2    0    0  0.00000000000E+00  0.00000000000E+00 -0.70043482923E+03  0.92256456536E+03  0.60043020181E+03 0.  0.
        2    1    3    3  502    0  0.21289077024E+03 -0.17035342990E+03 -0.54326968221E+03  0.60785254688E+03  0.25500000920E-02 0.  1.
       -2    1    3    3    0  502 -0.21289077024E+03  0.17035342990E+03 -0.15716514702E+03  0.31471201848E+03  0.25500000920E-02 0. -1.
</event>
<event>
 5   0  0.9866317E-03  0.5999632E+03  0.7818609E-02  0.9905482E-01
        2   -1    0    0  501    0  0.00000000000E+00  0.00000000000E+00  0.73846837880E+03  0.73846837880E+03  0.25500000920E-02 0. -1.
       -2   -1    0    0    0  501  0.00000000000E+00  0.00000000000E+00 -0.12185893079E+03  0.12185893082E+03  0.25500000920E-02 0.  1.
    10030    2    1    2    0    0  0.00000000000E+00  0.00000000000E+00  0.61660944801E+03  0.86032730962E+03  0.59996322246E+03 0.  0.
        1    1    3    3  502    0 -0.12228603791E+03  0.19034148526E+03  0.59078238235E+03  0.63261961668E+03  0.50400001928E-02 0. -1.
       -1    1    3    3    0  502  0.12228603791E+03 -0.19034148526E+03  0.25827065653E+02  0.22770769294E+03  0.50400001928E-02 0.  1.
</event>
<event>
 5   0  0.5785798E-03  0.5987760E+03  0.7818609E-02  0.9907949E-01
       -1   -1    0    0    0  501  0.00000000000E+00  0.00000000000E+00  0.33417079495E+03  0.33417079499E+03  0.50400001928E-02 0.  1.
        1   -1    0    0  501    0  0.00000000000E+00  0.00000000000E+00 -0.26822565265E+03  0.26822565270E+03  0.50400001928E-02 0. -1.
    10030    2    1    2    0    0  0.00000000000E+00  0.00000000000E+00  0.65945142306E+02  0.60239644769E+03  0.59877601688E+03 0.  0.
        1    1    3    3  502    0 -0.24997014198E+02 -0.19912714004E+03  0.25647956166E+03  0.32566583210E+03  0.50400001928E-02 0.  1.
       -1    1    3    3    0  502  0.24997014198E+02  0.19912714004E+03 -0.19053441936E+03  0.27673061559E+03  0.50400001928E-02 0. -1.
</event>
<event>
 5   0  0.9428629E-03  0.6028261E+03  0.7818609E-02  0.9899560E-01
        2   -1    0    0  501    0  0.00000000000E+00  0.00000000000E+00  0.13609241442E+04  0.13609241442E+04  0.25500000920E-02 0.  1.
       -2   -1    0    0    0  501  0.00000000000E+00  0.00000000000E+00 -0.66755973626E+02  0.66755973674E+02  0.25500000920E-02 0. -1.
    10030    2    1    2    0    0  0.00000000000E+00  0.00000000000E+00  0.12941681706E+04  0.14276801179E+04  0.60282606551E+03 0.  0.
        3    1    3    3  502    0 -0.14455286589E+02  0.28042796208E+03  0.90653055630E+03  0.94902394961E+03  0.10100000352E+00 0.  1.
       -3    1    3    3    0  502  0.14455286589E+02 -0.28042796208E+03  0.38763761431E+03  0.47865616831E+03  0.10100000352E+00 0. -1.
</event>
<event>
 5   0  0.9530666E-03  0.6000898E+03  0.7818609E-02  0.9905220E-01
       -2   -1    0    0    0  501  0.00000000000E+00  0.00000000000E+00  0.69976841246E+02  0.69976841292E+02  0.25500000920E-02 0.  1.
        2   -1    0    0  501    0  0.00000000000E+00  0.00000000000E+00 -0.12865247118E+04  0.12865247118E+04  0.25500000920E-02 0. -1.
    10030    2    1    2    0    0  0.00000000000E+00  0.00000000000E+00 -0.12165478706E+04  0.13565015531E+04  0.60008977845E+03 0.  0.
        2    1    3    3  502    0 -0.24889816142E+03 -0.10765743093E+03 -0.31802639953E+03  0.41794881026E+03  0.25500000920E-02 0.  1.
       -2    1    3    3    0  502  0.24889816142E+03  0.10765743093E+03 -0.89852147103E+03  0.93855274284E+03  0.25500000920E-02 0. -1.
</event>
<event>
 5   0  0.9681801E-03  0.5990799E+03  0.7818609E-02  0.9907317E-01
        2   -1    0    0  501    0  0.00000000000E+00  0.00000000000E+00  0.18831803483E+03  0.18831803485E+03  0.25500000920E-02 0.  1.
       -2   -1    0    0    0  501  0.00000000000E+00  0.00000000000E+00 -0.47645033684E+03  0.47645033685E+03  0.25500000920E-02 0. -1.
    10030    2    1    2    0    0  0.00000000000E+00  0.00000000000E+00 -0.28813230201E+03  0.66476837170E+03  0.59907993169E+03 0.  0.
        4    1    3    3  502    0  0.51247825431E+02  0.28362785019E+03 -0.23456535549E+03  0.37160949383E+03  0.12699999809E+01 0.  1.
       -4    1    3    3    0  502 -0.51247825431E+02 -0.28362785019E+03 -0.53566946525E+02  0.29315887787E+03  0.12699999809E+01 0. -1.
</event>
<event>
 5   0  0.5653633E-03  0.6007410E+03  0.7818609E-02  0.9903870E-01
        1   -1    0    0  501    0  0.00000000000E+00  0.00000000000E+00  0.11405435704E+04  0.11405435704E+04  0.50400001928E-02 0.  1.
       -1   -1    0    0    0  501  0.00000000000E+00  0.00000000000E+00 -0.79104768557E+02  0.79104768718E+02  0.50400001928E-02 0. -1.
    10030    2    1    2    0    0  0.00000000000E+00  0.00000000000E+00  0.10614388019E+04  0.12196483392E+04  0.60074099335E+03 0.  0.
        2    1    3    3  502    0  0.21484661372E+03  0.36922174732E+02  0.95024832908E+03  0.97493292145E+03  0.25500000920E-02 0.  1.
       -2    1    3    3    0  502 -0.21484661372E+03 -0.36922174732E+02  0.11119047279E+03  0.24471541770E+03  0.25500000920E-02 0. -1.
</event>
<event>
 5   0  0.5785798E-03  0.5992949E+03  0.7818609E-02  0.9906870E-01
        1   -1    0    0  501    0  0.00000000000E+00  0.00000000000E+00  0.10467531452E+04  0.10467531452E+04  0.50400001928E-02 0.  1.
       -1   -1    0    0    0  501  0.00000000000E+00  0.00000000000E+00 -0.85778200895E+02  0.85778201044E+02  0.50400001928E-02 0. -1.
    10030    2    1    2    0    0  0.00000000000E+00  0.00000000000E+00  0.96097494431E+03  0.11325313463E+04  0.59929492462E+03 0.  0.
        1    1    3    3  502    0 -0.23060526028E+02  0.21907346627E+03  0.96609362328E+02  0.24053760703E+03  0.50400001928E-02 0. -1.
       -1    1    3    3    0  502  0.23060526028E+02 -0.21907346627E+03  0.86436558199E+03  0.89199373923E+03  0.50400001928E-02 0.  1.
</event>
<event>
 5   0  0.9681801E-03  0.5995413E+03  0.7818609E-02  0.9906358E-01
        2   -1    0    0  501    0  0.00000000000E+00  0.00000000000E+00  0.19279255022E+03  0.19279255023E+03  0.25500000920E-02 0.  1.
       -2   -1    0    0    0  501  0.00000000000E+00  0.00000000000E+00 -0.46610947677E+03  0.46610947678E+03  0.25500000920E-02 0. -1.
    10030    2    1    2    0    0  0.00000000000E+00  0.00000000000E+00 -0.27331692655E+03  0.65890202701E+03  0.59954127369E+03 0.  0.
        4    1    3    3  502    0  0.44632302063E+02 -0.46889436071E+00  0.18911710490E+03  0.19431714930E+03  0.12699999809E+01 0.  1.
       -4    1    3    3    0  502 -0.44632302063E+02  0.46889436071E+00 -0.46243403145E+03  0.46458487771E+03  0.12699999809E+01 0. -1.
</event>
<event>
 5   0  0.9571790E-03  0.5996596E+03  0.7818609E-02  0.9906113E-01
        2   -1    0    0  501    0  0.00000000000E+00  0.00000000000E+00  0.55873437126E+03  0.55873437126E+03  0.25500000920E-02 0. -1.
       -2   -1    0    0    0  501  0.00000000000E+00  0.00000000000E+00 -0.16089561980E+03  0.16089561982E+03  0.25500000920E-02 0.  1.
    10030    2    1    2    0    0  0.00000000000E+00  0.00000000000E+00  0.39783875145E+03  0.71962999108E+03  0.59965961337E+03 0.  0.
        5    1    3    3  502    0  0.61032001755E+02  0.12716068745E+03 -0.11854483048E+03  0.18430874234E+03  0.46999998093E+01 0.  1.
       -5    1    3    3    0  502 -0.61032001755E+02 -0.12716068745E+03  0.51638358193E+03  0.53532124875E+03  0.46999998093E+01 0. -1.
</event>
<event>
 5   0  0.3794375E-03  0.5972424E+03  0.7818609E-02  0.9911144E-01
        4   -1    0    0  501    0  0.00000000000E+00  0.00000000000E+00  0.36536060740E+03  0.36536281467E+03  0.12699999809E+01 0.  1.
       -4   -1    0    0    0  501  0.00000000000E+00  0.00000000000E+00 -0.24406832086E+03  0.24407162503E+03  0.12699999809E+01 0. -1.
    10030    2    1    2    0    0  0.00000000000E+00  0.00000000000E+00  0.12129228655E+03  0.60943443970E+03  0.59724242776E+03 0.  0.
        5    1    3    3  502    0 -0.72605972462E+02  0.61709484467E+02 -0.22810185922E+03  0.24724933951E+03  0.46999998093E+01 0. -1.
       -5    1    3    3    0  502  0.72605972462E+02 -0.61709484467E+02  0.34939414576E+03  0.36218510019E+03  0.46999998093E+01 0.  1.
</event>
<event>
 5   0  0.3794375E-03  0.6003156E+03  0.7818609E-02  0.9904751E-01
       -3   -1    0    0    0  501  0.00000000000E+00  0.00000000000E+00  0.15095339871E+04  0.15095339905E+04  0.10100000352E+00 0. -1.
        3   -1    0    0  501    0  0.00000000000E+00  0.00000000000E+00 -0.59683746785E+02  0.59683832243E+02  0.10100000352E+00 0.  1.
    10030    2    1    2    0    0  0.00000000000E+00  0.00000000000E+00  0.14498502404E+04  0.15692178228E+04  0.60031563016E+03 0.  0.
        2    1    3    3  502    0 -0.29289432331E+03 -0.16387646075E+02  0.89105375883E+03  0.93810044276E+03  0.25500000920E-02 0.  1.
       -2    1    3    3    0  502  0.29289432331E+03  0.16387646075E+02  0.55879648154E+03  0.63111738001E+03  0.25500000920E-02 0. -1.
</event>
<event>
 5   0  0.5491236E-03  0.6034333E+03  0.7818609E-02  0.9898309E-01
       -1   -1    0    0    0  501  0.00000000000E+00  0.00000000000E+00  0.24361301552E+03  0.24361301557E+03  0.50400001928E-02 0. -1.
        1   -1    0    0  501    0  0.00000000000E+00  0.00000000000E+00 -0.37367844411E+03  0.37367844415E+03  0.50400001928E-02 0.  1.
    10030    2    1    2    0    0  0.00000000000E+00  0.00000000000E+00 -0.13006542860E+03  0.61729145971E+03  0.60343328589E+03 0.  0.
        3    1    3    3  502    0 -0.12754657508E+03 -0.25228026309E+03  0.42837838083E+02  0.28591703435E+03  0.10100000352E+00 0. -1.
       -3    1    3    3    0  502  0.12754657508E+03  0.25228026309E+03 -0.17290326668E+03  0.33137442537E+03  0.10100000352E+00 0.  1.
</event>
<event>
 5   0  0.9530666E-03  0.6015089E+03  0.7818609E-02  0.9902280E-01
        2   -1    0    0  501    0  0.00000000000E+00  0.00000000000E+00  0.16712847073E+04  0.16712847073E+04  0.25500000920E-02 0. -1.
       -2   -1    0    0    0  501  0.00000000000E+00  0.00000000000E+00 -0.54121989625E+02  0.54121989685E+02  0.25500000920E-02 0.  1.
    10030    2    1    2    0    0  0.00000000000E+00  0.00000000000E+00  0.16171627177E+04  0.17254066970E+04  0.60150894804E+03 0.  0.
        2    1    3    3  502    0 -0.22285756806E+03  0.17271921026E+03  0.11088237963E+04  0.11441099739E+04  0.25500000920E-02 0.  1.
       -2    1    3    3    0  502  0.22285756806E+03 -0.17271921026E+03  0.50833892142E+03  0.58129672308E+03  0.25500000920E-02 0. -1.
</event>
<event>
 5   0  0.9681801E-03  0.6026726E+03  0.7818609E-02  0.9899877E-01
       -2   -1    0    0    0  501  0.00000000000E+00  0.00000000000E+00  0.73056343430E+03  0.73056343430E+03  0.25500000920E-02 0.  1.
        2   -1    0    0  501    0  0.00000000000E+00  0.00000000000E+00 -0.12429250412E+03  0.12429250414E+03  0.25500000920E-02 0. -1.
    10030    2    1    2    0    0  0.00000000000E+00  0.00000000000E+00  0.60627093018E+03  0.85485593844E+03  0.60267257670E+03 0.  0.
        4    1    3    3  502    0  0.50384549663E+02 -0.12838187439E+03 -0.76894268824E+02  0.15790772620E+03  0.12699999809E+01 0. -1.
       -4    1    3    3    0  502 -0.50384549663E+02  0.12838187439E+03  0.68316519900E+03  0.69694821224E+03  0.12699999809E+01 0.  1.
</event>
<event>
 5   0  0.5785798E-03  0.6004155E+03  0.7818609E-02  0.9904544E-01
       -1   -1    0    0    0  501  0.00000000000E+00  0.00000000000E+00  0.47799358364E+03  0.47799358366E+03  0.50400001928E-02 0.  1.
        1   -1    0    0  501    0  0.00000000000E+00  0.00000000000E+00 -0.18854788840E+03  0.18854788846E+03  0.50400001928E-02 0. -1.
    10030    2    1    2    0    0  0.00000000000E+00  0.00000000000E+00  0.28944569524E+03  0.66654147213E+03  0.60041545914E+03 0.  0.
        1    1    3    3  502    0  0.15949690808E+03  0.10929952827E+02  0.42680596503E+03  0.45576535560E+03  0.50400001928E-02 0.  1.
       -1    1    3    3    0  502 -0.15949690808E+03 -0.10929952827E+02 -0.13736026979E+03  0.21077611653E+03  0.50400001928E-02 0. -1.
</event>
<event>
 5   0  0.5785798E-03  0.5999671E+03  0.7818609E-02  0.9905474E-01
       -1   -1    0    0    0  501  0.00000000000E+00  0.00000000000E+00  0.19683136347E+03  0.19683136354E+03  0.50400001928E-02 0. -1.
        1   -1    0    0  501    0  0.00000000000E+00  0.00000000000E+00 -0.45719405103E+03  0.45719405105E+03  0.50400001928E-02 0.  1.
    10030    2    1    2    0    0  0.00000000000E+00  0.00000000000E+00 -0.26036268755E+03  0.65402541459E+03  0.59996709398E+03 0.  0.
        1    1    3    3  502    0 -0.19609487317E+02 -0.19286984101E+02  0.19545391403E+03  0.19737971599E+03  0.50400001928E-02 0. -1.
       -1    1    3    3    0  502  0.19609487317E+02  0.19286984101E+02 -0.45581660158E+03  0.45664569860E+03  0.50400001928E-02 0.  1.
</event>
<event>
 5   0  0.9428629E-03  0.5992942E+03  0.7818609E-02  0.9906871E-01
        2   -1    0    0  501    0  0.00000000000E+00  0.00000000000E+00  0.17728394698E+04  0.17728394698E+04  0.25500000920E-02 0.  1.
       -2   -1    0    0    0  501  0.00000000000E+00  0.00000000000E+00 -0.50646659946E+02  0.50646660010E+02  0.25500000920E-02 0. -1.
    10030    2    1    2    0    0  0.00000000000E+00  0.00000000000E+00  0.17221928099E+04  0.18234861299E+04  0.59929424435E+03 0.  0.
        3    1    3    3  502    0  0.27394905393E+03  0.11949611196E+03  0.92642520367E+03  0.97344289669E+03  0.10100000352E+00 0.  1.
       -3    1    3    3    0  502 -0.27394905393E+03 -0.11949611196E+03  0.79576760623E+03  0.85004323317E+03  0.10100000352E+00 0. -1.
</event>
<event>
 5   0  0.5503975E-03  0.6002770E+03  0.7818609E-02  0.9904832E-01
        1   -1    0    0  501    0  0.00000000000E+00  0.00000000000E+00  0.10159085197E+04  0.10159085198E+04  0.50400001928E-02 0.  1.
       -1   -1    0    0    0  501  0.00000000000E+00  0.00000000000E+00 -0.88672461893E+02  0.88672462037E+02  0.50400001928E-02 0. -1.
    10030    2    1    2    0    0  0.00000000000E+00  0.00000000000E+00  0.92723605785E+03  0.11045809818E+04  0.60027696804E+03 0.  0.
        4    1    3    3  502    0 -0.65589162976E+02  0.26441135263E+03  0.69540139992E+03  0.74686010846E+03  0.12699999809E+01 0.  1.
       -4    1    3    3    0  502  0.65589162976E+02 -0.26441135263E+03  0.23183465793E+03  0.35772087334E+03  0.12699999809E+01 0. -1.
</event>
<event>
 5   0  0.5785798E-03  0.5994389E+03  0.7818609E-02  0.9906571E-01
       -1   -1    0    0    0  501  0.00000000000E+00  0.00000000000E+00  0.99584806422E+02  0.99584806549E+02  0.50400001928E-02 0.  1.
        1   -1    0    0  501    0  0.00000000000E+00  0.00000000000E+00 -0.90206275764E+03  0.90206275765E+03  0.50400001928E-02 0. -1.
    10030    2    1    2    0    0  0.00000000000E+00  0.00000000000E+00 -0.80247795122E+03  0.10016475642E+04  0.59943888820E+03 0.  0.
        1    1    3    3  502    0  0.18888101816E+02  0.29647338846E+03 -0.46762770233E+03  0.55401164109E+03  0.50400001928E-02 0.  1.
       -1    1    3    3    0  502 -0.18888101816E+02 -0.29647338846E+03 -0.33485024888E+03  0.44763592311E+03  0.50400001928E-02 0. -1.
</event>
<event>
 5   0  0.3794375E-03  0.6003770E+03  0.7818609E-02  0.9904624E-01
        3   -1    0    0  501    0  0.00000000000E+00  0.00000000000E+00  0.10624452470E+03  0.10624457271E+03  0.10100000352E+00 0.  1.
       -3   -1    0    0    0  501  0.00000000000E+00  0.00000000000E+00 -0.84816710836E+03  0.84816711437E+03  0.10100000352E+00 0. -1.
    10030    2    1    2    0    0  0.00000000000E+00  0.00000000000E+00 -0.74192258366E+03  0.95441168708E+03  0.60037700514E+03 0.  0.
        2    1    3    3  502    0  0.21238690199E+03  0.12186936103E+03 -0.94919066033E+02  0.26262133653E+03  0.25500000920E-02 0.  1.
       -2    1    3    3    0  502 -0.21238690199E+03 -0.12186936103E+03 -0.64700351762E+03  0.69179035056E+03  0.25500000920E-02 0. -1.
</event>
<event>
 5   0  0.5785798E-03  0.5999016E+03  0.7818609E-02  0.9905610E-01
        1   -1    0    0  501    0  0.00000000000E+00  0.00000000000E+00  0.94257485567E+03  0.94257485568E+03  0.50400001928E-02 0. -1.
       -1   -1    0    0    0  501  0.00000000000E+00  0.00000000000E+00 -0.95451823151E+02  0.95451823284E+02  0.50400001928E-02 0.  1.
    10030    2    1    2    0    0  0.00000000000E+00  0.00000000000E+00  0.84712303252E+03  0.10380266790E+04  0.59990162029E+03 0.  0.
        1    1    3    3  502    0 -0.19016670583E+03  0.20181674473E+03  0.62143355841E+03  0.68049470388E+03  0.50400001928E-02 0.  1.
       -1    1    3    3    0  502  0.19016670583E+03 -0.20181674473E+03  0.22568947410E+03  0.35753197508E+03  0.50400001928E-02 0. -1.
</event>
<event>
 5   0  0.5491236E-03  0.6000596E+03  0.7818609E-02  0.9905282E-01
        1   -1    0    0  501    0  0.00000000000E+00  0.00000000000E+00  0.43834353906E+03  0.43834353909E+03  0.50400001928E-02 0. -1.
       -1   -1    0    0    0  501  0.00000000000E+00  0.00000000000E+00 -0.20535920341E+03  0.20535920347E+03  0.50400001928E-02 0.  1.
    10030    2    1    2    0    0  0.00000000000E+00  0.00000000000E+00  0.23298433566E+03  0.64370274256E+03  0.60005959714E+03 0.  0.
        3    1    3    3  502    0  0.28112260119E+03 -0.98966959254E+02  0.79432538078E+02  0.30843786121E+03  0.10100000352E+00 0.  1.
       -3    1    3    3    0  502 -0.28112260119E+03  0.98966959254E+02  0.15355179758E+03  0.33526488135E+03  0.10100000352E+00 0. -1.
</event>
<event>
 5   0  0.3794375E-03  0.5990689E+03  0.7818609E-02  0.9907340E-01
       -4   -1    0    0    0  501  0.00000000000E+00  0.00000000000E+00  0.11591263123E+03  0.11591958842E+03  0.12699999809E+01 0.  1.
        4   -1    0    0  501    0  0.00000000000E+00  0.00000000000E+00 -0.77400827486E+03  0.77400931677E+03  0.12699999809E+01 0. -1.
    10030    2    1    2    0    0  0.00000000000E+00  0.00000000000E+00 -0.65809564363E+03  0.88992890519E+03  0.59906892770E+03 0.  0.
        2    1    3    3  502    0  0.62249298468E+02 -0.27612286940E+03 -0.18348140284E+03  0.33731919507E+03  0.25500000920E-02 0.  1.
       -2    1    3    3    0  502 -0.62249298468E+02  0.27612286940E+03 -0.47461424078E+03  0.55260971013E+03  0.25500000920E-02 0. -1.
</event>
<event>
 5   0  0.5503975E-03  0.5993071E+03  0.7818609E-02  0.9906845E-01
       -1   -1    0    0    0  501  0.00000000000E+00  0.00000000000E+00  0.50390364962E+03  0.50390364964E+03  0.50400001928E-02 0.  1.
        1   -1    0    0  501    0  0.00000000000E+00  0.00000000000E+00 -0.17819327430E+03  0.17819327437E+03  0.50400001928E-02 0. -1.
    10030    2    1    2    0    0  0.00000000000E+00  0.00000000000E+00  0.32571037532E+03  0.68209692402E+03  0.59930707084E+03 0.  0.
        4    1    3    3  502    0  0.27720117009E+03 -0.85936012910E+01  0.29200448840E+03  0.40271897500E+03  0.12699999809E+01 0.  1.
       -4    1    3    3    0  502 -0.27720117009E+03  0.85936012910E+01  0.33705886912E+02  0.27937794901E+03  0.12699999809E+01 0. -1.
</event>
<event>
 5   0  0.5785798E-03  0.5999563E+03  0.7818609E-02  0.9905497E-01
        1   -1    0    0  501    0  0.00000000000E+00  0.00000000000E+00  0.30584866766E+03  0.30584866770E+03  0.50400001928E-02 0.  1.
       -1   -1    0    0    0  501  0.00000000000E+00  0.00000000000E+00 -0.29422032882E+03  0.29422032886E+03  0.50400001928E-02 0. -1.
    10030    2    1    2    0    0  0.00000000000E+00  0.00000000000E+00  0.11628338835E+02  0.60006899656E+03  0.59995631705E+03 0.  0.
        1    1    3    3  502    0  0.25737136828E+03 -0.84269528967E+02  0.13485592203E+03  0.30253511276E+03  0.50400001928E-02 0. -1.
       -1    1    3    3    0  502 -0.25737136828E+03  0.84269528967E+02 -0.12322758319E+03  0.29753388380E+03  0.50400001928E-02 0.  1.
</event>
<event>
 5   0  0.5785798E-03  0.5970197E+03  0.7818609E-02  0.9911609E-01
       -1   -1    0    0    0  501  0.00000000000E+00  0.00000000000E+00  0.17074075419E+03  0.17074075427E+03  0.50400001928E-02 0. -1.
        1   -1    0    0  501    0  0.00000000000E+00  0.00000000000E+00 -0.52189135590E+03  0.52189135593E+03  0.50400001928E-02 0.  1.
    10030    2    1    2    0    0  0.00000000000E+00  0.00000000000E+00 -0.35115060171E+03  0.69263211019E+03  0.59701967722E+03 0.  0.
        1    1    3    3  502    0  0.28868812578E+03  0.47611456445E+02 -0.24421497785E+03  0.38111499601E+03  0.50400001928E-02 0. -1.
       -1    1    3    3    0  502 -0.28868812578E+03 -0.47611456445E+02 -0.10693562387E+03  0.31151711419E+03  0.50400001928E-02 0.  1.
</event>
<event>
 5   0  0.9571790E-03  0.5970563E+03  0.7818609E-02  0.9911532E-01
        2   -1    0    0  501    0  0.00000000000E+00  0.00000000000E+00  0.64337891720E+03  0.64337891721E+03  0.25500000920E-02 0. -1.
       -2   -1    0    0    0  501  0.00000000000E+00  0.00000000000E+00 -0.13851719478E+03  0.13851719480E+03  0.25500000920E-02 0.  1.
    10030    2    1    2    0    0  0.00000000000E+00  0.00000000000E+00  0.50486172243E+03  0.78189611201E+03  0.59705625464E+03 0.  0.
        5    1    3    3  502    0 -0.94852311866E+02 -0.16592703594E+03 -0.47827699071E+02  0.19707440503E+03  0.46999998093E+01 0.  1.
       -5    1    3    3    0  502  0.94852311866E+02  0.16592703594E+03  0.55268942150E+03  0.58482170698E+03  0.46999998093E+01 0. -1.
</event>
<event>
 5   0  0.3794375E-03  0.5997875E+03  0.7818609E-02  0.9905847E-01
        3   -1    0    0  501    0  0.00000000000E+00  0.00000000000E+00  0.10277237742E+03  0.10277242705E+03  0.10100000352E+00 0. -1.
       -3   -1    0    0    0  501  0.00000000000E+00  0.00000000000E+00 -0.87510121499E+03  0.87510122082E+03  0.10100000352E+00 0.  1.
    10030    2    1    2    0    0  0.00000000000E+00  0.00000000000E+00 -0.77232883758E+03  0.97787364787E+03  0.59978749390E+03 0.  0.
        3    1    3    3  502    0 -0.12280259401E+03 -0.10102291612E+03  0.28379052884E+02  0.16152859660E+03  0.10100000352E+00 0. -1.
       -3    1    3    3    0  502  0.12280259401E+03  0.10102291612E+03 -0.80070789046E+03  0.81634505127E+03  0.10100000352E+00 0.  1.
</event>
<event>
 5   0  0.9681801E-03  0.6002562E+03  0.7818609E-02  0.9904875E-01
       -2   -1    0    0    0  501  0.00000000000E+00  0.00000000000E+00  0.16217815511E+03  0.16217815513E+03  0.25500000920E-02 0. -1.
        2   -1    0    0  501    0  0.00000000000E+00  0.00000000000E+00 -0.55541924355E+03  0.55541924356E+03  0.25500000920E-02 0.  1.
    10030    2    1    2    0    0  0.00000000000E+00  0.00000000000E+00 -0.39324108844E+03  0.71759739869E+03  0.60025617279E+03 0.  0.
        4    1    3    3  502    0 -0.14653746973E+03 -0.18733219890E+03 -0.41545859245E+03  0.47872125262E+03  0.12699999809E+01 0.  1.
       -4    1    3    3    0  502  0.14653746973E+03  0.18733219890E+03  0.22217504005E+02  0.23887614607E+03  0.12699999809E+01 0. -1.
</event>
<event>
 5   0  0.5574736E-03  0.6005024E+03  0.7818609E-02  0.9904364E-01
       -1   -1    0    0    0  501  0.00000000000E+00  0.00000000000E+00  0.97442211531E+02  0.97442211661E+02  0.50400001928E-02 0.  1.
        1   -1    0    0  501    0  0.00000000000E+00  0.00000000000E+00 -0.92517188329E+03  0.92517188330E+03  0.50400001928E-02 0. -1.
    10030    2    1    2    0    0  0.00000000000E+00  0.00000000000E+00 -0.82772967175E+03  0.10226140950E+04  0.60050243772E+03 0.  0.
        5    1    3    3  502    0 -0.22938153597E+03 -0.18242473322E+03 -0.30305608162E+03  0.42161564362E+03  0.46999998093E+01 0. -1.
       -5    1    3    3    0  502  0.22938153597E+03  0.18242473322E+03 -0.52467359013E+03  0.60099845134E+03  0.46999998093E+01 0.  1.
</event>
<event>
 5   0  0.9681801E-03  0.5989108E+03  0.7818609E-02  0.9907668E-01
        2   -1    0    0  501    0  0.00000000000E+00  0.00000000000E+00  0.92642646223E+02  0.92642646258E+02  0.25500000920E-02 0. -1.
       -2   -1    0    0    0  501  0.00000000000E+00  0.00000000000E+00 -0.96795091491E+03  0.96795091491E+03  0.25500000920E-02 0.  1.
    10030    2    1    2    0    0  0.00000000000E+00  0.00000000000E+00 -0.87530826868E+03  0.10605935612E+04  0.59891079199E+03 0.  0.
        4    1    3    3  502    0 -0.96770711092E+02 -0.20623096968E+02  0.62854319387E+02  0.11722696370E+03  0.12699999809E+01 0. -1.
       -4    1    3    3    0  502  0.96770711092E+02  0.20623096968E+02 -0.93816258807E+03  0.94336659746E+03  0.12699999809E+01 0.  1.
</event>
<event>
 5   0  0.5491236E-03  0.5943572E+03  0.7818609E-02  0.9917183E-01
       -1   -1    0    0    0  501  0.00000000000E+00  0.00000000000E+00  0.70046549392E+03  0.70046549394E+03  0.50400001928E-02 0. -1.
        1   -1    0    0  501    0  0.00000000000E+00  0.00000000000E+00 -0.12608062252E+03  0.12608062262E+03  0.50400001928E-02 0.  1.
    10030    2    1    2    0    0  0.00000000000E+00  0.00000000000E+00  0.57438487140E+03  0.82654611657E+03  0.59435721777E+03 0.  0.
        3    1    3    3  502    0 -0.28096877021E+03 -0.87157284274E+02  0.22859856825E+03  0.37255490555E+03  0.10100000352E+00 0. -1.
       -3    1    3    3    0  502  0.28096877021E+03  0.87157284274E+02  0.34578630315E+03  0.45399121102E+03  0.10100000352E+00 0.  1.
</event>
<event>
 5   0  0.9530666E-03  0.5998552E+03  0.7818609E-02  0.9905706E-01
       -2   -1    0    0    0  501  0.00000000000E+00  0.00000000000E+00  0.62716399408E+02  0.62716399460E+02  0.25500000920E-02 0.  1.
        2   -1    0    0  501    0  0.00000000000E+00  0.00000000000E+00 -0.14343390120E+04  0.14343390120E+04  0.25500000920E-02 0. -1.
    10030    2    1    2    0    0  0.00000000000E+00  0.00000000000E+00 -0.13716226126E+04  0.14970554115E+04  0.59985524389E+03 0.  0.
        2    1    3    3  502    0  0.14150879341E+03  0.23567015670E+03 -0.98520537675E+03  0.10228366418E+04  0.25500000920E-02 0. -1.
       -2    1    3    3    0  502 -0.14150879341E+03 -0.23567015670E+03 -0.38641723587E+03  0.47421876972E+03  0.25500000920E-02 0.  1.
</event>
<event>
 5   0  0.9866317E-03  0.6003375E+03  0.7818609E-02  0.9904706E-01
       -2   -1    0    0    0  501  0.00000000000E+00  0.00000000000E+00  0.10801330836E+03  0.10801330839E+03  0.25500000920E-02 0.  1.
        2   -1    0    0  501    0  0.00000000000E+00  0.00000000000E+00 -0.83416824203E+03  0.83416824204E+03  0.25500000920E-02 0. -1.
    10030    2    1    2    0    0  0.00000000000E+00  0.00000000000E+00 -0.72615493367E+03  0.94218155043E+03  0.60033747699E+03 0.  0.
        1    1    3    3  502    0  0.56468909379E+02  0.22971454905E+03 -0.65307533887E+03  0.69459694071E+03  0.50400001928E-02 0. -1.
       -1    1    3    3    0  502 -0.56468909379E+02 -0.22971454905E+03 -0.73079594801E+02  0.24758460973E+03  0.50400001928E-02 0.  1.
</event>
<event>
 5   0  0.3794375E-03  0.6004113E+03  0.7818609E-02  0.9904553E-01
        3   -1    0    0  501    0  0.00000000000E+00  0.00000000000E+00  0.36415279426E+03  0.36415280827E+03  0.10100000352E+00 0. -1.
       -3   -1    0    0    0  501  0.00000000000E+00  0.00000000000E+00 -0.24748792768E+03  0.24748794829E+03  0.10100000352E+00 0.  1.
    10030    2    1    2    0    0  0.00000000000E+00  0.00000000000E+00  0.11666486658E+03  0.61164075656E+03  0.60041129569E+03 0.  0.
        1    1    3    3  502    0  0.14730365310E+03 -0.66325600847E+02  0.31609846049E+03  0.35498688468E+03  0.50400001928E-02 0. -1.
       -1    1    3    3    0  502 -0.14730365310E+03  0.66325600847E+02 -0.19943359391E+03  0.25665387188E+03  0.50400001928E-02 0.  1.
</event>
<event>
 5   0  0.5503975E-03  0.5980396E+03  0.7818609E-02  0.9909482E-01
       -1   -1    0    0    0  501  0.00000000000E+00  0.00000000000E+00  0.60854670823E+02  0.60854671032E+02  0.50400001928E-02 0. -1.
        1   -1    0    0  501    0  0.00000000000E+00  0.00000000000E+00 -0.14692849610E+04  0.14692849610E+04  0.50400001928E-02 0.  1.
    10030    2    1    2    0    0  0.00000000000E+00  0.00000000000E+00 -0.14084302902E+04  0.15301396320E+04  0.59803964020E+03 0.  0.
        4    1    3    3  502    0 -0.12374084663E+03 -0.19232577724E+03 -0.11971028257E+04  0.12187525548E+04  0.12699999809E+01 0.  1.
       -4    1    3    3    0  502  0.12374084663E+03  0.19232577724E+03 -0.21132746450E+03  0.31138707723E+03  0.12699999809E+01 0. -1.
</event>
<event>
 5   0  0.9866317E-03  0.6002306E+03  0.7818609E-02  0.9904928E-01
        2   -1    0    0  501    0  0.00000000000E+00  0.00000000000E+00  0.11035159879E+04  0.11035159879E+04  0.25500000920E-02 0.  1.
       -2   -1    0    0    0  501  0.00000000000E+00  0.00000000000E+00 -0.81620195228E+02  0.81620195268E+02  0.25500000920E-02 0. -1.
    10030    2    1    2    0    0  0.00000000000E+00  0.00000000000E+00  0.10218957926E+04  0.11851361831E+04  0.60023059033E+03 0.  0.
        1    1    3    3  502    0 -0.20389303993E+03  0.18992139790E+03  0.29084400948E+03  0.40278126444E+03  0.50400001928E-02 0. -1.
       -1    1    3    3    0  502  0.20389303993E+03 -0.18992139790E+03  0.73105178314E+03  0.78235491868E+03  0.50400001928E-02 0.  1.
</event>
<event>
 5   0  0.3794375E-03  0.6010556E+03  0.7818609E-02  0.9903218E-01
        4   -1    0    0  501    0  0.00000000000E+00  0.00000000000E+00  0.40435333519E+03  0.40435532960E+03  0.12699999809E+01 0. -1.
       -4   -1    0    0    0  501  0.00000000000E+00  0.00000000000E+00 -0.22335711376E+03  0.22336072432E+03  0.12699999809E+01 0.  1.
    10030    2    1    2    0    0  0.00000000000E+00  0.00000000000E+00  0.18099622143E+03  0.62771605392E+03  0.60105558161E+03 0.  0.
        3    1    3    3  502    0  0.16723819611E+03 -0.12075170038E+02  0.35096503833E+03  0.38896129923E+03  0.10100000352E+00 0. -1.
       -3    1    3    3    0  502 -0.16723819611E+03  0.12075170038E+02 -0.16996881690E+03  0.23875475469E+03  0.10100000352E+00 0.  1.
</event>
<event>
 5   0  0.9681801E-03  0.6015196E+03  0.7818609E-02  0.9902258E-01
       -2   -1    0    0    0  501  0.00000000000E+00  0.00000000000E+00  0.22206311807E+03  0.22206311808E+03  0.25500000920E-02 0.  1.
        2   -1    0    0  501    0  0.00000000000E+00  0.00000000000E+00 -0.40734572886E+03  0.40734572887E+03  0.25500000920E-02 0. -1.
    10030    2    1    2    0    0  0.00000000000E+00  0.00000000000E+00 -0.18528261079E+03  0.62940884696E+03  0.60151961794E+03 0.  0.
        4    1    3    3  502    0 -0.29060875487E+03  0.26556295027E+02 -0.16492379260E+02  0.29228803719E+03  0.12699999809E+01 0.  1.
       -4    1    3    3    0  502  0.29060875487E+03 -0.26556295027E+02 -0.16879023153E+03  0.33712080976E+03  0.12699999809E+01 0. -1.
</event>
<event>
 5   0  0.9428629E-03  0.6005136E+03  0.7818609E-02  0.9904341E-01
        2   -1    0    0  501    0  0.00000000000E+00  0.00000000000E+00  0.28049469829E+03  0.28049469830E+03  0.25500000920E-02 0.  1.
       -2   -1    0    0    0  501  0.00000000000E+00  0.00000000000E+00 -0.32141122136E+03  0.32141122137E+03  0.25500000920E-02 0. -1.
    10030    2    1    2    0    0  0.00000000000E+00  0.00000000000E+00 -0.40916523065E+02  0.60190591967E+03  0.60051359208E+03 0.  0.
        3    1    3    3  502    0 -0.94252432139E+02 -0.19966787007E+03  0.18349165651E+03  0.28708879726E+03  0.10100000352E+00 0.  1.
       -3    1    3    3    0  502  0.94252432139E+02  0.19966787007E+03 -0.22440817957E+03  0.31481712241E+03  0.10100000352E+00 0. -1.
</event>
<event>
 5   0  0.5653633E-03  0.5973185E+03  0.7818609E-02  0.9910985E-01
       -1   -1    0    0    0  501  0.00000000000E+00  0.00000000000E+00  0.54270279681E+03  0.54270279683E+03  0.50400001928E-02 0.  1.
        1   -1    0    0  501    0  0.00000000000E+00  0.00000000000E+00 -0.16435762985E+03  0.16435762993E+03  0.50400001928E-02 0. -1.
    10030    2    1    2    0    0  0.00000000000E+00  0.00000000000E+00  0.37834516696E+03  0.70706042676E+03  0.59731849270E+03 0.  0.
        2    1    3    3  502    0  0.14716847616E+03 -0.18256605561E+03 -0.29763366932E+02  0.23637847418E+03  0.25500000920E-02 0. -1.
       -2    1    3    3    0  502 -0.14716847616E+03  0.18256605561E+03  0.40810853389E+03  0.47068195257E+03  0.25500000920E-02 0.  1.
</event>
<event>
 5   0  0.5503975E-03  0.6057529E+03  0.7818609E-02  0.9893542E-01
       -1   -1    0    0    0  501  0.00000000000E+00  0.00000000000E+00  0.11021610022E+03  0.11021610034E+03  0.50400001928E-02 0.  1.
        1   -1    0    0  501    0  0.00000000000E+00  0.00000000000E+00 -0.83231162140E+03  0.83231162141E+03  0.50400001928E-02 0. -1.
    10030    2    1    2    0    0  0.00000000000E+00  0.00000000000E+00 -0.72209552117E+03  0.94252772175E+03  0.60575289068E+03 0.  0.
        4    1    3    3  502    0 -0.28542644212E+03  0.94105155097E+02 -0.41944282788E+03  0.51600187291E+03  0.12699999809E+01 0. -1.
       -4    1    3    3    0  502  0.28542644212E+03 -0.94105155097E+02 -0.30265269329E+03  0.42652584885E+03  0.12699999809E+01 0.  1.
</event>
<event>
 5   0  0.5491236E-03  0.5990754E+03  0.7818609E-02  0.9907326E-01
        1   -1    0    0  501    0  0.00000000000E+00  0.00000000000E+00  0.48335224514E+03  0.48335224517E+03  0.50400001928E-02 0. -1.
       -1   -1    0    0    0  501  0.00000000000E+00  0.00000000000E+00 -0.18562617985E+03  0.18562617992E+03  0.50400001928E-02 0.  1.
    10030    2    1    2    0    0  0.00000000000E+00  0.00000000000E+00  0.29772606529E+03  0.66897842509E+03  0.59907539031E+03 0.  0.
        3    1    3    3  502    0 -0.11608717246E+03 -0.27207881292E+03  0.96251783668E+02  0.31107479504E+03  0.10100000352E+00 0.  1.
       -3    1    3    3    0  502  0.11608717246E+03  0.27207881292E+03  0.20147428162E+03  0.35790363005E+03  0.10100000352E+00 0. -1.
</event>
<event>
 5   0  0.5491236E-03  0.6007052E+03  0.7818609E-02  0.9903944E-01
       -1   -1    0    0    0  501  0.00000000000E+00  0.00000000000E+00  0.77701982717E+02  0.77701982880E+02  0.50400001928E-02 0. -1.
        1   -1    0    0  501    0  0.00000000000E+00  0.00000000000E+00 -0.11609959291E+04  0.11609959291E+04  0.50400001928E-02 0.  1.
    10030    2    1    2    0    0  0.00000000000E+00  0.00000000000E+00 -0.10832939464E+04  0.12386979120E+04  0.60070520466E+03 0.  0.
        3    1    3    3  502    0 -0.24226311852E+03  0.31739957622E+01 -0.90768775245E+03  0.93946716760E+03  0.10100000352E+00 0.  1.
       -3    1    3    3    0  502  0.24226311852E+03 -0.31739957622E+01 -0.17560619395E+03  0.29923074441E+03  0.10100000352E+00 0. -1.
</event>
<event>
 5   0  0.9428629E-03  0.6011747E+03  0.7818609E-02  0.9902972E-01
       -2   -1    0    0    0  501  0.00000000000E+00  0.00000000000E+00  0.65645388555E+02  0.65645388605E+02  0.25500000920E-02 0.  1.
        2   -1    0    0  501    0  0.00000000000E+00  0.00000000000E+00 -0.13763764504E+04  0.13763764504E+04  0.25500000920E-02 0. -1.
    10030    2    1    2    0    0  0.00000000000E+00  0.00000000000E+00 -0.13107310618E+04  0.14420218390E+04  0.60117473972E+03 0.  0.
        3    1    3    3  502    0  0.67787566568E+02 -0.22919954580E+02 -0.13556478515E+04  0.13575351140E+04  0.10100000352E+00 0. -1.
       -3    1    3    3    0  502 -0.67787566568E+02  0.22919954580E+02  0.44916789635E+02  0.84486724941E+02  0.10100000352E+00 0.  1.
</event>
<event>
 5   0  0.9571790E-03  0.6020475E+03  0.7818609E-02  0.9901167E-01
       -2   -1    0    0    0  501  0.00000000000E+00  0.00000000000E+00  0.51333770249E+02  0.51333770313E+02  0.25500000920E-02 0. -1.
        2   -1    0    0  501    0  0.00000000000E+00  0.00000000000E+00 -0.17652182014E+04  0.17652182014E+04  0.25500000920E-02 0.  1.
    10030    2    1    2    0    0  0.00000000000E+00  0.00000000000E+00 -0.17138844311E+04  0.18165519717E+04  0.60204752520E+03 0.  0.
        5    1    3    3  502    0 -0.22038185501E+03  0.20110445502E+03 -0.97695496978E+03  0.10215058819E+04  0.46999998093E+01 0.  1.
       -5    1    3    3    0  502  0.22038185501E+03 -0.20110445502E+03 -0.73692946136E+03  0.79504608977E+03  0.46999998093E+01 0. -1.
</event>
<event>
 5   0  0.9530666E-03  0.5976556E+03  0.7818609E-02  0.9910282E-01
        2   -1    0    0  501    0  0.00000000000E+00  0.00000000000E+00  0.25974312563E+04  0.25974312563E+04  0.25500000920E-02 0.  1.
       -2   -1    0    0    0  501  0.00000000000E+00  0.00000000000E+00 -0.34379374238E+02  0.34379374332E+02  0.25500000920E-02 0. -1.
    10030    2    1    2    0    0  0.00000000000E+00  0.00000000000E+00  0.25630518820E+04  0.26318106306E+04  0.59765562439E+03 0.  0.
        2    1    3    3  502    0  0.16488572239E+03 -0.23724236143E+03  0.16176653988E+04  0.16432627854E+04  0.25500000920E-02 0.  1.
       -2    1    3    3    0  502 -0.16488572239E+03  0.23724236143E+03  0.94538648324E+03  0.98854784518E+03  0.25500000920E-02 0. -1.
</event>
<event>
 5   0  0.5785798E-03  0.6004204E+03  0.7818609E-02  0.9904534E-01
       -1   -1    0    0    0  501  0.00000000000E+00  0.00000000000E+00  0.10878807090E+03  0.10878807101E+03  0.50400001928E-02 0.  1.
        1   -1    0    0  501    0  0.00000000000E+00  0.00000000000E+00 -0.82845618999E+03  0.82845619001E+03  0.50400001928E-02 0. -1.
    10030    2    1    2    0    0  0.00000000000E+00  0.00000000000E+00 -0.71966811910E+03  0.93724426102E+03  0.60042035539E+03 0.  0.
        1    1    3    3  502    0 -0.36379795980E+02  0.16322184908E+03  0.29352101610E+02  0.16978341340E+03  0.50400001928E-02 0.  1.
       -1    1    3    3    0  502  0.36379795980E+02 -0.16322184908E+03 -0.74902022071E+03  0.76746084762E+03  0.50400001928E-02 0. -1.
</event>
<event>
 5   0  0.9530666E-03  0.5987402E+03  0.7818609E-02  0.9908023E-01
       -2   -1    0    0    0  501  0.00000000000E+00  0.00000000000E+00  0.74691510729E+03  0.74691510729E+03  0.25500000920E-02 0.  1.
        2   -1    0    0  501    0  0.00000000000E+00  0.00000000000E+00 -0.11999015278E+03  0.11999015280E+03  0.25500000920E-02 0. -1.
    10030    2    1    2    0    0  0.00000000000E+00  0.00000000000E+00  0.62692495451E+03  0.86690526009E+03  0.59874020359E+03 0.  0.
        2    1    3    3  502    0 -0.26472801380E+03 -0.68610033365E+02  0.13711661230E+03  0.30592355801E+03  0.25500000920E-02 0. -1.
       -2    1    3    3    0  502  0.26472801380E+03  0.68610033365E+02  0.48980834220E+03  0.56098170208E+03  0.25500000920E-02 0.  1.
</event>
<event>
 5   0  0.5785798E-03  0.5956934E+03  0.7818609E-02  0.9914381E-01
       -1   -1    0    0    0  501  0.00000000000E+00  0.00000000000E+00  0.19793564947E+03  0.19793564953E+03  0.50400001928E-02 0.  1.
        1   -1    0    0  501    0  0.00000000000E+00  0.00000000000E+00 -0.44818945269E+03  0.44818945271E+03  0.50400001928E-02 0. -1.
    10030    2    1    2    0    0  0.00000000000E+00  0.00000000000E+00 -0.25025380322E+03  0.64612510225E+03  0.59569344610E+03 0.  0.
        1    1    3    3  502    0 -0.17696104401E+03 -0.20115893285E+03  0.16014649558E+02  0.26839634198E+03  0.50400001928E-02 0.  1.
       -1    1    3    3    0  502  0.17696104401E+03  0.20115893285E+03 -0.26626845277E+03  0.37772876027E+03  0.50400001928E-02 0. -1.
</event>
<event>
 5   0  0.5574736E-03  0.5986491E+03  0.7818609E-02  0.9908213E-01
       -1   -1    0    0    0  501  0.00000000000E+00  0.00000000000E+00  0.30277531333E+03  0.30277531337E+03  0.50400001928E-02 0.  1.
        1   -1    0    0  501    0  0.00000000000E+00  0.00000000000E+00 -0.29591316341E+03  0.29591316345E+03  0.50400001928E-02 0. -1.
    10030    2    1    2    0    0  0.00000000000E+00  0.00000000000E+00  0.68621499193E+01  0.59868847682E+03  0.59864914864E+03 0.  0.
        5    1    3    3  502    0 -0.45438018902E+02  0.81778390494E+02 -0.28087758029E+03  0.29608550087E+03  0.46999998093E+01 0. -1.
       -5    1    3    3    0  502  0.45438018902E+02 -0.81778390494E+02  0.28773973021E+03  0.30260297595E+03  0.46999998093E+01 0.  1.
</event>
<event>
 5   0  0.9681801E-03  0.5996479E+03  0.7818609E-02  0.9906137E-01
        2   -1    0    0  501    0  0.00000000000E+00  0.00000000000E+00  0.56726372127E+02  0.56726372185E+02  0.25500000920E-02 0.  1.
       -2   -1    0    0    0  501  0.00000000000E+00  0.00000000000E+00 -0.15847021642E+04  0.15847021642E+04  0.25500000920E-02 0. -1.
    10030    2    1    2    0    0  0.00000000000E+00  0.00000000000E+00 -0.15279757921E+04  0.16414285364E+04  0.59964791246E+03 0.  0.
        4    1    3    3  502    0 -0.19704195149E+03 -0.21372511229E+03 -0.96493104303E+03  0.10077685672E+04  0.12699999809E+01 0. -1.
       -4    1    3    3    0  502  0.19704195149E+03  0.21372511229E+03 -0.56304474908E+03  0.63365996926E+03  0.12699999809E+01 0.  1.
</event>
<event>
 5   0  0.5785798E-03  0.6002388E+03  0.7818609E-02  0.9904911E-01
        1   -1    0    0  501    0  0.00000000000E+00  0.00000000000E+00  0.44893512974E+03  0.44893512977E+03  0.50400001928E-02 0. -1.
       -1   -1    0    0    0  501  0.00000000000E+00  0.00000000000E+00 -0.20063399970E+03  0.20063399977E+03  0.50400001928E-02 0.  1.
    10030    2    1    2    0    0  0.00000000000E+00  0.00000000000E+00  0.24830113004E+03  0.64956912953E+03  0.60023878820E+03 0.  0.
        1    1    3    3  502    0  0.21185382686E+03 -0.70650783046E+02 -0.92821559201E+02  0.24184585789E+03  0.50400001928E-02 0.  1.
       -1    1    3    3    0  502 -0.21185382686E+03  0.70650783046E+02  0.34112268924E+03  0.40772327164E+03  0.50400001928E-02 0. -1.
</event>
<event>
 5   0  0.5574736E-03  0.5925277E+03  0.7818609E-02  0.9921031E-01
       -1   -1    0    0    0  501  0.00000000000E+00  0.00000000000E+00  0.11293881308E+03  0.11293881319E+03  0.50400001928E-02 0. -1.
        1   -1    0    0  501    0  0.00000000000E+00  0.00000000000E+00 -0.77716667342E+03  0.77716667343E+03  0.50400001928E-02 0.  1.
    10030    2    1    2    0    0  0.00000000000E+00  0.00000000000E+00 -0.66422786033E+03  0.89010548663E+03  0.59252774355E+03 0.  0.
        5    1    3    3  502    0 -0.16221579421E+03 -0.21612027006E+03 -0.51442307783E+03  0.58109820859E+03  0.46999998093E+01 0.  1.
       -5    1    3    3    0  502  0.16221579421E+03  0.21612027006E+03 -0.14980478251E+03  0.30900727804E+03  0.46999998093E+01 0. -1.
</event>
<event>
 5   0  0.5785798E-03  0.6010561E+03  0.7818609E-02  0.9903217E-01
        1   -1    0    0  501    0  0.00000000000E+00  0.00000000000E+00  0.88233949959E+03  0.88233949960E+03  0.50400001928E-02 0.  1.
       -1   -1    0    0    0  501  0.00000000000E+00  0.00000000000E+00 -0.10236093981E+03  0.10236093994E+03  0.50400001928E-02 0. -1.
    10030    2    1    2    0    0  0.00000000000E+00  0.00000000000E+00  0.77997855978E+03  0.98470043954E+03  0.60105607219E+03 0.  0.
        1    1    3    3  502    0 -0.78385446143E+02 -0.29009505072E+03  0.39687861552E+03  0.49780724392E+03  0.50400001928E-02 0.  1.
       -1    1    3    3    0  502  0.78385446143E+02  0.29009505072E+03  0.38309994426E+03  0.48689319562E+03  0.50400001928E-02 0. -1.
</event>
<event>
 5   0  0.5653633E-03  0.5992196E+03  0.7818609E-02  0.9907026E-01
        1   -1    0    0  501    0  0.00000000000E+00  0.00000000000E+00  0.10027746947E+04  0.10027746947E+04  0.50400001928E-02 0.  1.
       -1   -1    0    0    0  501  0.00000000000E+00  0.00000000000E+00 -0.89517660335E+02  0.89517660477E+02  0.50400001928E-02 0. -1.
    10030    2    1    2    0    0  0.00000000000E+00  0.00000000000E+00  0.91325703437E+03  0.10922923552E+04  0.59921964119E+03 0.  0.
        2    1    3    3  502    0 -0.18175753670E+03  0.79723187301E+02  0.86575541966E+03  0.88821395813E+03  0.25500000920E-02 0.  1.
       -2    1    3    3    0  502  0.18175753670E+03 -0.79723187301E+02  0.47501614714E+02  0.20407839707E+03  0.25500000920E-02 0. -1.
</event>
<event>
 5   0  0.5653633E-03  0.6001659E+03  0.7818609E-02  0.9905062E-01
       -1   -1    0    0    0  501  0.00000000000E+00  0.00000000000E+00  0.64380913335E+02  0.64380913533E+02  0.50400001928E-02 0. -1.
        1   -1    0    0  501    0  0.00000000000E+00  0.00000000000E+00 -0.13987031639E+04  0.13987031639E+04  0.50400001928E-02 0.  1.
    10030    2    1    2    0    0  0.00000000000E+00  0.00000000000E+00 -0.13343222505E+04  0.14630840774E+04  0.60016593481E+03 0.  0.
        2    1    3    3  502    0  0.14773660308E+03 -0.20320142746E+03 -0.10672340914E+04  0.10964057323E+04  0.25500000920E-02 0.  1.
       -2    1    3    3    0  502 -0.14773660308E+03  0.20320142746E+03 -0.26708815918E+03  0.36667834514E+03  0.25500000920E-02 0. -1.
</event>
<event>
 5   0  0.3794375E-03  0.5973583E+03  0.7818609E-02  0.9910902E-01
        3   -1    0    0  501    0  0.00000000000E+00  0.00000000000E+00  0.18538241051E+03  0.18538243802E+03  0.10100000352E+00 0.  1.
       -3   -1    0    0    0  501  0.00000000000E+00  0.00000000000E+00 -0.48121734792E+03  0.48121735852E+03  0.10100000352E+00 0. -1.
    10030    2    1    2    0    0  0.00000000000E+00  0.00000000000E+00 -0.29583493741E+03  0.66659979654E+03  0.59735833346E+03 0.  0.
        1    1    3    3  502    0  0.11466315483E+03 -0.23258228395E+03 -0.31331022408E+03  0.40670069391E+03  0.50400001928E-02 0. -1.
       -1    1    3    3    0  502 -0.11466315483E+03  0.23258228395E+03  0.17475286668E+02  0.25989910264E+03  0.50400001928E-02 0.  1.
</event>
<event>
 5   0  0.3794375E-03  0.5988644E+03  0.7818609E-02  0.9907765E-01
        3   -1    0    0  501    0  0.00000000000E+00  0.00000000000E+00  0.15647031318E+04  0.15647031350E+04  0.10100000352E+00 0.  1.
       -3   -1    0    0    0  501  0.00000000000E+00  0.00000000000E+00 -0.57301328912E+02  0.57301417924E+02  0.10100000352E+00 0. -1.
    10030    2    1    2    0    0  0.00000000000E+00  0.00000000000E+00  0.15074018029E+04  0.16220045530E+04  0.59886440414E+03 0.  0.
        3    1    3    3  502    0 -0.12941103701E+03 -0.12812232013E+03  0.10992220514E+03  0.21270977128E+03  0.10100000352E+00 0. -1.
       -3    1    3    3    0  502  0.12941103701E+03  0.12812232013E+03  0.13974795977E+04  0.14092947817E+04  0.10100000352E+00 0.  1.
</event>
<event>
 5   0  0.5574736E-03  0.5996520E+03  0.7818609E-02  0.9906128E-01
        1   -1    0    0  501    0  0.00000000000E+00  0.00000000000E+00  0.47024452305E+03  0.47024452308E+03  0.50400001928E-02 0. -1.
       -1   -1    0    0    0  501  0.00000000000E+00  0.00000000000E+00 -0.19116782894E+03  0.19116782901E+03  0.50400001928E-02 0.  1.
    10030    2    1    2    0    0  0.00000000000E+00  0.00000000000E+00  0.27907669411E+03  0.66141235209E+03  0.59965198099E+03 0.  0.
        5    1    3    3  502    0 -0.21053041311E+03  0.11398385456E+02 -0.95532760857E+02  0.23152014260E+03  0.46999998093E+01 0.  1.
       -5    1    3    3    0  502  0.21053041311E+03 -0.11398385456E+02  0.37460945497E+03  0.42989220949E+03  0.46999998093E+01 0. -1.
</event>
<event>
 5   0  0.9866317E-03  0.6004253E+03  0.7818609E-02  0.9904524E-01
       -2   -1    0    0    0  501  0.00000000000E+00  0.00000000000E+00  0.19814729979E+03  0.19814729980E+03  0.25500000920E-02 0.  1.
        2   -1    0    0  501    0  0.00000000000E+00  0.00000000000E+00 -0.45485163201E+03  0.45485163202E+03  0.25500000920E-02 0. -1.
    10030    2    1    2    0    0  0.00000000000E+00  0.00000000000E+00 -0.25670433223E+03  0.65299893182E+03  0.60042525828E+03 0.  0.
        1    1    3    3  502    0 -0.24878359035E+03  0.15031348561E+03 -0.46674951469E+02  0.29439084548E+03  0.50400001928E-02 0.  1.
       -1    1    3    3    0  502  0.24878359035E+03 -0.15031348561E+03 -0.21002938076E+03  0.35860808634E+03  0.50400001928E-02 0. -1.
</event>
<event>
 5   0  0.5653633E-03  0.6015295E+03  0.7818609E-02  0.9902238E-01
        1   -1    0    0  501    0  0.00000000000E+00  0.00000000000E+00  0.11966396278E+04  0.11966396278E+04  0.50400001928E-02 0. -1.
       -1   -1    0    0    0  501  0.00000000000E+00  0.00000000000E+00 -0.75594541733E+02  0.75594541901E+02  0.50400001928E-02 0.  1.
    10030    2    1    2    0    0  0.00000000000E+00  0.00000000000E+00  0.11210450860E+04  0.12722341697E+04  0.60152946526E+03 0.  0.
        2    1    3    3  502    0 -0.26663411099E+03  0.10599017199E+03  0.75124524517E+03  0.80417478454E+03  0.25500000920E-02 0. -1.
       -2    1    3    3    0  502  0.26663411099E+03 -0.10599017199E+03  0.36979984086E+03  0.46805938513E+03  0.25500000920E-02 0.  1.
</event>
<event>
 5   0  0.9428629E-03  0.5996080E+03  0.7818609E-02  0.9906220E-01
        2   -1    0    0  501    0  0.00000000000E+00  0.00000000000E+00  0.17197728372E+03  0.17197728373E+03  0.25500000920E-02 0.  1.
       -2   -1    0    0    0  501  0.00000000000E+00  0.00000000000E+00 -0.52264130437E+03  0.52264130438E+03  0.25500000920E-02 0. -1.
    10030    2    1    2    0    0  0.00000000000E+00  0.00000000000E+00 -0.35066402066E+03  0.69461858812E+03  0.59960797824E+03 0.  0.
        3    1    3    3  502    0 -0.25121410675E+03  0.16335468867E+03 -0.16439458285E+03  0.34178775697E+03  0.10100000352E+00 0. -1.
       -3    1    3    3    0  502  0.25121410675E+03 -0.16335468867E+03 -0.18626943781E+03  0.35283083115E+03  0.10100000352E+00 0.  1.
</event>
<event>
 5   0  0.5503975E-03  0.6065069E+03  0.7818609E-02  0.9891998E-01
       -1   -1    0    0    0  501  0.00000000000E+00  0.00000000000E+00  0.23050947202E+03  0.23050947208E+03  0.50400001928E-02 0. -1.
        1   -1    0    0  501    0  0.00000000000E+00  0.00000000000E+00 -0.39895391184E+03  0.39895391187E+03  0.50400001928E-02 0.  1.
    10030    2    1    2    0    0  0.00000000000E+00  0.00000000000E+00 -0.16844443982E+03  0.62946338395E+03  0.60650690221E+03 0.  0.
        4    1    3    3  502    0 -0.97881202632E+01 -0.24692560837E+03 -0.26663893110E+03  0.36354641498E+03  0.12699999809E+01 0.  1.
       -4    1    3    3    0  502  0.97881202632E+01  0.24692560837E+03  0.98194491281E+02  0.26591696897E+03  0.12699999809E+01 0. -1.
</event>
<event>
 5   0  0.9866317E-03  0.5990000E+03  0.7818609E-02  0.9907483E-01
        2   -1    0    0  501    0  0.00000000000E+00  0.00000000000E+00  0.80582767477E+03  0.80582767477E+03  0.25500000920E-02 0. -1.
       -2   -1    0    0    0  501  0.00000000000E+00  0.00000000000E+00 -0.11131441423E+03  0.11131441426E+03  0.25500000920E-02 0.  1.
    10030    2    1    2    0    0  0.00000000000E+00  0.00000000000E+00  0.69451326054E+03  0.91714208903E+03  0.59899995192E+03 0.  0.
        1    1    3    3  502    0  0.19594901942E+03 -0.10560300966E+03  0.40450080220E+02  0.22623930445E+03  0.50400001928E-02 0.  1.
       -1    1    3    3    0  502 -0.19594901942E+03  0.10560300966E+03  0.65406318032E+03  0.69090278458E+03  0.50400001928E-02 0. -1.
</event>
<event>
 5   0  0.5785798E-03  0.6023393E+03  0.7818609E-02  0.9900565E-01
       -1   -1    0    0    0  501  0.00000000000E+00  0.00000000000E+00  0.11804340816E+04  0.11804340816E+04  0.50400001928E-02 0. -1.
        1   -1    0    0  501    0  0.00000000000E+00  0.00000000000E+00 -0.76838807343E+02  0.76838807508E+02  0.50400001928E-02 0.  1.
    10030    2    1    2    0    0  0.00000000000E+00  0.00000000000E+00  0.11035952742E+04  0.12572728891E+04  0.60233926349E+03 0.  0.
        1    1    3    3  502    0  0.11732027694E+03  0.10604227612E+03  0.10867950449E+04  0.10982406300E+04  0.50400001928E-02 0. -1.
       -1    1    3    3    0  502 -0.11732027694E+03 -0.10604227612E+03  0.16800229332E+02  0.15903225911E+03  0.50400001928E-02 0.  1.
</event>
<event>
 5   0  0.9681801E-03  0.5992080E+03  0.7818609E-02  0.9907051E-01
       -2   -1    0    0    0  501  0.00000000000E+00  0.00000000000E+00  0.10083980517E+03  0.10083980520E+03  0.25500000920E-02 0. -1.
        2   -1    0    0  501    0  0.00000000000E+00  0.00000000000E+00 -0.89014991462E+03  0.89014991462E+03  0.25500000920E-02 0.  1.
    10030    2    1    2    0    0  0.00000000000E+00  0.00000000000E+00 -0.78931010945E+03  0.99098971982E+03  0.59920795716E+03 0.  0.
        4    1    3    3  502    0 -0.10684826096E+03  0.15996318343E+03 -0.77451908034E+03  0.79805149560E+03  0.12699999809E+01 0.  1.
       -4    1    3    3    0  502  0.10684826096E+03 -0.15996318343E+03 -0.14791029105E+02  0.19293822422E+03  0.12699999809E+01 0. -1.
</event>
<event>
 5   0  0.5574736E-03  0.5998622E+03  0.7818609E-02  0.9905692E-01
       -1   -1    0    0    0  501  0.00000000000E+00  0.00000000000E+00  0.13898147611E+03  0.13898147621E+03  0.50400001928E-02 0.  1.
        1   -1    0    0  501    0  0.00000000000E+00  0.00000000000E+00 -0.64727080426E+03  0.64727080428E+03  0.50400001928E-02 0. -1.
    10030    2    1    2    0    0  0.00000000000E+00  0.00000000000E+00 -0.50828932815E+03  0.78625228049E+03  0.59986215705E+03 0.  0.
        5    1    3    3  502    0  0.92569214481E+00  0.37474761125E+02  0.13585029168E+03  0.14100569625E+03  0.46999998093E+01 0.  1.
       -5    1    3    3    0  502 -0.92569214481E+00 -0.37474761125E+02 -0.64413961983E+03  0.64524658423E+03  0.46999998093E+01 0. -1.
</event>
<event>
 5   0  0.9681801E-03  0.5981020E+03  0.7818609E-02  0.9909352E-01
        2   -1    0    0  501    0  0.00000000000E+00  0.00000000000E+00  0.11194002346E+04  0.11194002346E+04  0.25500000920E-02 0.  1.
       -2   -1    0    0    0  501  0.00000000000E+00  0.00000000000E+00 -0.79892344030E+02  0.79892344070E+02  0.25500000920E-02 0. -1.
    10030    2    1    2    0    0  0.00000000000E+00  0.00000000000E+00  0.10395078905E+04  0.11992925786E+04  0.59810202699E+03 0.  0.
        4    1    3    3  502    0  0.96457595175E+02 -0.11274997843E+03  0.10403760103E+04  0.10509046013E+04  0.12699999809E+01 0.  1.
       -4    1    3    3    0  502 -0.96457595175E+02  0.11274997843E+03 -0.86811971673E+00  0.14838797740E+03  0.12699999809E+01 0. -1.
</event>
<event>
 5   0  0.9571790E-03  0.6002877E+03  0.7818609E-02  0.9904809E-01
       -2   -1    0    0    0  501  0.00000000000E+00  0.00000000000E+00  0.91488800487E+02  0.91488800523E+02  0.25500000920E-02 0. -1.
        2   -1    0    0  501    0  0.00000000000E+00  0.00000000000E+00 -0.98467063532E+03  0.98467063532E+03  0.25500000920E-02 0.  1.
    10030    2    1    2    0    0  0.00000000000E+00  0.00000000000E+00 -0.89318183483E+03  0.10761594358E+04  0.60028771542E+03 0.  0.
        5    1    3    3  502    0 -0.17243125101E+03 -0.80278971262E+02 -0.86274978031E+03  0.88347978074E+03  0.46999998093E+01 0.  1.
       -5    1    3    3    0  502  0.17243125101E+03  0.80278971262E+02 -0.30432054521E+02  0.19267965511E+03  0.46999998093E+01 0. -1.
</event>
<event>
 5   0  0.9530666E-03  0.5990764E+03  0.7818609E-02  0.9907324E-01
        2   -1    0    0  501    0  0.00000000000E+00  0.00000000000E+00  0.12767740297E+04  0.12767740297E+04  0.25500000920E-02 0. -1.
       -2   -1    0    0    0  501  0.00000000000E+00  0.00000000000E+00 -0.70273304507E+02  0.70273304553E+02  0.25500000920E-02 0.  1.
    10030    2    1    2    0    0  0.00000000000E+00  0.00000000000E+00  0.12065007252E+04  0.13470473342E+04  0.59907638981E+03 0.  0.
        2    1    3    3  502    0  0.26790764846E+03 -0.57148641960E+02  0.33079024028E+03  0.42949116226E+03  0.25500000920E-02 0.  1.
       -2    1    3    3    0  502 -0.26790764846E+03  0.57148641960E+02  0.87571048489E+03  0.91755617198E+03  0.25500000920E-02 0. -1.
</event>
<event>
 5   0  0.9428629E-03  0.5991116E+03  0.7818609E-02  0.9907251E-01
        2   -1    0    0  501    0  0.00000000000E+00  0.00000000000E+00  0.73403935287E+03  0.73403935287E+03  0.25500000920E-02 0. -1.
       -2   -1    0    0    0  501  0.00000000000E+00  0.00000000000E+00 -0.12224642183E+03  0.12224642186E+03  0.25500000920E-02 0.  1.
    10030    2    1    2    0    0  0.00000000000E+00  0.00000000000E+00  0.61179293104E+03  0.85628577473E+03  0.59911162360E+03 0.  0.
        3    1    3    3  502    0  0.17178684890E+03  0.20853469982E+03  0.49079770546E+03  0.56024980175E+03  0.10100000352E+00 0. -1.
       -3    1    3    3    0  502 -0.17178684890E+03 -0.20853469982E+03  0.12099522558E+03  0.29603597298E+03  0.10100000352E+00 0.  1.
</event>
<event>
 5   0  0.9428629E-03  0.6012507E+03  0.7818609E-02  0.9902815E-01
        2   -1    0    0  501    0  0.00000000000E+00  0.00000000000E+00  0.61770323746E+03  0.61770323746E+03  0.25500000920E-02 0. -1.
       -2   -1    0    0    0  501  0.00000000000E+00  0.00000000000E+00 -0.14630907446E+03  0.14630907448E+03  0.25500000920E-02 0.  1.
    10030    2    1    2    0    0  0.00000000000E+00  0.00000000000E+00  0.47139416299E+03  0.76401231195E+03  0.60125065979E+03 0.  0.
        3    1    3    3  502    0 -0.13660600191E+03 -0.13570775404E+03 -0.57661886767E+02  0.20100422297E+03  0.10100000352E+00 0.  1.
       -3    1    3    3    0  502  0.13660600191E+03  0.13570775404E+03  0.52905604976E+03  0.56300808898E+03  0.10100000352E+00 0. -1.
</event>
<event>
 5   0  0.9530666E-03  0.6000712E+03  0.7818609E-02  0.9905258E-01
       -2   -1    0    0    0  501  0.00000000000E+00  0.00000000000E+00  0.29054061652E+03  0.29054061654E+03  0.25500000920E-02 0.  1.
        2   -1    0    0  501    0  0.00000000000E+00  0.00000000000E+00 -0.30984092685E+03  0.30984092686E+03  0.25500000920E-02 0. -1.
    10030    2    1    2    0    0  0.00000000000E+00  0.00000000000E+00 -0.19300310322E+02  0.60038154339E+03  0.60007124216E+03 0.  0.
        2    1    3    3  502    0  0.23639035201E+02  0.14097872083E+03  0.25428081553E+03  0.29170625099E+03  0.25500000920E-02 0.  1.
       -2    1    3    3    0  502 -0.23639035201E+02 -0.14097872083E+03 -0.27358112585E+03  0.30867529240E+03  0.25500000920E-02 0. -1.
</event>
<event>
 5   0  0.5574736E-03  0.5998384E+03  0.7818609E-02  0.9905741E-01
       -1   -1    0    0    0  501  0.00000000000E+00  0.00000000000E+00  0.92756776121E+02  0.92756776258E+02  0.50400001928E-02 0. -1.
        1   -1    0    0  501    0  0.00000000000E+00  0.00000000000E+00 -0.96975703578E+03  0.96975703579E+03  0.50400001928E-02 0.  1.
    10030    2    1    2    0    0  0.00000000000E+00  0.00000000000E+00 -0.87700025965E+03  0.10625138120E+04  0.59983843271E+03 0.  0.
        5    1    3    3  502    0 -0.12531163323E+01  0.18566081826E+02  0.91667887691E+02  0.93655546162E+02  0.46999998093E+01 0. -1.
       -5    1    3    3    0  502  0.12531163323E+01 -0.18566081826E+02 -0.96866814735E+03  0.96885826589E+03  0.46999998093E+01 0.  1.
</event>
<event>
 5   0  0.3794375E-03  0.6026054E+03  0.7818609E-02  0.9900015E-01
        4   -1    0    0  501    0  0.00000000000E+00  0.00000000000E+00  0.94424052744E+03  0.94424138151E+03  0.12699999809E+01 0. -1.
       -4   -1    0    0    0  501  0.00000000000E+00  0.00000000000E+00 -0.96139185198E+02  0.96147573191E+02  0.12699999809E+01 0.  1.
    10030    2    1    2    0    0  0.00000000000E+00  0.00000000000E+00  0.84810134224E+03  0.10403889547E+04  0.60260541846E+03 0.  0.
        4    1    3    3  502    0 -0.97602525367E+02  0.27766376078E+03  0.31271861563E+03  0.42943912545E+03  0.12699999809E+01 0.  1.
       -4    1    3    3    0  502  0.97602525367E+02 -0.27766376078E+03  0.53538272661E+03  0.61094982925E+03  0.12699999809E+01 0. -1.
</event>
<event>
 5   0  0.9428629E-03  0.5994830E+03  0.7818609E-02  0.9906479E-01
        2   -1    0    0  501    0  0.00000000000E+00  0.00000000000E+00  0.13168995013E+03  0.13168995015E+03  0.25500000920E-02 0.  1.
       -2   -1    0    0    0  501  0.00000000000E+00  0.00000000000E+00 -0.68224620908E+03  0.68224620909E+03  0.25500000920E-02 0. -1.
    10030    2    1    2    0    0  0.00000000000E+00  0.00000000000E+00 -0.55055625895E+03  0.81393615924E+03  0.59948300814E+03 0.  0.
        3    1    3    3  502    0  0.17756126725E+03  0.12419162403E+03  0.59175738676E+01  0.21676390610E+03  0.10100000352E+00 0.  1.
       -3    1    3    3    0  502 -0.17756126725E+03 -0.12419162403E+03 -0.55647383282E+03  0.59717225314E+03  0.10100000352E+00 0. -1.
</event>
<event>
 5   0  0.5503975E-03  0.5999060E+03  0.7818609E-02  0.9905601E-01
        1   -1    0    0  501    0  0.00000000000E+00  0.00000000000E+00  0.75689797087E+03  0.75689797088E+03  0.50400001928E-02 0. -1.
       -1   -1    0    0    0  501  0.00000000000E+00  0.00000000000E+00 -0.11886912755E+03  0.11886912765E+03  0.50400001928E-02 0.  1.
    10030    2    1    2    0    0  0.00000000000E+00  0.00000000000E+00  0.63802884332E+03  0.87576709854E+03  0.59990599761E+03 0.  0.
        4    1    3    3  502    0 -0.16440261996E+03 -0.24719612477E+03  0.38156723550E+03  0.48345559636E+03  0.12699999809E+01 0.  1.
       -4    1    3    3    0  502  0.16440261996E+03  0.24719612477E+03  0.25646160782E+03  0.39231150217E+03  0.12699999809E+01 0. -1.
</event>
<event>
 5   0  0.9866317E-03  0.5970081E+03  0.7818609E-02  0.9911633E-01
       -2   -1    0    0    0  501  0.00000000000E+00  0.00000000000E+00  0.37766901355E+03  0.37766901356E+03  0.25500000920E-02 0.  1.
        2   -1    0    0  501    0  0.00000000000E+00  0.00000000000E+00 -0.23593321901E+03  0.23593321902E+03  0.25500000920E-02 0. -1.
    10030    2    1    2    0    0  0.00000000000E+00  0.00000000000E+00  0.14173579454E+03  0.61360223258E+03  0.59700809406E+03 0.  0.
        1    1    3    3  502    0  0.24623694944E+03  0.11938114857E+03  0.19343082853E+03  0.33511189080E+03  0.50400001928E-02 0.  1.
       -1    1    3    3    0  502 -0.24623694944E+03 -0.11938114857E+03 -0.51695033982E+02  0.27849034179E+03  0.50400001928E-02 0. -1.
</event>
<event>
 5   0  0.9530666E-03  0.6030472E+03  0.7818609E-02  0.9899104E-01
        2   -1    0    0  501    0  0.00000000000E+00  0.00000000000E+00  0.13120327190E+04  0.13120327190E+04  0.25500000920E-02 0. -1.
       -2   -1    0    0    0  501  0.00000000000E+00  0.00000000000E+00 -0.69294366332E+02  0.69294366379E+02  0.25500000920E-02 0.  1.
    10030    2    1    2    0    0  0.00000000000E+00  0.00000000000E+00  0.12427383527E+04  0.13813270854E+04  0.60304718191E+03 0.  0.
        2    1    3    3  502    0  0.14870769252E+03  0.98169755778E+02  0.64211147437E+02  0.18940525395E+03  0.25500000920E-02 0.  1.
       -2    1    3    3    0  502 -0.14870769252E+03 -0.98169755778E+02  0.11785272052E+04  0.11919218314E+04  0.25500000920E-02 0. -1.
</event>
<event>
 5   0  0.5653633E-03  0.5999737E+03  0.7818609E-02  0.9905461E-01
        1   -1    0    0  501    0  0.00000000000E+00  0.00000000000E+00  0.63470351787E+03  0.63470351789E+03  0.50400001928E-02 0. -1.
       -1   -1    0    0    0  501  0.00000000000E+00  0.00000000000E+00 -0.14178603696E+03  0.14178603705E+03  0.50400001928E-02 0.  1.
    10030    2    1    2    0    0  0.00000000000E+00  0.00000000000E+00  0.49291748091E+03  0.77648955494E+03  0.59997365438E+03 0.  0.
        2    1    3    3  502    0 -0.11772239885E+03 -0.27521994049E+03  0.27193579272E+03  0.40441767297E+03  0.25500000920E-02 0.  1.
       -2    1    3    3    0  502  0.11772239885E+03  0.27521994049E+03  0.22098168818E+03  0.37207188198E+03  0.25500000920E-02 0. -1.
</event>
<event>
 5   0  0.9571790E-03  0.6005280E+03  0.7818609E-02  0.9904311E-01
       -2   -1    0    0    0  501  0.00000000000E+00  0.00000000000E+00  0.27010538502E+03  0.27010538504E+03  0.25500000920E-02 0. -1.
        2   -1    0    0  501    0  0.00000000000E+00  0.00000000000E+00 -0.33378992929E+03  0.33378992930E+03  0.25500000920E-02 0.  1.
    10030    2    1    2    0    0  0.00000000000E+00  0.00000000000E+00 -0.63684544261E+02  0.60389531433E+03  0.60052795896E+03 0.  0.
        5    1    3    3  502    0 -0.20179773674E+03  0.14494664197E+03 -0.20132369163E+03  0.31982053464E+03  0.46999998093E+01 0.  1.
       -5    1    3    3    0  502  0.20179773674E+03 -0.14494664197E+03  0.13763914737E+03  0.28407477969E+03  0.46999998093E+01 0. -1.
</event>
<event>
 5   0  0.5491236E-03  0.5999369E+03  0.7818609E-02  0.9905537E-01
       -1   -1    0    0    0  501  0.00000000000E+00  0.00000000000E+00  0.39471933739E+03  0.39471933742E+03  0.50400001928E-02 0. -1.
        1   -1    0    0  501    0  0.00000000000E+00  0.00000000000E+00 -0.22796213452E+03  0.22796213457E+03  0.50400001928E-02 0.  1.
    10030    2    1    2    0    0  0.00000000000E+00  0.00000000000E+00  0.16675720287E+03  0.62268147199E+03  0.59993687239E+03 0.  0.
        3    1    3    3  502    0  0.18091394396E+02  0.10566186353E+03  0.37415937300E+03  0.38921327645E+03  0.10100000352E+00 0. -1.
       -3    1    3    3    0  502 -0.18091394396E+02 -0.10566186353E+03 -0.20740217013E+03  0.23346819554E+03  0.10100000352E+00 0.  1.
</event>
<event>
 5   0  0.5491236E-03  0.6000644E+03  0.7818609E-02  0.9905272E-01
        1   -1    0    0  501    0  0.00000000000E+00  0.00000000000E+00  0.10480740634E+04  0.10480740634E+04  0.50400001928E-02 0. -1.
       -1   -1    0    0    0  501  0.00000000000E+00  0.00000000000E+00 -0.85890225289E+02  0.85890225437E+02  0.50400001928E-02 0.  1.
    10030    2    1    2    0    0  0.00000000000E+00  0.00000000000E+00  0.96218383806E+03  0.11339642888E+04  0.60006438825E+03 0.  0.
        3    1    3    3  502    0 -0.11322244494E+02 -0.38417852395E+02  0.10429995739E+04  0.10437682913E+04  0.10100000352E+00 0. -1.
       -3    1    3    3    0  502  0.11322244494E+02  0.38417852395E+02 -0.80815735835E+02  0.90195997486E+02  0.10100000352E+00 0.  1.
</event>
<event>
 5   0  0.5503975E-03  0.6001608E+03  0.7818609E-02  0.9905072E-01
       -1   -1    0    0    0  501  0.00000000000E+00  0.00000000000E+00  0.30064299754E+03  0.30064299758E+03  0.50400001928E-02 0.  1.
        1   -1    0    0  501    0  0.00000000000E+00  0.00000000000E+00 -0.29951886415E+03  0.29951886419E+03  0.50400001928E-02 0. -1.
    10030    2    1    2    0    0  0.00000000000E+00  0.00000000000E+00  0.11241333910E+01  0.60016186177E+03  0.60016080899E+03 0.  0.
        4    1    3    3  502    0 -0.13464312854E+03 -0.17446930778E+03 -0.20310057190E+03  0.29969946051E+03  0.12699999809E+01 0. -1.
       -4    1    3    3    0  502  0.13464312854E+03  0.17446930778E+03  0.20422470530E+03  0.30046240126E+03  0.12699999809E+01 0.  1.
</event>
<event>
 5   0  0.9681801E-03  0.5993203E+03  0.7818609E-02  0.9906817E-01
        2   -1    0    0  501    0  0.00000000000E+00  0.00000000000E+00  0.61398790754E+03  0.61398790754E+03  0.25500000920E-02 0.  1.
       -2   -1    0    0    0  501  0.00000000000E+00  0.00000000000E+00 -0.14625076794E+03  0.14625076797E+03  0.25500000920E-02 0. -1.
    10030    2    1    2    0    0  0.00000000000E+00  0.00000000000E+00  0.46773713959E+03  0.76023867551E+03  0.59932029165E+03 0.  0.
        4    1    3    3  502    0 -0.11583701330E+03  0.25599105897E+03  0.10176795524E+03  0.29884438348E+03  0.12699999809E+01 0. -1.
       -4    1    3    3    0  502  0.11583701330E+03 -0.25599105897E+03  0.36596918435E+03  0.46139429203E+03  0.12699999809E+01 0.  1.
</event>
<event>
 5   0  0.9530666E-03  0.6000984E+03  0.7818609E-02  0.9905202E-01
        2   -1    0    0  501    0  0.00000000000E+00  0.00000000000E+00  0.73615725935E+03  0.73615725935E+03  0.25500000920E-02 0. -1.
       -2   -1    0    0    0  501  0.00000000000E+00  0.00000000000E+00 -0.12229660796E+03  0.12229660798E+03  0.25500000920E-02 0.  1.
    10030    2    1    2    0    0  0.00000000000E+00  0.00000000000E+00  0.61386065139E+03  0.85845386733E+03  0.60009844444E+03 0.  0.
        2    1    3    3  502    0 -0.12210616347E+03 -0.97573644367E+02 -0.59459229779E+02  0.16723017444E+03  0.25500000920E-02 0.  1.
       -2    1    3    3    0  502  0.12210616347E+03  0.97573644367E+02  0.67331988117E+03  0.69122369289E+03  0.25500000920E-02 0. -1.
</event>
<event>
 5   0  0.9681801E-03  0.5987220E+03  0.7818609E-02  0.9908061E-01
       -2   -1    0    0    0  501  0.00000000000E+00  0.00000000000E+00  0.94081410256E+02  0.94081410290E+02  0.25500000920E-02 0.  1.
        2   -1    0    0  501    0  0.00000000000E+00  0.00000000000E+00 -0.95254759384E+03  0.95254759384E+03  0.25500000920E-02 0. -1.
    10030    2    1    2    0    0  0.00000000000E+00  0.00000000000E+00 -0.85846618358E+03  0.10466290041E+04  0.59872204230E+03 0.  0.
        4    1    3    3  502    0 -0.29532971483E+03  0.30070737236E+02 -0.36172095969E+03  0.46793969192E+03  0.12699999809E+01 0. -1.
       -4    1    3    3    0  502  0.29532971483E+03 -0.30070737236E+02 -0.49674522390E+03  0.57868931221E+03  0.12699999809E+01 0.  1.
</event>
<event>
 5   0  0.9866317E-03  0.6005220E+03  0.7818609E-02  0.9904324E-01
       -2   -1    0    0    0  501  0.00000000000E+00  0.00000000000E+00  0.66558224010E+03  0.66558224011E+03  0.25500000920E-02 0.  1.
        2   -1    0    0  501    0  0.00000000000E+00  0.00000000000E+00 -0.13545532341E+03  0.13545532343E+03  0.25500000920E-02 0. -1.
    10030    2    1    2    0    0  0.00000000000E+00  0.00000000000E+00  0.53012691669E+03  0.80103756354E+03  0.60052196496E+03 0.  0.
        1    1    3    3  502    0 -0.17592423407E+03  0.96167186705E+02 -0.33084400821E+02  0.20320443287E+03  0.50400001928E-02 0. -1.
       -1    1    3    3    0  502  0.17592423407E+03 -0.96167186705E+02  0.56321131751E+03  0.59783313068E+03  0.50400001928E-02 0.  1.
</event>
<event>
 5   0  0.9428629E-03  0.5999626E+03  0.7818609E-02  0.9905484E-01
       -2   -1    0    0    0  501  0.00000000000E+00  0.00000000000E+00  0.11969899274E+03  0.11969899277E+03  0.25500000920E-02 0. -1.
        2   -1    0    0  501    0  0.00000000000E+00  0.00000000000E+00 -0.75179218730E+03  0.75179218731E+03  0.25500000920E-02 0.  1.
    10030    2    1    2    0    0  0.00000000000E+00  0.00000000000E+00 -0.63209319456E+03  0.87149118007E+03  0.59996255745E+03 0.  0.
        3    1    3    3  502    0 -0.59290040557E+02 -0.19555313539E+03 -0.63505959161E+03  0.66712594970E+03  0.10100000352E+00 0.  1.
       -3    1    3    3    0  502  0.59290040557E+02  0.19555313539E+03  0.29663970497E+01  0.20436523037E+03  0.10100000352E+00 0. -1.
</event>
<event>
 5   0  0.5785798E-03  0.6007428E+03  0.7818609E-02  0.9903866E-01
        1   -1    0    0  501    0  0.00000000000E+00  0.00000000000E+00  0.13323503616E+04  0.13323503616E+04  0.50400001928E-02 0.  1.
       -1   -1    0    0    0  501  0.00000000000E+00  0.00000000000E+00 -0.67717165756E+02  0.67717165944E+02  0.50400001928E-02 0. -1.
    10030    2    1    2    0    0  0.00000000000E+00  0.00000000000E+00  0.12646331959E+04  0.14000675276E+04  0.60074284156E+03 0.  0.
        1    1    3    3  502    0 -0.17163712450E+03 -0.14670852235E+03  0.17065205237E+03  0.28302794216E+03  0.50400001928E-02 0. -1.
       -1    1    3    3    0  502  0.17163712450E+03  0.14670852235E+03  0.10939811435E+04  0.11170395854E+04  0.50400001928E-02 0.  1.
</event>
<event>
 5   0  0.9530666E-03  0.5991232E+03  0.7818609E-02  0.9907227E-01
       -2   -1    0    0    0  501  0.00000000000E+00  0.00000000000E+00  0.11419117565E+03  0.11419117568E+03  0.25500000920E-02 0. -1.
        2   -1    0    0  501    0  0.00000000000E+00  0.00000000000E+00 -0.78585006494E+03  0.78585006495E+03  0.25500000920E-02 0.  1.
    10030    2    1    2    0    0  0.00000000000E+00  0.00000000000E+00 -0.67165888929E+03  0.90004124062E+03  0.59912316868E+03 0.  0.
        2    1    3    3  502    0 -0.76947475076E+02  0.20160804133E+03 -0.23696603827E+02  0.21709040810E+03  0.25500000920E-02 0.  1.
       -2    1    3    3    0  502  0.76947475076E+02 -0.20160804133E+03 -0.64796228547E+03  0.68295083252E+03  0.25500000920E-02 0. -1.
</event>
<event>
 5   0  0.5653633E-03  0.5992025E+03  0.7818609E-02  0.9907062E-01
        1   -1    0    0  501    0  0.00000000000E+00  0.00000000000E+00  0.12574853371E+04  0.12574853371E+04  0.50400001928E-02 0.  1.
       -1   -1    0    0    0  501  0.00000000000E+00  0.00000000000E+00 -0.71381277552E+02  0.71381277730E+02  0.50400001928E-02 0. -1.
    10030    2    1    2    0    0  0.00000000000E+00  0.00000000000E+00  0.11861040596E+04  0.13288666148E+04  0.59920250330E+03 0.  0.
        2    1    3    3  502    0  0.18481281051E+03  0.81705913512E+02  0.10836120812E+04  0.11022916011E+04  0.25500000920E-02 0.  1.
       -2    1    3    3    0  502 -0.18481281051E+03 -0.81705913512E+02  0.10249197832E+03  0.22657501376E+03  0.25500000920E-02 0. -1.
</event>
<event>
 5   0  0.9681801E-03  0.5995640E+03  0.7818609E-02  0.9906311E-01
        2   -1    0    0  501    0  0.00000000000E+00  0.00000000000E+00  0.14879666629E+03  0.14879666631E+03  0.25500000920E-02 0.  1.
       -2   -1    0    0    0  501  0.00000000000E+00  0.00000000000E+00 -0.60397356178E+03  0.60397356179E+03  0.25500000920E-02 0. -1.
    10030    2    1    2    0    0  0.00000000000E+00  0.00000000000E+00 -0.45517689549E+03  0.75277022810E+03  0.59956401670E+03 0.  0.
        4    1    3    3  502    0  0.28624416489E+03  0.87395636442E+02 -0.24911337830E+03  0.38940057441E+03  0.12699999809E+01 0.  1.
       -4    1    3    3    0  502 -0.28624416489E+03 -0.87395636442E+02 -0.20606351720E+03  0.36336965369E+03  0.12699999809E+01 0. -1.
</event>
<event>
 5   0  0.9681801E-03  0.5998845E+03  0.7818609E-02  0.9905646E-01
       -2   -1    0    0    0  501  0.00000000000E+00  0.00000000000E+00  0.70131856011E+02  0.70131856057E+02  0.25500000920E-02 0. -1.
        2   -1    0    0  501    0  0.00000000000E+00  0.00000000000E+00 -0.12828030238E+04  0.12828030238E+04  0.25500000920E-02 0.  1.
    10030    2    1    2    0    0  0.00000000000E+00  0.00000000000E+00 -0.12126711678E+04  0.13529348798E+04  0.59988451217E+03 0.  0.
        4    1    3    3  502    0 -0.16026665673E+03  0.17168937356E+03 -0.18560339372E+03  0.29935409621E+03  0.12699999809E+01 0. -1.
       -4    1    3    3    0  502  0.16026665673E+03 -0.17168937356E+03 -0.10270677740E+04  0.10535807836E+04  0.12699999809E+01 0.  1.
</event>
<event>
 5   0  0.5503975E-03  0.5989167E+03  0.7818609E-02  0.9907656E-01
       -1   -1    0    0    0  501  0.00000000000E+00  0.00000000000E+00  0.31565937906E+03  0.31565937910E+03  0.50400001928E-02 0.  1.
        1   -1    0    0  501    0  0.00000000000E+00  0.00000000000E+00 -0.28408885238E+03  0.28408885242E+03  0.50400001928E-02 0. -1.
    10030    2    1    2    0    0  0.00000000000E+00  0.00000000000E+00  0.31570526680E+02  0.59974823153E+03  0.59891672465E+03 0.  0.
        4    1    3    3  502    0  0.27166058710E+03  0.42459654490E+02 -0.10300236330E+03  0.29362117871E+03  0.12699999809E+01 0.  1.
       -4    1    3    3    0  502 -0.27166058710E+03 -0.42459654490E+02  0.13457288998E+03  0.30612705281E+03  0.12699999809E+01 0. -1.
</event>
<event>
 5   0  0.5491236E-03  0.6005968E+03  0.7818609E-02  0.9904169E-01
       -1   -1    0    0    0  501  0.00000000000E+00  0.00000000000E+00  0.75747642381E+02  0.75747642549E+02  0.50400001928E-02 0.  1.
        1   -1    0    0  501    0  0.00000000000E+00  0.00000000000E+00 -0.11905207113E+04  0.11905207113E+04  0.50400001928E-02 0. -1.
    10030    2    1    2    0    0  0.00000000000E+00  0.00000000000E+00 -0.11147730689E+04  0.12662683538E+04  0.60059682715E+03 0.  0.
        3    1    3    3  502    0 -0.24026964290E+03  0.14350710925E+03 -0.78694834441E+03  0.83523140427E+03  0.10100000352E+00 0.  1.
       -3    1    3    3    0  502  0.24026964290E+03 -0.14350710925E+03 -0.32782472447E+03  0.43103694955E+03  0.10100000352E+00 0. -1.
</event>
<event>
 5   0  0.9428629E-03  0.5961182E+03  0.7818609E-02  0.9913492E-01
        2   -1    0    0  501    0  0.00000000000E+00  0.00000000000E+00  0.11899861567E+04  0.11899861567E+04  0.25500000920E-02 0.  1.
       -2   -1    0    0    0  501  0.00000000000E+00  0.00000000000E+00 -0.74655693236E+02  0.74655693279E+02  0.25500000920E-02 0. -1.
    10030    2    1    2    0    0  0.00000000000E+00  0.00000000000E+00  0.11153304635E+04  0.12646418500E+04  0.59611824833E+03 0.  0.
        3    1    3    3  502    0 -0.20846263745E+03 -0.20943788325E+03  0.64032966047E+03  0.70522548340E+03  0.10100000352E+00 0. -1.
       -3    1    3    3    0  502  0.20846263745E+03  0.20943788325E+03  0.47500080299E+03  0.55941636658E+03  0.10100000352E+00 0.  1.
</event>
<event>
 5   0  0.5574736E-03  0.6001829E+03  0.7818609E-02  0.9905027E-01
        1   -1    0    0  501    0  0.00000000000E+00  0.00000000000E+00  0.84115798470E+03  0.84115798471E+03  0.50400001928E-02 0. -1.
       -1   -1    0    0    0  501  0.00000000000E+00  0.00000000000E+00 -0.10706059999E+03  0.10706060011E+03  0.50400001928E-02 0.  1.
    10030    2    1    2    0    0  0.00000000000E+00  0.00000000000E+00  0.73409738470E+03  0.94821858482E+03  0.60018290076E+03 0.  0.
        5    1    3    3  502    0  0.17055677474E+03 -0.17639252780E+03  0.94186659960E+02  0.26286337552E+03  0.46999998093E+01 0. -1.
       -5    1    3    3    0  502 -0.17055677474E+03  0.17639252780E+03  0.63991072474E+03  0.68535520930E+03  0.46999998093E+01 0.  1.
</event>
<event>
 5   0  0.5503975E-03  0.5997125E+03  0.7818609E-02  0.9906003E-01
       -1   -1    0    0    0  501  0.00000000000E+00  0.00000000000E+00  0.16400985320E+03  0.16400985328E+03  0.50400001928E-02 0.  1.
        1   -1    0    0  501    0  0.00000000000E+00  0.00000000000E+00 -0.54822176169E+03  0.54822176171E+03  0.50400001928E-02 0. -1.
    10030    2    1    2    0    0  0.00000000000E+00  0.00000000000E+00 -0.38421190849E+03  0.71223161499E+03  0.59971250009E+03 0.  0.
        4    1    3    3  502    0 -0.18807727564E+03  0.20107858577E+03 -0.51051189725E+02  0.28002409921E+03  0.12699999809E+01 0.  1.
       -4    1    3    3    0  502  0.18807727564E+03 -0.20107858577E+03 -0.33316071876E+03  0.43220751578E+03  0.12699999809E+01 0. -1.
</event>
<event>
 5   0  0.9681801E-03  0.6000069E+03  0.7818609E-02  0.9905392E-01
        2   -1    0    0  501    0  0.00000000000E+00  0.00000000000E+00  0.12022220789E+04  0.12022220789E+04  0.25500000920E-02 0.  1.
       -2   -1    0    0    0  501  0.00000000000E+00  0.00000000000E+00 -0.74863110189E+02  0.74863110232E+02  0.25500000920E-02 0. -1.
    10030    2    1    2    0    0  0.00000000000E+00  0.00000000000E+00  0.11273589687E+04  0.12770851891E+04  0.60000694660E+03 0.  0.
        4    1    3    3  502    0  0.35468663659E+02 -0.28794103711E+03  0.40112932690E+03  0.49504991340E+03  0.12699999809E+01 0.  1.
       -4    1    3    3    0  502 -0.35468663659E+02  0.28794103711E+03  0.72622964181E+03  0.78203527574E+03  0.12699999809E+01 0. -1.
</event>
<event>
 5   0  0.9866317E-03  0.6012438E+03  0.7818609E-02  0.9902829E-01
       -2   -1    0    0    0  501  0.00000000000E+00  0.00000000000E+00  0.25272698401E+03  0.25272698402E+03  0.25500000920E-02 0. -1.
        2   -1    0    0  501    0  0.00000000000E+00  0.00000000000E+00 -0.35759346738E+03  0.35759346738E+03  0.25500000920E-02 0.  1.
    10030    2    1    2    0    0  0.00000000000E+00  0.00000000000E+00 -0.10486648337E+03  0.61032045140E+03  0.60124377258E+03 0.  0.
        1    1    3    3  502    0 -0.21871368058E+03  0.17633339925E+03  0.56160151771E+02  0.28650149116E+03  0.50400001928E-02 0. -1.
       -1    1    3    3    0  502  0.21871368058E+03 -0.17633339925E+03 -0.16102663514E+03  0.32381896024E+03  0.50400001928E-02 0.  1.
</event>
<event>
 5   0  0.5653633E-03  0.5996722E+03  0.7818609E-02  0.9906086E-01
       -1   -1    0    0    0  501  0.00000000000E+00  0.00000000000E+00  0.52676311091E+02  0.52676311332E+02  0.50400001928E-02 0.  1.
        1   -1    0    0  501    0  0.00000000000E+00  0.00000000000E+00 -0.17066815484E+04  0.17066815484E+04  0.50400001928E-02 0. -1.
    10030    2    1    2    0    0  0.00000000000E+00  0.00000000000E+00 -0.16540052373E+04  0.17593578598E+04  0.59967220512E+03 0.  0.
        2    1    3    3  502    0  0.78163992148E+02  0.10103726757E+03 -0.31153697571E+02  0.13148647073E+03  0.25500000920E-02 0.  1.
       -2    1    3    3    0  502 -0.78163992148E+02 -0.10103726757E+03 -0.16228515398E+04  0.16278713890E+04  0.25500000920E-02 0. -1.
</event>
<event>
 5   0  0.9530666E-03  0.5985589E+03  0.7818609E-02  0.9908400E-01
        2   -1    0    0  501    0  0.00000000000E+00  0.00000000000E+00  0.24188917780E+04  0.24188917780E+04  0.25500000920E-02 0.  1.
       -2   -1    0    0    0  501  0.00000000000E+00  0.00000000000E+00 -0.37028607593E+02  0.37028607681E+02  0.25500000920E-02 0. -1.
    10030    2    1    2    0    0  0.00000000000E+00  0.00000000000E+00  0.23818631704E+04  0.24559203856E+04  0.59855891796E+03 0.  0.
        2    1    3    3  502    0 -0.39769802254E+02 -0.27898123478E+03  0.16044256914E+04  0.16289855634E+04  0.25500000920E-02 0. -1.
       -2    1    3    3    0  502  0.39769802254E+02  0.27898123478E+03  0.77743747897E+03  0.82693482224E+03  0.25500000920E-02 0.  1.
</event>
<event>
 5   0  0.3794375E-03  0.6067998E+03  0.7818609E-02  0.9891398E-01
       -3   -1    0    0    0  501  0.00000000000E+00  0.00000000000E+00  0.11168225647E+04  0.11168225693E+04  0.10100000352E+00 0. -1.
        3   -1    0    0  501    0  0.00000000000E+00  0.00000000000E+00 -0.82422633717E+02  0.82422695600E+02  0.10100000352E+00 0.  1.
    10030    2    1    2    0    0  0.00000000000E+00  0.00000000000E+00  0.10343999310E+04  0.11992452649E+04  0.60679979243E+03 0.  0.
        4    1    3    3  502    0 -0.15121359490E+02 -0.67948248811E+02  0.11008216900E+04  0.11030211359E+04  0.12699999809E+01 0. -1.
       -4    1    3    3    0  502  0.15121359490E+02  0.67948248811E+02 -0.66421759040E+02  0.96224129007E+02  0.12699999809E+01 0.  1.
</event>
<event>
 5   0  0.9866317E-03  0.5994499E+03  0.7818609E-02  0.9906548E-01
       -2   -1    0    0    0  501  0.00000000000E+00  0.00000000000E+00  0.13975855350E+03  0.13975855352E+03  0.25500000920E-02 0. -1.
        2   -1    0    0  501    0  0.00000000000E+00  0.00000000000E+00 -0.64278745287E+03  0.64278745288E+03  0.25500000920E-02 0.  1.
    10030    2    1    2    0    0  0.00000000000E+00  0.00000000000E+00 -0.50302889937E+03  0.78254600640E+03  0.59944989660E+03 0.  0.
        1    1    3    3  502    0  0.21965752036E+03  0.14921430271E+03 -0.70059619504E+02  0.27463190764E+03  0.50400001928E-02 0. -1.
       -1    1    3    3    0  502 -0.21965752036E+03 -0.14921430271E+03 -0.43296927987E+03  0.50791409876E+03  0.50400001928E-02 0.  1.
</event>
<event>
 5   0  0.9428629E-03  0.5993226E+03  0.7818609E-02  0.9906813E-01
        2   -1    0    0  501    0  0.00000000000E+00  0.00000000000E+00  0.11075229536E+04  0.11075229536E+04  0.25500000920E-02 0.  1.
       -2   -1    0    0    0  501  0.00000000000E+00  0.00000000000E+00 -0.81079025483E+02  0.81079025523E+02  0.25500000920E-02 0. -1.
    10030    2    1    2    0    0  0.00000000000E+00  0.00000000000E+00  0.10264439281E+04  0.11886019791E+04  0.59932255691E+03 0.  0.
        3    1    3    3  502    0  0.21352230652E+03 -0.59281541466E+01  0.93003308224E+03  0.95424758981E+03  0.10100000352E+00 0.  1.
       -3    1    3    3    0  502 -0.21352230652E+03  0.59281541466E+01  0.96410845897E+02  0.23435438934E+03  0.10100000352E+00 0. -1.
</event>
<event>
 5   0  0.9530666E-03  0.5997858E+03  0.7818609E-02  0.9905851E-01
        2   -1    0    0  501    0  0.00000000000E+00  0.00000000000E+00  0.30073404612E+03  0.30073404613E+03  0.25500000920E-02 0. -1.
       -2   -1    0    0    0  501  0.00000000000E+00  0.00000000000E+00 -0.29905408367E+03  0.29905408368E+03  0.25500000920E-02 0.  1.
    10030    2    1    2    0    0  0.00000000000E+00  0.00000000000E+00  0.16799624476E+01  0.59978812981E+03  0.59978577708E+03 0.  0.
        2    1    3    3  502    0  0.27078552863E+03  0.12650038612E+03 -0.23829821374E+02  0.29982496660E+03  0.25500000920E-02 0.  1.
       -2    1    3    3    0  502 -0.27078552863E+03 -0.12650038612E+03  0.25509783822E+02  0.29996316321E+03  0.25500000920E-02 0. -1.
</event>
<event>
 5   0  0.5574736E-03  0.5997327E+03  0.7818609E-02  0.9905961E-01
       -1   -1    0    0    0  501  0.00000000000E+00  0.00000000000E+00  0.55256140159E+03  0.55256140161E+03  0.50400001928E-02 0.  1.
        1   -1    0    0  501    0  0.00000000000E+00  0.00000000000E+00 -0.16273275076E+03  0.16273275084E+03  0.50400001928E-02 0. -1.
    10030    2    1    2    0    0  0.00000000000E+00  0.00000000000E+00  0.38982865083E+03  0.71529415245E+03  0.59973273007E+03 0.  0.
        5    1    3    3  502    0 -0.27709356024E+03 -0.30040655200E+02  0.32672911624E+03  0.42948490950E+03  0.46999998093E+01 0.  1.
       -5    1    3    3    0  502  0.27709356024E+03  0.30040655200E+02  0.63099534589E+02  0.28580924295E+03  0.46999998093E+01 0. -1.
</event>
<event>
 5   0  0.9681801E-03  0.6081952E+03  0.7818609E-02  0.9888548E-01
       -2   -1    0    0    0  501  0.00000000000E+00  0.00000000000E+00  0.59861523823E+02  0.59861523877E+02  0.25500000920E-02 0. -1.
        2   -1    0    0  501    0  0.00000000000E+00  0.00000000000E+00 -0.15448213164E+04  0.15448213164E+04  0.25500000920E-02 0.  1.
    10030    2    1    2    0    0  0.00000000000E+00  0.00000000000E+00 -0.14849597926E+04  0.16046828403E+04  0.60819522550E+03 0.  0.
        4    1    3    3  502    0 -0.62834515285E+02 -0.41004751710E+02  0.35049037963E+02  0.82822786334E+02  0.12699999809E+01 0. -1.
       -4    1    3    3    0  502  0.62834515285E+02  0.41004751710E+02 -0.15200088306E+04  0.15218600540E+04  0.12699999809E+01 0.  1.
</event>
<event>
 5   0  0.5491236E-03  0.6005628E+03  0.7818609E-02  0.9904239E-01
       -1   -1    0    0    0  501  0.00000000000E+00  0.00000000000E+00  0.34958939364E+03  0.34958939368E+03  0.50400001928E-02 0. -1.
        1   -1    0    0  501    0  0.00000000000E+00  0.00000000000E+00 -0.25792806944E+03  0.25792806949E+03  0.50400001928E-02 0.  1.
    10030    2    1    2    0    0  0.00000000000E+00  0.00000000000E+00  0.91661324208E+02  0.60751746317E+03  0.60056279413E+03 0.  0.
        3    1    3    3  502    0 -0.22810972173E+03 -0.88769884458E+02 -0.13012257797E+03  0.27721117046E+03  0.10100000352E+00 0.  1.
       -3    1    3    3    0  502  0.22810972173E+03  0.88769884458E+02  0.22178390218E+03  0.33030629270E+03  0.10100000352E+00 0. -1.
</event>
<event>
 5   0  0.5785798E-03  0.6006302E+03  0.7818609E-02  0.9904100E-01
       -1   -1    0    0    0  501  0.00000000000E+00  0.00000000000E+00  0.24454732114E+03  0.24454732119E+03  0.50400001928E-02 0. -1.
        1   -1    0    0  501    0  0.00000000000E+00  0.00000000000E+00 -0.36880040458E+03  0.36880040462E+03  0.50400001928E-02 0.  1.
    10030    2    1    2    0    0  0.00000000000E+00  0.00000000000E+00 -0.12425308344E+03  0.61334772581E+03  0.60063017241E+03 0.  0.
        1    1    3    3  502    0 -0.27028721342E+03 -0.12799297883E+03 -0.90125526551E+02  0.31234594752E+03  0.50400001928E-02 0.  1.
       -1    1    3    3    0  502  0.27028721342E+03  0.12799297883E+03 -0.34127556890E+02  0.30100177829E+03  0.50400001928E-02 0. -1.
</event>
<event>
 5   0  0.9428629E-03  0.6014598E+03  0.7818609E-02  0.9902382E-01
       -2   -1    0    0    0  501  0.00000000000E+00  0.00000000000E+00  0.85418345537E+02  0.85418345575E+02  0.25500000920E-02 0. -1.
        2   -1    0    0  501    0  0.00000000000E+00  0.00000000000E+00 -0.10587711155E+04  0.10587711155E+04  0.25500000920E-02 0.  1.
    10030    2    1    2    0    0  0.00000000000E+00  0.00000000000E+00 -0.97335276992E+03  0.11441894610E+04  0.60145981415E+03 0.  0.
        3    1    3    3  502    0 -0.24555622891E+03 -0.15857513055E+03 -0.35223320366E+03  0.45772499773E+03  0.10100000352E+00 0.  1.
       -3    1    3    3    0  502  0.24555622891E+03  0.15857513055E+03 -0.62111956626E+03  0.68646446330E+03  0.10100000352E+00 0. -1.
</event>
<event>
 5   0  0.5574736E-03  0.5989279E+03  0.7818609E-02  0.9907633E-01
        1   -1    0    0  501    0  0.00000000000E+00  0.00000000000E+00  0.72525658648E+03  0.72525658650E+03  0.50400001928E-02 0.  1.
       -1   -1    0    0    0  501  0.00000000000E+00  0.00000000000E+00 -0.12365095744E+03  0.12365095754E+03  0.50400001928E-02 0. -1.
    10030    2    1    2    0    0  0.00000000000E+00  0.00000000000E+00  0.60160562904E+03  0.84890754404E+03  0.59892794678E+03 0.  0.
        5    1    3    3  502    0 -0.21421292777E+03  0.30114042084E+02  0.73591050793E+01  0.21649545118E+03  0.46999998093E+01 0. -1.
       -5    1    3    3    0  502  0.21421292777E+03 -0.30114042084E+02  0.59424652396E+03  0.63241209286E+03  0.46999998093E+01 0.  1.
</event>
<event>
 5   0  0.5491236E-03  0.6002627E+03  0.7818609E-02  0.9904861E-01
       -1   -1    0    0    0  501  0.00000000000E+00  0.00000000000E+00  0.95822328609E+02  0.95822328742E+02  0.50400001928E-02 0.  1.
        1   -1    0    0  501    0  0.00000000000E+00  0.00000000000E+00 -0.94006085295E+03  0.94006085296E+03  0.50400001928E-02 0. -1.
    10030    2    1    2    0    0  0.00000000000E+00  0.00000000000E+00 -0.84423852434E+03  0.10358831817E+04  0.60026267596E+03 0.  0.
        3    1    3    3  502    0  0.64825621920E+02 -0.28343324401E+03 -0.29364845376E+03  0.41323865945E+03  0.10100000352E+00 0.  1.
       -3    1    3    3    0  502 -0.64825621920E+02  0.28343324401E+03 -0.55059007058E+03  0.62264452225E+03  0.10100000352E+00 0. -1.
</event>
<event>
 5   0  0.5503975E-03  0.6002276E+03  0.7818609E-02  0.9904934E-01
       -1   -1    0    0    0  501  0.00000000000E+00  0.00000000000E+00  0.74643089360E+03  0.74643089362E+03  0.50400001928E-02 0.  1.
        1   -1    0    0  501    0  0.00000000000E+00  0.00000000000E+00 -0.12066528385E+03  0.12066528395E+03  0.50400001928E-02 0. -1.
    10030    2    1    2    0    0  0.00000000000E+00  0.00000000000E+00  0.62576560975E+03  0.86709617757E+03  0.60022760917E+03 0.  0.
        4    1    3    3  502    0  0.42350434102E+01  0.12627821707E+03  0.70613205829E+03  0.71734804687E+03  0.12699999809E+01 0.  1.
       -4    1    3    3    0  502 -0.42350434102E+01 -0.12627821707E+03 -0.80366448535E+02  0.14974813070E+03  0.12699999809E+01 0. -1.
</event>
<event>
 5   0  0.5574736E-03  0.6007737E+03  0.7818609E-02  0.9903802E-01
       -1   -1    0    0    0  501  0.00000000000E+00  0.00000000000E+00  0.10953109880E+04  0.10953109880E+04  0.50400001928E-02 0. -1.
        1   -1    0    0  501    0  0.00000000000E+00  0.00000000000E+00 -0.82380503260E+02  0.82380503414E+02  0.50400001928E-02 0.  1.
    10030    2    1    2    0    0  0.00000000000E+00  0.00000000000E+00  0.10129304847E+04  0.11776914914E+04  0.60077373616E+03 0.  0.
        5    1    3    3  502    0  0.23022650428E+03 -0.12728819222E+03  0.22236734464E+03  0.34449361839E+03  0.46999998093E+01 0.  1.
       -5    1    3    3    0  502 -0.23022650428E+03  0.12728819222E+03  0.79056314011E+03  0.83319787305E+03  0.46999998093E+01 0. -1.
</event>
<event>
 5   0  0.5503975E-03  0.5975328E+03  0.7818609E-02  0.9910538E-01
       -1   -1    0    0    0  501  0.00000000000E+00  0.00000000000E+00  0.34678911578E+03  0.34678911582E+03  0.50400001928E-02 0.  1.
        1   -1    0    0  501    0  0.00000000000E+00  0.00000000000E+00 -0.25739376897E+03  0.25739376902E+03  0.50400001928E-02 0. -1.
    10030    2    1    2    0    0  0.00000000000E+00  0.00000000000E+00  0.89395346808E+02  0.60418288484E+03  0.59753278596E+03 0.  0.
        4    1    3    3  502    0 -0.15918211171E+03  0.56974269005E+02  0.29376147616E+03  0.33894310701E+03  0.12699999809E+01 0.  1.
       -4    1    3    3    0  502  0.15918211171E+03 -0.56974269005E+02 -0.20436612935E+03  0.26523977783E+03  0.12699999809E+01 0. -1.
</event>
<event>
 5   0  0.9428629E-03  0.5998659E+03  0.7818609E-02  0.9905684E-01
       -2   -1    0    0    0  501  0.00000000000E+00  0.00000000000E+00  0.58892743012E+03  0.58892743013E+03  0.25500000920E-02 0. -1.
        2   -1    0    0  501    0  0.00000000000E+00  0.00000000000E+00 -0.15275190578E+03  0.15275190580E+03  0.25500000920E-02 0.  1.
    10030    2    1    2    0    0  0.00000000000E+00  0.00000000000E+00  0.43617552434E+03  0.74167933593E+03  0.59986594279E+03 0.  0.
        3    1    3    3  502    0  0.11830850461E+03 -0.22860928358E+03  0.27742404978E+02  0.25889912715E+03  0.10100000352E+00 0.  1.
       -3    1    3    3    0  502 -0.11830850461E+03  0.22860928358E+03  0.40843311936E+03  0.48278020879E+03  0.10100000352E+00 0. -1.
</event>
<event>
 5   0  0.5503975E-03  0.5996040E+03  0.7818609E-02  0.9906228E-01
       -1   -1    0    0    0  501  0.00000000000E+00  0.00000000000E+00  0.23965325596E+03  0.23965325601E+03  0.50400001928E-02 0.  1.
        1   -1    0    0  501    0  0.00000000000E+00  0.00000000000E+00 -0.37504699061E+03  0.37504699064E+03  0.50400001928E-02 0. -1.
    10030    2    1    2    0    0  0.00000000000E+00  0.00000000000E+00 -0.13539373465E+03  0.61470024665E+03  0.59960397751E+03 0.  0.
        4    1    3    3  502    0  0.15588488066E+03  0.47852730640E+01 -0.33018348989E+03  0.36516536631E+03  0.12699999809E+01 0. -1.
       -4    1    3    3    0  502 -0.15588488066E+03 -0.47852730640E+01  0.19478975524E+03  0.24953488034E+03  0.12699999809E+01 0.  1.
</event>
<event>
 5   0  0.9428629E-03  0.5992859E+03  0.7818609E-02  0.9906889E-01
       -2   -1    0    0    0  501  0.00000000000E+00  0.00000000000E+00  0.58119915443E+02  0.58119915499E+02  0.25500000920E-02 0.  1.
        2   -1    0    0  501    0  0.00000000000E+00  0.00000000000E+00 -0.15448389731E+04  0.15448389731E+04  0.25500000920E-02 0. -1.
    10030    2    1    2    0    0  0.00000000000E+00  0.00000000000E+00 -0.14867190577E+04  0.16029588886E+04  0.59928594356E+03 0.  0.
        3    1    3    3  502    0  0.13480355876E+03  0.72420505877E+02 -0.14324424561E+04  0.14405929784E+04  0.10100000352E+00 0. -1.
       -3    1    3    3    0  502 -0.13480355876E+03 -0.72420505877E+02 -0.54276601573E+02  0.16236591023E+03  0.10100000352E+00 0.  1.
</event>
<event>
 5   0  0.9681801E-03  0.6006584E+03  0.7818609E-02  0.9904041E-01
       -2   -1    0    0    0  501  0.00000000000E+00  0.00000000000E+00  0.12527622017E+03  0.12527622020E+03  0.25500000920E-02 0.  1.
        2   -1    0    0  501    0  0.00000000000E+00  0.00000000000E+00 -0.71998996928E+03  0.71998996928E+03  0.25500000920E-02 0. -1.
    10030    2    1    2    0    0  0.00000000000E+00  0.00000000000E+00 -0.59471374911E+03  0.84526618948E+03  0.60065837853E+03 0.  0.
        4    1    3    3  502    0  0.17479827914E+03 -0.10209880291E+03  0.14837673381E+02  0.20297875110E+03  0.12699999809E+01 0.  1.
       -4    1    3    3    0  502 -0.17479827914E+03  0.10209880291E+03 -0.60955142249E+03  0.64228743838E+03  0.12699999809E+01 0. -1.
</event>
<event>
 5   0  0.5503975E-03  0.6000823E+03  0.7818609E-02  0.9905235E-01
       -1   -1    0    0    0  501  0.00000000000E+00  0.00000000000E+00  0.69671245124E+02  0.69671245307E+02  0.50400001928E-02 0.  1.
        1   -1    0    0  501    0  0.00000000000E+00  0.00000000000E+00 -0.12921355863E+04  0.12921355863E+04  0.50400001928E-02 0. -1.
    10030    2    1    2    0    0  0.00000000000E+00  0.00000000000E+00 -0.12224643412E+04  0.13618068316E+04  0.60008231201E+03 0.  0.
        4    1    3    3  502    0  0.24226268909E+03  0.15902085166E+03 -0.43480090273E+03  0.52252490822E+03  0.12699999809E+01 0. -1.
       -4    1    3    3    0  502 -0.24226268909E+03 -0.15902085166E+03 -0.78766343844E+03  0.83928192340E+03  0.12699999809E+01 0.  1.
</event>
<event>
 5   0  0.5785798E-03  0.5992117E+03  0.7818609E-02  0.9907043E-01
        1   -1    0    0  501    0  0.00000000000E+00  0.00000000000E+00  0.14213993533E+04  0.14213993533E+04  0.50400001928E-02 0. -1.
       -1   -1    0    0    0  501  0.00000000000E+00  0.00000000000E+00 -0.63151608320E+02  0.63151608521E+02  0.50400001928E-02 0.  1.
    10030    2    1    2    0    0  0.00000000000E+00  0.00000000000E+00  0.13582477450E+04  0.14845509619E+04  0.59921166672E+03 0.  0.
        1    1    3    3  502    0  0.24297546818E+03 -0.21726259442E+02  0.24819045198E+03  0.34800518526E+03  0.50400001928E-02 0.  1.
       -1    1    3    3    0  502 -0.24297546818E+03  0.21726259442E+02  0.11100572930E+04  0.11365457766E+04  0.50400001928E-02 0. -1.
</event>
<event>
 5   0  0.9530666E-03  0.5858364E+03  0.7818609E-02  0.9935235E-01
        2   -1    0    0  501    0  0.00000000000E+00  0.00000000000E+00  0.56525110740E+03  0.56525110741E+03  0.25500000920E-02 0.  1.
       -2   -1    0    0    0  501  0.00000000000E+00  0.00000000000E+00 -0.15179284631E+03  0.15179284633E+03  0.25500000920E-02 0. -1.
    10030    2    1    2    0    0  0.00000000000E+00  0.00000000000E+00  0.41345826109E+03  0.71704395374E+03  0.58583640885E+03 0.  0.
        2    1    3    3  502    0  0.48619659576E+02 -0.21475803040E+03  0.44316756555E+03  0.49485591244E+03  0.25500000920E-02 0.  1.
       -2    1    3    3    0  502 -0.48619659576E+02  0.21475803040E+03 -0.29709304462E+02  0.22218804130E+03  0.25500000920E-02 0. -1.
</event>
<event>
 5   0  0.9428629E-03  0.6001303E+03  0.7818609E-02  0.9905136E-01
       -2   -1    0    0    0  501  0.00000000000E+00  0.00000000000E+00  0.17525427702E+03  0.17525427704E+03  0.25500000920E-02 0. -1.
        2   -1    0    0  501    0  0.00000000000E+00  0.00000000000E+00 -0.51376264089E+03  0.51376264089E+03  0.25500000920E-02 0.  1.
    10030    2    1    2    0    0  0.00000000000E+00  0.00000000000E+00 -0.33850836386E+03  0.68901691794E+03  0.60013031985E+03 0.  0.
        3    1    3    3  502    0  0.64213611831E+02  0.27414903082E+03 -0.50171033648E+02  0.28600388435E+03  0.10100000352E+00 0. -1.
       -3    1    3    3    0  502 -0.64213611831E+02 -0.27414903082E+03 -0.28833733022E+03  0.40301303359E+03  0.10100000352E+00 0.  1.
</event>
<event>
 5   0  0.5503975E-03  0.5996441E+03  0.7818609E-02  0.9906145E-01
       -1   -1    0    0    0  501  0.00000000000E+00  0.00000000000E+00  0.96084152893E+02  0.96084153026E+02  0.50400001928E-02 0.  1.
        1   -1    0    0  501    0  0.00000000000E+00  0.00000000000E+00 -0.93556795920E+03  0.93556795921E+03  0.50400001928E-02 0. -1.
    10030    2    1    2    0    0  0.00000000000E+00  0.00000000000E+00 -0.83948380630E+03  0.10316521122E+04  0.59964407746E+03 0.  0.
        4    1    3    3  502    0 -0.10612892526E+02 -0.80453850195E+02 -0.91630946989E+03  0.91989679476E+03  0.12699999809E+01 0. -1.
       -4    1    3    3    0  502  0.10612892526E+02  0.80453850195E+02  0.76825663586E+02  0.11175531748E+03  0.12699999809E+01 0.  1.
</event>
<event>
 5   0  0.5653633E-03  0.5984788E+03  0.7818609E-02  0.9908567E-01
       -1   -1    0    0    0  501  0.00000000000E+00  0.00000000000E+00  0.16381286238E+03  0.16381286246E+03  0.50400001928E-02 0.  1.
        1   -1    0    0  501    0  0.00000000000E+00  0.00000000000E+00 -0.54662507223E+03  0.54662507225E+03  0.50400001928E-02 0. -1.
    10030    2    1    2    0    0  0.00000000000E+00  0.00000000000E+00 -0.38281220984E+03  0.71043793471E+03  0.59847879751E+03 0.  0.
        2    1    3    3  502    0  0.23896820050E+02  0.26355961581E+03 -0.35721213361E+03  0.44456184890E+03  0.25500000920E-02 0.  1.
       -2    1    3    3    0  502 -0.23896820050E+02 -0.26355961581E+03 -0.25600076228E+02  0.26587608581E+03  0.25500000920E-02 0. -1.
</event>
<event>
 5   0  0.5785798E-03  0.5991333E+03  0.7818609E-02  0.9907206E-01
       -1   -1    0    0    0  501  0.00000000000E+00  0.00000000000E+00  0.31586270288E+03  0.31586270292E+03  0.50400001928E-02 0. -1.
        1   -1    0    0  501    0  0.00000000000E+00  0.00000000000E+00 -0.28411132623E+03  0.28411132627E+03  0.50400001928E-02 0.  1.
    10030    2    1    2    0    0  0.00000000000E+00  0.00000000000E+00  0.31751376657E+02  0.59997402919E+03  0.59913327882E+03 0.  0.
        1    1    3    3  502    0  0.10384616292E+03  0.26897011612E+03  0.97299212458E+02  0.30429604942E+03  0.50400001928E-02 0. -1.
       -1    1    3    3    0  502 -0.10384616292E+03 -0.26897011612E+03 -0.65547835801E+02  0.29567797978E+03  0.50400001928E-02 0.  1.
</event>
<event>
 5   0  0.9530666E-03  0.6000482E+03  0.7818609E-02  0.9905306E-01
        2   -1    0    0  501    0  0.00000000000E+00  0.00000000000E+00  0.13683083085E+04  0.13683083085E+04  0.25500000920E-02 0. -1.
       -2   -1    0    0    0  501  0.00000000000E+00  0.00000000000E+00 -0.65785207460E+02  0.65785207510E+02  0.25500000920E-02 0.  1.
    10030    2    1    2    0    0  0.00000000000E+00  0.00000000000E+00  0.13025231011E+04  0.14340935161E+04  0.60004815135E+03 0.  0.
        2    1    3    3  502    0  0.18578505466E+03 -0.10408862828E+03  0.14617038364E+03  0.25829500601E+03  0.25500000920E-02 0.  1.
       -2    1    3    3    0  502 -0.18578505466E+03  0.10408862828E+03  0.11563527174E+04  0.11757985100E+04  0.25500000920E-02 0. -1.
</event>
<event>
 5   0  0.3794375E-03  0.5999649E+03  0.7818609E-02  0.9905479E-01
       -3   -1    0    0    0  501  0.00000000000E+00  0.00000000000E+00  0.74960696750E+03  0.74960697430E+03  0.10100000352E+00 0. -1.
        3   -1    0    0  501    0  0.00000000000E+00  0.00000000000E+00 -0.12004885281E+03  0.12004889529E+03  0.10100000352E+00 0.  1.
    10030    2    1    2    0    0  0.00000000000E+00  0.00000000000E+00  0.62955811469E+03  0.86965586959E+03  0.59996492543E+03 0.  0.
        1    1    3    3  502    0  0.59978343860E+01 -0.22644018677E+03  0.59985168319E+03  0.64119667346E+03  0.50400001928E-02 0. -1.
       -1    1    3    3    0  502 -0.59978343860E+01  0.22644018677E+03  0.29706431498E+02  0.22845919614E+03  0.50400001928E-02 0.  1.
</event>
<event>
 5   0  0.5491236E-03  0.6036164E+03  0.7818609E-02  0.9897931E-01
       -1   -1    0    0    0  501  0.00000000000E+00  0.00000000000E+00  0.35875604291E+03  0.35875604295E+03  0.50400001928E-02 0. -1.
        1   -1    0    0  501    0  0.00000000000E+00  0.00000000000E+00 -0.25390008122E+03  0.25390008127E+03  0.50400001928E-02 0.  1.
    10030    2    1    2    0    0  0.00000000000E+00  0.00000000000E+00  0.10485596169E+03  0.61265612421E+03  0.60361639626E+03 0.  0.
        3    1    3    3  502    0 -0.25095414063E+03 -0.67936217845E+02  0.20800385661E+03  0.33295483922E+03  0.10100000352E+00 0. -1.
       -3    1    3    3    0  502  0.25095414063E+03  0.67936217845E+02 -0.10314789492E+03  0.27970128499E+03  0.10100000352E+00 0.  1.
</event>
<event>
 5   0  0.5491236E-03  0.5987315E+03  0.7818609E-02  0.9908041E-01
        1   -1    0    0  501    0  0.00000000000E+00  0.00000000000E+00  0.11329682329E+04  0.11329682329E+04  0.50400001928E-02 0. -1.
       -1   -1    0    0    0  501  0.00000000000E+00  0.00000000000E+00 -0.79101831603E+02  0.79101831764E+02  0.50400001928E-02 0.  1.
    10030    2    1    2    0    0  0.00000000000E+00  0.00000000000E+00  0.10538664013E+04  0.12120700647E+04  0.59873153409E+03 0.  0.
        3    1    3    3  502    0  0.23716852747E+03 -0.12858210451E+02  0.15803943710E+03  0.28529058498E+03  0.10100000352E+00 0.  1.
       -3    1    3    3    0  502 -0.23716852747E+03  0.12858210451E+02  0.89582696423E+03  0.92677947972E+03  0.10100000352E+00 0. -1.
</event>
<event>
 5   0  0.9428629E-03  0.5997083E+03  0.7818609E-02  0.9906011E-01
       -2   -1    0    0    0  501  0.00000000000E+00  0.00000000000E+00  0.87375687359E+02  0.87375687396E+02  0.25500000920E-02 0.  1.
        2   -1    0    0  501    0  0.00000000000E+00  0.00000000000E+00 -0.10290334408E+04  0.10290334408E+04  0.25500000920E-02 0. -1.
    10030    2    1    2    0    0  0.00000000000E+00  0.00000000000E+00 -0.94165775344E+03  0.11164091282E+04  0.59970827651E+03 0.  0.
        3    1    3    3  502    0 -0.18762738078E+03 -0.11709007107E+03 -0.93893708327E+02  0.24027100829E+03  0.10100000352E+00 0.  1.
       -3    1    3    3    0  502  0.18762738078E+03  0.11709007107E+03 -0.84776404511E+03  0.87613811990E+03  0.10100000352E+00 0. -1.
</event>
<event>
 5   0  0.9428629E-03  0.5992334E+03  0.7818609E-02  0.9906998E-01
        2   -1    0    0  501    0  0.00000000000E+00  0.00000000000E+00  0.80990317646E+03  0.80990317646E+03  0.25500000920E-02 0.  1.
       -2   -1    0    0    0  501  0.00000000000E+00  0.00000000000E+00 -0.11084062031E+03  0.11084062034E+03  0.25500000920E-02 0. -1.
    10030    2    1    2    0    0  0.00000000000E+00  0.00000000000E+00  0.69906255614E+03  0.92074379681E+03  0.59923341191E+03 0.  0.
        3    1    3    3  502    0 -0.14056614272E+03  0.12536935234E+03  0.70756017590E+03  0.73220060619E+03  0.10100000352E+00 0.  1.
       -3    1    3    3    0  502  0.14056614272E+03 -0.12536935234E+03 -0.84976197582E+01  0.18854319061E+03  0.10100000352E+00 0. -1.
</event>
<event>
 5   0  0.5785798E-03  0.5982752E+03  0.7818609E-02  0.9908991E-01
       -1   -1    0    0    0  501  0.00000000000E+00  0.00000000000E+00  0.59853523899E+03  0.59853523901E+03  0.50400001928E-02 0. -1.
        1   -1    0    0  501    0  0.00000000000E+00  0.00000000000E+00 -0.14950380841E+03  0.14950380850E+03  0.50400001928E-02 0.  1.
    10030    2    1    2    0    0  0.00000000000E+00  0.00000000000E+00  0.44903143058E+03  0.74803904751E+03  0.59827517996E+03 0.  0.
        1    1    3    3  502    0 -0.10763271717E+03  0.10900979635E+03 -0.96736241090E+02  0.18117902161E+03  0.50400001928E-02 0.  1.
       -1    1    3    3    0  502  0.10763271717E+03 -0.10900979635E+03  0.54576767167E+03  0.56686002591E+03  0.50400001928E-02 0. -1.
</event>
<event>
 5   0  0.3794375E-03  0.6001816E+03  0.7818609E-02  0.9905029E-01
        3   -1    0    0  501    0  0.00000000000E+00  0.00000000000E+00  0.39619537979E+03  0.39619539267E+03  0.10100000352E+00 0. -1.
       -3   -1    0    0    0  501  0.00000000000E+00  0.00000000000E+00 -0.22729815964E+03  0.22729818208E+03  0.10100000352E+00 0.  1.
    10030    2    1    2    0    0  0.00000000000E+00  0.00000000000E+00  0.16889722015E+03  0.62349357475E+03  0.60018161150E+03 0.  0.
        3    1    3    3  502    0  0.16064780638E+03  0.29671930972E+02 -0.17705555459E+03  0.24090832446E+03  0.10100000352E+00 0.  1.
       -3    1    3    3    0  502 -0.16064780638E+03 -0.29671930972E+02  0.34595277475E+03  0.38258525029E+03  0.10100000352E+00 0. -1.
</event>
<event>
 5   0  0.9866317E-03  0.5992493E+03  0.7818609E-02  0.9906965E-01
        2   -1    0    0  501    0  0.00000000000E+00  0.00000000000E+00  0.87847717987E+03  0.87847717987E+03  0.25500000920E-02 0. -1.
       -2   -1    0    0    0  501  0.00000000000E+00  0.00000000000E+00 -0.10219379885E+03  0.10219379888E+03  0.25500000920E-02 0.  1.
    10030    2    1    2    0    0  0.00000000000E+00  0.00000000000E+00  0.77628338102E+03  0.98067097876E+03  0.59924926444E+03 0.  0.
        1    1    3    3  502    0 -0.72493939082E+02  0.14873352344E+03 -0.20648775868E+02  0.16674352812E+03  0.50400001928E-02 0.  1.
       -1    1    3    3    0  502  0.72493939082E+02 -0.14873352344E+03  0.79693215689E+03  0.81392745064E+03  0.50400001928E-02 0. -1.
</event>
<event>
 5   0  0.5653633E-03  0.6006736E+03  0.7818609E-02  0.9904010E-01
        1   -1    0    0  501    0  0.00000000000E+00  0.00000000000E+00  0.52922528395E+03  0.52922528397E+03  0.50400001928E-02 0.  1.
       -1   -1    0    0    0  501  0.00000000000E+00  0.00000000000E+00 -0.17044195283E+03  0.17044195290E+03  0.50400001928E-02 0. -1.
    10030    2    1    2    0    0  0.00000000000E+00  0.00000000000E+00  0.35878333112E+03  0.69966723687E+03  0.60067359162E+03 0.  0.
        2    1    3    3  502    0  0.47699444539E+02 -0.16119457202E+03 -0.11050955345E+03  0.20117477096E+03  0.25500000920E-02 0. -1.
       -2    1    3    3    0  502 -0.47699444539E+02  0.16119457202E+03  0.46929288457E+03  0.49849246592E+03  0.25500000920E-02 0.  1.
</event>
<event>
 5   0  0.5785798E-03  0.5983155E+03  0.7818609E-02  0.9908907E-01
       -1   -1    0    0    0  501  0.00000000000E+00  0.00000000000E+00  0.20126440285E+03  0.20126440291E+03  0.50400001928E-02 0.  1.
        1   -1    0    0  501    0  0.00000000000E+00  0.00000000000E+00 -0.44466559756E+03  0.44466559758E+03  0.50400001928E-02 0. -1.
    10030    2    1    2    0    0  0.00000000000E+00  0.00000000000E+00 -0.24340119470E+03  0.64593000050E+03  0.59831548865E+03 0.  0.
        1    1    3    3  502    0 -0.18852568094E+03  0.23040917371E+03 -0.15345269098E+03  0.33492991521E+03  0.50400001928E-02 0. -1.
       -1    1    3    3    0  502  0.18852568094E+03 -0.23040917371E+03 -0.89948503719E+02  0.31100008529E+03  0.50400001928E-02 0.  1.
</event>
<event>
 5   0  0.3794375E-03  0.5990053E+03  0.7818609E-02  0.9907472E-01
       -4   -1    0    0    0  501  0.00000000000E+00  0.00000000000E+00  0.29946516428E+03  0.29946785723E+03  0.12699999809E+01 0. -1.
        4   -1    0    0  501    0  0.00000000000E+00  0.00000000000E+00 -0.29953479988E+03  0.29953749221E+03  0.12699999809E+01 0.  1.
    10030    2    1    2    0    0  0.00000000000E+00  0.00000000000E+00 -0.69635607839E-01  0.59900534945E+03  0.59900534540E+03 0.  0.
        4    1    3    3  502    0 -0.29614618583E+01  0.23325317014E+03  0.18780667626E+03  0.29948083776E+03  0.12699999809E+01 0. -1.
       -4    1    3    3    0  502  0.29614618583E+01 -0.23325317014E+03 -0.18787631187E+03  0.29952451168E+03  0.12699999809E+01 0.  1.
</event>
<event>
 5   0  0.9428629E-03  0.5992810E+03  0.7818609E-02  0.9906899E-01
        2   -1    0    0  501    0  0.00000000000E+00  0.00000000000E+00  0.49377517741E+03  0.49377517742E+03  0.25500000920E-02 0.  1.
       -2   -1    0    0    0  501  0.00000000000E+00  0.00000000000E+00 -0.18183260282E+03  0.18183260283E+03  0.25500000920E-02 0. -1.
    10030    2    1    2    0    0  0.00000000000E+00  0.00000000000E+00  0.31194257459E+03  0.67560778025E+03  0.59928098826E+03 0.  0.
        3    1    3    3  502    0  0.28850219240E+02 -0.55532370916E+02  0.48632592875E+03  0.49033569985E+03  0.10100000352E+00 0.  1.
       -3    1    3    3    0  502 -0.28850219240E+02  0.55532370916E+02 -0.17438335416E+03  0.18527208040E+03  0.10100000352E+00 0. -1.
</event>
<event>
 5   0  0.5653633E-03  0.5997461E+03  0.7818609E-02  0.9905933E-01
       -1   -1    0    0    0  501  0.00000000000E+00  0.00000000000E+00  0.27831624391E+03  0.27831624395E+03  0.50400001928E-02 0. -1.
        1   -1    0    0  501    0  0.00000000000E+00  0.00000000000E+00 -0.32309956993E+03  0.32309956997E+03  0.50400001928E-02 0.  1.
    10030    2    1    2    0    0  0.00000000000E+00  0.00000000000E+00 -0.44783326017E+02  0.60141581392E+03  0.59974614208E+03 0.  0.
        2    1    3    3  502    0 -0.44683836441E+02 -0.11626124515E+02  0.27473044487E+03  0.27858325391E+03  0.25500000920E-02 0. -1.
       -2    1    3    3    0  502  0.44683836441E+02  0.11626124515E+02 -0.31951377089E+03  0.32283256001E+03  0.25500000920E-02 0.  1.
</event>
<event>
 5   0  0.5653633E-03  0.5999316E+03  0.7818609E-02  0.9905548E-01
        1   -1    0    0  501    0  0.00000000000E+00  0.00000000000E+00  0.42970665955E+03  0.42970665958E+03  0.50400001928E-02 0.  1.
       -1   -1    0    0    0  501  0.00000000000E+00  0.00000000000E+00 -0.20939746596E+03  0.20939746602E+03  0.50400001928E-02 0. -1.
    10030    2    1    2    0    0  0.00000000000E+00  0.00000000000E+00  0.22030919359E+03  0.63910412560E+03  0.59993161492E+03 0.  0.
        2    1    3    3  502    0  0.73840970472E+02 -0.16893838383E+03  0.36221972606E+03  0.40644285748E+03  0.25500000920E-02 0.  1.
       -2    1    3    3    0  502 -0.73840970472E+02  0.16893838383E+03 -0.14191053247E+03  0.23266126812E+03  0.25500000920E-02 0. -1.
</event>
<event>
 5   0  0.9530666E-03  0.6010236E+03  0.7818609E-02  0.9903285E-01
        2   -1    0    0  501    0  0.00000000000E+00  0.00000000000E+00  0.53260643853E+03  0.53260643854E+03  0.25500000920E-02 0. -1.
       -2   -1    0    0    0  501  0.00000000000E+00  0.00000000000E+00 -0.16955735577E+03  0.16955735579E+03  0.25500000920E-02 0.  1.
    10030    2    1    2    0    0  0.00000000000E+00  0.00000000000E+00  0.36304908276E+03  0.70216379433E+03  0.60102359153E+03 0.  0.
        2    1    3    3  502    0 -0.17725334693E+03 -0.11974276156E+03 -0.65063517173E+02  0.22358519454E+03  0.25500000920E-02 0.  1.
       -2    1    3    3    0  502  0.17725334693E+03  0.11974276156E+03  0.42811259993E+03  0.47857859979E+03  0.25500000920E-02 0. -1.
</event>
<event>
 5   0  0.3794375E-03  0.5996399E+03  0.7818609E-02  0.9906153E-01
        3   -1    0    0  501    0  0.00000000000E+00  0.00000000000E+00  0.11106664145E+04  0.11106664191E+04  0.10100000352E+00 0.  1.
       -3   -1    0    0    0  501  0.00000000000E+00  0.00000000000E+00 -0.80935166696E+02  0.80935229716E+02  0.10100000352E+00 0. -1.
    10030    2    1    2    0    0  0.00000000000E+00  0.00000000000E+00  0.10297312478E+04  0.11916016488E+04  0.59963993092E+03 0.  0.
        2    1    3    3  502    0 -0.30033082053E+02  0.29061080238E+03  0.38103739356E+03  0.48015218398E+03  0.25500000920E-02 0.  1.
       -2    1    3    3    0  502  0.30033082053E+02 -0.29061080238E+03  0.64869385428E+03  0.71144946487E+03  0.25500000920E-02 0. -1.
</event>
<event>
 5   0  0.5491236E-03  0.6005342E+03  0.7818609E-02  0.9904298E-01
       -1   -1    0    0    0  501  0.00000000000E+00  0.00000000000E+00  0.23440341728E+03  0.23440341733E+03  0.50400001928E-02 0.  1.
        1   -1    0    0  501    0  0.00000000000E+00  0.00000000000E+00 -0.38463745664E+03  0.38463745667E+03  0.50400001928E-02 0. -1.
    10030    2    1    2    0    0  0.00000000000E+00  0.00000000000E+00 -0.15023403936E+03  0.61904087400E+03  0.60053420977E+03 0.  0.
        3    1    3    3  502    0 -0.58190523060E+02 -0.12126428664E+03  0.20161301851E+03  0.24236126675E+03  0.10100000352E+00 0.  1.
       -3    1    3    3    0  502  0.58190523060E+02  0.12126428664E+03 -0.35184705787E+03  0.37667960725E+03  0.10100000352E+00 0. -1.
</event>
<event>
 5   0  0.9571790E-03  0.6022783E+03  0.7818609E-02  0.9900691E-01
       -2   -1    0    0    0  501  0.00000000000E+00  0.00000000000E+00  0.26008260735E+02  0.26008260860E+02  0.25500000920E-02 0. -1.
        2   -1    0    0  501    0  0.00000000000E+00  0.00000000000E+00 -0.34867684698E+04  0.34867684698E+04  0.25500000920E-02 0.  1.
    10030    2    1    2    0    0  0.00000000000E+00  0.00000000000E+00 -0.34607602090E+04  0.35127767306E+04  0.60227828686E+03 0.  0.
        5    1    3    3  502    0  0.16925081347E+03 -0.23891767558E+03 -0.21401176162E+04  0.21600585628E+04  0.46999998093E+01 0.  1.
       -5    1    3    3    0  502 -0.16925081347E+03  0.23891767558E+03 -0.13206425928E+04  0.13527181678E+04  0.46999998093E+01 0. -1.
</event>
<event>
 5   0  0.5491236E-03  0.6004725E+03  0.7818609E-02  0.9904426E-01
       -1   -1    0    0    0  501  0.00000000000E+00  0.00000000000E+00  0.12552206312E+03  0.12552206322E+03  0.50400001928E-02 0. -1.
        1   -1    0    0  501    0  0.00000000000E+00  0.00000000000E+00 -0.71813522958E+03  0.71813522959E+03  0.50400001928E-02 0.  1.
    10030    2    1    2    0    0  0.00000000000E+00  0.00000000000E+00 -0.59261316646E+03  0.84365729281E+03  0.60047253280E+03 0.  0.
        3    1    3    3  502    0 -0.11445499074E+03  0.36023494039E+02  0.90369685888E+02  0.15021427148E+03  0.10100000352E+00 0. -1.
       -3    1    3    3    0  502  0.11445499074E+03 -0.36023494039E+02 -0.68298285235E+03  0.69344302133E+03  0.10100000352E+00 0.  1.
</event>
<event>
 5   0  0.9530666E-03  0.5966395E+03  0.7818609E-02  0.9912403E-01
       -2   -1    0    0    0  501  0.00000000000E+00  0.00000000000E+00  0.74798591660E+02  0.74798591703E+02  0.25500000920E-02 0.  1.
        2   -1    0    0  501    0  0.00000000000E+00  0.00000000000E+00 -0.11897908200E+04  0.11897908200E+04  0.25500000920E-02 0. -1.
    10030    2    1    2    0    0  0.00000000000E+00  0.00000000000E+00 -0.11149922283E+04  0.12645894117E+04  0.59663951507E+03 0.  0.
        2    1    3    3  502    0  0.20365692465E+01 -0.25783379525E+03 -0.87551075607E+03  0.91268915715E+03  0.25500000920E-02 0.  1.
       -2    1    3    3    0  502 -0.20365692465E+01  0.25783379525E+03 -0.23948147228E+03  0.35190025456E+03  0.25500000920E-02 0. -1.
</event>
<event>
 5   0  0.9530666E-03  0.5995029E+03  0.7818609E-02  0.9906438E-01
        2   -1    0    0  501    0  0.00000000000E+00  0.00000000000E+00  0.13687276208E+04  0.13687276208E+04  0.25500000920E-02 0. -1.
       -2   -1    0    0    0  501  0.00000000000E+00  0.00000000000E+00 -0.65645592141E+02  0.65645592190E+02  0.25500000920E-02 0.  1.
    10030    2    1    2    0    0  0.00000000000E+00  0.00000000000E+00  0.13030820286E+04  0.14343732129E+04  0.59950291136E+03 0.  0.
        2    1    3    3  502    0  0.21301420952E+03 -0.56106497778E+02  0.16514191441E+03  0.27530863491E+03  0.25500000920E-02 0.  1.
       -2    1    3    3    0  502 -0.21301420952E+03  0.56106497778E+02  0.11379401142E+04  0.11590645780E+04  0.25500000920E-02 0. -1.
</event>
<event>
 5   0  0.5785798E-03  0.5952666E+03  0.7818609E-02  0.9915275E-01
        1   -1    0    0  501    0  0.00000000000E+00  0.00000000000E+00  0.83802272183E+03  0.83802272185E+03  0.50400001928E-02 0.  1.
       -1   -1    0    0    0  501  0.00000000000E+00  0.00000000000E+00 -0.10570784817E+03  0.10570784829E+03  0.50400001928E-02 0. -1.
    10030    2    1    2    0    0  0.00000000000E+00  0.00000000000E+00  0.73231487366E+03  0.94373057014E+03  0.59526659140E+03 0.  0.
        1    1    3    3  502    0  0.83326286609E+02 -0.34293532691E+02 -0.83563833253E+02  0.12289113344E+03  0.50400001928E-02 0. -1.
       -1    1    3    3    0  502 -0.83326286609E+02  0.34293532691E+02  0.81587870692E+03  0.82083943670E+03  0.50400001928E-02 0.  1.
</event>
<event>
 5   0  0.9428629E-03  0.6011422E+03  0.7818609E-02  0.9903039E-01
        2   -1    0    0  501    0  0.00000000000E+00  0.00000000000E+00  0.23651847981E+03  0.23651847982E+03  0.25500000920E-02 0.  1.
       -2   -1    0    0    0  501  0.00000000000E+00  0.00000000000E+00 -0.38197013007E+03  0.38197013008E+03  0.25500000920E-02 0. -1.
    10030    2    1    2    0    0  0.00000000000E+00  0.00000000000E+00 -0.14545165026E+03  0.61848860991E+03  0.60114222778E+03 0.  0.
        3    1    3    3  502    0 -0.22741312124E+03 -0.15981724304E+03  0.44963329813E+02  0.28156702597E+03  0.10100000352E+00 0.  1.
       -3    1    3    3    0  502  0.22741312124E+03  0.15981724304E+03 -0.19041498008E+03  0.33692158394E+03  0.10100000352E+00 0. -1.
</event>
<event>
 5   0  0.9530666E-03  0.6008097E+03  0.7818609E-02  0.9903728E-01
        2   -1    0    0  501    0  0.00000000000E+00  0.00000000000E+00  0.31773716044E+03  0.31773716045E+03  0.25500000920E-02 0. -1.
       -2   -1    0    0    0  501  0.00000000000E+00  0.00000000000E+00 -0.28401799911E+03  0.28401799912E+03  0.25500000920E-02 0.  1.
    10030    2    1    2    0    0  0.00000000000E+00  0.00000000000E+00  0.33719161332E+02  0.60175515957E+03  0.60080969552E+03 0.  0.
        2    1    3    3  502    0  0.14441651061E+03  0.26035079928E+03 -0.23258480725E+02  0.29862957682E+03  0.25500000920E-02 0. -1.
       -2    1    3    3    0  502 -0.14441651061E+03 -0.26035079928E+03  0.56977642057E+02  0.30312558275E+03  0.25500000920E-02 0.  1.
</event>
<event>
 5   0  0.5491236E-03  0.5988492E+03  0.7818609E-02  0.9907796E-01
       -1   -1    0    0    0  501  0.00000000000E+00  0.00000000000E+00  0.20581761102E+03  0.20581761108E+03  0.50400001928E-02 0.  1.
        1   -1    0    0  501    0  0.00000000000E+00  0.00000000000E+00 -0.43560463570E+03  0.43560463573E+03  0.50400001928E-02 0. -1.
    10030    2    1    2    0    0  0.00000000000E+00  0.00000000000E+00 -0.22978702469E+03  0.64142224681E+03  0.59884924813E+03 0.  0.
        3    1    3    3  502    0  0.21141041021E+03  0.86855816415E+02  0.92292216100E+02  0.24648764217E+03  0.10100000352E+00 0.  1.
       -3    1    3    3    0  502 -0.21141041021E+03 -0.86855816415E+02 -0.32207924079E+03  0.39493460464E+03  0.10100000352E+00 0. -1.
</event>
<event>
 5   0  0.5491236E-03  0.6097711E+03  0.7818609E-02  0.9885339E-01
       -1   -1    0    0    0  501  0.00000000000E+00  0.00000000000E+00  0.52716993022E+03  0.52716993024E+03  0.50400001928E-02 0.  1.
        1   -1    0    0  501    0  0.00000000000E+00  0.00000000000E+00 -0.17632870391E+03  0.17632870399E+03  0.50400001928E-02 0. -1.
    10030    2    1    2    0    0  0.00000000000E+00  0.00000000000E+00  0.35084122630E+03  0.70349863423E+03  0.60977107367E+03 0.  0.
        3    1    3    3  502    0  0.30334391710E+03 -0.62355340355E+01  0.21000816837E+03  0.36899844838E+03  0.10100000352E+00 0.  1.
       -3    1    3    3    0  502 -0.30334391710E+03  0.62355340355E+01  0.14083305793E+03  0.33450018585E+03  0.10100000352E+00 0. -1.
</event>
<event>
 5   0  0.5503975E-03  0.5997217E+03  0.7818609E-02  0.9905984E-01
        1   -1    0    0  501    0  0.00000000000E+00  0.00000000000E+00  0.93615499696E+03  0.93615499697E+03  0.50400001928E-02 0.  1.
       -1   -1    0    0    0  501  0.00000000000E+00  0.00000000000E+00 -0.96048752771E+02  0.96048752903E+02  0.50400001928E-02 0. -1.
    10030    2    1    2    0    0  0.00000000000E+00  0.00000000000E+00  0.84010624419E+03  0.10322037499E+04  0.59972166855E+03 0.  0.
        4    1    3    3  502    0 -0.66556996656E+01 -0.90290033851E+02  0.91206479067E+03  0.91654808048E+03  0.12699999809E+01 0.  1.
       -4    1    3    3    0  502  0.66556996656E+01  0.90290033851E+02 -0.71958546484E+02  0.11565566939E+03  0.12699999809E+01 0. -1.
</event>
<event>
 5   0  0.9428629E-03  0.5969461E+03  0.7818609E-02  0.9911762E-01
       -2   -1    0    0    0  501  0.00000000000E+00  0.00000000000E+00  0.45601261362E+02  0.45601261433E+02  0.25500000920E-02 0. -1.
        2   -1    0    0  501    0  0.00000000000E+00  0.00000000000E+00 -0.19535901188E+04  0.19535901188E+04  0.25500000920E-02 0.  1.
    10030    2    1    2    0    0  0.00000000000E+00  0.00000000000E+00 -0.19079888575E+04  0.19991913802E+04  0.59694614054E+03 0.  0.
        3    1    3    3  502    0  0.96003792125E+02 -0.27639320379E+02 -0.18959329782E+04  0.18985632800E+04  0.10100000352E+00 0.  1.
       -3    1    3    3    0  502 -0.96003792125E+02  0.27639320379E+02 -0.12055879246E+02  0.10062810024E+03  0.10100000352E+00 0. -1.
</event>
<event>
 5   0  0.9530666E-03  0.5997807E+03  0.7818609E-02  0.9905861E-01
       -2   -1    0    0    0  501  0.00000000000E+00  0.00000000000E+00  0.45295779682E+03  0.45295779683E+03  0.25500000920E-02 0. -1.
        2   -1    0    0  501    0  0.00000000000E+00  0.00000000000E+00 -0.19854875993E+03  0.19854875994E+03  0.25500000920E-02 0.  1.
    10030    2    1    2    0    0  0.00000000000E+00  0.00000000000E+00  0.25440903690E+03  0.65150655677E+03  0.59978065613E+03 0.  0.
        2    1    3    3  502    0  0.84648248703E+01 -0.28350557446E+03  0.23300657307E+03  0.36706828671E+03  0.25500000920E-02 0. -1.
       -2    1    3    3    0  502 -0.84648248703E+01  0.28350557446E+03  0.21402463824E+02  0.28443827006E+03  0.25500000920E-02 0.  1.
</event>
<event>
 5   0  0.9681801E-03  0.6018815E+03  0.7818609E-02  0.9901510E-01
        2   -1    0    0  501    0  0.00000000000E+00  0.00000000000E+00  0.80267836867E+03  0.80267836867E+03  0.25500000920E-02 0.  1.
       -2   -1    0    0    0  501  0.00000000000E+00  0.00000000000E+00 -0.11282892344E+03  0.11282892347E+03  0.25500000920E-02 0. -1.
    10030    2    1    2    0    0  0.00000000000E+00  0.00000000000E+00  0.68984944522E+03  0.91550729214E+03  0.60188150403E+03 0.  0.
        4    1    3    3  502    0  0.43127922606E+02 -0.16260719003E+03 -0.34621315265E+02  0.17175961204E+03  0.12699999809E+01 0. -1.
       -4    1    3    3    0  502 -0.43127922606E+02  0.16260719003E+03  0.72447076049E+03  0.74374768010E+03  0.12699999809E+01 0.  1.
</event>
<event>
 5   0  0.5653633E-03  0.6032570E+03  0.7818609E-02  0.9898672E-01
       -1   -1    0    0    0  501  0.00000000000E+00  0.00000000000E+00  0.27367006895E+03  0.27367006900E+03  0.50400001928E-02 0.  1.
        1   -1    0    0  501    0  0.00000000000E+00  0.00000000000E+00 -0.33244314479E+03  0.33244314483E+03  0.50400001928E-02 0. -1.
    10030    2    1    2    0    0  0.00000000000E+00  0.00000000000E+00 -0.58773075835E+02  0.60611321383E+03  0.60325695482E+03 0.  0.
        2    1    3    3  502    0  0.24050853295E+03  0.18175253247E+03 -0.19269059050E+02  0.30207554374E+03  0.25500000920E-02 0.  1.
       -2    1    3    3    0  502 -0.24050853295E+03 -0.18175253247E+03 -0.39504016785E+02  0.30403767009E+03  0.25500000920E-02 0. -1.
</event>
<event>
 5   0  0.5574736E-03  0.5991936E+03  0.7818609E-02  0.9907081E-01
        1   -1    0    0  501    0  0.00000000000E+00  0.00000000000E+00  0.69150484485E+03  0.69150484487E+03  0.50400001928E-02 0. -1.
       -1   -1    0    0    0  501  0.00000000000E+00  0.00000000000E+00 -0.12980130799E+03  0.12980130809E+03  0.50400001928E-02 0.  1.
    10030    2    1    2    0    0  0.00000000000E+00  0.00000000000E+00  0.56170353686E+03  0.82130615296E+03  0.59919356937E+03 0.  0.
        5    1    3    3  502    0 -0.24882787611E+03  0.74742688020E+02  0.48523735663E+03  0.55043543092E+03  0.46999998093E+01 0. -1.
       -5    1    3    3    0  502  0.24882787611E+03 -0.74742688020E+02  0.76466180232E+02  0.27087072204E+03  0.46999998093E+01 0.  1.
</event>
<event>
 5   0  0.9428629E-03  0.6000151E+03  0.7818609E-02  0.9905375E-01
       -2   -1    0    0    0  501  0.00000000000E+00  0.00000000000E+00  0.78633236000E+02  0.78633236042E+02  0.25500000920E-02 0. -1.
        2   -1    0    0  501    0  0.00000000000E+00  0.00000000000E+00 -0.11446119387E+04  0.11446119387E+04  0.25500000920E-02 0.  1.
    10030    2    1    2    0    0  0.00000000000E+00  0.00000000000E+00 -0.10659787027E+04  0.12232451747E+04  0.60001513558E+03 0.  0.
        3    1    3    3  502    0  0.23452439904E+03 -0.47410268399E+02 -0.90195912670E+03  0.93315577678E+03  0.10100000352E+00 0.  1.
       -3    1    3    3    0  502 -0.23452439904E+03  0.47410268399E+02 -0.16401957598E+03  0.29008939795E+03  0.10100000352E+00 0. -1.
</event>
<event>
 5   0  0.9530666E-03  0.6007010E+03  0.7818609E-02  0.9903953E-01
        2   -1    0    0  501    0  0.00000000000E+00  0.00000000000E+00  0.73215271299E+03  0.73215271300E+03  0.25500000920E-02 0. -1.
       -2   -1    0    0    0  501  0.00000000000E+00  0.00000000000E+00 -0.12321255993E+03  0.12321255995E+03  0.25500000920E-02 0.  1.
    10030    2    1    2    0    0  0.00000000000E+00  0.00000000000E+00  0.60894015307E+03  0.85536527295E+03  0.60070095734E+03 0.  0.
        2    1    3    3  502    0  0.11874064709E+03 -0.21027814581E+03  0.50168563768E+02  0.24664372011E+03  0.25500000920E-02 0.  1.
       -2    1    3    3    0  502 -0.11874064709E+03  0.21027814581E+03  0.55877158930E+03  0.60872155284E+03  0.25500000920E-02 0. -1.
</event>
<event>
 5   0  0.5785798E-03  0.5998437E+03  0.7818609E-02  0.9905730E-01
       -1   -1    0    0    0  501  0.00000000000E+00  0.00000000000E+00  0.13784019992E+03  0.13784020001E+03  0.50400001928E-02 0.  1.
        1   -1    0    0  501    0  0.00000000000E+00  0.00000000000E+00 -0.65258980769E+03  0.65258980771E+03  0.50400001928E-02 0. -1.
    10030    2    1    2    0    0  0.00000000000E+00  0.00000000000E+00 -0.51474960777E+03  0.79043000772E+03  0.59984367831E+03 0.  0.
        1    1    3    3  502    0 -0.48742571982E+01 -0.29903155399E+03 -0.28711811354E+03  0.41458465940E+03  0.50400001928E-02 0. -1.
       -1    1    3    3    0  502  0.48742571982E+01  0.29903155399E+03 -0.22763149423E+03  0.37584534832E+03  0.50400001928E-02 0.  1.
</event>
<event>
 5   0  0.5491236E-03  0.6007433E+03  0.7818609E-02  0.9903865E-01
        1   -1    0    0  501    0  0.00000000000E+00  0.00000000000E+00  0.97095490037E+02  0.97095490168E+02  0.50400001928E-02 0.  1.
       -1   -1    0    0    0  501  0.00000000000E+00  0.00000000000E+00 -0.92922069643E+03  0.92922069645E+03  0.50400001928E-02 0. -1.
    10030    2    1    2    0    0  0.00000000000E+00  0.00000000000E+00 -0.83212520640E+03  0.10263161866E+04  0.60074333603E+03 0.  0.
        3    1    3    3  502    0  0.65567336740E+02 -0.18128874150E+03 -0.22540186463E+02  0.19409470279E+03  0.10100000352E+00 0.  1.
       -3    1    3    3    0  502 -0.65567336740E+02  0.18128874150E+03 -0.80958501993E+03  0.83222148383E+03  0.10100000352E+00 0. -1.
</event>
<event>
 5   0  0.5503975E-03  0.5990604E+03  0.7818609E-02  0.9907357E-01
        1   -1    0    0  501    0  0.00000000000E+00  0.00000000000E+00  0.11877202659E+04  0.11877202659E+04  0.50400001928E-02 0. -1.
       -1   -1    0    0    0  501  0.00000000000E+00  0.00000000000E+00 -0.75538262933E+02  0.75538263101E+02  0.50400001928E-02 0.  1.
    10030    2    1    2    0    0  0.00000000000E+00  0.00000000000E+00  0.11121820029E+04  0.12632585290E+04  0.59906035037E+03 0.  0.
        4    1    3    3  502    0 -0.24162850264E+03 -0.16822430713E+03  0.67222387130E+03  0.73387348831E+03  0.12699999809E+01 0.  1.
       -4    1    3    3    0  502  0.24162850264E+03  0.16822430713E+03  0.43995813165E+03  0.52938504068E+03  0.12699999809E+01 0. -1.
</event>
<event>
 5   0  0.3794375E-03  0.5978657E+03  0.7818609E-02  0.9909844E-01
        3   -1    0    0  501    0  0.00000000000E+00  0.00000000000E+00  0.61742796630E+03  0.61742797456E+03  0.10100000352E+00 0. -1.
       -3   -1    0    0    0  501  0.00000000000E+00  0.00000000000E+00 -0.14473078754E+03  0.14473082278E+03  0.10100000352E+00 0.  1.
    10030    2    1    2    0    0  0.00000000000E+00  0.00000000000E+00  0.47269717875E+03  0.76215879734E+03  0.59786571198E+03 0.  0.
        2    1    3    3  502    0 -0.12095806343E+03  0.23123470208E+03  0.50470295460E+02  0.26579614611E+03  0.25500000920E-02 0.  1.
       -2    1    3    3    0  502  0.12095806343E+03 -0.23123470208E+03  0.42222688329E+03  0.49636265123E+03  0.25500000920E-02 0. -1.
</event>
<event>
 5   0  0.5785798E-03  0.6005230E+03  0.7818609E-02  0.9904322E-01
        1   -1    0    0  501    0  0.00000000000E+00  0.00000000000E+00  0.62505021824E+03  0.62505021826E+03  0.50400001928E-02 0. -1.
       -1   -1    0    0    0  501  0.00000000000E+00  0.00000000000E+00 -0.14423957601E+03  0.14423957609E+03  0.50400001928E-02 0.  1.
    10030    2    1    2    0    0  0.00000000000E+00  0.00000000000E+00  0.48081064223E+03  0.76928979435E+03  0.60052303371E+03 0.  0.
        1    1    3    3  502    0  0.22544275306E+03  0.11464423090E+03  0.44771605122E+03  0.51421532176E+03  0.50400001928E-02 0. -1.
       -1    1    3    3    0  502 -0.22544275306E+03 -0.11464423090E+03  0.33094591007E+02  0.25507447259E+03  0.50400001928E-02 0.  1.
</event>
<event>
 5   0  0.9428629E-03  0.6001123E+03  0.7818609E-02  0.9905173E-01
       -2   -1    0    0    0  501  0.00000000000E+00  0.00000000000E+00  0.17841984333E+03  0.17841984335E+03  0.25500000920E-02 0. -1.
        2   -1    0    0  501    0  0.00000000000E+00  0.00000000000E+00 -0.50461707341E+03  0.50461707342E+03  0.25500000920E-02 0.  1.
    10030    2    1    2    0    0  0.00000000000E+00  0.00000000000E+00 -0.32619723008E+03  0.68303691677E+03  0.60011232012E+03 0.  0.
        3    1    3    3  502    0 -0.89334420161E+01 -0.23816750556E+03 -0.37057926580E+03  0.44060477702E+03  0.10100000352E+00 0.  1.
       -3    1    3    3    0  502  0.89334420161E+01  0.23816750556E+03  0.44382035716E+02  0.24243213975E+03  0.10100000352E+00 0. -1.
</event>
<event>
 5   0  0.5653633E-03  0.6000886E+03  0.7818609E-02  0.9905222E-01
       -1   -1    0    0    0  501  0.00000000000E+00  0.00000000000E+00  0.73047294711E+03  0.73047294712E+03  0.50400001928E-02 0.  1.
        1   -1    0    0  501    0  0.00000000000E+00  0.00000000000E+00 -0.12324422804E+03  0.12324422814E+03  0.50400001928E-02 0. -1.
    10030    2    1    2    0    0  0.00000000000E+00  0.00000000000E+00  0.60722871907E+03  0.85371717527E+03  0.60008857520E+03 0.  0.
        2    1    3    3  502    0  0.14869726074E+03  0.19056372943E+03  0.50713560555E+02  0.24697626517E+03  0.25500000920E-02 0. -1.
       -2    1    3    3    0  502 -0.14869726074E+03 -0.19056372943E+03  0.55651515851E+03  0.60674091010E+03  0.25500000920E-02 0.  1.
</event>
<event>
 5   0  0.3794375E-03  0.6001575E+03  0.7818609E-02  0.9905079E-01
        3   -1    0    0  501    0  0.00000000000E+00  0.00000000000E+00  0.19837928063E+03  0.19837930634E+03  0.10100000352E+00 0.  1.
       -3   -1    0    0    0  501  0.00000000000E+00  0.00000000000E+00 -0.45391462918E+03  0.45391464042E+03  0.10100000352E+00 0. -1.
    10030    2    1    2    0    0  0.00000000000E+00  0.00000000000E+00 -0.25553534855E+03  0.65229394676E+03  0.60015754484E+03 0.  0.
        5    1    3    3  502    0 -0.44826480222E+02 -0.15294498449E+02 -0.44978588280E+03  0.45229720912E+03  0.46999998093E+01 0. -1.
       -5    1    3    3    0  502  0.44826480222E+02  0.15294498449E+02  0.19425053425E+03  0.19999673764E+03  0.46999998093E+01 0.  1.
</event>
<event>
 5   0  0.9866317E-03  0.5939153E+03  0.7818609E-02  0.9918111E-01
        2   -1    0    0  501    0  0.00000000000E+00  0.00000000000E+00  0.10702683984E+04  0.10702683984E+04  0.25500000920E-02 0.  1.
       -2   -1    0    0    0  501  0.00000000000E+00  0.00000000000E+00 -0.82394137030E+02  0.82394137069E+02  0.25500000920E-02 0. -1.
    10030    2    1    2    0    0  0.00000000000E+00  0.00000000000E+00  0.98787426140E+03  0.11526625355E+04  0.59391528387E+03 0.  0.
        1    1    3    3  502    0 -0.27758128565E+02 -0.13778434675E+03 -0.13751154007E+02  0.14122370259E+03  0.50400001928E-02 0. -1.
       -1    1    3    3    0  502  0.27758128565E+02  0.13778434675E+03  0.10016254154E+04  0.10114388329E+04  0.50400001928E-02 0.  1.
</event>
<event>
 5   0  0.5653633E-03  0.6122767E+03  0.7818609E-02  0.9880258E-01
        1   -1    0    0  501    0  0.00000000000E+00  0.00000000000E+00  0.12772176105E+04  0.12772176105E+04  0.50400001928E-02 0.  1.
       -1   -1    0    0    0  501  0.00000000000E+00  0.00000000000E+00 -0.73378788521E+02  0.73378788694E+02  0.50400001928E-02 0. -1.
    10030    2    1    2    0    0  0.00000000000E+00  0.00000000000E+00  0.12038388219E+04  0.13505963992E+04  0.61227667294E+03 0.  0.
        2    1    3    3  502    0 -0.17757265322E+02 -0.11124443470E+03 -0.25995636510E+02  0.11561322522E+03  0.25500000920E-02 0. -1.
       -2    1    3    3    0  502  0.17757265322E+02  0.11124443470E+03  0.12298344585E+04  0.12349831740E+04  0.25500000920E-02 0.  1.
</event>
<event>
 5   0  0.5491236E-03  0.5994678E+03  0.7818609E-02  0.9906511E-01
        1   -1    0    0  501    0  0.00000000000E+00  0.00000000000E+00  0.55716916598E+03  0.55716916600E+03  0.50400001928E-02 0. -1.
       -1   -1    0    0    0  501  0.00000000000E+00  0.00000000000E+00 -0.16124442110E+03  0.16124442118E+03  0.50400001928E-02 0.  1.
    10030    2    1    2    0    0  0.00000000000E+00  0.00000000000E+00  0.39592474488E+03  0.71841358718E+03  0.59946782953E+03 0.  0.
        3    1    3    3  502    0 -0.10513845046E+03 -0.26918843122E+03  0.10266053001E+03  0.30668501739E+03  0.10100000352E+00 0.  1.
       -3    1    3    3    0  502  0.10513845046E+03  0.26918843122E+03  0.29326421486E+03  0.41172856980E+03  0.10100000352E+00 0. -1.
</event>
<event>
 5   0  0.9866317E-03  0.5997046E+03  0.7818609E-02  0.9906019E-01
        2   -1    0    0  501    0  0.00000000000E+00  0.00000000000E+00  0.10590049870E+04  0.10590049870E+04  0.25500000920E-02 0.  1.
       -2   -1    0    0    0  501  0.00000000000E+00  0.00000000000E+00 -0.84901783142E+02  0.84901783180E+02  0.25500000920E-02 0. -1.
    10030    2    1    2    0    0  0.00000000000E+00  0.00000000000E+00  0.97410320387E+03  0.11439067702E+04  0.59970463322E+03 0.  0.
        1    1    3    3  502    0  0.25422836005E+03 -0.30267440139E+02  0.18932290183E+03  0.31842006559E+03  0.50400001928E-02 0. -1.
       -1    1    3    3    0  502 -0.25422836005E+03  0.30267440139E+02  0.78478030204E+03  0.82548670461E+03  0.50400001928E-02 0.  1.
</event>
<event>
 5   0  0.5503975E-03  0.6004819E+03  0.7818609E-02  0.9904407E-01
        1   -1    0    0  501    0  0.00000000000E+00  0.00000000000E+00  0.53290681140E+03  0.53290681143E+03  0.50400001928E-02 0. -1.
       -1   -1    0    0    0  501  0.00000000000E+00  0.00000000000E+00 -0.16915643157E+03  0.16915643164E+03  0.50400001928E-02 0.  1.
    10030    2    1    2    0    0  0.00000000000E+00  0.00000000000E+00  0.36375037984E+03  0.70206324307E+03  0.60048185521E+03 0.  0.
        4    1    3    3  502    0 -0.78636979985E+02 -0.24306866088E+03 -0.25303944086E+01  0.25548809037E+03  0.12699999809E+01 0.  1.
       -4    1    3    3    0  502  0.78636979985E+02  0.24306866088E+03  0.36628077424E+03  0.44657515270E+03  0.12699999809E+01 0. -1.
</event>
<event>
 5   0  0.9530666E-03  0.5993497E+03  0.7818609E-02  0.9906756E-01
       -2   -1    0    0    0  501  0.00000000000E+00  0.00000000000E+00  0.41499099088E+02  0.41499099167E+02  0.25500000920E-02 0. -1.
        2   -1    0    0  501    0  0.00000000000E+00  0.00000000000E+00 -0.21640233285E+04  0.21640233285E+04  0.25500000920E-02 0.  1.
    10030    2    1    2    0    0  0.00000000000E+00  0.00000000000E+00 -0.21225242294E+04  0.22055224277E+04  0.59934970969E+03 0.  0.
        2    1    3    3  502    0 -0.29419929105E+03 -0.23126790663E+01 -0.85159256792E+03  0.90098194936E+03  0.25500000920E-02 0. -1.
       -2    1    3    3    0  502  0.29419929105E+03  0.23126790663E+01 -0.12709316615E+04  0.13045404783E+04  0.25500000920E-02 0.  1.
</event>
<event>
 5   0  0.5491236E-03  0.6004520E+03  0.7818609E-02  0.9904469E-01
       -1   -1    0    0    0  501  0.00000000000E+00  0.00000000000E+00  0.21162875923E+03  0.21162875929E+03  0.50400001928E-02 0. -1.
        1   -1    0    0  501    0  0.00000000000E+00  0.00000000000E+00 -0.42591402917E+03  0.42591402920E+03  0.50400001928E-02 0.  1.
    10030    2    1    2    0    0  0.00000000000E+00  0.00000000000E+00 -0.21428526993E+03  0.63754278849E+03  0.60045202160E+03 0.  0.
        3    1    3    3  502    0 -0.94149748917E+02  0.23746723904E+03 -0.27462267031E+03  0.37506330944E+03  0.10100000352E+00 0.  1.
       -3    1    3    3    0  502  0.94149748917E+02 -0.23746723904E+03  0.60337400378E+02  0.26247947905E+03  0.10100000352E+00 0. -1.
</event>
<event>
 5   0  0.9428629E-03  0.6002530E+03  0.7818609E-02  0.9904881E-01
        2   -1    0    0  501    0  0.00000000000E+00  0.00000000000E+00  0.96658317534E+03  0.96658317534E+03  0.25500000920E-02 0.  1.
       -2   -1    0    0    0  501  0.00000000000E+00  0.00000000000E+00 -0.93190025723E+02  0.93190025758E+02  0.25500000920E-02 0. -1.
    10030    2    1    2    0    0  0.00000000000E+00  0.00000000000E+00  0.87339314962E+03  0.10597732011E+04  0.60025298331E+03 0.  0.
        3    1    3    3  502    0  0.22841481023E+02 -0.29081805108E+03  0.56127731901E+03  0.63255759510E+03  0.10100000352E+00 0.  1.
       -3    1    3    3    0  502 -0.22841481023E+02  0.29081805108E+03  0.31211583061E+03  0.42721560600E+03  0.10100000352E+00 0. -1.
</event>
<event>
 5   0  0.5653633E-03  0.6002026E+03  0.7818609E-02  0.9904986E-01
        1   -1    0    0  501    0  0.00000000000E+00  0.00000000000E+00  0.34387313722E+03  0.34387313725E+03  0.50400001928E-02 0. -1.
       -1   -1    0    0    0  501  0.00000000000E+00  0.00000000000E+00 -0.26190124484E+03  0.26190124489E+03  0.50400001928E-02 0.  1.
    10030    2    1    2    0    0  0.00000000000E+00  0.00000000000E+00  0.81971892378E+02  0.60577438214E+03  0.60020264154E+03 0.  0.
        2    1    3    3  502    0 -0.28877433817E+03  0.16172213462E+02 -0.39811208899E+02  0.29195391971E+03  0.25500000920E-02 0.  1.
       -2    1    3    3    0  502  0.28877433817E+03 -0.16172213462E+02  0.12178310128E+03  0.31382046243E+03  0.25500000920E-02 0. -1.
</event>
<event>
 5   0  0.9530666E-03  0.6009783E+03  0.7818609E-02  0.9903378E-01
       -2   -1    0    0    0  501  0.00000000000E+00  0.00000000000E+00  0.12593314345E+03  0.12593314347E+03  0.25500000920E-02 0.  1.
        2   -1    0    0  501    0  0.00000000000E+00  0.00000000000E+00 -0.71699736765E+03  0.71699736766E+03  0.25500000920E-02 0. -1.
    10030    2    1    2    0    0  0.00000000000E+00  0.00000000000E+00 -0.59106422420E+03  0.84293051113E+03  0.60097831030E+03 0.  0.
        2    1    3    3  502    0  0.17797078728E+03 -0.62158207681E+02 -0.62374132696E+03  0.65160608259E+03  0.25500000920E-02 0. -1.
       -2    1    3    3    0  502 -0.17797078728E+03  0.62158207681E+02  0.32677102751E+02  0.19132442854E+03  0.25500000920E-02 0.  1.
</event>
<event>
 5   0  0.9866317E-03  0.5995713E+03  0.7818609E-02  0.9906296E-01
       -2   -1    0    0    0  501  0.00000000000E+00  0.00000000000E+00  0.59113674199E+02  0.59113674254E+02  0.25500000920E-02 0. -1.
        2   -1    0    0  501    0  0.00000000000E+00  0.00000000000E+00 -0.15203153867E+04  0.15203153867E+04  0.25500000920E-02 0.  1.
    10030    2    1    2    0    0  0.00000000000E+00  0.00000000000E+00 -0.14612017125E+04  0.15794290610E+04  0.59957127514E+03 0.  0.
        1    1    3    3  502    0 -0.17170430743E+03 -0.21916154079E+03 -0.43776738166E+03  0.51880095472E+03  0.50400001928E-02 0. -1.
       -1    1    3    3    0  502  0.17170430743E+03  0.21916154079E+03 -0.10234343309E+04  0.10606281062E+04  0.50400001928E-02 0.  1.
</event>
<event>
 5   0  0.5785798E-03  0.6009740E+03  0.7818609E-02  0.9903387E-01
        1   -1    0    0  501    0  0.00000000000E+00  0.00000000000E+00  0.30986015793E+03  0.30986015797E+03  0.50400001928E-02 0.  1.
       -1   -1    0    0    0  501  0.00000000000E+00  0.00000000000E+00 -0.29139737514E+03  0.29139737519E+03  0.50400001928E-02 0. -1.
    10030    2    1    2    0    0  0.00000000000E+00  0.00000000000E+00  0.18462782788E+02  0.60125753316E+03  0.60097399847E+03 0.  0.
        1    1    3    3  502    0 -0.23473499095E+03  0.19858043039E+02  0.19586049152E+03  0.30635957634E+03  0.50400001928E-02 0.  1.
       -1    1    3    3    0  502  0.23473499095E+03 -0.19858043039E+02 -0.17739770873E+03  0.29489795682E+03  0.50400001928E-02 0. -1.
</event>
<event>
 5   0  0.5653633E-03  0.6003761E+03  0.7818609E-02  0.9904626E-01
       -1   -1    0    0    0  501  0.00000000000E+00  0.00000000000E+00  0.12224436303E+03  0.12224436313E+03  0.50400001928E-02 0.  1.
        1   -1    0    0  501    0  0.00000000000E+00  0.00000000000E+00 -0.73715342802E+03  0.73715342804E+03  0.50400001928E-02 0. -1.
    10030    2    1    2    0    0  0.00000000000E+00  0.00000000000E+00 -0.61490906499E+03  0.85939779117E+03  0.60037605321E+03 0.  0.
        2    1    3    3  502    0  0.16812237025E+03  0.18037978414E+03 -0.62387380735E+02  0.25435051246E+03  0.25500000920E-02 0.  1.
       -2    1    3    3    0  502 -0.16812237025E+03 -0.18037978414E+03 -0.55252168425E+03  0.60504727871E+03  0.25500000920E-02 0. -1.
</event>
<event>
 5   0  0.9530666E-03  0.5996517E+03  0.7818609E-02  0.9906129E-01
       -2   -1    0    0    0  501  0.00000000000E+00  0.00000000000E+00  0.60025063458E+03  0.60025063458E+03  0.25500000920E-02 0. -1.
        2   -1    0    0  501    0  0.00000000000E+00  0.00000000000E+00 -0.14976332161E+03  0.14976332163E+03  0.25500000920E-02 0.  1.
    10030    2    1    2    0    0  0.00000000000E+00  0.00000000000E+00  0.45048731297E+03  0.75001395621E+03  0.59965166169E+03 0.  0.
        2    1    3    3  502    0  0.21933938477E+02 -0.62121224033E+01 -0.14867778847E+03  0.15041533470E+03  0.25500000920E-02 0.  1.
       -2    1    3    3    0  502 -0.21933938477E+02  0.62121224033E+01  0.59916510144E+03  0.59959862151E+03  0.25500000920E-02 0. -1.
</event>
<event>
 5   0  0.9681801E-03  0.5985752E+03  0.7818609E-02  0.9908366E-01
        2   -1    0    0  501    0  0.00000000000E+00  0.00000000000E+00  0.32740041158E+03  0.32740041159E+03  0.25500000920E-02 0. -1.
       -2   -1    0    0    0  501  0.00000000000E+00  0.00000000000E+00 -0.27358873490E+03  0.27358873491E+03  0.25500000920E-02 0.  1.
    10030    2    1    2    0    0  0.00000000000E+00  0.00000000000E+00  0.53811676676E+02  0.60098914650E+03  0.59857518965E+03 0.  0.
        4    1    3    3  502    0 -0.23673599763E+03 -0.11722037741E+03 -0.11432736817E+03  0.28784876144E+03  0.12699999809E+01 0.  1.
       -4    1    3    3    0  502  0.23673599763E+03  0.11722037741E+03  0.16813904484E+03  0.31314038506E+03  0.12699999809E+01 0. -1.
</event>
<event>
 5   0  0.9428629E-03  0.5998614E+03  0.7818609E-02  0.9905694E-01
        2   -1    0    0  501    0  0.00000000000E+00  0.00000000000E+00  0.16411577612E+04  0.16411577612E+04  0.25500000920E-02 0. -1.
       -2   -1    0    0    0  501  0.00000000000E+00  0.00000000000E+00 -0.54814004904E+02  0.54814004963E+02  0.25500000920E-02 0.  1.
    10030    2    1    2    0    0  0.00000000000E+00  0.00000000000E+00  0.15863437563E+04  0.16959717662E+04  0.59986141607E+03 0.  0.
        3    1    3    3  502    0 -0.18214946532E+03  0.23291768543E+03  0.93536271090E+03  0.98098546730E+03  0.10100000352E+00 0. -1.
       -3    1    3    3    0  502  0.18214946532E+03 -0.23291768543E+03  0.65098104539E+03  0.71498629886E+03  0.10100000352E+00 0.  1.
</event>
<event>
 5   0  0.9571790E-03  0.6004518E+03  0.7818609E-02  0.9904469E-01
        2   -1    0    0  501    0  0.00000000000E+00  0.00000000000E+00  0.16055282787E+03  0.16055282789E+03  0.25500000920E-02 0.  1.
       -2   -1    0    0    0  501  0.00000000000E+00  0.00000000000E+00 -0.56140758974E+03  0.56140758974E+03  0.25500000920E-02 0. -1.
    10030    2    1    2    0    0  0.00000000000E+00  0.00000000000E+00 -0.40085476186E+03  0.72196041764E+03  0.60045175037E+03 0.  0.
        5    1    3    3  502    0 -0.19699009894E+03 -0.91356365412E+02  0.48790699908E+02  0.22260661934E+03  0.46999998093E+01 0.  1.
       -5    1    3    3    0  502  0.19699009894E+03  0.91356365412E+02 -0.44964546177E+03  0.49935379829E+03  0.46999998093E+01 0. -1.
</event>
<event>
 5   0  0.5503975E-03  0.6003151E+03  0.7818609E-02  0.9904753E-01
       -1   -1    0    0    0  501  0.00000000000E+00  0.00000000000E+00  0.11822773742E+03  0.11822773753E+03  0.50400001928E-02 0. -1.
        1   -1    0    0  501    0  0.00000000000E+00  0.00000000000E+00 -0.76204242131E+03  0.76204242133E+03  0.50400001928E-02 0.  1.
    10030    2    1    2    0    0  0.00000000000E+00  0.00000000000E+00 -0.64381468389E+03  0.88027015886E+03  0.60031508842E+03 0.  0.
        4    1    3    3  502    0 -0.18333791802E+03 -0.22318840634E+03 -0.44163778890E+03  0.52770390030E+03  0.12699999809E+01 0.  1.
       -4    1    3    3    0  502  0.18333791802E+03  0.22318840634E+03 -0.20217689499E+03  0.35256625856E+03  0.12699999809E+01 0. -1.
</event>
<event>
 5   0  0.5491236E-03  0.6002276E+03  0.7818609E-02  0.9904934E-01
        1   -1    0    0  501    0  0.00000000000E+00  0.00000000000E+00  0.63500419329E+03  0.63500419331E+03  0.50400001928E-02 0.  1.
       -1   -1    0    0    0  501  0.00000000000E+00  0.00000000000E+00 -0.14183888032E+03  0.14183888041E+03  0.50400001928E-02 0. -1.
    10030    2    1    2    0    0  0.00000000000E+00  0.00000000000E+00  0.49316531298E+03  0.77684307372E+03  0.60022756956E+03 0.  0.
        3    1    3    3  502    0 -0.20101224080E+03  0.15383650992E+03  0.45526048556E+03  0.52089702691E+03  0.10100000352E+00 0.  1.
       -3    1    3    3    0  502  0.20101224080E+03 -0.15383650992E+03  0.37904827420E+02  0.25594604681E+03  0.10100000352E+00 0. -1.
</event>
<event>
 5   0  0.5503975E-03  0.6009855E+03  0.7818609E-02  0.9903364E-01
       -1   -1    0    0    0  501  0.00000000000E+00  0.00000000000E+00  0.11744047534E+03  0.11744047545E+03  0.50400001928E-02 0. -1.
        1   -1    0    0  501    0  0.00000000000E+00  0.00000000000E+00 -0.76886515833E+03  0.76886515835E+03  0.50400001928E-02 0.  1.
    10030    2    1    2    0    0  0.00000000000E+00  0.00000000000E+00 -0.65142468299E+03  0.88630563379E+03  0.60098548974E+03 0.  0.
        4    1    3    3  502    0 -0.19691169040E+03 -0.39903910214E+02  0.38142616647E+01  0.20095446588E+03  0.12699999809E+01 0. -1.
       -4    1    3    3    0  502  0.19691169040E+03  0.39903910214E+02 -0.65523894465E+03  0.68535116791E+03  0.12699999809E+01 0.  1.
</event>
<event>
 5   0  0.9681801E-03  0.6004148E+03  0.7818609E-02  0.9904546E-01
        2   -1    0    0  501    0  0.00000000000E+00  0.00000000000E+00  0.50863124981E+03  0.50863124982E+03  0.25500000920E-02 0.  1.
       -2   -1    0    0    0  501  0.00000000000E+00  0.00000000000E+00 -0.17719021409E+03  0.17719021411E+03  0.25500000920E-02 0. -1.
    10030    2    1    2    0    0  0.00000000000E+00  0.00000000000E+00  0.33144103572E+03  0.68582146392E+03  0.60041479014E+03 0.  0.
        4    1    3    3  502    0  0.16528952144E+03  0.95704071655E+02 -0.98834562871E+02  0.21505761774E+03  0.12699999809E+01 0. -1.
       -4    1    3    3    0  502 -0.16528952144E+03 -0.95704071655E+02  0.43027559859E+03  0.47076384618E+03  0.12699999809E+01 0.  1.
</event>
<event>
 5   0  0.9681801E-03  0.6019621E+03  0.7818609E-02  0.9901344E-01
        2   -1    0    0  501    0  0.00000000000E+00  0.00000000000E+00  0.20415365669E+03  0.20415365670E+03  0.25500000920E-02 0.  1.
       -2   -1    0    0    0  501  0.00000000000E+00  0.00000000000E+00 -0.44373238442E+03  0.44373238442E+03  0.25500000920E-02 0. -1.
    10030    2    1    2    0    0  0.00000000000E+00  0.00000000000E+00 -0.23957872773E+03  0.64788604113E+03  0.60196208810E+03 0.  0.
        4    1    3    3  502    0  0.55955226044E+01 -0.79816554014E+02  0.19249438104E+03  0.20846508533E+03  0.12699999809E+01 0.  1.
       -4    1    3    3    0  502 -0.55955226044E+01  0.79816554014E+02 -0.43207310877E+03  0.43942095580E+03  0.12699999809E+01 0. -1.
</event>
<event>
 5   0  0.5574736E-03  0.5995699E+03  0.7818609E-02  0.9906299E-01
        1   -1    0    0  501    0  0.00000000000E+00  0.00000000000E+00  0.12021382543E+04  0.12021382543E+04  0.50400001928E-02 0.  1.
       -1   -1    0    0    0  501  0.00000000000E+00  0.00000000000E+00 -0.74759299481E+02  0.74759299651E+02  0.50400001928E-02 0. -1.
    10030    2    1    2    0    0  0.00000000000E+00  0.00000000000E+00  0.11273789548E+04  0.12768975539E+04  0.59956989212E+03 0.  0.
        5    1    3    3  502    0  0.20410935233E+03  0.19792890443E+03  0.36150977558E+03  0.45994335168E+03  0.46999998093E+01 0. -1.
       -5    1    3    3    0  502 -0.20410935233E+03 -0.19792890443E+03  0.76586917921E+03  0.81695420225E+03  0.46999998093E+01 0.  1.
</event>
<event>
 5   0  0.9530666E-03  0.5994567E+03  0.7818609E-02  0.9906534E-01
        2   -1    0    0  501    0  0.00000000000E+00  0.00000000000E+00  0.64067270214E+03  0.64067270214E+03  0.25500000920E-02 0.  1.
       -2   -1    0    0    0  501  0.00000000000E+00  0.00000000000E+00 -0.14022304794E+03  0.14022304796E+03  0.25500000920E-02 0. -1.
    10030    2    1    2    0    0  0.00000000000E+00  0.00000000000E+00  0.50044965420E+03  0.78089575010E+03  0.59945668412E+03 0.  0.
        2    1    3    3  502    0  0.29958316024E+03  0.90183116230E+01  0.25332923116E+03  0.39243738253E+03  0.25500000920E-02 0. -1.
       -2    1    3    3    0  502 -0.29958316024E+03 -0.90183116230E+01  0.24712042304E+03  0.38845836757E+03  0.25500000920E-02 0.  1.
</event>
<event>
 5   0  0.5653633E-03  0.6007971E+03  0.7818609E-02  0.9903754E-01
        1   -1    0    0  501    0  0.00000000000E+00  0.00000000000E+00  0.22972057830E+04  0.22972057830E+04  0.50400001928E-02 0. -1.
       -1   -1    0    0    0  501  0.00000000000E+00  0.00000000000E+00 -0.39282202581E+02  0.39282202904E+02  0.50400001928E-02 0.  1.
    10030    2    1    2    0    0  0.00000000000E+00  0.00000000000E+00  0.22579235804E+04  0.23364879859E+04  0.60079714820E+03 0.  0.
        2    1    3    3  502    0 -0.41629994306E+02  0.29518090549E+03  0.12731417465E+04  0.13075758984E+04  0.25500000920E-02 0. -1.
       -2    1    3    3    0  502  0.41629994306E+02 -0.29518090549E+03  0.98478183385E+03  0.10289120874E+04  0.25500000920E-02 0.  1.
</event>
<event>
 5   0  0.5491236E-03  0.5992706E+03  0.7818609E-02  0.9906921E-01
        1   -1    0    0  501    0  0.00000000000E+00  0.00000000000E+00  0.93725912760E+03  0.93725912761E+03  0.50400001928E-02 0. -1.
       -1   -1    0    0    0  501  0.00000000000E+00  0.00000000000E+00 -0.95791333815E+02  0.95791333947E+02  0.50400001928E-02 0.  1.
    10030    2    1    2    0    0  0.00000000000E+00  0.00000000000E+00  0.84146779378E+03  0.10330504616E+04  0.59927056340E+03 0.  0.
        3    1    3    3  502    0  0.94540798276E+01 -0.99904156575E+02 -0.65962257655E+02  0.12008850804E+03  0.10100000352E+00 0.  1.
       -3    1    3    3    0  502 -0.94540798276E+01  0.99904156575E+02  0.90743005144E+03  0.91296195352E+03  0.10100000352E+00 0. -1.
</event>
<event>
 5   0  0.9571790E-03  0.5996762E+03  0.7818609E-02  0.9906078E-01
        2   -1    0    0  501    0  0.00000000000E+00  0.00000000000E+00  0.24638280710E+03  0.24638280711E+03  0.25500000920E-02 0.  1.
       -2   -1    0    0    0  501  0.00000000000E+00  0.00000000000E+00 -0.36489110735E+03  0.36489110736E+03  0.25500000920E-02 0. -1.
    10030    2    1    2    0    0  0.00000000000E+00  0.00000000000E+00 -0.11850830025E+03  0.61127391447E+03  0.59967623038E+03 0.  0.
        5    1    3    3  502    0  0.10186460301E+03 -0.15229378023E+03 -0.30114291462E+03  0.35253217990E+03  0.46999998093E+01 0. -1.
       -5    1    3    3    0  502 -0.10186460301E+03  0.15229378023E+03  0.18263461437E+03  0.25874173456E+03  0.46999998093E+01 0.  1.
</event>
<event>
 5   0  0.9866317E-03  0.5970603E+03  0.7818609E-02  0.9911524E-01
       -2   -1    0    0    0  501  0.00000000000E+00  0.00000000000E+00  0.15325324062E+03  0.15325324064E+03  0.25500000920E-02 0.  1.
        2   -1    0    0  501    0  0.00000000000E+00  0.00000000000E+00 -0.58152273247E+03  0.58152273248E+03  0.25500000920E-02 0. -1.
    10030    2    1    2    0    0  0.00000000000E+00  0.00000000000E+00 -0.42826949185E+03  0.73477597312E+03  0.59706027587E+03 0.  0.
        1    1    3    3  502    0  0.47069979349E+02  0.14096574549E+03  0.10449192825E+03  0.18167412433E+03  0.50400001928E-02 0.  1.
       -1    1    3    3    0  502 -0.47069979349E+02 -0.14096574549E+03 -0.53276142010E+03  0.55310184879E+03  0.50400001928E-02 0. -1.
</event>
<event>
 5   0  0.5503975E-03  0.6010229E+03  0.7818609E-02  0.9903286E-01
        1   -1    0    0  501    0  0.00000000000E+00  0.00000000000E+00  0.41009617096E+03  0.41009617099E+03  0.50400001928E-02 0.  1.
       -1   -1    0    0    0  501  0.00000000000E+00  0.00000000000E+00 -0.22020961337E+03  0.22020961343E+03  0.50400001928E-02 0. -1.
    10030    2    1    2    0    0  0.00000000000E+00  0.00000000000E+00  0.18988655759E+03  0.63030578441E+03  0.60102285906E+03 0.  0.
        4    1    3    3  502    0  0.28525247521E+03  0.69045287186E+02  0.16265920735E+03  0.33555306127E+03  0.12699999809E+01 0.  1.
       -4    1    3    3    0  502 -0.28525247521E+03 -0.69045287186E+02  0.27227350242E+02  0.29475272314E+03  0.12699999809E+01 0. -1.
</event>
<event>
 5   0  0.5503975E-03  0.5983196E+03  0.7818609E-02  0.9908898E-01
        1   -1    0    0  501    0  0.00000000000E+00  0.00000000000E+00  0.99650515616E+02  0.99650515743E+02  0.50400001928E-02 0.  1.
       -1   -1    0    0    0  501  0.00000000000E+00  0.00000000000E+00 -0.89810474124E+03  0.89810474126E+03  0.50400001928E-02 0. -1.
    10030    2    1    2    0    0  0.00000000000E+00  0.00000000000E+00 -0.79845422563E+03  0.99775525700E+03  0.59831964906E+03 0.  0.
        4    1    3    3  502    0  0.12668343374E+02  0.21091406115E+02 -0.89641022156E+03  0.89674870090E+03  0.12699999809E+01 0. -1.
       -4    1    3    3    0  502 -0.12668343374E+02 -0.21091406115E+02  0.97955995937E+02  0.10100655610E+03  0.12699999809E+01 0.  1.
</event>
<event>
 5   0  0.5491236E-03  0.6000533E+03  0.7818609E-02  0.9905296E-01
       -1   -1    0    0    0  501  0.00000000000E+00  0.00000000000E+00  0.46040286059E+02  0.46040286335E+02  0.50400001928E-02 0.  1.
        1   -1    0    0  501    0  0.00000000000E+00  0.00000000000E+00 -0.19551569234E+04  0.19551569235E+04  0.50400001928E-02 0. -1.
    10030    2    1    2    0    0  0.00000000000E+00  0.00000000000E+00 -0.19091166374E+04  0.20011972098E+04  0.60005327873E+03 0.  0.
        3    1    3    3  502    0 -0.17598535870E+02 -0.19924537644E+03 -0.20876610387E+03  0.28912233540E+03  0.10100000352E+00 0.  1.
       -3    1    3    3    0  502  0.17598535870E+02  0.19924537644E+03 -0.17003505335E+04  0.17120748744E+04  0.10100000352E+00 0. -1.
</event>
<event>
 5   0  0.9681801E-03  0.6001086E+03  0.7818609E-02  0.9905181E-01
        2   -1    0    0  501    0  0.00000000000E+00  0.00000000000E+00  0.63051956989E+03  0.63051956990E+03  0.25500000920E-02 0. -1.
       -2   -1    0    0    0  501  0.00000000000E+00  0.00000000000E+00 -0.14279109699E+03  0.14279109702E+03  0.25500000920E-02 0.  1.
    10030    2    1    2    0    0  0.00000000000E+00  0.00000000000E+00  0.48772847290E+03  0.77331066691E+03  0.60010859374E+03 0.  0.
        4    1    3    3  502    0  0.23740241456E+03  0.60694023481E+02  0.20716329821E+02  0.24591553458E+03  0.12699999809E+01 0.  1.
       -4    1    3    3    0  502 -0.23740241456E+03 -0.60694023481E+02  0.46701214308E+03  0.52739513233E+03  0.12699999809E+01 0. -1.
</event>
<event>
 5   0  0.5574736E-03  0.5970804E+03  0.7818609E-02  0.9911482E-01
        1   -1    0    0  501    0  0.00000000000E+00  0.00000000000E+00  0.19557517499E+03  0.19557517505E+03  0.50400001928E-02 0. -1.
       -1   -1    0    0    0  501  0.00000000000E+00  0.00000000000E+00 -0.45571353748E+03  0.45571353750E+03  0.50400001928E-02 0.  1.
    10030    2    1    2    0    0  0.00000000000E+00  0.00000000000E+00 -0.26013836249E+03  0.65128871256E+03  0.59708041290E+03 0.  0.
        5    1    3    3  502    0 -0.11767902802E+03 -0.27430737853E+03 -0.12640677465E+03  0.32418151432E+03  0.46999998093E+01 0. -1.
       -5    1    3    3    0  502  0.11767902802E+03  0.27430737853E+03 -0.13373158783E+03  0.32710719823E+03  0.46999998093E+01 0.  1.
</event>
<event>
 5   0  0.9428629E-03  0.6001400E+03  0.7818609E-02  0.9905116E-01
        2   -1    0    0  501    0  0.00000000000E+00  0.00000000000E+00  0.61711422136E+03  0.61711422136E+03  0.25500000920E-02 0.  1.
       -2   -1    0    0    0  501  0.00000000000E+00  0.00000000000E+00 -0.14590815981E+03  0.14590815983E+03  0.25500000920E-02 0. -1.
    10030    2    1    2    0    0  0.00000000000E+00  0.00000000000E+00  0.47120606155E+03  0.76302238119E+03  0.60013998514E+03 0.  0.
        3    1    3    3  502    0 -0.63734143774E+02  0.26609338711E+03  0.78986192330E+02  0.28479213565E+03  0.10100000352E+00 0. -1.
       -3    1    3    3    0  502  0.63734143774E+02 -0.26609338711E+03  0.39221986922E+03  0.47823024555E+03  0.10100000352E+00 0.  1.
</event>
<event>
 5   0  0.9428629E-03  0.6000774E+03  0.7818609E-02  0.9905245E-01
        2   -1    0    0  501    0  0.00000000000E+00  0.00000000000E+00  0.26101709872E+03  0.26101709873E+03  0.25500000920E-02 0. -1.
       -2   -1    0    0    0  501  0.00000000000E+00  0.00000000000E+00 -0.34489398577E+03  0.34489398578E+03  0.25500000920E-02 0.  1.
    10030    2    1    2    0    0  0.00000000000E+00  0.00000000000E+00 -0.83876887053E+02  0.60591108451E+03  0.60007742013E+03 0.  0.
        3    1    3    3  502    0 -0.53513979251E+02 -0.73187837585E+02  0.24685428835E+03  0.26297767096E+03  0.10100000352E+00 0. -1.
       -3    1    3    3    0  502  0.53513979251E+02  0.73187837585E+02 -0.33073117540E+03  0.34293341355E+03  0.10100000352E+00 0.  1.
</event>
<event>
 5   0  0.5574736E-03  0.5999107E+03  0.7818609E-02  0.9905591E-01
        1   -1    0    0  501    0  0.00000000000E+00  0.00000000000E+00  0.13131097571E+03  0.13131097580E+03  0.50400001928E-02 0.  1.
       -1   -1    0    0    0  501  0.00000000000E+00  0.00000000000E+00 -0.68519187447E+03  0.68519187449E+03  0.50400001928E-02 0. -1.
    10030    2    1    2    0    0  0.00000000000E+00  0.00000000000E+00 -0.55388089876E+03  0.81650285029E+03  0.59991070545E+03 0.  0.
        5    1    3    3  502    0  0.34931702169E+02  0.95536807840E+02  0.10706509690E+03  0.14775835151E+03  0.46999998093E+01 0.  1.
       -5    1    3    3    0  502 -0.34931702169E+02 -0.95536807840E+02 -0.66094599566E+03  0.66874449878E+03  0.46999998093E+01 0. -1.
</event>
<event>
 5   0  0.3794375E-03  0.5997239E+03  0.7818609E-02  0.9905979E-01
       -3   -1    0    0    0  501  0.00000000000E+00  0.00000000000E+00  0.69228196614E+02  0.69228270290E+02  0.10100000352E+00 0.  1.
        3   -1    0    0  501    0  0.00000000000E+00  0.00000000000E+00 -0.12988514100E+04  0.12988514139E+04  0.10100000352E+00 0. -1.
    10030    2    1    2    0    0  0.00000000000E+00  0.00000000000E+00 -0.12296232134E+04  0.13680796842E+04  0.59972391603E+03 0.  0.
        1    1    3    3  502    0 -0.21185427483E+03 -0.20199911444E+03 -0.76319928853E+03  0.81740995225E+03  0.50400001928E-02 0. -1.
       -1    1    3    3    0  502  0.21185427483E+03  0.20199911444E+03 -0.46642392483E+03  0.55066973194E+03  0.50400001928E-02 0.  1.
</event>
<event>
 5   0  0.3794375E-03  0.5996027E+03  0.7818609E-02  0.9906231E-01
        3   -1    0    0  501    0  0.00000000000E+00  0.00000000000E+00  0.94557173640E+02  0.94557227581E+02  0.10100000352E+00 0. -1.
       -3   -1    0    0    0  501  0.00000000000E+00  0.00000000000E+00 -0.95054478553E+03  0.95054479089E+03  0.10100000352E+00 0.  1.
    10030    2    1    2    0    0  0.00000000000E+00  0.00000000000E+00 -0.85598761189E+03  0.10451020185E+04  0.59960273291E+03 0.  0.
        4    1    3    3  502    0  0.25929855371E+03 -0.13459631556E+03 -0.54527180764E+03  0.61860719784E+03  0.12699999809E+01 0. -1.
       -4    1    3    3    0  502 -0.25929855371E+03  0.13459631556E+03 -0.31071580425E+03  0.42649482063E+03  0.12699999809E+01 0.  1.
</event>
<event>
 5   0  0.5574736E-03  0.5997765E+03  0.7818609E-02  0.9905870E-01
        1   -1    0    0  501    0  0.00000000000E+00  0.00000000000E+00  0.13061608485E+04  0.13061608486E+04  0.50400001928E-02 0. -1.
       -1   -1    0    0    0  501  0.00000000000E+00  0.00000000000E+00 -0.68852908268E+02  0.68852908453E+02  0.50400001928E-02 0.  1.
    10030    2    1    2    0    0  0.00000000000E+00  0.00000000000E+00  0.12373079403E+04  0.13750137570E+04  0.59977653579E+03 0.  0.
        5    1    3    3  502    0  0.65686832195E+02 -0.13222830037E+03  0.12169673987E+04  0.12259000052E+04  0.46999998093E+01 0. -1.
       -5    1    3    3    0  502 -0.65686832195E+02  0.13222830037E+03  0.20340541598E+02  0.14911375179E+03  0.46999998093E+01 0.  1.
</event>
<event>
 5   0  0.9428629E-03  0.6043490E+03  0.7818609E-02  0.9896424E-01
        2   -1    0    0  501    0  0.00000000000E+00  0.00000000000E+00  0.79937402722E+03  0.79937402722E+03  0.25500000920E-02 0.  1.
       -2   -1    0    0    0  501  0.00000000000E+00  0.00000000000E+00 -0.11422617830E+03  0.11422617833E+03  0.25500000920E-02 0. -1.
    10030    2    1    2    0    0  0.00000000000E+00  0.00000000000E+00  0.68514784892E+03  0.91360020555E+03  0.60434903880E+03 0.  0.
        3    1    3    3  502    0 -0.16155282121E+03  0.24531370921E+03  0.44980198724E+03  0.53721501086E+03  0.10100000352E+00 0.  1.
       -3    1    3    3    0  502  0.16155282121E+03 -0.24531370921E+03  0.23534586168E+03  0.37638519469E+03  0.10100000352E+00 0. -1.
</event>
<event>
 5   0  0.5574736E-03  0.5991470E+03  0.7818609E-02  0.9907177E-01
        1   -1    0    0  501    0  0.00000000000E+00  0.00000000000E+00  0.95896258469E+03  0.95896258471E+03  0.50400001928E-02 0. -1.
       -1   -1    0    0    0  501  0.00000000000E+00  0.00000000000E+00 -0.93584756701E+02  0.93584756837E+02  0.50400001928E-02 0.  1.
    10030    2    1    2    0    0  0.00000000000E+00  0.00000000000E+00  0.86537782799E+03  0.10525473415E+04  0.59914699449E+03 0.  0.
        5    1    3    3  502    0 -0.81364151889E+02 -0.19969452928E+03  0.79792319578E+03  0.82656006835E+03  0.46999998093E+01 0. -1.
       -5    1    3    3    0  502  0.81364151889E+02  0.19969452928E+03  0.67454632215E+02  0.22598727319E+03  0.46999998093E+01 0.  1.
</event>
<event>
 5   0  0.9530666E-03  0.5989200E+03  0.7818609E-02  0.9907649E-01
        2   -1    0    0  501    0  0.00000000000E+00  0.00000000000E+00  0.69178257699E+03  0.69178257700E+03  0.25500000920E-02 0.  1.
       -2   -1    0    0    0  501  0.00000000000E+00  0.00000000000E+00 -0.12963074729E+03  0.12963074732E+03  0.25500000920E-02 0. -1.
    10030    2    1    2    0    0  0.00000000000E+00  0.00000000000E+00  0.56215182970E+03  0.82141332431E+03  0.59892000277E+03 0.  0.
        2    1    3    3  502    0  0.95498325060E+02 -0.75579014889E+02  0.65628377501E+03  0.66748821033E+03  0.25500000920E-02 0.  1.
       -2    1    3    3    0  502 -0.95498325060E+02  0.75579014889E+02 -0.94131945309E+02  0.15392511398E+03  0.25500000920E-02 0. -1.
</event>
<event>
 5   0  0.9866317E-03  0.6019910E+03  0.7818609E-02  0.9901284E-01
       -2   -1    0    0    0  501  0.00000000000E+00  0.00000000000E+00  0.75285089083E+02  0.75285089126E+02  0.25500000920E-02 0.  1.
        2   -1    0    0  501    0  0.00000000000E+00  0.00000000000E+00 -0.12034030322E+04  0.12034030322E+04  0.25500000920E-02 0. -1.
    10030    2    1    2    0    0  0.00000000000E+00  0.00000000000E+00 -0.11281179432E+04  0.12786881214E+04  0.60199104483E+03 0.  0.
        1    1    3    3  502    0  0.28665429417E+03  0.43123133051E+02 -0.73620289027E+03  0.79121740668E+03  0.50400001928E-02 0. -1.
       -1    1    3    3    0  502 -0.28665429417E+03 -0.43123133051E+02 -0.39191505289E+03  0.48747071469E+03  0.50400001928E-02 0.  1.
</event>
<event>
 5   0  0.5785798E-03  0.6015431E+03  0.7818609E-02  0.9902210E-01
       -1   -1    0    0    0  501  0.00000000000E+00  0.00000000000E+00  0.10894161181E+03  0.10894161193E+03  0.50400001928E-02 0.  1.
        1   -1    0    0  501    0  0.00000000000E+00  0.00000000000E+00 -0.83038545571E+03  0.83038545572E+03  0.50400001928E-02 0. -1.
    10030    2    1    2    0    0  0.00000000000E+00  0.00000000000E+00 -0.72144384389E+03  0.93932706765E+03  0.60154311577E+03 0.  0.
        1    1    3    3  502    0  0.23038464292E+03 -0.10098236582E+03 -0.61820385341E+03  0.66742080152E+03  0.50400001928E-02 0. -1.
       -1    1    3    3    0  502 -0.23038464292E+03  0.10098236582E+03 -0.10323999048E+03  0.27190626613E+03  0.50400001928E-02 0.  1.
</event>
<event>
 5   0  0.9681801E-03  0.5990843E+03  0.7818609E-02  0.9907308E-01
       -2   -1    0    0    0  501  0.00000000000E+00  0.00000000000E+00  0.77851547984E+03  0.77851547984E+03  0.25500000920E-02 0.  1.
        2   -1    0    0  501    0  0.00000000000E+00  0.00000000000E+00 -0.11525203939E+03  0.11525203942E+03  0.25500000920E-02 0. -1.
    10030    2    1    2    0    0  0.00000000000E+00  0.00000000000E+00  0.66326344045E+03  0.89376751926E+03  0.59908429044E+03 0.  0.
        4    1    3    3  502    0 -0.20360568808E+03  0.10836794440E+03  0.61675437527E+03  0.65847282397E+03  0.12699999809E+01 0.  1.
       -4    1    3    3    0  502  0.20360568808E+03 -0.10836794440E+03  0.46509065178E+02  0.23529469530E+03  0.12699999809E+01 0. -1.
</event>
<event>
 5   0  0.9681801E-03  0.6005555E+03  0.7818609E-02  0.9904254E-01
       -2   -1    0    0    0  501  0.00000000000E+00  0.00000000000E+00  0.65665996546E+02  0.65665996595E+02  0.25500000920E-02 0.  1.
        2   -1    0    0  501    0  0.00000000000E+00  0.00000000000E+00 -0.13731115821E+04  0.13731115821E+04  0.25500000920E-02 0. -1.
    10030    2    1    2    0    0  0.00000000000E+00  0.00000000000E+00 -0.13074455855E+04  0.14387775787E+04  0.60055554428E+03 0.  0.
        4    1    3    3  502    0  0.66549593303E+02 -0.27250204674E+03 -0.39704347522E+03  0.48613922693E+03  0.12699999809E+01 0.  1.
       -4    1    3    3    0  502 -0.66549593303E+02  0.27250204674E+03 -0.91040211030E+03  0.95263835173E+03  0.12699999809E+01 0. -1.
</event>
<event>
 5   0  0.9571790E-03  0.6003464E+03  0.7818609E-02  0.9904688E-01
       -2   -1    0    0    0  501  0.00000000000E+00  0.00000000000E+00  0.25329185657E+03  0.25329185659E+03  0.25500000920E-02 0.  1.
        2   -1    0    0  501    0  0.00000000000E+00  0.00000000000E+00 -0.35573172186E+03  0.35573172187E+03  0.25500000920E-02 0. -1.
    10030    2    1    2    0    0  0.00000000000E+00  0.00000000000E+00 -0.10243986528E+03  0.60902357845E+03  0.60034639427E+03 0.  0.
        5    1    3    3  502    0  0.29624455628E+03  0.13205691175E+02 -0.42185227281E+01  0.29660599006E+03  0.46999998093E+01 0.  1.
       -5    1    3    3    0  502 -0.29624455628E+03 -0.13205691175E+02 -0.98221342555E+02  0.31241758839E+03  0.46999998093E+01 0. -1.
</event>
<event>
 5   0  0.3794375E-03  0.5985654E+03  0.7818609E-02  0.9908387E-01
       -3   -1    0    0    0  501  0.00000000000E+00  0.00000000000E+00  0.11730390732E+04  0.11730390775E+04  0.10100000352E+00 0. -1.
        3   -1    0    0  501    0  0.00000000000E+00  0.00000000000E+00 -0.76357302064E+02  0.76357368862E+02  0.10100000352E+00 0.  1.
    10030    2    1    2    0    0  0.00000000000E+00  0.00000000000E+00  0.10966817711E+04  0.12493964464E+04  0.59856542930E+03 0.  0.
        3    1    3    3  502    0 -0.10724159163E+03  0.24144562786E+03  0.25482668053E+03  0.36706048207E+03  0.10100000352E+00 0.  1.
       -3    1    3    3    0  502  0.10724159163E+03 -0.24144562786E+03  0.84185509060E+03  0.88233596433E+03  0.10100000352E+00 0. -1.
</event>
<event>
 5   0  0.5503975E-03  0.5982621E+03  0.7818609E-02  0.9909018E-01
       -1   -1    0    0    0  501  0.00000000000E+00  0.00000000000E+00  0.22057555169E+03  0.22057555175E+03  0.50400001928E-02 0. -1.
        1   -1    0    0  501    0  0.00000000000E+00  0.00000000000E+00 -0.40566315200E+03  0.40566315203E+03  0.50400001928E-02 0.  1.
    10030    2    1    2    0    0  0.00000000000E+00  0.00000000000E+00 -0.18508760031E+03  0.62623870378E+03  0.59826206158E+03 0.  0.
        4    1    3    3  502    0  0.10989231361E+03 -0.77856886740E+02 -0.37212902653E+03  0.39575199392E+03  0.12699999809E+01 0.  1.
       -4    1    3    3    0  502 -0.10989231361E+03  0.77856886740E+02  0.18704142621E+03  0.23048670986E+03  0.12699999809E+01 0. -1.
</event>
<event>
 5   0  0.5653633E-03  0.6004120E+03  0.7818609E-02  0.9904552E-01
        1   -1    0    0  501    0  0.00000000000E+00  0.00000000000E+00  0.43356985155E+03  0.43356985158E+03  0.50400001928E-02 0. -1.
       -1   -1    0    0    0  501  0.00000000000E+00  0.00000000000E+00 -0.20786417079E+03  0.20786417085E+03  0.50400001928E-02 0.  1.
    10030    2    1    2    0    0  0.00000000000E+00  0.00000000000E+00  0.22570568076E+03  0.64143402242E+03  0.60041198422E+03 0.  0.
        2    1    3    3  502    0  0.12755400488E+03 -0.19852142449E+03 -0.85414977715E+02  0.25095118762E+03  0.25500000920E-02 0.  1.
       -2    1    3    3    0  502 -0.12755400488E+03  0.19852142449E+03  0.31112065848E+03  0.39048283481E+03  0.25500000920E-02 0. -1.
</event>
<event>
 5   0  0.9428629E-03  0.6010036E+03  0.7818609E-02  0.9903326E-01
        2   -1    0    0  501    0  0.00000000000E+00  0.00000000000E+00  0.15237156552E+04  0.15237156552E+04  0.25500000920E-02 0. -1.
       -2   -1    0    0    0  501  0.00000000000E+00  0.00000000000E+00 -0.59263903424E+02  0.59263903479E+02  0.25500000920E-02 0.  1.
    10030    2    1    2    0    0  0.00000000000E+00  0.00000000000E+00  0.14644517518E+04  0.15829795587E+04  0.60100361889E+03 0.  0.
        3    1    3    3  502    0 -0.19201489413E+03 -0.13979463874E+03  0.12170989012E+04  0.12400572592E+04  0.10100000352E+00 0. -1.
       -3    1    3    3    0  502  0.19201489413E+03  0.13979463874E+03  0.24735285054E+03  0.34292229945E+03  0.10100000352E+00 0.  1.
</event>
<event>
 5   0  0.9866317E-03  0.5993374E+03  0.7818609E-02  0.9906782E-01
       -2   -1    0    0    0  501  0.00000000000E+00  0.00000000000E+00  0.79169040702E+02  0.79169040743E+02  0.25500000920E-02 0.  1.
        2   -1    0    0  501    0  0.00000000000E+00  0.00000000000E+00 -0.11342987385E+04  0.11342987385E+04  0.25500000920E-02 0. -1.
    10030    2    1    2    0    0  0.00000000000E+00  0.00000000000E+00 -0.10551296978E+04  0.12134677792E+04  0.59933744425E+03 0.  0.
        1    1    3    3  502    0  0.10330974791E+03  0.16987370267E+03 -0.98152441538E+03  0.10014590141E+04  0.50400001928E-02 0. -1.
       -1    1    3    3    0  502 -0.10330974791E+03 -0.16987370267E+03 -0.73605282379E+02  0.21200876513E+03  0.50400001928E-02 0.  1.
</event>
<event>
 5   0  0.9681801E-03  0.6032517E+03  0.7818609E-02  0.9898683E-01
        2   -1    0    0  501    0  0.00000000000E+00  0.00000000000E+00  0.12444762532E+04  0.12444762532E+04  0.25500000920E-02 0.  1.
       -2   -1    0    0    0  501  0.00000000000E+00  0.00000000000E+00 -0.73105573010E+02  0.73105573054E+02  0.25500000920E-02 0. -1.
    10030    2    1    2    0    0  0.00000000000E+00  0.00000000000E+00  0.11713706802E+04  0.13175818263E+04  0.60325168750E+03 0.  0.
        4    1    3    3  502    0 -0.88635986024E+02 -0.76173829714E+02  0.11930068231E+04  0.11987183503E+04  0.12699999809E+01 0.  1.
       -4    1    3    3    0  502  0.88635986024E+02  0.76173829714E+02 -0.21636142902E+02  0.11886347602E+03  0.12699999809E+01 0. -1.
</event>
<event>
 5   0  0.5491236E-03  0.5993203E+03  0.7818609E-02  0.9906817E-01
        1   -1    0    0  501    0  0.00000000000E+00  0.00000000000E+00  0.11627944227E+04  0.11627944227E+04  0.50400001928E-02 0. -1.
       -1   -1    0    0    0  501  0.00000000000E+00  0.00000000000E+00 -0.77224482018E+02  0.77224482183E+02  0.50400001928E-02 0.  1.
    10030    2    1    2    0    0  0.00000000000E+00  0.00000000000E+00  0.10855699407E+04  0.12400189049E+04  0.59932027195E+03 0.  0.
        3    1    3    3  502    0 -0.88469083780E+02 -0.27835914767E+03  0.40421176207E+03  0.49869605239E+03  0.10100000352E+00 0.  1.
       -3    1    3    3    0  502  0.88469083780E+02  0.27835914767E+03  0.68135817859E+03  0.74132285248E+03  0.10100000352E+00 0. -1.
</event>
<event>
 5   0  0.5785798E-03  0.5995540E+03  0.7818609E-02  0.9906332E-01
        1   -1    0    0  501    0  0.00000000000E+00  0.00000000000E+00  0.45162025025E+03  0.45162025028E+03  0.50400001928E-02 0.  1.
       -1   -1    0    0    0  501  0.00000000000E+00  0.00000000000E+00 -0.19898628804E+03  0.19898628810E+03  0.50400001928E-02 0. -1.
    10030    2    1    2    0    0  0.00000000000E+00  0.00000000000E+00  0.25263396221E+03  0.65060653838E+03  0.59955395831E+03 0.  0.
        1    1    3    3  502    0 -0.23454947281E+02  0.28913894760E+03  0.44283793177E+02  0.29344934815E+03  0.50400001928E-02 0. -1.
       -1    1    3    3    0  502  0.23454947281E+02 -0.28913894760E+03  0.20835016903E+03  0.35715719023E+03  0.50400001928E-02 0.  1.
</event>
<event>
 5   0  0.5653633E-03  0.6011345E+03  0.7818609E-02  0.9903055E-01
       -1   -1    0    0    0  501  0.00000000000E+00  0.00000000000E+00  0.11121600220E+03  0.11121600232E+03  0.50400001928E-02 0.  1.
        1   -1    0    0  501    0  0.00000000000E+00  0.00000000000E+00 -0.81229925915E+03  0.81229925917E+03  0.50400001928E-02 0. -1.
    10030    2    1    2    0    0  0.00000000000E+00  0.00000000000E+00 -0.70108325695E+03  0.92351526149E+03  0.60113451492E+03 0.  0.
        2    1    3    3  502    0 -0.20263186065E+03 -0.14099878185E+03 -0.87121683924E+02  0.26178333647E+03  0.25500000920E-02 0. -1.
       -2    1    3    3    0  502  0.20263186065E+03  0.14099878185E+03 -0.61396157302E+03  0.66173192502E+03  0.25500000920E-02 0.  1.
</event>
<event>
 5   0  0.9866317E-03  0.6005528E+03  0.7818609E-02  0.9904260E-01
       -2   -1    0    0    0  501  0.00000000000E+00  0.00000000000E+00  0.65609961647E+02  0.65609961697E+02  0.25500000920E-02 0.  1.
        2   -1    0    0  501    0  0.00000000000E+00  0.00000000000E+00 -0.13742717993E+04  0.13742717993E+04  0.25500000920E-02 0. -1.
    10030    2    1    2    0    0  0.00000000000E+00  0.00000000000E+00 -0.13086618377E+04  0.14398817610E+04  0.60055281228E+03 0.  0.
        1    1    3    3  502    0  0.86732277295E+02 -0.69813633185E+02 -0.13229522802E+04  0.13276291527E+04  0.50400001928E-02 0. -1.
       -1    1    3    3    0  502 -0.86732277295E+02  0.69813633185E+02  0.14290442548E+02  0.11225260833E+03  0.50400001928E-02 0.  1.
</event>
<event>
 5   0  0.9681801E-03  0.5992579E+03  0.7818609E-02  0.9906947E-01
        2   -1    0    0  501    0  0.00000000000E+00  0.00000000000E+00  0.10447807155E+04  0.10447807155E+04  0.25500000920E-02 0. -1.
       -2   -1    0    0    0  501  0.00000000000E+00  0.00000000000E+00 -0.85929524788E+02  0.85929524826E+02  0.25500000920E-02 0.  1.
    10030    2    1    2    0    0  0.00000000000E+00  0.00000000000E+00  0.95885119069E+03  0.11307102403E+04  0.59925790913E+03 0.  0.
        4    1    3    3  502    0 -0.66385224831E+02 -0.20297532075E+03  0.87597823965E+03  0.90163488628E+03  0.12699999809E+01 0. -1.
       -4    1    3    3    0  502  0.66385224831E+02  0.20297532075E+03  0.82872951042E+02  0.22907535403E+03  0.12699999809E+01 0.  1.
</event>
<event>
 5   0  0.5574736E-03  0.5987459E+03  0.7818609E-02  0.9908011E-01
        1   -1    0    0  501    0  0.00000000000E+00  0.00000000000E+00  0.57809368761E+03  0.57809368763E+03  0.50400001928E-02 0.  1.
       -1   -1    0    0    0  501  0.00000000000E+00  0.00000000000E+00 -0.15503397676E+03  0.15503397684E+03  0.50400001928E-02 0. -1.
    10030    2    1    2    0    0  0.00000000000E+00  0.00000000000E+00  0.42305971084E+03  0.73312766447E+03  0.59874590059E+03 0.  0.
        5    1    3    3  502    0  0.67180425503E+02  0.25166021172E+03  0.39213353583E+03  0.47078325337E+03  0.46999998093E+01 0.  1.
       -5    1    3    3    0  502 -0.67180425503E+02 -0.25166021172E+03  0.30926175015E+02  0.26234441110E+03  0.46999998093E+01 0. -1.
</event>
<event>
 5   0  0.9866317E-03  0.5991272E+03  0.7818609E-02  0.9907218E-01
        2   -1    0    0  501    0  0.00000000000E+00  0.00000000000E+00  0.15209266032E+04  0.15209266032E+04  0.25500000920E-02 0. -1.
       -2   -1    0    0    0  501  0.00000000000E+00  0.00000000000E+00 -0.59002421250E+02  0.59002421305E+02  0.25500000920E-02 0.  1.
    10030    2    1    2    0    0  0.00000000000E+00  0.00000000000E+00  0.14619241820E+04  0.15799290245E+04  0.59912720578E+03 0.  0.
        1    1    3    3  502    0  0.12688164851E+03  0.41159833074E+02  0.14382881404E+04  0.14444604043E+04  0.50400001928E-02 0. -1.
       -1    1    3    3    0  502 -0.12688164851E+03 -0.41159833074E+02  0.23636041533E+02  0.13546862025E+03  0.50400001928E-02 0.  1.
</event>
<event>
 5   0  0.5785798E-03  0.6028132E+03  0.7818609E-02  0.9899587E-01
        1   -1    0    0  501    0  0.00000000000E+00  0.00000000000E+00  0.48155101103E+03  0.48155101106E+03  0.50400001928E-02 0. -1.
       -1   -1    0    0    0  501  0.00000000000E+00  0.00000000000E+00 -0.18865280127E+03  0.18865280134E+03  0.50400001928E-02 0.  1.
    10030    2    1    2    0    0  0.00000000000E+00  0.00000000000E+00  0.29289820976E+03  0.67020381240E+03  0.60281322884E+03 0.  0.
        1    1    3    3  502    0  0.17134242125E+03  0.93521971669E+02 -0.10887968846E+03  0.22351593028E+03  0.50400001928E-02 0.  1.
       -1    1    3    3    0  502 -0.17134242125E+03 -0.93521971669E+02  0.40177789822E+03  0.44668788212E+03  0.50400001928E-02 0. -1.
</event>
<event>
 5   0  0.5574736E-03  0.6170773E+03  0.7818609E-02  0.9870596E-01
        1   -1    0    0  501    0  0.00000000000E+00  0.00000000000E+00  0.15242063990E+04  0.15242063990E+04  0.50400001928E-02 0.  1.
       -1   -1    0    0    0  501  0.00000000000E+00  0.00000000000E+00 -0.62456170150E+02  0.62456170353E+02  0.50400001928E-02 0. -1.
    10030    2    1    2    0    0  0.00000000000E+00  0.00000000000E+00  0.14617502288E+04  0.15866625693E+04  0.61707728646E+03 0.  0.
        5    1    3    3  502    0  0.18400570602E+03 -0.20697834642E+03  0.38137489861E+03  0.47134598653E+03  0.46999998093E+01 0.  1.
       -5    1    3    3    0  502 -0.18400570602E+03  0.20697834642E+03  0.10803753302E+04  0.11153165828E+04  0.46999998093E+01 0. -1.
</event>
<event>
 5   0  0.5574736E-03  0.5985546E+03  0.7818609E-02  0.9908409E-01
        1   -1    0    0  501    0  0.00000000000E+00  0.00000000000E+00  0.25808558952E+03  0.25808558956E+03  0.50400001928E-02 0.  1.
       -1   -1    0    0    0  501  0.00000000000E+00  0.00000000000E+00 -0.34704345322E+03  0.34704345325E+03  0.50400001928E-02 0. -1.
    10030    2    1    2    0    0  0.00000000000E+00  0.00000000000E+00 -0.88957863703E+02  0.60512904282E+03  0.59855463990E+03 0.  0.
        5    1    3    3  502    0  0.14191026718E+03 -0.18838225295E+03  0.14171350998E+03  0.27519303419E+03  0.46999998093E+01 0.  1.
       -5    1    3    3    0  502 -0.14191026718E+03  0.18838225295E+03 -0.23067137368E+03  0.32993600863E+03  0.46999998093E+01 0. -1.
</event>
<event>
 5   0  0.3794375E-03  0.6035804E+03  0.7818609E-02  0.9898005E-01
        4   -1    0    0  501    0  0.00000000000E+00  0.00000000000E+00  0.23140679578E+03  0.23141028074E+03  0.12699999809E+01 0.  1.
       -4   -1    0    0    0  501  0.00000000000E+00  0.00000000000E+00 -0.39357361395E+03  0.39357566299E+03  0.12699999809E+01 0. -1.
    10030    2    1    2    0    0  0.00000000000E+00  0.00000000000E+00 -0.16216681817E+03  0.62498594373E+03  0.60358044446E+03 0.  0.
        4    1    3    3  502    0  0.18308040018E+03  0.21866849262E+03 -0.18328211415E+03  0.33901075036E+03  0.12699999809E+01 0. -1.
       -4    1    3    3    0  502 -0.18308040018E+03 -0.21866849262E+03  0.21115295972E+02  0.28597519336E+03  0.12699999809E+01 0.  1.
</event>
<event>
 5   0  0.9571790E-03  0.5989690E+03  0.7818609E-02  0.9907547E-01
       -2   -1    0    0    0  501  0.00000000000E+00  0.00000000000E+00  0.88410849898E+02  0.88410849935E+02  0.25500000920E-02 0. -1.
        2   -1    0    0  501    0  0.00000000000E+00  0.00000000000E+00 -0.10144793065E+04  0.10144793065E+04  0.25500000920E-02 0.  1.
    10030    2    1    2    0    0  0.00000000000E+00  0.00000000000E+00 -0.92606845659E+03  0.11028901564E+04  0.59896903998E+03 0.  0.
        5    1    3    3  502    0 -0.22424606313E+03 -0.16206364321E+03 -0.25214172426E+03  0.37436407465E+03  0.46999998093E+01 0. -1.
       -5    1    3    3    0  502  0.22424606313E+03  0.16206364321E+03 -0.67392673234E+03  0.72852608178E+03  0.46999998093E+01 0.  1.
</event>
<event>
 5   0  0.9681801E-03  0.6099440E+03  0.7818609E-02  0.9884988E-01
       -2   -1    0    0    0  501  0.00000000000E+00  0.00000000000E+00  0.87502990339E+02  0.87502990376E+02  0.25500000920E-02 0.  1.
        2   -1    0    0  501    0  0.00000000000E+00  0.00000000000E+00 -0.10629113089E+04  0.10629113089E+04  0.25500000920E-02 0. -1.
    10030    2    1    2    0    0  0.00000000000E+00  0.00000000000E+00 -0.97540831854E+03  0.11504142993E+04  0.60994399092E+03 0.  0.
        4    1    3    3  502    0  0.26246617255E+03 -0.65615396475E+02 -0.22222329611E+03  0.35011237942E+03  0.12699999809E+01 0.  1.
       -4    1    3    3    0  502 -0.26246617255E+03  0.65615396475E+02 -0.75318502243E+03  0.80030191984E+03  0.12699999809E+01 0. -1.
</event>
<event>
 5   0  0.5785798E-03  0.6004225E+03  0.7818609E-02  0.9904530E-01
        1   -1    0    0  501    0  0.00000000000E+00  0.00000000000E+00  0.10814477959E+04  0.10814477959E+04  0.50400001928E-02 0. -1.
       -1   -1    0    0    0  501  0.00000000000E+00  0.00000000000E+00 -0.83339016153E+02  0.83339016305E+02  0.50400001928E-02 0.  1.
    10030    2    1    2    0    0  0.00000000000E+00  0.00000000000E+00  0.99810877972E+03  0.11647868122E+04  0.60042250266E+03 0.  0.
        1    1    3    3  502    0 -0.74298882966E+02  0.25053203658E+03  0.21236112386E+03  0.33672521782E+03  0.50400001928E-02 0.  1.
       -1    1    3    3    0  502  0.74298882966E+02 -0.25053203658E+03  0.78574765586E+03  0.82806159437E+03  0.50400001928E-02 0. -1.
</event>
<event>
 5   0  0.9571790E-03  0.5989717E+03  0.7818609E-02  0.9907542E-01
       -2   -1    0    0    0  501  0.00000000000E+00  0.00000000000E+00  0.11240460274E+03  0.11240460277E+03  0.25500000920E-02 0.  1.
        2   -1    0    0  501    0  0.00000000000E+00  0.00000000000E+00 -0.79793680440E+03  0.79793680441E+03  0.25500000920E-02 0. -1.
    10030    2    1    2    0    0  0.00000000000E+00  0.00000000000E+00 -0.68553220166E+03  0.91034140718E+03  0.59897168389E+03 0.  0.
        5    1    3    3  502    0 -0.10142915422E+03 -0.53376477573E+02 -0.76322319747E+03  0.77179573777E+03  0.46999998093E+01 0. -1.
       -5    1    3    3    0  502  0.10142915422E+03  0.53376477573E+02  0.77690995806E+02  0.13854566941E+03  0.46999998093E+01 0.  1.
</event>
<event>
 5   0  0.5491236E-03  0.5998170E+03  0.7818609E-02  0.9905786E-01
        1   -1    0    0  501    0  0.00000000000E+00  0.00000000000E+00  0.15892893121E+04  0.15892893121E+04  0.50400001928E-02 0.  1.
       -1   -1    0    0    0  501  0.00000000000E+00  0.00000000000E+00 -0.56594550297E+02  0.56594550521E+02  0.50400001928E-02 0. -1.
    10030    2    1    2    0    0  0.00000000000E+00  0.00000000000E+00  0.15326947618E+04  0.16458838626E+04  0.59981701910E+03 0.  0.
        3    1    3    3  502    0  0.19085866643E+03 -0.26408324956E+01  0.13159792155E+03  0.23184483541E+03  0.10100000352E+00 0. -1.
       -3    1    3    3    0  502 -0.19085866643E+03  0.26408324956E+01  0.14010968402E+04  0.14140390272E+04  0.10100000352E+00 0.  1.
</event>
<event>
 5   0  0.9428629E-03  0.5980101E+03  0.7818609E-02  0.9909543E-01
        2   -1    0    0  501    0  0.00000000000E+00  0.00000000000E+00  0.12814356450E+04  0.12814356450E+04  0.25500000920E-02 0.  1.
       -2   -1    0    0    0  501  0.00000000000E+00  0.00000000000E+00 -0.69768636393E+02  0.69768636440E+02  0.25500000920E-02 0. -1.
    10030    2    1    2    0    0  0.00000000000E+00  0.00000000000E+00  0.12116670086E+04  0.13512042814E+04  0.59801009225E+03 0.  0.
        3    1    3    3  502    0  0.16172133224E+03 -0.65535803050E+02  0.11544562887E+04  0.11675692971E+04  0.10100000352E+00 0.  1.
       -3    1    3    3    0  502 -0.16172133224E+03  0.65535803050E+02  0.57210719819E+02  0.18363498427E+03  0.10100000352E+00 0. -1.
</event>
<event>
 5   0  0.9571790E-03  0.6044805E+03  0.7818609E-02  0.9896154E-01
        2   -1    0    0  501    0  0.00000000000E+00  0.00000000000E+00  0.14521721406E+04  0.14521721406E+04  0.25500000920E-02 0.  1.
       -2   -1    0    0    0  501  0.00000000000E+00  0.00000000000E+00 -0.62905190023E+02  0.62905190075E+02  0.25500000920E-02 0. -1.
    10030    2    1    2    0    0  0.00000000000E+00  0.00000000000E+00  0.13892669506E+04  0.15150773307E+04  0.60448048601E+03 0.  0.
        5    1    3    3  502    0 -0.18360224894E+03 -0.20629645823E+02  0.95230296281E+02  0.20790927692E+03  0.46999998093E+01 0. -1.
       -5    1    3    3    0  502  0.18360224894E+03  0.20629645823E+02  0.12940366543E+04  0.13071680537E+04  0.46999998093E+01 0.  1.
</event>
<event>
 5   0  0.5503975E-03  0.5995152E+03  0.7818609E-02  0.9906412E-01
       -1   -1    0    0    0  501  0.00000000000E+00  0.00000000000E+00  0.17920050078E+04  0.17920050078E+04  0.50400001928E-02 0.  1.
        1   -1    0    0  501    0  0.00000000000E+00  0.00000000000E+00 -0.50141939097E+02  0.50141939351E+02  0.50400001928E-02 0. -1.
    10030    2    1    2    0    0  0.00000000000E+00  0.00000000000E+00  0.17418630687E+04  0.18421469471E+04  0.59951515811E+03 0.  0.
        4    1    3    3  502    0  0.10613337648E+03  0.12679925808E+03  0.16391789401E+04  0.16474985754E+04  0.12699999809E+01 0.  1.
       -4    1    3    3    0  502 -0.10613337648E+03 -0.12679925808E+03  0.10268412860E+03  0.19464837173E+03  0.12699999809E+01 0. -1.
</event>
<event>
 5   0  0.9428629E-03  0.6005639E+03  0.7818609E-02  0.9904237E-01
        2   -1    0    0  501    0  0.00000000000E+00  0.00000000000E+00  0.52584946079E+03  0.52584946079E+03  0.25500000920E-02 0. -1.
       -2   -1    0    0    0  501  0.00000000000E+00  0.00000000000E+00 -0.17147348565E+03  0.17147348567E+03  0.25500000920E-02 0.  1.
    10030    2    1    2    0    0  0.00000000000E+00  0.00000000000E+00  0.35437597514E+03  0.69732294647E+03  0.60056386830E+03 0.  0.
        3    1    3    3  502    0  0.81802728852E+02 -0.28838655428E+03  0.19765584511E+03  0.35906313435E+03  0.10100000352E+00 0.  1.
       -3    1    3    3    0  502 -0.81802728852E+02  0.28838655428E+03  0.15672013003E+03  0.33825981212E+03  0.10100000352E+00 0. -1.
</event>
<event>
 5   0  0.9530666E-03  0.6018021E+03  0.7818609E-02  0.9901674E-01
       -2   -1    0    0    0  501  0.00000000000E+00  0.00000000000E+00  0.12129601306E+03  0.12129601309E+03  0.25500000920E-02 0.  1.
        2   -1    0    0  501    0  0.00000000000E+00  0.00000000000E+00 -0.74645017422E+03  0.74645017423E+03  0.25500000920E-02 0. -1.
    10030    2    1    2    0    0  0.00000000000E+00  0.00000000000E+00 -0.62515416116E+03  0.86774618732E+03  0.60180206081E+03 0.  0.
        2    1    3    3  502    0 -0.10586900895E+02  0.76419026032E+02  0.10679278594E+03  0.13174463611E+03  0.25500000920E-02 0.  1.
       -2    1    3    3    0  502  0.10586900895E+02 -0.76419026032E+02 -0.73194694709E+03  0.73600155121E+03  0.25500000920E-02 0. -1.
</event>
<event>
 5   0  0.9681801E-03  0.5988123E+03  0.7818609E-02  0.9907873E-01
        2   -1    0    0  501    0  0.00000000000E+00  0.00000000000E+00  0.67104565314E+03  0.67104565314E+03  0.25500000920E-02 0.  1.
       -2   -1    0    0    0  501  0.00000000000E+00  0.00000000000E+00 -0.13358859852E+03  0.13358859854E+03  0.25500000920E-02 0. -1.
    10030    2    1    2    0    0  0.00000000000E+00  0.00000000000E+00  0.53745705462E+03  0.80463425168E+03  0.59881231903E+03 0.  0.
        4    1    3    3  502    0 -0.24838606876E+03  0.16083869349E+03  0.32997771831E+03  0.44322864523E+03  0.12699999809E+01 0.  1.
       -4    1    3    3    0  502  0.24838606876E+03 -0.16083869349E+03  0.20747933631E+03  0.36140560645E+03  0.12699999809E+01 0. -1.
</event>
<event>
 5   0  0.9571790E-03  0.6026118E+03  0.7818609E-02  0.9900002E-01
        2   -1    0    0  501    0  0.00000000000E+00  0.00000000000E+00  0.11672960606E+04  0.11672960606E+04  0.25500000920E-02 0. -1.
       -2   -1    0    0    0  501  0.00000000000E+00  0.00000000000E+00 -0.77773963516E+02  0.77773963557E+02  0.25500000920E-02 0.  1.
    10030    2    1    2    0    0  0.00000000000E+00  0.00000000000E+00  0.10895220971E+04  0.12450700241E+04  0.60261178633E+03 0.  0.
        5    1    3    3  502    0 -0.11314067462E+02  0.72406003283E+02 -0.59001339882E+02  0.94201303282E+02  0.46999998093E+01 0.  1.
       -5    1    3    3    0  502  0.11314067462E+02 -0.72406003283E+02  0.11485234369E+04  0.11508687209E+04  0.46999998093E+01 0. -1.
</event>
<event>
 5   0  0.9866317E-03  0.5953630E+03  0.7818609E-02  0.9915073E-01
        2   -1    0    0  501    0  0.00000000000E+00  0.00000000000E+00  0.20409195842E+04  0.20409195842E+04  0.25500000920E-02 0. -1.
       -2   -1    0    0    0  501  0.00000000000E+00  0.00000000000E+00 -0.43418795961E+02  0.43418796035E+02  0.25500000920E-02 0.  1.
    10030    2    1    2    0    0  0.00000000000E+00  0.00000000000E+00  0.19975007883E+04  0.20843383803E+04  0.59536298534E+03 0.  0.
        1    1    3    3  502    0 -0.13392062088E+03  0.70007044272E+02  0.18966515901E+04  0.19026620755E+04  0.50400001928E-02 0. -1.
       -1    1    3    3    0  502  0.13392062088E+03 -0.70007044272E+02  0.10084919813E+03  0.18167630482E+03  0.50400001928E-02 0.  1.
</event>
<event>
 5   0  0.9866317E-03  0.5991525E+03  0.7818609E-02  0.9907166E-01
       -2   -1    0    0    0  501  0.00000000000E+00  0.00000000000E+00  0.15781422424E+03  0.15781422426E+03  0.25500000920E-02 0.  1.
        2   -1    0    0  501    0  0.00000000000E+00  0.00000000000E+00 -0.56868090992E+03  0.56868090992E+03  0.25500000920E-02 0. -1.
    10030    2    1    2    0    0  0.00000000000E+00  0.00000000000E+00 -0.41086668568E+03  0.72649513419E+03  0.59915252365E+03 0.  0.
        1    1    3    3  502    0  0.42823953230E+01 -0.21615358761E+03  0.46019138388E+02  0.22103952921E+03  0.50400001928E-02 0.  1.
       -1    1    3    3    0  502 -0.42823953230E+01  0.21615358761E+03 -0.45688582407E+03  0.50545560498E+03  0.50400001928E-02 0. -1.
</event>
<event>
 5   0  0.5785798E-03  0.5983770E+03  0.7818609E-02  0.9908779E-01
        1   -1    0    0  501    0  0.00000000000E+00  0.00000000000E+00  0.99863893724E+02  0.99863893851E+02  0.50400001928E-02 0. -1.
       -1   -1    0    0    0  501  0.00000000000E+00  0.00000000000E+00 -0.89635758782E+03  0.89635758784E+03  0.50400001928E-02 0.  1.
    10030    2    1    2    0    0  0.00000000000E+00  0.00000000000E+00 -0.79649369410E+03  0.99622148169E+03  0.59837700143E+03 0.  0.
        1    1    3    3  502    0 -0.19894838565E+03 -0.15782788779E+03 -0.13488285590E+03  0.28754736507E+03  0.50400001928E-02 0. -1.
       -1    1    3    3    0  502  0.19894838565E+03  0.15782788779E+03 -0.66161083820E+03  0.70867411662E+03  0.50400001928E-02 0.  1.
</event>
<event>
 5   0  0.5653633E-03  0.6004541E+03  0.7818609E-02  0.9904464E-01
        1   -1    0    0  501    0  0.00000000000E+00  0.00000000000E+00  0.46486663272E+03  0.46486663275E+03  0.50400001928E-02 0.  1.
       -1   -1    0    0    0  501  0.00000000000E+00  0.00000000000E+00 -0.19389710469E+03  0.19389710475E+03  0.50400001928E-02 0. -1.
    10030    2    1    2    0    0  0.00000000000E+00  0.00000000000E+00  0.27096952804E+03  0.65876373750E+03  0.60045414207E+03 0.  0.
        2    1    3    3  502    0 -0.24075997086E+03  0.10266861359E+03  0.29683847819E+03  0.39575155076E+03  0.25500000920E-02 0.  1.
       -2    1    3    3    0  502  0.24075997086E+03 -0.10266861359E+03 -0.25868950153E+02  0.26301218674E+03  0.25500000920E-02 0. -1.
</event>
<event>
 5   0  0.9866317E-03  0.6040552E+03  0.7818609E-02  0.9897028E-01
       -2   -1    0    0    0  501  0.00000000000E+00  0.00000000000E+00  0.37583293368E+03  0.37583293369E+03  0.25500000920E-02 0. -1.
        2   -1    0    0  501    0  0.00000000000E+00  0.00000000000E+00 -0.24271597555E+03  0.24271597556E+03  0.25500000920E-02 0.  1.
    10030    2    1    2    0    0  0.00000000000E+00  0.00000000000E+00  0.13311695813E+03  0.61854890925E+03  0.60405515360E+03 0.  0.
        1    1    3    3  502    0  0.18232874989E+03  0.46920185138E+01 -0.17995599045E+03  0.25622245530E+03  0.50400001928E-02 0.  1.
       -1    1    3    3    0  502 -0.18232874989E+03 -0.46920185138E+01  0.31307294858E+03  0.36232645395E+03  0.50400001928E-02 0. -1.
</event>
<event>
 5   0  0.5491236E-03  0.6000624E+03  0.7818609E-02  0.9905277E-01
        1   -1    0    0  501    0  0.00000000000E+00  0.00000000000E+00  0.38032702778E+03  0.38032702782E+03  0.50400001928E-02 0. -1.
       -1   -1    0    0    0  501  0.00000000000E+00  0.00000000000E+00 -0.23668764313E+03  0.23668764318E+03  0.50400001928E-02 0.  1.
    10030    2    1    2    0    0  0.00000000000E+00  0.00000000000E+00  0.14363938466E+03  0.61701467100E+03  0.60006235626E+03 0.  0.
        3    1    3    3  502    0 -0.25321806952E+03  0.14847231618E+03  0.79746805595E+01  0.29364438550E+03  0.10100000352E+00 0.  1.
       -3    1    3    3    0  502  0.25321806952E+03 -0.14847231618E+03  0.13566470410E+03  0.32337028550E+03  0.10100000352E+00 0. -1.
</event>
<event>
 5   0  0.9571790E-03  0.5994916E+03  0.7818609E-02  0.9906461E-01
        2   -1    0    0  501    0  0.00000000000E+00  0.00000000000E+00  0.64525429612E+03  0.64525429612E+03  0.25500000920E-02 0. -1.
       -2   -1    0    0    0  501  0.00000000000E+00  0.00000000000E+00 -0.13924361228E+03  0.13924361230E+03  0.25500000920E-02 0.  1.
    10030    2    1    2    0    0  0.00000000000E+00  0.00000000000E+00  0.50601068384E+03  0.78449790842E+03  0.59949158139E+03 0.  0.
        5    1    3    3  502    0  0.18646540496E+03  0.61026861119E+02 -0.43479196291E+02  0.20101282430E+03  0.46999998093E+01 0.  1.
       -5    1    3    3    0  502 -0.18646540496E+03 -0.61026861119E+02  0.54948988013E+03  0.58348508412E+03  0.46999998093E+01 0. -1.
</event>
<event>
 5   0  0.5491236E-03  0.6096659E+03  0.7818609E-02  0.9885553E-01
        1   -1    0    0  501    0  0.00000000000E+00  0.00000000000E+00  0.18234735162E+03  0.18234735169E+03  0.50400001928E-02 0. -1.
       -1   -1    0    0    0  501  0.00000000000E+00  0.00000000000E+00 -0.50959405226E+03  0.50959405229E+03  0.50400001928E-02 0.  1.
    10030    2    1    2    0    0  0.00000000000E+00  0.00000000000E+00 -0.32724670064E+03  0.69194140398E+03  0.60966589495E+03 0.  0.
        3    1    3    3  502    0  0.16405389444E+03 -0.11915530754E+03  0.94715833197E+02  0.22379179354E+03  0.10100000352E+00 0. -1.
       -3    1    3    3    0  502 -0.16405389444E+03  0.11915530754E+03 -0.42196253384E+03  0.46814961044E+03  0.10100000352E+00 0.  1.
</event>
<event>
 5   0  0.9530666E-03  0.5999204E+03  0.7818609E-02  0.9905571E-01
       -2   -1    0    0    0  501  0.00000000000E+00  0.00000000000E+00  0.22484231192E+03  0.22484231193E+03  0.25500000920E-02 0. -1.
        2   -1    0    0  501    0  0.00000000000E+00  0.00000000000E+00 -0.40017427104E+03  0.40017427104E+03  0.25500000920E-02 0.  1.
    10030    2    1    2    0    0  0.00000000000E+00  0.00000000000E+00 -0.17533195912E+03  0.62501658298E+03  0.59992035564E+03 0.  0.
        2    1    3    3  502    0  0.18286343586E+03 -0.22848220265E+03 -0.15624480456E+03  0.33174627664E+03  0.25500000920E-02 0.  1.
       -2    1    3    3    0  502 -0.18286343586E+03  0.22848220265E+03 -0.19087154554E+02  0.29327030634E+03  0.25500000920E-02 0. -1.
</event>
<event>
 5   0  0.5503975E-03  0.6017596E+03  0.7818609E-02  0.9901762E-01
        1   -1    0    0  501    0  0.00000000000E+00  0.00000000000E+00  0.98650963211E+03  0.98650963213E+03  0.50400001928E-02 0.  1.
       -1   -1    0    0    0  501  0.00000000000E+00  0.00000000000E+00 -0.91766618390E+02  0.91766618529E+02  0.50400001928E-02 0. -1.
    10030    2    1    2    0    0  0.00000000000E+00  0.00000000000E+00  0.89474301372E+03  0.10782762507E+04  0.60175959662E+03 0.  0.
        4    1    3    3  502    0 -0.15760082036E+03  0.57402045971E+02 -0.21658341376E+00  0.16773393595E+03  0.12699999809E+01 0. -1.
       -4    1    3    3    0  502  0.15760082036E+03 -0.57402045971E+02  0.89495959714E+03  0.91054231470E+03  0.12699999809E+01 0.  1.
</event>
<event>
 5   0  0.5574736E-03  0.5998100E+03  0.7818609E-02  0.9905800E-01
       -1   -1    0    0    0  501  0.00000000000E+00  0.00000000000E+00  0.75488016090E+02  0.75488016258E+02  0.50400001928E-02 0. -1.
        1   -1    0    0  501    0  0.00000000000E+00  0.00000000000E+00 -0.11914873657E+04  0.11914873658E+04  0.50400001928E-02 0.  1.
    10030    2    1    2    0    0  0.00000000000E+00  0.00000000000E+00 -0.11159993497E+04  0.12669753820E+04  0.59981002843E+03 0.  0.
        5    1    3    3  502    0 -0.95871103094E+02  0.10600722734E+03 -0.11148292009E+04  0.11239639842E+04  0.46999998093E+01 0.  1.
       -5    1    3    3    0  502  0.95871103094E+02 -0.10600722734E+03 -0.11701487731E+01  0.14301139781E+03  0.46999998093E+01 0. -1.
</event>
<event>
 5   0  0.5785798E-03  0.6002259E+03  0.7818609E-02  0.9904937E-01
        1   -1    0    0  501    0  0.00000000000E+00  0.00000000000E+00  0.11590751399E+04  0.11590751399E+04  0.50400001928E-02 0. -1.
       -1   -1    0    0    0  501  0.00000000000E+00  0.00000000000E+00 -0.77706598128E+02  0.77706598291E+02  0.50400001928E-02 0.  1.
    10030    2    1    2    0    0  0.00000000000E+00  0.00000000000E+00  0.10813685418E+04  0.12367817382E+04  0.60022591148E+03 0.  0.
        1    1    3    3  502    0  0.25957151861E+03 -0.14014896262E+03  0.42691254951E+03  0.51891562894E+03  0.50400001928E-02 0.  1.
       -1    1    3    3    0  502 -0.25957151861E+03  0.14014896262E+03  0.65445599227E+03  0.71786610927E+03  0.50400001928E-02 0. -1.
</event>
<event>
 5   0  0.5653633E-03  0.5978565E+03  0.7818609E-02  0.9909863E-01
        1   -1    0    0  501    0  0.00000000000E+00  0.00000000000E+00  0.14253344455E+03  0.14253344464E+03  0.50400001928E-02 0.  1.
       -1   -1    0    0    0  501  0.00000000000E+00  0.00000000000E+00 -0.62692718615E+03  0.62692718617E+03  0.50400001928E-02 0. -1.
    10030    2    1    2    0    0  0.00000000000E+00  0.00000000000E+00 -0.48439374160E+03  0.76946063081E+03  0.59785647565E+03 0.  0.
        2    1    3    3  502    0 -0.92187106456E+02 -0.26863803227E+03 -0.12219715676E+03  0.30918764546E+03  0.25500000920E-02 0.  1.
       -2    1    3    3    0  502  0.92187106456E+02  0.26863803227E+03 -0.36219658483E+03  0.46027298536E+03  0.25500000920E-02 0. -1.
</event>
<event>
 5   0  0.9428629E-03  0.5982627E+03  0.7818609E-02  0.9909017E-01
       -2   -1    0    0    0  501  0.00000000000E+00  0.00000000000E+00  0.11432525922E+03  0.11432525925E+03  0.25500000920E-02 0. -1.
        2   -1    0    0  501    0  0.00000000000E+00  0.00000000000E+00 -0.78267537396E+03  0.78267537396E+03  0.25500000920E-02 0.  1.
    10030    2    1    2    0    0  0.00000000000E+00  0.00000000000E+00 -0.66835011474E+03  0.89700063321E+03  0.59826270158E+03 0.  0.
        3    1    3    3  502    0 -0.11393402560E+03  0.17265232724E+03 -0.10199927244E+02  0.20710827364E+03  0.10100000352E+00 0. -1.
       -3    1    3    3    0  502  0.11393402560E+03 -0.17265232724E+03 -0.65815018750E+03  0.68989235957E+03  0.10100000352E+00 0.  1.
</event>
<event>
 5   0  0.9866317E-03  0.5990410E+03  0.7818609E-02  0.9907398E-01
        2   -1    0    0  501    0  0.00000000000E+00  0.00000000000E+00  0.90973614656E+03  0.90973614656E+03  0.25500000920E-02 0.  1.
       -2   -1    0    0    0  501  0.00000000000E+00  0.00000000000E+00 -0.98613788580E+02  0.98613788613E+02  0.25500000920E-02 0. -1.
    10030    2    1    2    0    0  0.00000000000E+00  0.00000000000E+00  0.81112235798E+03  0.10083499352E+04  0.59904099372E+03 0.  0.
        1    1    3    3  502    0 -0.23005946946E+03  0.11557420504E+03  0.14791706646E+03  0.29692459469E+03  0.50400001928E-02 0. -1.
       -1    1    3    3    0  502  0.23005946946E+03 -0.11557420504E+03  0.66320529151E+03  0.71142534048E+03  0.50400001928E-02 0.  1.
</event>
<event>
 5   0  0.5653633E-03  0.5963050E+03  0.7818609E-02  0.9913102E-01
       -1   -1    0    0    0  501  0.00000000000E+00  0.00000000000E+00  0.94635683694E+02  0.94635683828E+02  0.50400001928E-02 0.  1.
        1   -1    0    0  501    0  0.00000000000E+00  0.00000000000E+00 -0.93933809386E+03  0.93933809388E+03  0.50400001928E-02 0. -1.
    10030    2    1    2    0    0  0.00000000000E+00  0.00000000000E+00 -0.84470241017E+03  0.10339737777E+04  0.59630496496E+03 0.  0.
        2    1    3    3  502    0  0.15479150136E+03 -0.15760032115E+03 -0.76956346420E+03  0.80064111534E+03  0.25500000920E-02 0.  1.
       -2    1    3    3    0  502 -0.15479150136E+03  0.15760032115E+03 -0.75138945966E+02  0.23333266237E+03  0.25500000920E-02 0. -1.
</event>
<event>
 5   0  0.5653633E-03  0.6001681E+03  0.7818609E-02  0.9905057E-01
        1   -1    0    0  501    0  0.00000000000E+00  0.00000000000E+00  0.45188848339E+03  0.45188848342E+03  0.50400001928E-02 0.  1.
       -1   -1    0    0    0  501  0.00000000000E+00  0.00000000000E+00 -0.19927580967E+03  0.19927580974E+03  0.50400001928E-02 0. -1.
    10030    2    1    2    0    0  0.00000000000E+00  0.00000000000E+00  0.25261267372E+03  0.65116429315E+03  0.60016812124E+03 0.  0.
        2    1    3    3  502    0  0.14953539087E+03 -0.25415801875E+03  0.18664969904E+03  0.34899175030E+03  0.25500000920E-02 0.  1.
       -2    1    3    3    0  502 -0.14953539087E+03  0.25415801875E+03  0.65962974674E+02  0.30217254285E+03  0.25500000920E-02 0. -1.
</event>
<event>
 5   0  0.5491236E-03  0.6030275E+03  0.7818609E-02  0.9899145E-01
        1   -1    0    0  501    0  0.00000000000E+00  0.00000000000E+00  0.31837288061E+02  0.31837288460E+02  0.50400001928E-02 0.  1.
       -1   -1    0    0    0  501  0.00000000000E+00  0.00000000000E+00 -0.28554734536E+04  0.28554734536E+04  0.50400001928E-02 0. -1.
    10030    2    1    2    0    0  0.00000000000E+00  0.00000000000E+00 -0.28236361656E+04  0.28873107421E+04  0.60302746696E+03 0.  0.
        3    1    3    3  502    0 -0.28382362420E+03  0.19638834466E+02 -0.18898775960E+04  0.19111721198E+04  0.10100000352E+00 0. -1.
       -3    1    3    3    0  502  0.28382362420E+03 -0.19638834466E+02 -0.93375856958E+03  0.97613862229E+03  0.10100000352E+00 0.  1.
</event>
<event>
 5   0  0.5503975E-03  0.5935771E+03  0.7818609E-02  0.9918822E-01
        1   -1    0    0  501    0  0.00000000000E+00  0.00000000000E+00  0.37137291921E+03  0.37137291925E+03  0.50400001928E-02 0.  1.
       -1   -1    0    0    0  501  0.00000000000E+00  0.00000000000E+00 -0.23718325720E+03  0.23718325725E+03  0.50400001928E-02 0. -1.
    10030    2    1    2    0    0  0.00000000000E+00  0.00000000000E+00  0.13418966202E+03  0.60855617650E+03  0.59357708393E+03 0.  0.
        4    1    3    3  502    0  0.21606495133E+03 -0.24942551615E+02 -0.13993069535E+03  0.25862793058E+03  0.12699999809E+01 0. -1.
       -4    1    3    3    0  502 -0.21606495133E+03  0.24942551615E+02  0.27412035736E+03  0.34992824592E+03  0.12699999809E+01 0.  1.
</event>
<event>
 5   0  0.9530666E-03  0.5944649E+03  0.7818609E-02  0.9916957E-01
        2   -1    0    0  501    0  0.00000000000E+00  0.00000000000E+00  0.12541238277E+04  0.12541238277E+04  0.25500000920E-02 0. -1.
       -2   -1    0    0    0  501  0.00000000000E+00  0.00000000000E+00 -0.70445309628E+02  0.70445309675E+02  0.25500000920E-02 0.  1.
    10030    2    1    2    0    0  0.00000000000E+00  0.00000000000E+00  0.11836785181E+04  0.13245691374E+04  0.59446494056E+03 0.  0.
        2    1    3    3  502    0 -0.19438754353E+03  0.21272325139E+03  0.75419694434E+03  0.80737273277E+03  0.25500000920E-02 0. -1.
       -2    1    3    3    0  502  0.19438754353E+03 -0.21272325139E+03  0.42948157376E+03  0.51719640464E+03  0.25500000920E-02 0.  1.
</event>
<event>
 5   0  0.9866317E-03  0.5995509E+03  0.7818609E-02  0.9906338E-01
        2   -1    0    0  501    0  0.00000000000E+00  0.00000000000E+00  0.37812207375E+03  0.37812207376E+03  0.25500000920E-02 0. -1.
       -2   -1    0    0    0  501  0.00000000000E+00  0.00000000000E+00 -0.23766219905E+03  0.23766219907E+03  0.25500000920E-02 0.  1.
    10030    2    1    2    0    0  0.00000000000E+00  0.00000000000E+00  0.14045987470E+03  0.61578427283E+03  0.59955091048E+03 0.  0.
        1    1    3    3  502    0  0.16259842392E+03  0.85582351042E+02  0.31350329625E+03  0.36338258496E+03  0.50400001928E-02 0. -1.
       -1    1    3    3    0  502 -0.16259842392E+03 -0.85582351042E+02 -0.17304342154E+03  0.25240168786E+03  0.50400001928E-02 0.  1.
</event>
<event>
 5   0  0.3794375E-03  0.6004246E+03  0.7818609E-02  0.9904526E-01
       -3   -1    0    0    0  501  0.00000000000E+00  0.00000000000E+00  0.38654620462E+03  0.38654621782E+03  0.10100000352E+00 0.  1.
        3   -1    0    0  501    0  0.00000000000E+00  0.00000000000E+00 -0.23316078965E+03  0.23316081152E+03  0.10100000352E+00 0. -1.
    10030    2    1    2    0    0  0.00000000000E+00  0.00000000000E+00  0.15338541498E+03  0.61970702934E+03  0.60042461366E+03 0.  0.
        2    1    3    3  502    0 -0.10055319326E+03 -0.26564550597E+02  0.36735863473E+03  0.38179704889E+03  0.25500000920E-02 0.  1.
       -2    1    3    3    0  502  0.10055319326E+03  0.26564550597E+02 -0.21397321975E+03  0.23790998046E+03  0.25500000920E-02 0. -1.
</event>
<event>
 5   0  0.5785798E-03  0.5981704E+03  0.7818609E-02  0.9909209E-01
       -1   -1    0    0    0  501  0.00000000000E+00  0.00000000000E+00  0.11669783229E+03  0.11669783240E+03  0.50400001928E-02 0.  1.
        1   -1    0    0  501    0  0.00000000000E+00  0.00000000000E+00 -0.76652633736E+03  0.76652633738E+03  0.50400001928E-02 0. -1.
    10030    2    1    2    0    0  0.00000000000E+00  0.00000000000E+00 -0.64982850507E+03  0.88322416978E+03  0.59817041726E+03 0.  0.
        1    1    3    3  502    0  0.73806048473E+02  0.21474830089E+03 -0.61232015830E+03  0.65306978327E+03  0.50400001928E-02 0. -1.
       -1    1    3    3    0  502 -0.73806048473E+02 -0.21474830089E+03 -0.37508346765E+02  0.23015438651E+03  0.50400001928E-02 0.  1.
</event>
<event>
 5   0  0.9530666E-03  0.5990350E+03  0.7818609E-02  0.9907410E-01
       -2   -1    0    0    0  501  0.00000000000E+00  0.00000000000E+00  0.32200956187E+03  0.32200956188E+03  0.25500000920E-02 0. -1.
        2   -1    0    0  501    0  0.00000000000E+00  0.00000000000E+00 -0.27859645208E+03  0.27859645209E+03  0.25500000920E-02 0.  1.
    10030    2    1    2    0    0  0.00000000000E+00  0.00000000000E+00  0.43413109788E+02  0.60060601397E+03  0.59903496218E+03 0.  0.
        2    1    3    3  502    0  0.13763014458E+03 -0.25025245297E+03  0.11217831602E+03  0.30684250277E+03  0.25500000920E-02 0. -1.
       -2    1    3    3    0  502 -0.13763014458E+03  0.25025245297E+03 -0.68765206236E+02  0.29376351120E+03  0.25500000920E-02 0.  1.
</event>
<event>
 5   0  0.5785798E-03  0.6008531E+03  0.7818609E-02  0.9903638E-01
        1   -1    0    0  501    0  0.00000000000E+00  0.00000000000E+00  0.76510866301E+03  0.76510866303E+03  0.50400001928E-02 0.  1.
       -1   -1    0    0    0  501  0.00000000000E+00  0.00000000000E+00 -0.11796507058E+03  0.11796507069E+03  0.50400001928E-02 0. -1.
    10030    2    1    2    0    0  0.00000000000E+00  0.00000000000E+00  0.64714359243E+03  0.88307373371E+03  0.60085305188E+03 0.  0.
        1    1    3    3  502    0  0.35852707294E+01 -0.56529695928E+02  0.75718968279E+03  0.75930539076E+03  0.50400001928E-02 0.  1.
       -1    1    3    3    0  502 -0.35852707294E+01  0.56529695928E+02 -0.11004609036E+03  0.12376834295E+03  0.50400001928E-02 0. -1.
</event>
<event>
 5   0  0.9866317E-03  0.5995679E+03  0.7818609E-02  0.9906303E-01
       -2   -1    0    0    0  501  0.00000000000E+00  0.00000000000E+00  0.18617665650E+03  0.18617665652E+03  0.25500000920E-02 0. -1.
        2   -1    0    0  501    0  0.00000000000E+00  0.00000000000E+00 -0.48271578860E+03  0.48271578860E+03  0.25500000920E-02 0.  1.
    10030    2    1    2    0    0  0.00000000000E+00  0.00000000000E+00 -0.29653913210E+03  0.66889244512E+03  0.59956788296E+03 0.  0.
        1    1    3    3  502    0 -0.12197076404E+03 -0.11913416819E+03 -0.42335769015E+03  0.45640064762E+03  0.50400001928E-02 0.  1.
       -1    1    3    3    0  502  0.12197076404E+03  0.11913416819E+03  0.12681855806E+03  0.21249179750E+03  0.50400001928E-02 0. -1.
</event>
<event>
 5   0  0.5491236E-03  0.6001869E+03  0.7818609E-02  0.9905018E-01
        1   -1    0    0  501    0  0.00000000000E+00  0.00000000000E+00  0.92678254807E+03  0.92678254808E+03  0.50400001928E-02 0. -1.
       -1   -1    0    0    0  501  0.00000000000E+00  0.00000000000E+00 -0.97170675855E+02  0.97170675986E+02  0.50400001928E-02 0.  1.
    10030    2    1    2    0    0  0.00000000000E+00  0.00000000000E+00  0.82961187222E+03  0.10239532241E+04  0.60018692635E+03 0.  0.
        3    1    3    3  502    0 -0.22839108913E+03  0.10765865025E+03  0.13811311222E+03  0.28779874310E+03  0.10100000352E+00 0. -1.
       -3    1    3    3    0  502  0.22839108913E+03 -0.10765865025E+03  0.69149876000E+03  0.73615448097E+03  0.10100000352E+00 0.  1.
</event>
<event>
 5   0  0.3794375E-03  0.5995499E+03  0.7818609E-02  0.9906340E-01
       -4   -1    0    0    0  501  0.00000000000E+00  0.00000000000E+00  0.32411795912E+03  0.32412044725E+03  0.12699999809E+01 0.  1.
        4   -1    0    0  501    0  0.00000000000E+00  0.00000000000E+00 -0.27725527022E+03  0.27725817889E+03  0.12699999809E+01 0. -1.
    10030    2    1    2    0    0  0.00000000000E+00  0.00000000000E+00  0.46862688901E+02  0.60137862614E+03  0.59954994819E+03 0.  0.
        2    1    3    3  502    0  0.11429082459E+03  0.92238041865E+02  0.28556114285E+03  0.32111589070E+03  0.25500000920E-02 0.  1.
       -2    1    3    3    0  502 -0.11429082459E+03 -0.92238041865E+02 -0.23869845394E+03  0.28026273544E+03  0.25500000920E-02 0. -1.
</event>
<event>
 5   0  0.9866317E-03  0.6000030E+03  0.7818609E-02  0.9905400E-01
       -2   -1    0    0    0  501  0.00000000000E+00  0.00000000000E+00  0.27894604701E+03  0.27894604702E+03  0.25500000920E-02 0.  1.
        2   -1    0    0  501    0  0.00000000000E+00  0.00000000000E+00 -0.32264629491E+03  0.32264629492E+03  0.25500000920E-02 0. -1.
    10030    2    1    2    0    0  0.00000000000E+00  0.00000000000E+00 -0.43700247901E+02  0.60159234194E+03  0.60000302850E+03 0.  0.
        1    1    3    3  502    0  0.11167446868E+03  0.25477684805E+03 -0.13447967839E+03  0.30897769042E+03  0.50400001928E-02 0.  1.
       -1    1    3    3    0  502 -0.11167446868E+03 -0.25477684805E+03  0.90779430487E+02  0.29261465151E+03  0.50400001928E-02 0. -1.
</event>
<event>
 5   0  0.5653633E-03  0.5999160E+03  0.7818609E-02  0.9905580E-01
       -1   -1    0    0    0  501  0.00000000000E+00  0.00000000000E+00  0.63356981862E+02  0.63356982062E+02  0.50400001928E-02 0. -1.
        1   -1    0    0  501    0  0.00000000000E+00  0.00000000000E+00 -0.14201247186E+04  0.14201247187E+04  0.50400001928E-02 0.  1.
    10030    2    1    2    0    0  0.00000000000E+00  0.00000000000E+00 -0.13567677368E+04  0.14834817007E+04  0.59991604811E+03 0.  0.
        2    1    3    3  502    0 -0.16805729281E+03  0.17476487797E+03 -0.24167597057E+03  0.34233505662E+03  0.25500000920E-02 0. -1.
       -2    1    3    3    0  502  0.16805729281E+03 -0.17476487797E+03 -0.11150917662E+04  0.11411466441E+04  0.25500000920E-02 0.  1.
</event>
<event>
 5   0  0.9530666E-03  0.5998225E+03  0.7818609E-02  0.9905774E-01
        2   -1    0    0  501    0  0.00000000000E+00  0.00000000000E+00  0.25486265766E+03  0.25486265768E+03  0.25500000920E-02 0.  1.
       -2   -1    0    0    0  501  0.00000000000E+00  0.00000000000E+00 -0.35292242641E+03  0.35292242642E+03  0.25500000920E-02 0. -1.
    10030    2    1    2    0    0  0.00000000000E+00  0.00000000000E+00 -0.98059768742E+02  0.60778508409E+03  0.59982246557E+03 0.  0.
        2    1    3    3  502    0  0.17795030069E+03 -0.10449551264E+00  0.19558826313E+03  0.26442596150E+03  0.25500000920E-02 0.  1.
       -2    1    3    3    0  502 -0.17795030069E+03  0.10449551264E+00 -0.29364803187E+03  0.34335912259E+03  0.25500000920E-02 0. -1.
</event>
<event>
 5   0  0.9866317E-03  0.5997284E+03  0.7818609E-02  0.9905970E-01
        2   -1    0    0  501    0  0.00000000000E+00  0.00000000000E+00  0.14285710035E+04  0.14285710035E+04  0.25500000920E-02 0.  1.
       -2   -1    0    0    0  501  0.00000000000E+00  0.00000000000E+00 -0.62942995769E+02  0.62942995821E+02  0.25500000920E-02 0. -1.
    10030    2    1    2    0    0  0.00000000000E+00  0.00000000000E+00  0.13656280078E+04  0.14915139993E+04  0.59972840077E+03 0.  0.
        1    1    3    3  502    0  0.18844865812E+03  0.23288292048E+03  0.71535332024E+03  0.77554994952E+03  0.50400001928E-02 0. -1.
       -1    1    3    3    0  502 -0.18844865812E+03 -0.23288292048E+03  0.65027468752E+03  0.71596404983E+03  0.50400001928E-02 0.  1.
</event>
<event>
 5   0  0.5653633E-03  0.6040198E+03  0.7818609E-02  0.9897101E-01
        1   -1    0    0  501    0  0.00000000000E+00  0.00000000000E+00  0.54527631392E+03  0.54527631395E+03  0.50400001928E-02 0.  1.
       -1   -1    0    0    0  501  0.00000000000E+00  0.00000000000E+00 -0.16727296571E+03  0.16727296578E+03  0.50400001928E-02 0. -1.
    10030    2    1    2    0    0  0.00000000000E+00  0.00000000000E+00  0.37800334821E+03  0.71254927973E+03  0.60401982152E+03 0.  0.
        2    1    3    3  502    0 -0.28853861855E+03 -0.35282817958E+02  0.92364645548E+02  0.30500924476E+03  0.25500000920E-02 0. -1.
       -2    1    3    3    0  502  0.28853861855E+03  0.35282817958E+02  0.28563870266E+03  0.40754003497E+03  0.25500000920E-02 0.  1.
</event>
<event>
 5   0  0.5503975E-03  0.6003346E+03  0.7818609E-02  0.9904712E-01
        1   -1    0    0  501    0  0.00000000000E+00  0.00000000000E+00  0.39832553965E+03  0.39832553968E+03  0.50400001928E-02 0. -1.
       -1   -1    0    0    0  501  0.00000000000E+00  0.00000000000E+00 -0.22619792883E+03  0.22619792888E+03  0.50400001928E-02 0.  1.
    10030    2    1    2    0    0  0.00000000000E+00  0.00000000000E+00  0.17212761082E+03  0.62452346857E+03  0.60033461368E+03 0.  0.
        4    1    3    3  502    0 -0.72458206937E+02  0.27498273104E+02  0.38773503110E+03  0.39540664388E+03  0.12699999809E+01 0. -1.
       -4    1    3    3    0  502  0.72458206937E+02 -0.27498273104E+02 -0.21560742028E+03  0.22911682469E+03  0.12699999809E+01 0.  1.
</event>
<event>
 5   0  0.9571790E-03  0.6002555E+03  0.7818609E-02  0.9904876E-01
        2   -1    0    0  501    0  0.00000000000E+00  0.00000000000E+00  0.52232732625E+03  0.52232732625E+03  0.25500000920E-02 0. -1.
       -2   -1    0    0    0  501  0.00000000000E+00  0.00000000000E+00 -0.17245253488E+03  0.17245253490E+03  0.25500000920E-02 0.  1.
    10030    2    1    2    0    0  0.00000000000E+00  0.00000000000E+00  0.34987479136E+03  0.69477986116E+03  0.60025551712E+03 0.  0.
        5    1    3    3  502    0  0.30007178182E+03 -0.16406149049E+01  0.17837405900E+03  0.34912055337E+03  0.46999998093E+01 0. -1.
       -5    1    3    3    0  502 -0.30007178182E+03  0.16406149049E+01  0.17150073236E+03  0.34565930779E+03  0.46999998093E+01 0.  1.
</event>
<event>
 5   0  0.5491236E-03  0.5997758E+03  0.7818609E-02  0.9905871E-01
        1   -1    0    0  501    0  0.00000000000E+00  0.00000000000E+00  0.65458339153E+03  0.65458339155E+03  0.50400001928E-02 0.  1.
       -1   -1    0    0    0  501  0.00000000000E+00  0.00000000000E+00 -0.13738930009E+03  0.13738930019E+03  0.50400001928E-02 0. -1.
    10030    2    1    2    0    0  0.00000000000E+00  0.00000000000E+00  0.51719409143E+03  0.79197269173E+03  0.59977580498E+03 0.  0.
        3    1    3    3  502    0 -0.16452771434E+02 -0.28721299596E+03  0.14678118592E+03  0.32296551747E+03  0.10100000352E+00 0. -1.
       -3    1    3    3    0  502  0.16452771434E+02  0.28721299596E+03  0.37041290551E+03  0.46900717426E+03  0.10100000352E+00 0.  1.
</event>
<event>
 5   0  0.5785798E-03  0.6035879E+03  0.7818609E-02  0.9897990E-01
       -1   -1    0    0    0  501  0.00000000000E+00  0.00000000000E+00  0.88488639838E+02  0.88488639982E+02  0.50400001928E-02 0. -1.
        1   -1    0    0  501    0  0.00000000000E+00  0.00000000000E+00 -0.10292800856E+04  0.10292800856E+04  0.50400001928E-02 0.  1.
    10030    2    1    2    0    0  0.00000000000E+00  0.00000000000E+00 -0.94079144575E+03  0.11177687256E+04  0.60358792193E+03 0.  0.
        1    1    3    3  502    0  0.20927318918E+03 -0.11858376621E+03 -0.13285535281E+03  0.27478704867E+03  0.50400001928E-02 0. -1.
       -1    1    3    3    0  502 -0.20927318918E+03  0.11858376621E+03 -0.80793609294E+03  0.84298167691E+03  0.50400001928E-02 0.  1.
</event>
<event>
 5   0  0.9428629E-03  0.5994929E+03  0.7818609E-02  0.9906459E-01
        2   -1    0    0  501    0  0.00000000000E+00  0.00000000000E+00  0.78511170507E+03  0.78511170507E+03  0.25500000920E-02 0. -1.
       -2   -1    0    0    0  501  0.00000000000E+00  0.00000000000E+00 -0.11443968604E+03  0.11443968607E+03  0.25500000920E-02 0.  1.
    10030    2    1    2    0    0  0.00000000000E+00  0.00000000000E+00  0.67067201902E+03  0.89955139114E+03  0.59949290921E+03 0.  0.
        3    1    3    3  502    0  0.69037698057E+02  0.25133099076E+03  0.55746604080E+03  0.61538757504E+03  0.10100000352E+00 0. -1.
       -3    1    3    3    0  502 -0.69037698057E+02 -0.25133099076E+03  0.11320597822E+03  0.28416381610E+03  0.10100000352E+00 0.  1.
</event>
<event>
 5   0  0.9571790E-03  0.5964021E+03  0.7818609E-02  0.9912899E-01
       -2   -1    0    0    0  501  0.00000000000E+00  0.00000000000E+00  0.12422142932E+03  0.12422142935E+03  0.25500000920E-02 0.  1.
        2   -1    0    0  501    0  0.00000000000E+00  0.00000000000E+00 -0.71584967681E+03  0.71584967682E+03  0.25500000920E-02 0. -1.
    10030    2    1    2    0    0  0.00000000000E+00  0.00000000000E+00 -0.59162824749E+03  0.84007110617E+03  0.59640211283E+03 0.  0.
        5    1    3    3  502    0 -0.12056617007E+03  0.83862129639E+02 -0.66131629380E+03  0.67744401141E+03  0.46999998093E+01 0. -1.
       -5    1    3    3    0  502  0.12056617007E+03 -0.83862129639E+02  0.69688046311E+02  0.16262709476E+03  0.46999998093E+01 0.  1.
</event>
<event>
 5   0  0.5574736E-03  0.6011268E+03  0.7818609E-02  0.9903071E-01
       -1   -1    0    0    0  501  0.00000000000E+00  0.00000000000E+00  0.12917825124E+03  0.12917825133E+03  0.50400001928E-02 0.  1.
        1   -1    0    0  501    0  0.00000000000E+00  0.00000000000E+00 -0.69933112470E+03  0.69933112472E+03  0.50400001928E-02 0. -1.
    10030    2    1    2    0    0  0.00000000000E+00  0.00000000000E+00 -0.57015287346E+03  0.82850937605E+03  0.60112684775E+03 0.  0.
        5    1    3    3  502    0  0.13412833782E+03  0.13510927416E+02  0.85117568490E+02  0.15949936248E+03  0.46999998093E+01 0.  1.
       -5    1    3    3    0  502 -0.13412833782E+03 -0.13510927416E+02 -0.65527044195E+03  0.66901001357E+03  0.46999998093E+01 0. -1.
</event>
<event>
 5   0  0.5653633E-03  0.6008436E+03  0.7818609E-02  0.9903657E-01
       -1   -1    0    0    0  501  0.00000000000E+00  0.00000000000E+00  0.32658768054E+03  0.32658768057E+03  0.50400001928E-02 0.  1.
        1   -1    0    0  501    0  0.00000000000E+00  0.00000000000E+00 -0.27635233745E+03  0.27635233749E+03  0.50400001928E-02 0. -1.
    10030    2    1    2    0    0  0.00000000000E+00  0.00000000000E+00  0.50235343089E+02  0.60294001807E+03  0.60084363664E+03 0.  0.
        2    1    3    3  502    0  0.22491440297E+03  0.18779496830E+03 -0.41444977643E+02  0.29592418786E+03  0.25500000920E-02 0. -1.
       -2    1    3    3    0  502 -0.22491440297E+03 -0.18779496830E+03  0.91680320732E+02  0.30701583021E+03  0.25500000920E-02 0.  1.
</event>
<event>
 5   0  0.9681801E-03  0.6014755E+03  0.7818609E-02  0.9902349E-01
        2   -1    0    0  501    0  0.00000000000E+00  0.00000000000E+00  0.24556004257E+03  0.24556004259E+03  0.25500000920E-02 0. -1.
       -2   -1    0    0    0  501  0.00000000000E+00  0.00000000000E+00 -0.36831402755E+03  0.36831402756E+03  0.25500000920E-02 0.  1.
    10030    2    1    2    0    0  0.00000000000E+00  0.00000000000E+00 -0.12275398497E+03  0.61387407015E+03  0.60147554661E+03 0.  0.
        4    1    3    3  502    0 -0.96746593626E+02 -0.24587636207E+03 -0.20795680225E+03  0.33624802350E+03  0.12699999809E+01 0.  1.
       -4    1    3    3    0  502  0.96746593626E+02  0.24587636207E+03  0.85202817279E+02  0.27762604665E+03  0.12699999809E+01 0. -1.
</event>
<event>
 5   0  0.3794375E-03  0.6005813E+03  0.7818609E-02  0.9904201E-01
       -4   -1    0    0    0  501  0.00000000000E+00  0.00000000000E+00  0.65720557745E+03  0.65720680454E+03  0.12699999809E+01 0. -1.
        4   -1    0    0  501    0  0.00000000000E+00  0.00000000000E+00 -0.13720463212E+03  0.13721050971E+03  0.12699999809E+01 0.  1.
    10030    2    1    2    0    0  0.00000000000E+00  0.00000000000E+00  0.52000094533E+03  0.79441731425E+03  0.60058129012E+03 0.  0.
        2    1    3    3  502    0  0.20974784976E+03  0.20171670623E+03  0.16198604084E+03  0.33305144870E+03  0.25500000920E-02 0.  1.
       -2    1    3    3    0  502 -0.20974784976E+03 -0.20171670623E+03  0.35801490449E+03  0.46136586555E+03  0.25500000920E-02 0. -1.
</event>
<event>
 5   0  0.5503975E-03  0.5991616E+03  0.7818609E-02  0.9907147E-01
        1   -1    0    0  501    0  0.00000000000E+00  0.00000000000E+00  0.23388006440E+03  0.23388006446E+03  0.50400001928E-02 0.  1.
       -1   -1    0    0    0  501  0.00000000000E+00  0.00000000000E+00 -0.38373795564E+03  0.38373795567E+03  0.50400001928E-02 0. -1.
    10030    2    1    2    0    0  0.00000000000E+00  0.00000000000E+00 -0.14985789123E+03  0.61761802012E+03  0.59916160693E+03 0.  0.
        4    1    3    3  502    0 -0.46343715975E+02 -0.24736994377E+03 -0.24243824955E+03  0.34945321122E+03  0.12699999809E+01 0. -1.
       -4    1    3    3    0  502  0.46343715975E+02  0.24736994377E+03  0.92580358312E+02  0.26816480890E+03  0.12699999809E+01 0.  1.
</event>
<event>
 5   0  0.9530666E-03  0.5995989E+03  0.7818609E-02  0.9906238E-01
       -2   -1    0    0    0  501  0.00000000000E+00  0.00000000000E+00  0.13758768984E+03  0.13758768987E+03  0.25500000920E-02 0.  1.
        2   -1    0    0  501    0  0.00000000000E+00  0.00000000000E+00 -0.65325408053E+03  0.65325408054E+03  0.25500000920E-02 0. -1.
    10030    2    1    2    0    0  0.00000000000E+00  0.00000000000E+00 -0.51566639069E+03  0.79084177040E+03  0.59959893206E+03 0.  0.
        2    1    3    3  502    0  0.13315603745E+03  0.44914551454E+02 -0.60712344818E+03  0.62317471754E+03  0.25500000920E-02 0. -1.
       -2    1    3    3    0  502 -0.13315603745E+03 -0.44914551454E+02  0.91457057495E+02  0.16766705286E+03  0.25500000920E-02 0.  1.
</event>
<event>
 5   0  0.3794375E-03  0.6009059E+03  0.7818609E-02  0.9903528E-01
       -3   -1    0    0    0  501  0.00000000000E+00  0.00000000000E+00  0.41553655936E+03  0.41553657164E+03  0.10100000352E+00 0.  1.
        3   -1    0    0  501    0  0.00000000000E+00  0.00000000000E+00 -0.21724190625E+03  0.21724192973E+03  0.10100000352E+00 0. -1.
    10030    2    1    2    0    0  0.00000000000E+00  0.00000000000E+00  0.19829465311E+03  0.63277850137E+03  0.60090586812E+03 0.  0.
        1    1    3    3  502    0 -0.29026169260E+03 -0.77522251315E+02  0.10254587991E+03  0.31745425994E+03  0.50400001928E-02 0.  1.
       -1    1    3    3    0  502  0.29026169260E+03  0.77522251315E+02  0.95748773199E+02  0.31532424143E+03  0.50400001928E-02 0. -1.
</event>
<event>
 5   0  0.5653633E-03  0.5987859E+03  0.7818609E-02  0.9907928E-01
        1   -1    0    0  501    0  0.00000000000E+00  0.00000000000E+00  0.31901161610E+03  0.31901161614E+03  0.50400001928E-02 0.  1.
       -1   -1    0    0    0  501  0.00000000000E+00  0.00000000000E+00 -0.28098078466E+03  0.28098078471E+03  0.50400001928E-02 0. -1.
    10030    2    1    2    0    0  0.00000000000E+00  0.00000000000E+00  0.38030831441E+02  0.59999240085E+03  0.59878588572E+03 0.  0.
        2    1    3    3  502    0  0.25453107777E+03  0.11385438057E+03 -0.90232911651E+02  0.29307143818E+03  0.25500000920E-02 0. -1.
       -2    1    3    3    0  502 -0.25453107777E+03 -0.11385438057E+03  0.12826374309E+03  0.30692096267E+03  0.25500000920E-02 0.  1.
</event>
<event>
 5   0  0.9866317E-03  0.5995075E+03  0.7818609E-02  0.9906428E-01
       -2   -1    0    0    0  501  0.00000000000E+00  0.00000000000E+00  0.17471594858E+03  0.17471594860E+03  0.25500000920E-02 0.  1.
        2   -1    0    0  501    0  0.00000000000E+00  0.00000000000E+00 -0.51427660665E+03  0.51427660665E+03  0.25500000920E-02 0. -1.
    10030    2    1    2    0    0  0.00000000000E+00  0.00000000000E+00 -0.33956065806E+03  0.68899255525E+03  0.59950754849E+03 0.  0.
        1    1    3    3  502    0 -0.18969779326E+03  0.10690586895E+03 -0.40653490940E+03  0.46117756903E+03  0.50400001928E-02 0. -1.
       -1    1    3    3    0  502  0.18969779326E+03 -0.10690586895E+03  0.66974251344E+02  0.22781498623E+03  0.50400001928E-02 0.  1.
</event>
<event>
 5   0  0.5785798E-03  0.5997306E+03  0.7818609E-02  0.9905965E-01
       -1   -1    0    0    0  501  0.00000000000E+00  0.00000000000E+00  0.49076174871E+03  0.49076174874E+03  0.50400001928E-02 0.  1.
        1   -1    0    0  501    0  0.00000000000E+00  0.00000000000E+00 -0.18322372787E+03  0.18322372794E+03  0.50400001928E-02 0. -1.
    10030    2    1    2    0    0  0.00000000000E+00  0.00000000000E+00  0.30753802084E+03  0.67398547667E+03  0.59973059661E+03 0.  0.
        1    1    3    3  502    0  0.13216736755E+03  0.19417857106E+03  0.36325001908E+03  0.43257844016E+03  0.50400001928E-02 0.  1.
       -1    1    3    3    0  502 -0.13216736755E+03 -0.19417857106E+03 -0.55711998238E+02  0.24140703651E+03  0.50400001928E-02 0. -1.
</event>
<event>
 5   0  0.5491236E-03  0.5999269E+03  0.7818609E-02  0.9905558E-01
        1   -1    0    0  501    0  0.00000000000E+00  0.00000000000E+00  0.47229667785E+03  0.47229667787E+03  0.50400001928E-02 0. -1.
       -1   -1    0    0    0  501  0.00000000000E+00  0.00000000000E+00 -0.19051173373E+03  0.19051173379E+03  0.50400001928E-02 0.  1.
    10030    2    1    2    0    0  0.00000000000E+00  0.00000000000E+00  0.28178494412E+03  0.66280841167E+03  0.59992685874E+03 0.  0.
        3    1    3    3  502    0 -0.38251834457E+02 -0.12062272626E+03  0.44136366945E+03  0.45914588514E+03  0.10100000352E+00 0. -1.
       -3    1    3    3    0  502  0.38251834457E+02  0.12062272626E+03 -0.15957872533E+03  0.20366252652E+03  0.10100000352E+00 0.  1.
</event>
<event>
 5   0  0.9681801E-03  0.5992277E+03  0.7818609E-02  0.9907010E-01
        2   -1    0    0  501    0  0.00000000000E+00  0.00000000000E+00  0.22731121951E+03  0.22731121953E+03  0.25500000920E-02 0. -1.
       -2   -1    0    0    0  501  0.00000000000E+00  0.00000000000E+00 -0.39491428266E+03  0.39491428267E+03  0.25500000920E-02 0.  1.
    10030    2    1    2    0    0  0.00000000000E+00  0.00000000000E+00 -0.16760306315E+03  0.62222550220E+03  0.59922766025E+03 0.  0.
        4    1    3    3  502    0  0.26416604937E+02 -0.16543757882E+03 -0.34172831494E+03  0.38058807605E+03  0.12699999809E+01 0.  1.
       -4    1    3    3    0  502 -0.26416604937E+02  0.16543757882E+03  0.17412525179E+03  0.24163742614E+03  0.12699999809E+01 0. -1.
</event>
<event>
 5   0  0.9866317E-03  0.5988399E+03  0.7818609E-02  0.9907816E-01
       -2   -1    0    0    0  501  0.00000000000E+00  0.00000000000E+00  0.30416738201E+03  0.30416738202E+03  0.25500000920E-02 0. -1.
        2   -1    0    0  501    0  0.00000000000E+00  0.00000000000E+00 -0.29474666185E+03  0.29474666186E+03  0.25500000920E-02 0.  1.
    10030    2    1    2    0    0  0.00000000000E+00  0.00000000000E+00  0.94207201548E+01  0.59891404388E+03  0.59883994689E+03 0.  0.
        1    1    3    3  502    0 -0.21501337423E+03 -0.17384459810E+03  0.11961419717E+03  0.30126442136E+03  0.50400001928E-02 0. -1.
       -1    1    3    3    0  502  0.21501337423E+03  0.17384459810E+03 -0.11019347701E+03  0.29764962252E+03  0.50400001928E-02 0.  1.
</event>
<event>
 5   0  0.3794375E-03  0.5999639E+03  0.7818609E-02  0.9905481E-01
       -4   -1    0    0    0  501  0.00000000000E+00  0.00000000000E+00  0.18896073484E+03  0.18896500261E+03  0.12699999809E+01 0.  1.
        4   -1    0    0  501    0  0.00000000000E+00  0.00000000000E+00 -0.47622168856E+03  0.47622338199E+03  0.12699999809E+01 0. -1.
    10030    2    1    2    0    0  0.00000000000E+00  0.00000000000E+00 -0.28726095372E+03  0.66518838460E+03  0.59996394181E+03 0.  0.
        4    1    3    3  502    0 -0.29990552916E+03 -0.18032313204E+01 -0.13653194444E+03  0.32952869801E+03  0.12699999809E+01 0. -1.
       -4    1    3    3    0  502  0.29990552916E+03  0.18032313204E+01 -0.15072900928E+03  0.33565968659E+03  0.12699999809E+01 0.  1.
</event>
<event>
 5   0  0.5503975E-03  0.5999686E+03  0.7818609E-02  0.9905471E-01
        1   -1    0    0  501    0  0.00000000000E+00  0.00000000000E+00  0.16345505061E+04  0.16345505062E+04  0.50400001928E-02 0. -1.
       -1   -1    0    0    0  501  0.00000000000E+00  0.00000000000E+00 -0.55055255060E+02  0.55055255291E+02  0.50400001928E-02 0.  1.
    10030    2    1    2    0    0  0.00000000000E+00  0.00000000000E+00  0.15794952511E+04  0.16896057614E+04  0.59996864994E+03 0.  0.
        4    1    3    3  502    0  0.28113034940E+03 -0.38922780719E+02  0.51613475598E+03  0.58902118420E+03  0.12699999809E+01 0. -1.
       -4    1    3    3    0  502 -0.28113034940E+03  0.38922780719E+02  0.10633604951E+04  0.11005845772E+04  0.12699999809E+01 0.  1.
</event>
<event>
 5   0  0.5574736E-03  0.5995618E+03  0.7818609E-02  0.9906316E-01
        1   -1    0    0  501    0  0.00000000000E+00  0.00000000000E+00  0.25275462428E+03  0.25275462433E+03  0.50400001928E-02 0. -1.
       -1   -1    0    0    0  501  0.00000000000E+00  0.00000000000E+00 -0.35555662386E+03  0.35555662390E+03  0.50400001928E-02 0.  1.
    10030    2    1    2    0    0  0.00000000000E+00  0.00000000000E+00 -0.10280199958E+03  0.60831124823E+03  0.59956177630E+03 0.  0.
        5    1    3    3  502    0  0.17309931639E+03 -0.19523004010E+03 -0.20109509008E+03  0.32945328523E+03  0.46999998093E+01 0. -1.
       -5    1    3    3    0  502 -0.17309931639E+03  0.19523004010E+03  0.98293090503E+02  0.27885796300E+03  0.46999998093E+01 0.  1.
</event>
<event>
 5   0  0.9530666E-03  0.5943171E+03  0.7818609E-02  0.9917267E-01
        2   -1    0    0  501    0  0.00000000000E+00  0.00000000000E+00  0.87970898060E+03  0.87970898060E+03  0.25500000920E-02 0.  1.
       -2   -1    0    0    0  501  0.00000000000E+00  0.00000000000E+00 -0.10037773927E+03  0.10037773931E+03  0.25500000920E-02 0. -1.
    10030    2    1    2    0    0  0.00000000000E+00  0.00000000000E+00  0.77933124132E+03  0.98008671990E+03  0.59431708274E+03 0.  0.
        2    1    3    3  502    0  0.44975030082E+02 -0.42396663039E+02  0.86899149515E+03  0.87118680489E+03  0.25500000920E-02 0.  1.
       -2    1    3    3    0  502 -0.44975030082E+02  0.42396663039E+02 -0.89660253825E+02  0.10889991501E+03  0.25500000920E-02 0. -1.
</event>
<event>
 5   0  0.5503975E-03  0.5998504E+03  0.7818609E-02  0.9905716E-01
        1   -1    0    0  501    0  0.00000000000E+00  0.00000000000E+00  0.43566651507E+03  0.43566651510E+03  0.50400001928E-02 0. -1.
       -1   -1    0    0    0  501  0.00000000000E+00  0.00000000000E+00 -0.20647702903E+03  0.20647702909E+03  0.50400001928E-02 0.  1.
    10030    2    1    2    0    0  0.00000000000E+00  0.00000000000E+00  0.22918948604E+03  0.64214354419E+03  0.59985040705E+03 0.  0.
        4    1    3    3  502    0  0.61712685351E+02  0.40621104660E+02 -0.19658020793E+03  0.21000933485E+03  0.12699999809E+01 0.  1.
       -4    1    3    3    0  502 -0.61712685351E+02 -0.40621104660E+02  0.42576969397E+03  0.43213420934E+03  0.12699999809E+01 0. -1.
</event>
<event>
 5   0  0.9571790E-03  0.6026719E+03  0.7818609E-02  0.9899878E-01
       -2   -1    0    0    0  501  0.00000000000E+00  0.00000000000E+00  0.28628933481E+03  0.28628933482E+03  0.25500000920E-02 0.  1.
        2   -1    0    0  501    0  0.00000000000E+00  0.00000000000E+00 -0.31717339932E+03  0.31717339933E+03  0.25500000920E-02 0. -1.
    10030    2    1    2    0    0  0.00000000000E+00  0.00000000000E+00 -0.30884064508E+02  0.60346273415E+03  0.60267192242E+03 0.  0.
        5    1    3    3  502    0  0.69746896242E+02 -0.10345954892E+03  0.25916728662E+03  0.28767738919E+03  0.46999998093E+01 0.  1.
       -5    1    3    3    0  502 -0.69746896242E+02  0.10345954892E+03 -0.29005135113E+03  0.31578534496E+03  0.46999998093E+01 0. -1.
</event>
<event>
 5   0  0.5574736E-03  0.6002928E+03  0.7818609E-02  0.9904799E-01
        1   -1    0    0  501    0  0.00000000000E+00  0.00000000000E+00  0.96924859533E+03  0.96924859534E+03  0.50400001928E-02 0. -1.
       -1   -1    0    0    0  501  0.00000000000E+00  0.00000000000E+00 -0.92946074651E+02  0.92946074788E+02  0.50400001928E-02 0.  1.
    10030    2    1    2    0    0  0.00000000000E+00  0.00000000000E+00  0.87630252068E+03  0.10621946701E+04  0.60029276983E+03 0.  0.
        5    1    3    3  502    0 -0.22647305297E+03 -0.10062987642E+03  0.73765232208E+03  0.77818343211E+03  0.46999998093E+01 0. -1.
       -5    1    3    3    0  502  0.22647305297E+03  0.10062987642E+03  0.13865019860E+03  0.28401123802E+03  0.46999998093E+01 0.  1.
</event>
<event>
 5   0  0.5503975E-03  0.5999754E+03  0.7818609E-02  0.9905457E-01
       -1   -1    0    0    0  501  0.00000000000E+00  0.00000000000E+00  0.24082203415E+03  0.24082203420E+03  0.50400001928E-02 0. -1.
        1   -1    0    0  501    0  0.00000000000E+00  0.00000000000E+00 -0.37368929526E+03  0.37368929529E+03  0.50400001928E-02 0.  1.
    10030    2    1    2    0    0  0.00000000000E+00  0.00000000000E+00 -0.13286726111E+03  0.61451132949E+03  0.59997538700E+03 0.  0.
        4    1    3    3  502    0  0.17553630887E+01 -0.15543740358E+03  0.19635038126E+03  0.25043752285E+03  0.12699999809E+01 0. -1.
       -4    1    3    3    0  502 -0.17553630887E+01  0.15543740358E+03 -0.32921764237E+03  0.36407380664E+03  0.12699999809E+01 0.  1.
</event>
<event>
 5   0  0.9530666E-03  0.6003694E+03  0.7818609E-02  0.9904640E-01
        2   -1    0    0  501    0  0.00000000000E+00  0.00000000000E+00  0.55123807759E+03  0.55123807759E+03  0.25500000920E-02 0.  1.
       -2   -1    0    0    0  501  0.00000000000E+00  0.00000000000E+00 -0.16346991067E+03  0.16346991069E+03  0.25500000920E-02 0. -1.
    10030    2    1    2    0    0  0.00000000000E+00  0.00000000000E+00  0.38776816692E+03  0.71470798828E+03  0.60036935068E+03 0.  0.
        2    1    3    3  502    0  0.14507563076E+03 -0.12203964873E+03 -0.83186514571E+02  0.20702804331E+03  0.25500000920E-02 0.  1.
       -2    1    3    3    0  502 -0.14507563076E+03  0.12203964873E+03  0.47095468149E+03  0.50767994497E+03  0.25500000920E-02 0. -1.
</event>
<event>
 5   0  0.5574736E-03  0.5972019E+03  0.7818609E-02  0.9911228E-01
       -1   -1    0    0    0  501  0.00000000000E+00  0.00000000000E+00  0.32271523798E+03  0.32271523802E+03  0.50400001928E-02 0.  1.
        1   -1    0    0  501    0  0.00000000000E+00  0.00000000000E+00 -0.27628856606E+03  0.27628856611E+03  0.50400001928E-02 0. -1.
    10030    2    1    2    0    0  0.00000000000E+00  0.00000000000E+00  0.46426671919E+02  0.59900380413E+03  0.59720191016E+03 0.  0.
        5    1    3    3  502    0 -0.70236685548E+02 -0.22708140128E+03 -0.15800077798E+03  0.28545663531E+03  0.46999998093E+01 0. -1.
       -5    1    3    3    0  502  0.70236685548E+02  0.22708140128E+03  0.20442744990E+03  0.31354716882E+03  0.46999998093E+01 0.  1.
</event>
<event>
 5   0  0.9866317E-03  0.5976541E+03  0.7818609E-02  0.9910285E-01
        2   -1    0    0  501    0  0.00000000000E+00  0.00000000000E+00  0.17881788604E+04  0.17881788604E+04  0.25500000920E-02 0. -1.
       -2   -1    0    0    0  501  0.00000000000E+00  0.00000000000E+00 -0.49937735486E+02  0.49937735551E+02  0.25500000920E-02 0.  1.
    10030    2    1    2    0    0  0.00000000000E+00  0.00000000000E+00  0.17382411249E+04  0.18381165959E+04  0.59765409056E+03 0.  0.
        1    1    3    3  502    0 -0.23536632604E+03  0.17406849532E+03  0.68457575856E+03  0.74454087714E+03  0.50400001928E-02 0. -1.
       -1    1    3    3    0  502  0.23536632604E+03 -0.17406849532E+03  0.10536653663E+04  0.10935757188E+04  0.50400001928E-02 0.  1.
</event>
<event>
 5   0  0.5785798E-03  0.6001989E+03  0.7818609E-02  0.9904994E-01
        1   -1    0    0  501    0  0.00000000000E+00  0.00000000000E+00  0.25265534424E+03  0.25265534429E+03  0.50400001928E-02 0. -1.
       -1   -1    0    0    0  501  0.00000000000E+00  0.00000000000E+00 -0.35645268032E+03  0.35645268035E+03  0.50400001928E-02 0.  1.
    10030    2    1    2    0    0  0.00000000000E+00  0.00000000000E+00 -0.10379733608E+03  0.60910802464E+03  0.60019888263E+03 0.  0.
        1    1    3    3  502    0  0.99636179089E+02 -0.12611421964E+03  0.20529465012E+03  0.26072602090E+03  0.50400001928E-02 0. -1.
       -1    1    3    3    0  502 -0.99636179089E+02  0.12611421964E+03 -0.30909198620E+03  0.34838200375E+03  0.50400001928E-02 0.  1.
</event>
<event>
 5   0  0.5653633E-03  0.6019721E+03  0.7818609E-02  0.9901323E-01
       -1   -1    0    0    0  501  0.00000000000E+00  0.00000000000E+00  0.16802469743E+03  0.16802469750E+03  0.50400001928E-02 0. -1.
        1   -1    0    0  501    0  0.00000000000E+00  0.00000000000E+00 -0.53916235956E+03  0.53916235959E+03  0.50400001928E-02 0.  1.
    10030    2    1    2    0    0  0.00000000000E+00  0.00000000000E+00 -0.37113766214E+03  0.70718705709E+03  0.60197206701E+03 0.  0.
        2    1    3    3  502    0  0.14182160563E+03  0.16500916437E+03  0.58750058597E+02  0.22537293879E+03  0.25500000920E-02 0. -1.
       -2    1    3    3    0  502 -0.14182160563E+03 -0.16500916437E+03 -0.42988772073E+03  0.48181411830E+03  0.25500000920E-02 0.  1.
</event>
<event>
 5   0  0.9681801E-03  0.6000523E+03  0.7818609E-02  0.9905298E-01
       -2   -1    0    0    0  501  0.00000000000E+00  0.00000000000E+00  0.12230751447E+04  0.12230751447E+04  0.25500000920E-02 0. -1.
        2   -1    0    0  501    0  0.00000000000E+00  0.00000000000E+00 -0.73597843648E+02  0.73597843692E+02  0.25500000920E-02 0.  1.
    10030    2    1    2    0    0  0.00000000000E+00  0.00000000000E+00  0.11494773011E+04  0.12966729884E+04  0.60005230872E+03 0.  0.
        4    1    3    3  502    0  0.96795349301E+02  0.18131157882E+03  0.10243332007E+03  0.22964630679E+03  0.12699999809E+01 0.  1.
       -4    1    3    3    0  502 -0.96795349301E+02 -0.18131157882E+03  0.10470439810E+04  0.10670266816E+04  0.12699999809E+01 0. -1.
</event>
<event>
 5   0  0.9530666E-03  0.6039585E+03  0.7818609E-02  0.9897227E-01
        2   -1    0    0  501    0  0.00000000000E+00  0.00000000000E+00  0.67715243107E+03  0.67715243107E+03  0.25500000920E-02 0. -1.
       -2   -1    0    0    0  501  0.00000000000E+00  0.00000000000E+00 -0.13466904306E+03  0.13466904308E+03  0.25500000920E-02 0.  1.
    10030    2    1    2    0    0  0.00000000000E+00  0.00000000000E+00  0.54248338801E+03  0.81182147416E+03  0.60395850821E+03 0.  0.
        2    1    3    3  502    0 -0.15319282580E+03 -0.10666998003E+03 -0.47824582915E+02  0.19270110859E+03  0.25500000920E-02 0.  1.
       -2    1    3    3    0  502  0.15319282580E+03  0.10666998003E+03  0.59030797092E+03  0.61912036557E+03  0.25500000920E-02 0. -1.
</event>
<event>
 5   0  0.9681801E-03  0.5997762E+03  0.7818609E-02  0.9905870E-01
        2   -1    0    0  501    0  0.00000000000E+00  0.00000000000E+00  0.24869915835E+03  0.24869915836E+03  0.25500000920E-02 0. -1.
       -2   -1    0    0    0  501  0.00000000000E+00  0.00000000000E+00 -0.36161315378E+03  0.36161315379E+03  0.25500000920E-02 0.  1.
    10030    2    1    2    0    0  0.00000000000E+00  0.00000000000E+00 -0.11291399544E+03  0.61031231216E+03  0.59977624828E+03 0.  0.
        4    1    3    3  502    0 -0.18824701200E+03  0.20893604435E+03 -0.16240159882E+03  0.32475698662E+03  0.12699999809E+01 0.  1.
       -4    1    3    3    0  502  0.18824701200E+03 -0.20893604435E+03  0.49487603388E+02  0.28555532554E+03  0.12699999809E+01 0. -1.
</event>
<event>
 5   0  0.5653633E-03  0.6057632E+03  0.7818609E-02  0.9893521E-01
       -1   -1    0    0    0  501  0.00000000000E+00  0.00000000000E+00  0.10069921206E+03  0.10069921218E+03  0.50400001928E-02 0.  1.
        1   -1    0    0  501    0  0.00000000000E+00  0.00000000000E+00 -0.91100265773E+03  0.91100265775E+03  0.50400001928E-02 0. -1.
    10030    2    1    2    0    0  0.00000000000E+00  0.00000000000E+00 -0.81030344568E+03  0.10117018699E+04  0.60576315466E+03 0.  0.
        2    1    3    3  502    0 -0.16352369167E+03  0.25330871636E+02 -0.82883650705E+03  0.84519323602E+03  0.25500000920E-02 0. -1.
       -2    1    3    3    0  502  0.16352369167E+03 -0.25330871636E+02  0.18533061376E+02  0.16650863390E+03  0.25500000920E-02 0.  1.
</event>
<event>
 5   0  0.9866317E-03  0.6034122E+03  0.7818609E-02  0.9898352E-01
       -2   -1    0    0    0  501  0.00000000000E+00  0.00000000000E+00  0.10320390946E+04  0.10320390946E+04  0.25500000920E-02 0. -1.
        2   -1    0    0  501    0  0.00000000000E+00  0.00000000000E+00 -0.88200698849E+02  0.88200698886E+02  0.25500000920E-02 0.  1.
    10030    2    1    2    0    0  0.00000000000E+00  0.00000000000E+00  0.94383839577E+03  0.11202397935E+04  0.60341219546E+03 0.  0.
        1    1    3    3  502    0 -0.16386925399E+03  0.18679094588E+03  0.15423063650E+03  0.29245696970E+03  0.50400001928E-02 0.  1.
       -1    1    3    3    0  502  0.16386925399E+03 -0.18679094588E+03  0.78960775928E+03  0.82778282381E+03  0.50400001928E-02 0. -1.
</event>
<event>
 5   0  0.5503975E-03  0.5998682E+03  0.7818609E-02  0.9905680E-01
        1   -1    0    0  501    0  0.00000000000E+00  0.00000000000E+00  0.13704777783E+04  0.13704777783E+04  0.50400001928E-02 0. -1.
       -1   -1    0    0    0  501  0.00000000000E+00  0.00000000000E+00 -0.65641678656E+02  0.65641678849E+02  0.50400001928E-02 0.  1.
    10030    2    1    2    0    0  0.00000000000E+00  0.00000000000E+00  0.13048360996E+04  0.14361194571E+04  0.59986819243E+03 0.  0.
        4    1    3    3  502    0  0.54885400952E+01  0.10782464304E+03 -0.17501642519E+02  0.10938097691E+03  0.12699999809E+01 0.  1.
       -4    1    3    3    0  502 -0.54885400952E+01 -0.10782464304E+03  0.13223377422E+04  0.13267384802E+04  0.12699999809E+01 0. -1.
</event>
<event>
 5   0  0.5653633E-03  0.6002675E+03  0.7818609E-02  0.9904851E-01
       -1   -1    0    0    0  501  0.00000000000E+00  0.00000000000E+00  0.76273003659E+03  0.76273003660E+03  0.50400001928E-02 0.  1.
        1   -1    0    0  501    0  0.00000000000E+00  0.00000000000E+00 -0.11810243535E+03  0.11810243546E+03  0.50400001928E-02 0. -1.
    10030    2    1    2    0    0  0.00000000000E+00  0.00000000000E+00  0.64462760123E+03  0.88083247206E+03  0.60026752333E+03 0.  0.
        2    1    3    3  502    0  0.82147900515E+01  0.21146618420E+03  0.10013171789E+02  0.21186243992E+03  0.25500000920E-02 0. -1.
       -2    1    3    3    0  502 -0.82147900515E+01 -0.21146618420E+03  0.63461442944E+03  0.66897003214E+03  0.25500000920E-02 0.  1.
</event>
<event>
 5   0  0.5785798E-03  0.5976745E+03  0.7818609E-02  0.9910243E-01
       -1   -1    0    0    0  501  0.00000000000E+00  0.00000000000E+00  0.20178571633E+03  0.20178571639E+03  0.50400001928E-02 0. -1.
        1   -1    0    0  501    0  0.00000000000E+00  0.00000000000E+00 -0.44256700029E+03  0.44256700032E+03  0.50400001928E-02 0.  1.
    10030    2    1    2    0    0  0.00000000000E+00  0.00000000000E+00 -0.24078128396E+03  0.64435271671E+03  0.59767449069E+03 0.  0.
        1    1    3    3  502    0 -0.70889822033E+02 -0.27196208198E+03 -0.22988523698E+03  0.36309222398E+03  0.50400001928E-02 0.  1.
       -1    1    3    3    0  502  0.70889822033E+02  0.27196208198E+03 -0.10896046977E+02  0.28126049273E+03  0.50400001928E-02 0. -1.
</event>
<event>
 5   0  0.9866317E-03  0.5996305E+03  0.7818609E-02  0.9906173E-01
       -2   -1    0    0    0  501  0.00000000000E+00  0.00000000000E+00  0.10411086484E+03  0.10411086487E+03  0.25500000920E-02 0.  1.
        2   -1    0    0  501    0  0.00000000000E+00  0.00000000000E+00 -0.86339860112E+03  0.86339860112E+03  0.25500000920E-02 0. -1.
    10030    2    1    2    0    0  0.00000000000E+00  0.00000000000E+00 -0.75928773628E+03  0.96750946599E+03  0.59963046981E+03 0.  0.
        1    1    3    3  502    0 -0.18175243229E+03 -0.99696156370E+02 -0.72913131249E+03  0.75802753322E+03  0.50400001928E-02 0. -1.
       -1    1    3    3    0  502  0.18175243229E+03  0.99696156370E+02 -0.30156423787E+02  0.20948193277E+03  0.50400001928E-02 0.  1.
</event>
<event>
 5   0  0.5785798E-03  0.5937818E+03  0.7818609E-02  0.9918392E-01
       -1   -1    0    0    0  501  0.00000000000E+00  0.00000000000E+00  0.36445822011E+03  0.36445822015E+03  0.50400001928E-02 0. -1.
        1   -1    0    0  501    0  0.00000000000E+00  0.00000000000E+00 -0.24184993952E+03  0.24184993957E+03  0.50400001928E-02 0.  1.
    10030    2    1    2    0    0  0.00000000000E+00  0.00000000000E+00  0.12260828060E+03  0.60630815971E+03  0.59378177310E+03 0.  0.
        1    1    3    3  502    0 -0.58297557705E+02 -0.26072141283E+03  0.19353483548E+03  0.32989391161E+03  0.50400001928E-02 0. -1.
       -1    1    3    3    0  502  0.58297557705E+02  0.26072141283E+03 -0.70926554886E+02  0.27641424811E+03  0.50400001928E-02 0.  1.
</event>
<event>
 5   0  0.5574736E-03  0.5997008E+03  0.7818609E-02  0.9906027E-01
       -1   -1    0    0    0  501  0.00000000000E+00  0.00000000000E+00  0.95349763652E+02  0.95349763785E+02  0.50400001928E-02 0. -1.
        1   -1    0    0  501    0  0.00000000000E+00  0.00000000000E+00 -0.94295227607E+03  0.94295227609E+03  0.50400001928E-02 0.  1.
    10030    2    1    2    0    0  0.00000000000E+00  0.00000000000E+00 -0.84760251242E+03  0.10383020399E+04  0.59970084787E+03 0.  0.
        5    1    3    3  502    0  0.20262540447E+03 -0.21587197177E+03 -0.50556914029E+03  0.58590102265E+03  0.46999998093E+01 0.  1.
       -5    1    3    3    0  502 -0.20262540447E+03  0.21587197177E+03 -0.34203337213E+03  0.45240101722E+03  0.46999998093E+01 0. -1.
</event>
<event>
 5   0  0.5491236E-03  0.5986695E+03  0.7818609E-02  0.9908170E-01
       -1   -1    0    0    0  501  0.00000000000E+00  0.00000000000E+00  0.14836999250E+03  0.14836999259E+03  0.50400001928E-02 0.  1.
        1   -1    0    0  501    0  0.00000000000E+00  0.00000000000E+00 -0.60390431021E+03  0.60390431024E+03  0.50400001928E-02 0. -1.
    10030    2    1    2    0    0  0.00000000000E+00  0.00000000000E+00 -0.45553431771E+03  0.75227430282E+03  0.59866945143E+03 0.  0.
        3    1    3    3  502    0  0.11183025237E+02  0.75041616910E+02 -0.59162154879E+03  0.59646657200E+03  0.10100000352E+00 0. -1.
       -3    1    3    3    0  502 -0.11183025237E+02 -0.75041616910E+02  0.13608723108E+03  0.15580773083E+03  0.10100000352E+00 0.  1.
</event>
<event>
 5   0  0.9530666E-03  0.6011884E+03  0.7818609E-02  0.9902943E-01
        2   -1    0    0  501    0  0.00000000000E+00  0.00000000000E+00  0.11002954584E+04  0.11002954584E+04  0.25500000920E-02 0. -1.
       -2   -1    0    0    0  501  0.00000000000E+00  0.00000000000E+00 -0.82120566316E+02  0.82120566356E+02  0.25500000920E-02 0.  1.
    10030    2    1    2    0    0  0.00000000000E+00  0.00000000000E+00  0.10181748921E+04  0.11824160248E+04  0.60118844363E+03 0.  0.
        2    1    3    3  502    0 -0.97908632550E+02  0.27743029776E+03  0.63038028580E+03  0.69565291286E+03  0.25500000920E-02 0. -1.
       -2    1    3    3    0  502  0.97908632550E+02 -0.27743029776E+03  0.38779460632E+03  0.48676311194E+03  0.25500000920E-02 0.  1.
</event>
<event>
 5   0  0.9530666E-03  0.5987675E+03  0.7818609E-02  0.9907966E-01
        2   -1    0    0  501    0  0.00000000000E+00  0.00000000000E+00  0.44745039101E+03  0.44745039101E+03  0.25500000920E-02 0. -1.
       -2   -1    0    0    0  501  0.00000000000E+00  0.00000000000E+00 -0.20031408711E+03  0.20031408713E+03  0.25500000920E-02 0.  1.
    10030    2    1    2    0    0  0.00000000000E+00  0.00000000000E+00  0.24713630389E+03  0.64776447814E+03  0.59876745607E+03 0.  0.
        2    1    3    3  502    0  0.24788360962E+03  0.15141407367E+03  0.45121607982E+02  0.29395316827E+03  0.25500000920E-02 0. -1.
       -2    1    3    3    0  502 -0.24788360962E+03 -0.15141407367E+03  0.20201469591E+03  0.35381130987E+03  0.25500000920E-02 0.  1.
</event>
<event>
 5   0  0.3794375E-03  0.5997149E+03  0.7818609E-02  0.9905998E-01
       -3   -1    0    0    0  501  0.00000000000E+00  0.00000000000E+00  0.16358340790E+03  0.16358343907E+03  0.10100000352E+00 0. -1.
        3   -1    0    0  501    0  0.00000000000E+00  0.00000000000E+00 -0.54965522182E+03  0.54965523110E+03  0.10100000352E+00 0.  1.
    10030    2    1    2    0    0  0.00000000000E+00  0.00000000000E+00 -0.38607181393E+03  0.71323867018E+03  0.59971489487E+03 0.  0.
        1    1    3    3  502    0  0.22627590590E+03 -0.12358346035E+03 -0.37512190576E+03  0.45518139402E+03  0.50400001928E-02 0.  1.
       -1    1    3    3    0  502 -0.22627590590E+03  0.12358346035E+03 -0.10949908173E+02  0.25805727615E+03  0.50400001928E-02 0. -1.
</event>
<event>
 5   0  0.9681801E-03  0.6000761E+03  0.7818609E-02  0.9905248E-01
       -2   -1    0    0    0  501  0.00000000000E+00  0.00000000000E+00  0.11132161665E+03  0.11132161668E+03  0.25500000920E-02 0.  1.
        2   -1    0    0  501    0  0.00000000000E+00  0.00000000000E+00 -0.80867346169E+03  0.80867346169E+03  0.25500000920E-02 0. -1.
    10030    2    1    2    0    0  0.00000000000E+00  0.00000000000E+00 -0.69735184504E+03  0.91999507837E+03  0.60007611888E+03 0.  0.
        4    1    3    3  502    0 -0.72118748763E+02 -0.20067356603E+03 -0.25079183364E+02  0.21471276712E+03  0.12699999809E+01 0.  1.
       -4    1    3    3    0  502  0.72118748763E+02  0.20067356603E+03 -0.67227266167E+03  0.70528231125E+03  0.12699999809E+01 0. -1.
</event>
<event>
 5   0  0.3794375E-03  0.5877973E+03  0.7818609E-02  0.9931051E-01
       -3   -1    0    0    0  501  0.00000000000E+00  0.00000000000E+00  0.49468444141E+03  0.49468445172E+03  0.10100000352E+00 0. -1.
        3   -1    0    0  501    0  0.00000000000E+00  0.00000000000E+00 -0.17460907183E+03  0.17460910104E+03  0.10100000352E+00 0.  1.
    10030    2    1    2    0    0  0.00000000000E+00  0.00000000000E+00  0.32007536958E+03  0.66929355276E+03  0.58779725888E+03 0.  0.
        1    1    3    3  502    0 -0.28849722227E+03 -0.16605907504E+02  0.99037646923E+02  0.30547480903E+03  0.50400001928E-02 0.  1.
       -1    1    3    3    0  502  0.28849722227E+03  0.16605907504E+02  0.22103772266E+03  0.36381874372E+03  0.50400001928E-02 0. -1.
</event>
<event>
 5   0  0.5574736E-03  0.6001098E+03  0.7818609E-02  0.9905178E-01
        1   -1    0    0  501    0  0.00000000000E+00  0.00000000000E+00  0.53392904398E+03  0.53392904400E+03  0.50400001928E-02 0. -1.
       -1   -1    0    0    0  501  0.00000000000E+00  0.00000000000E+00 -0.16862339781E+03  0.16862339788E+03  0.50400001928E-02 0.  1.
    10030    2    1    2    0    0  0.00000000000E+00  0.00000000000E+00  0.36530564617E+03  0.70255244188E+03  0.60010975535E+03 0.  0.
        5    1    3    3  502    0 -0.17942649059E+03  0.18643511405E+02 -0.97998030947E+02  0.20534641490E+03  0.46999998093E+01 0.  1.
       -5    1    3    3    0  502  0.17942649059E+03 -0.18643511405E+02  0.46330367712E+03  0.49720602699E+03  0.46999998093E+01 0. -1.
</event>
<event>
 5   0  0.5785798E-03  0.5991309E+03  0.7818609E-02  0.9907211E-01
        1   -1    0    0  501    0  0.00000000000E+00  0.00000000000E+00  0.18306432166E+03  0.18306432173E+03  0.50400001928E-02 0.  1.
       -1   -1    0    0    0  501  0.00000000000E+00  0.00000000000E+00 -0.49020726473E+03  0.49020726475E+03  0.50400001928E-02 0. -1.
    10030    2    1    2    0    0  0.00000000000E+00  0.00000000000E+00 -0.30714294307E+03  0.67327158648E+03  0.59913090530E+03 0.  0.
        1    1    3    3  502    0  0.15704453641E+03  0.57555581229E+02 -0.43284879278E+03  0.46404063269E+03  0.50400001928E-02 0. -1.
       -1    1    3    3    0  502 -0.15704453641E+03 -0.57555581229E+02  0.12570584971E+03  0.20923095379E+03  0.50400001928E-02 0.  1.
</event>
<event>
 5   0  0.5653633E-03  0.6006875E+03  0.7818609E-02  0.9903981E-01
        1   -1    0    0  501    0  0.00000000000E+00  0.00000000000E+00  0.10715308354E+03  0.10715308366E+03  0.50400001928E-02 0.  1.
       -1   -1    0    0    0  501  0.00000000000E+00  0.00000000000E+00 -0.84184564902E+03  0.84184564904E+03  0.50400001928E-02 0. -1.
    10030    2    1    2    0    0  0.00000000000E+00  0.00000000000E+00 -0.73469256548E+03  0.94899873270E+03  0.60068746358E+03 0.  0.
        2    1    3    3  502    0  0.12910588813E+03 -0.27096607251E+03 -0.35037373277E+03  0.46135961616E+03  0.25500000920E-02 0. -1.
       -2    1    3    3    0  502 -0.12910588813E+03  0.27096607251E+03 -0.38431883271E+03  0.48763911654E+03  0.25500000920E-02 0.  1.
</event>
<event>
 5   0  0.9571790E-03  0.6002336E+03  0.7818609E-02  0.9904921E-01
       -2   -1    0    0    0  501  0.00000000000E+00  0.00000000000E+00  0.55896627603E+03  0.55896627604E+03  0.25500000920E-02 0. -1.
        2   -1    0    0  501    0  0.00000000000E+00  0.00000000000E+00 -0.16113691822E+03  0.16113691825E+03  0.25500000920E-02 0.  1.
    10030    2    1    2    0    0  0.00000000000E+00  0.00000000000E+00  0.39782935781E+03  0.72010319428E+03  0.60023363158E+03 0.  0.
        5    1    3    3  502    0  0.11124880780E+03 -0.27626138787E+03  0.24301687093E+03  0.38441636440E+03  0.46999998093E+01 0. -1.
       -5    1    3    3    0  502 -0.11124880780E+03  0.27626138787E+03  0.15481248688E+03  0.33568682988E+03  0.46999998093E+01 0.  1.
</event>
<event>
 5   0  0.5491236E-03  0.6005482E+03  0.7818609E-02  0.9904269E-01
       -1   -1    0    0    0  501  0.00000000000E+00  0.00000000000E+00  0.67341109125E+03  0.67341109126E+03  0.50400001928E-02 0.  1.
        1   -1    0    0  501    0  0.00000000000E+00  0.00000000000E+00 -0.13389226682E+03  0.13389226692E+03  0.50400001928E-02 0. -1.
    10030    2    1    2    0    0  0.00000000000E+00  0.00000000000E+00  0.53951882442E+03  0.80730335818E+03  0.60054820808E+03 0.  0.
        3    1    3    3  502    0 -0.24734573735E+03  0.13650804622E+03  0.13299832022E+03  0.31225458179E+03  0.10100000352E+00 0. -1.
       -3    1    3    3    0  502  0.24734573735E+03 -0.13650804622E+03  0.40652050420E+03  0.49504877639E+03  0.10100000352E+00 0.  1.
</event>
<event>
 5   0  0.5653633E-03  0.5998735E+03  0.7818609E-02  0.9905669E-01
        1   -1    0    0  501    0  0.00000000000E+00  0.00000000000E+00  0.65752377375E+03  0.65752377377E+03  0.50400001928E-02 0.  1.
       -1   -1    0    0    0  501  0.00000000000E+00  0.00000000000E+00 -0.13681947582E+03  0.13681947592E+03  0.50400001928E-02 0. -1.
    10030    2    1    2    0    0  0.00000000000E+00  0.00000000000E+00  0.52070429793E+03  0.79434324969E+03  0.59987351371E+03 0.  0.
        2    1    3    3  502    0 -0.56609319647E+02  0.78674750831E+02  0.63621471728E+03  0.64355535736E+03  0.25500000920E-02 0.  1.
       -2    1    3    3    0  502  0.56609319647E+02 -0.78674750831E+02 -0.11551041935E+03  0.15078789233E+03  0.25500000920E-02 0. -1.
</event>
<event>
 5   0  0.9571790E-03  0.5990358E+03  0.7818609E-02  0.9907408E-01
        2   -1    0    0  501    0  0.00000000000E+00  0.00000000000E+00  0.14451465498E+04  0.14451465498E+04  0.25500000920E-02 0.  1.
       -2   -1    0    0    0  501  0.00000000000E+00  0.00000000000E+00 -0.62077430657E+02  0.62077430710E+02  0.25500000920E-02 0. -1.
    10030    2    1    2    0    0  0.00000000000E+00  0.00000000000E+00  0.13830691191E+04  0.15072239805E+04  0.59903584125E+03 0.  0.
        5    1    3    3  502    0 -0.21226223243E+03  0.16060217550E+03  0.34617448481E+03  0.43670032977E+03  0.46999998093E+01 0. -1.
       -5    1    3    3    0  502  0.21226223243E+03 -0.16060217550E+03  0.10368946343E+04  0.10705236507E+04  0.46999998093E+01 0.  1.
</event>
<event>
 5   0  0.5491236E-03  0.5983742E+03  0.7818609E-02  0.9908785E-01
        1   -1    0    0  501    0  0.00000000000E+00  0.00000000000E+00  0.66329413001E+03  0.66329413003E+03  0.50400001928E-02 0. -1.
       -1   -1    0    0    0  501  0.00000000000E+00  0.00000000000E+00 -0.13495207116E+03  0.13495207125E+03  0.50400001928E-02 0.  1.
    10030    2    1    2    0    0  0.00000000000E+00  0.00000000000E+00  0.52834205885E+03  0.79824620127E+03  0.59837418619E+03 0.  0.
        3    1    3    3  502    0 -0.24152848614E+03  0.82230198063E+02  0.47261684806E+03  0.53708892221E+03  0.10100000352E+00 0. -1.
       -3    1    3    3    0  502  0.24152848614E+03 -0.82230198063E+02  0.55725210786E+02  0.26115727906E+03  0.10100000352E+00 0.  1.
</event>
<event>
 5   0  0.5491236E-03  0.5999303E+03  0.7818609E-02  0.9905551E-01
       -1   -1    0    0    0  501  0.00000000000E+00  0.00000000000E+00  0.10189016261E+03  0.10189016273E+03  0.50400001928E-02 0.  1.
        1   -1    0    0  501    0  0.00000000000E+00  0.00000000000E+00 -0.88309890306E+03  0.88309890307E+03  0.50400001928E-02 0. -1.
    10030    2    1    2    0    0  0.00000000000E+00  0.00000000000E+00 -0.78120874045E+03  0.98498906580E+03  0.59993029895E+03 0.  0.
        3    1    3    3  502    0  0.13904597657E+02  0.17923431913E+03 -0.78485368899E+03  0.80517923614E+03  0.10100000352E+00 0. -1.
       -3    1    3    3    0  502 -0.13904597657E+02 -0.17923431913E+03  0.36449485410E+01  0.17980982966E+03  0.10100000352E+00 0.  1.
</event>
<event>
 5   0  0.5785798E-03  0.5995241E+03  0.7818609E-02  0.9906394E-01
        1   -1    0    0  501    0  0.00000000000E+00  0.00000000000E+00  0.27422789338E+03  0.27422789343E+03  0.50400001928E-02 0. -1.
       -1   -1    0    0    0  501  0.00000000000E+00  0.00000000000E+00 -0.32767378314E+03  0.32767378318E+03  0.50400001928E-02 0.  1.
    10030    2    1    2    0    0  0.00000000000E+00  0.00000000000E+00 -0.53445889752E+02  0.60190167661E+03  0.59952411559E+03 0.  0.
        1    1    3    3  502    0  0.19795022452E+03  0.11641148624E+03  0.16671018947E+03  0.28377493338E+03  0.50400001928E-02 0. -1.
       -1    1    3    3    0  502 -0.19795022452E+03 -0.11641148624E+03 -0.22015607922E+03  0.31812674323E+03  0.50400001928E-02 0.  1.
</event>
<event>
 5   0  0.3794375E-03  0.6006857E+03  0.7818609E-02  0.9903984E-01
        4   -1    0    0  501    0  0.00000000000E+00  0.00000000000E+00  0.27511086946E+03  0.27511380081E+03  0.12699999809E+01 0.  1.
       -4   -1    0    0    0  501  0.00000000000E+00  0.00000000000E+00 -0.32788314092E+03  0.32788560047E+03  0.12699999809E+01 0. -1.
    10030    2    1    2    0    0  0.00000000000E+00  0.00000000000E+00 -0.52772271453E+02  0.60299940129E+03  0.60068574589E+03 0.  0.
        1    1    3    3  502    0 -0.19378908886E+03 -0.30287618782E+02  0.20194167010E+03  0.28151729780E+03  0.50400001928E-02 0.  1.
       -1    1    3    3    0  502  0.19378908886E+03  0.30287618782E+02 -0.25471394155E+03  0.32148210348E+03  0.50400001928E-02 0. -1.
</event>
<event>
 5   0  0.5503975E-03  0.6014527E+03  0.7818609E-02  0.9902397E-01
        1   -1    0    0  501    0  0.00000000000E+00  0.00000000000E+00  0.53913640209E+03  0.53913640211E+03  0.50400001928E-02 0. -1.
       -1   -1    0    0    0  501  0.00000000000E+00  0.00000000000E+00 -0.16774298120E+03  0.16774298127E+03  0.50400001928E-02 0.  1.
    10030    2    1    2    0    0  0.00000000000E+00  0.00000000000E+00  0.37139342089E+03  0.70687938339E+03  0.60145273262E+03 0.  0.
        4    1    3    3  502    0 -0.74015758247E+02  0.52241719995E+02 -0.15132010955E+03  0.17637153464E+03  0.12699999809E+01 0.  1.
       -4    1    3    3    0  502  0.74015758247E+02 -0.52241719995E+02  0.52271353044E+03  0.53050784875E+03  0.12699999809E+01 0. -1.
</event>
<event>
 5   0  0.5653633E-03  0.6051871E+03  0.7818609E-02  0.9894703E-01
        1   -1    0    0  501    0  0.00000000000E+00  0.00000000000E+00  0.89467634930E+03  0.89467634932E+03  0.50400001928E-02 0. -1.
       -1   -1    0    0    0  501  0.00000000000E+00  0.00000000000E+00 -0.10234186163E+03  0.10234186175E+03  0.50400001928E-02 0.  1.
    10030    2    1    2    0    0  0.00000000000E+00  0.00000000000E+00  0.79233448768E+03  0.99701821106E+03  0.60518705607E+03 0.  0.
        2    1    3    3  502    0 -0.26055919996E+03  0.15339155802E+03  0.37648195712E+03  0.48286512692E+03  0.25500000920E-02 0. -1.
       -2    1    3    3    0  502  0.26055919996E+03 -0.15339155802E+03  0.41585253056E+03  0.51415308414E+03  0.25500000920E-02 0.  1.
</event>
<event>
 5   0  0.9428629E-03  0.6032417E+03  0.7818609E-02  0.9898703E-01
       -2   -1    0    0    0  501  0.00000000000E+00  0.00000000000E+00  0.19081001953E+03  0.19081001955E+03  0.25500000920E-02 0. -1.
        2   -1    0    0  501    0  0.00000000000E+00  0.00000000000E+00 -0.47678381520E+03  0.47678381521E+03  0.25500000920E-02 0.  1.
    10030    2    1    2    0    0  0.00000000000E+00  0.00000000000E+00 -0.28597379567E+03  0.66759383476E+03  0.60324167329E+03 0.  0.
        3    1    3    3  502    0  0.14146341560E+03 -0.12271532250E+03 -0.40465036130E+03  0.44588437226E+03  0.10100000352E+00 0.  1.
       -3    1    3    3    0  502 -0.14146341560E+03  0.12271532250E+03  0.11867656563E+03  0.22170946249E+03  0.10100000352E+00 0. -1.
</event>
<event>
 5   0  0.9681801E-03  0.6005750E+03  0.7818609E-02  0.9904214E-01
        2   -1    0    0  501    0  0.00000000000E+00  0.00000000000E+00  0.52809634727E+03  0.52809634728E+03  0.25500000920E-02 0. -1.
       -2   -1    0    0    0  501  0.00000000000E+00  0.00000000000E+00 -0.17075023899E+03  0.17075023901E+03  0.25500000920E-02 0.  1.
    10030    2    1    2    0    0  0.00000000000E+00  0.00000000000E+00  0.35734610828E+03  0.69884658629E+03  0.60057498289E+03 0.  0.
        4    1    3    3  502    0 -0.25151528524E+03  0.10071324674E+03  0.32935233251E+03  0.42647118145E+03  0.12699999809E+01 0. -1.
       -4    1    3    3    0  502  0.25151528524E+03 -0.10071324674E+03  0.27993775772E+02  0.27237540484E+03  0.12699999809E+01 0.  1.
</event>
<event>
 5   0  0.9681801E-03  0.6003341E+03  0.7818609E-02  0.9904713E-01
        2   -1    0    0  501    0  0.00000000000E+00  0.00000000000E+00  0.16192032814E+04  0.16192032814E+04  0.25500000920E-02 0.  1.
       -2   -1    0    0    0  501  0.00000000000E+00  0.00000000000E+00 -0.55644802609E+02  0.55644802667E+02  0.25500000920E-02 0. -1.
    10030    2    1    2    0    0  0.00000000000E+00  0.00000000000E+00  0.15635584787E+04  0.16748480840E+04  0.60033406375E+03 0.  0.
        4    1    3    3  502    0  0.14627518427E+03  0.43821440642E+02  0.15027402420E+04  0.15104789293E+04  0.12699999809E+01 0.  1.
       -4    1    3    3    0  502 -0.14627518427E+03 -0.43821440642E+02  0.60818236774E+02  0.16436915470E+03  0.12699999809E+01 0. -1.
</event>
<event>
 5   0  0.5574736E-03  0.6016656E+03  0.7818609E-02  0.9901956E-01
       -1   -1    0    0    0  501  0.00000000000E+00  0.00000000000E+00  0.83168280682E+02  0.83168280834E+02  0.50400001928E-02 0. -1.
        1   -1    0    0  501    0  0.00000000000E+00  0.00000000000E+00 -0.10881597280E+04  0.10881597280E+04  0.50400001928E-02 0.  1.
    10030    2    1    2    0    0  0.00000000000E+00  0.00000000000E+00 -0.10049914473E+04  0.11713280089E+04  0.60166560075E+03 0.  0.
        5    1    3    3  502    0 -0.14020281383E+02 -0.81558951906E+02  0.60498595270E+02  0.10261871639E+03  0.46999998093E+01 0. -1.
       -5    1    3    3    0  502  0.14020281383E+02  0.81558951906E+02 -0.10654900426E+04  0.10687092925E+04  0.46999998093E+01 0.  1.
</event>
<event>
 5   0  0.5491236E-03  0.5834047E+03  0.7818609E-02  0.9940447E-01
       -1   -1    0    0    0  501  0.00000000000E+00  0.00000000000E+00  0.72920053557E+02  0.72920053731E+02  0.50400001928E-02 0.  1.
        1   -1    0    0  501    0  0.00000000000E+00  0.00000000000E+00 -0.11668980793E+04  0.11668980793E+04  0.50400001928E-02 0. -1.
    10030    2    1    2    0    0  0.00000000000E+00  0.00000000000E+00 -0.10939780258E+04  0.12398181331E+04  0.58340473277E+03 0.  0.
        3    1    3    3  502    0  0.95980441189E+02 -0.23255484074E+02 -0.11302900746E+04  0.11345962831E+04  0.10100000352E+00 0. -1.
       -3    1    3    3    0  502 -0.95980441189E+02  0.23255484074E+02  0.36312048810E+02  0.10522185001E+03  0.10100000352E+00 0.  1.
</event>
<event>
 5   0  0.9681801E-03  0.5982733E+03  0.7818609E-02  0.9908995E-01
       -2   -1    0    0    0  501  0.00000000000E+00  0.00000000000E+00  0.11372168675E+03  0.11372168678E+03  0.25500000920E-02 0. -1.
        2   -1    0    0  501    0  0.00000000000E+00  0.00000000000E+00 -0.78685720202E+03  0.78685720202E+03  0.25500000920E-02 0.  1.
    10030    2    1    2    0    0  0.00000000000E+00  0.00000000000E+00 -0.67313551527E+03  0.90057888880E+03  0.59827327623E+03 0.  0.
        4    1    3    3  502    0 -0.10858572468E+03 -0.66698747285E+02  0.70813336715E+02  0.14579342938E+03  0.12699999809E+01 0. -1.
       -4    1    3    3    0  502  0.10858572468E+03  0.66698747285E+02 -0.74394885198E+03  0.75478545943E+03  0.12699999809E+01 0.  1.
</event>
<event>
 5   0  0.3794375E-03  0.5994637E+03  0.7818609E-02  0.9906519E-01
       -3   -1    0    0    0  501  0.00000000000E+00  0.00000000000E+00  0.38528440772E+03  0.38528442096E+03  0.10100000352E+00 0. -1.
        3   -1    0    0  501    0  0.00000000000E+00  0.00000000000E+00 -0.23317624082E+03  0.23317626269E+03  0.10100000352E+00 0.  1.
    10030    2    1    2    0    0  0.00000000000E+00  0.00000000000E+00  0.15210816690E+03  0.61846068365E+03  0.59946369597E+03 0.  0.
        1    1    3    3  502    0  0.26196555607E+03  0.12732070795E+03  0.30831438286E+01  0.29128340331E+03  0.50400001928E-02 0. -1.
       -1    1    3    3    0  502 -0.26196555607E+03 -0.12732070795E+03  0.14902502308E+03  0.32717728034E+03  0.50400001928E-02 0.  1.
</event>
<event>
 5   0  0.9571790E-03  0.5999336E+03  0.7818609E-02  0.9905544E-01
       -2   -1    0    0    0  501  0.00000000000E+00  0.00000000000E+00  0.14258228196E+04  0.14258228196E+04  0.25500000920E-02 0. -1.
        2   -1    0    0  501    0  0.00000000000E+00  0.00000000000E+00 -0.63107485395E+02  0.63107485447E+02  0.25500000920E-02 0.  1.
    10030    2    1    2    0    0  0.00000000000E+00  0.00000000000E+00  0.13627153342E+04  0.14889303051E+04  0.59993363902E+03 0.  0.
        5    1    3    3  502    0  0.23759317190E+03  0.12077822498E+03  0.10227336466E+04  0.10569030688E+04  0.46999998093E+01 0.  1.
       -5    1    3    3    0  502 -0.23759317190E+03 -0.12077822498E+03  0.33998168767E+03  0.43202723631E+03  0.46999998093E+01 0. -1.
</event>
<event>
 5   0  0.5574736E-03  0.5978171E+03  0.7818609E-02  0.9909945E-01
        1   -1    0    0  501    0  0.00000000000E+00  0.00000000000E+00  0.23670453417E+03  0.23670453422E+03  0.50400001928E-02 0. -1.
       -1   -1    0    0    0  501  0.00000000000E+00  0.00000000000E+00 -0.37745931739E+03  0.37745931742E+03  0.50400001928E-02 0.  1.
    10030    2    1    2    0    0  0.00000000000E+00  0.00000000000E+00 -0.14075478322E+03  0.61416385165E+03  0.59781713565E+03 0.  0.
        5    1    3    3  502    0 -0.23069974702E+03  0.30029574296E+02  0.12236968474E+03  0.26290792751E+03  0.46999998093E+01 0. -1.
       -5    1    3    3    0  502  0.23069974702E+03 -0.30029574296E+02 -0.26312446796E+03  0.35125592414E+03  0.46999998093E+01 0.  1.
</event>
<event>
 5   0  0.5491236E-03  0.6018630E+03  0.7818609E-02  0.9901548E-01
        1   -1    0    0  501    0  0.00000000000E+00  0.00000000000E+00  0.79642656598E+03  0.79642656600E+03  0.50400001928E-02 0. -1.
       -1   -1    0    0    0  501  0.00000000000E+00  0.00000000000E+00 -0.11370762575E+03  0.11370762586E+03  0.50400001928E-02 0.  1.
    10030    2    1    2    0    0  0.00000000000E+00  0.00000000000E+00  0.68271894024E+03  0.91013419186E+03  0.60186302082E+03 0.  0.
        3    1    3    3  502    0 -0.29881562019E+02  0.10275394417E+03  0.76668289054E+03  0.77411494343E+03  0.10100000352E+00 0. -1.
       -3    1    3    3    0  502  0.29881562019E+02 -0.10275394417E+03 -0.83963950304E+02  0.13601924843E+03  0.10100000352E+00 0.  1.
</event>
<event>
 5   0  0.9530666E-03  0.5961084E+03  0.7818609E-02  0.9913513E-01
        2   -1    0    0  501    0  0.00000000000E+00  0.00000000000E+00  0.12863549398E+04  0.12863549398E+04  0.25500000920E-02 0. -1.
       -2   -1    0    0    0  501  0.00000000000E+00  0.00000000000E+00 -0.69060489787E+02  0.69060489834E+02  0.25500000920E-02 0.  1.
    10030    2    1    2    0    0  0.00000000000E+00  0.00000000000E+00  0.12172944500E+04  0.13554154297E+04  0.59610838685E+03 0.  0.
        2    1    3    3  502    0 -0.23096511792E+03  0.15361376080E+03  0.36066797560E+03  0.45499830970E+03  0.25500000920E-02 0.  1.
       -2    1    3    3    0  502  0.23096511792E+03 -0.15361376080E+03  0.85662647443E+03  0.90041711996E+03  0.25500000920E-02 0. -1.
</event>
<event>
 5   0  0.9571790E-03  0.5995524E+03  0.7818609E-02  0.9906335E-01
       -2   -1    0    0    0  501  0.00000000000E+00  0.00000000000E+00  0.36888401948E+03  0.36888401948E+03  0.25500000920E-02 0. -1.
        2   -1    0    0  501    0  0.00000000000E+00  0.00000000000E+00 -0.24361521408E+03  0.24361521409E+03  0.25500000920E-02 0.  1.
    10030    2    1    2    0    0  0.00000000000E+00  0.00000000000E+00  0.12526880540E+03  0.61249923358E+03  0.59955236429E+03 0.  0.
        5    1    3    3  502    0  0.19065545749E+03 -0.20366153938E+03  0.17461969269E+03  0.32915293279E+03  0.46999998093E+01 0. -1.
       -5    1    3    3    0  502 -0.19065545749E+03  0.20366153938E+03 -0.49350887291E+02  0.28334630078E+03  0.46999998093E+01 0.  1.
</event>
<event>
 5   0  0.9866317E-03  0.6001202E+03  0.7818609E-02  0.9905157E-01
       -2   -1    0    0    0  501  0.00000000000E+00  0.00000000000E+00  0.74300416334E+02  0.74300416378E+02  0.25500000920E-02 0. -1.
        2   -1    0    0  501    0  0.00000000000E+00  0.00000000000E+00 -0.12117840759E+04  0.12117840759E+04  0.25500000920E-02 0.  1.
    10030    2    1    2    0    0  0.00000000000E+00  0.00000000000E+00 -0.11374836596E+04  0.12860844923E+04  0.60012019255E+03 0.  0.
        1    1    3    3  502    0 -0.17544384900E+03  0.23866347930E+03 -0.67141271012E+03  0.73385000363E+03  0.50400001928E-02 0.  1.
       -1    1    3    3    0  502  0.17544384900E+03 -0.23866347930E+03 -0.46607094945E+03  0.55223448865E+03  0.50400001928E-02 0. -1.
</event>
<event>
 5   0  0.9681801E-03  0.5954977E+03  0.7818609E-02  0.9914791E-01
        2   -1    0    0  501    0  0.00000000000E+00  0.00000000000E+00  0.16978394597E+04  0.16978394597E+04  0.25500000920E-02 0. -1.
       -2   -1    0    0    0  501  0.00000000000E+00  0.00000000000E+00 -0.52216003278E+02  0.52216003340E+02  0.25500000920E-02 0.  1.
    10030    2    1    2    0    0  0.00000000000E+00  0.00000000000E+00  0.16456234564E+04  0.17500554630E+04  0.59549774424E+03 0.  0.
        4    1    3    3  502    0 -0.13865511427E+03 -0.25541634454E+03  0.63258122199E+03  0.69614895323E+03  0.12699999809E+01 0. -1.
       -4    1    3    3    0  502  0.13865511427E+03  0.25541634454E+03  0.10130422344E+04  0.10539065098E+04  0.12699999809E+01 0.  1.
</event>
<event>
 5   0  0.9571790E-03  0.5998231E+03  0.7818609E-02  0.9905773E-01
        2   -1    0    0  501    0  0.00000000000E+00  0.00000000000E+00  0.90622560624E+03  0.90622560624E+03  0.25500000920E-02 0. -1.
       -2   -1    0    0    0  501  0.00000000000E+00  0.00000000000E+00 -0.99254465169E+02  0.99254465202E+02  0.25500000920E-02 0.  1.
    10030    2    1    2    0    0  0.00000000000E+00  0.00000000000E+00  0.80697114107E+03  0.10054800714E+04  0.59982310022E+03 0.  0.
        5    1    3    3  502    0 -0.16563194392E+03 -0.77717643042E+02  0.80176293001E+03  0.82238668449E+03  0.46999998093E+01 0. -1.
       -5    1    3    3    0  502  0.16563194392E+03  0.77717643042E+02  0.52082110591E+01  0.18309338696E+03  0.46999998093E+01 0.  1.
</event>
<event>
 5   0  0.9428629E-03  0.6002071E+03  0.7818609E-02  0.9904977E-01
        2   -1    0    0  501    0  0.00000000000E+00  0.00000000000E+00  0.15680037206E+04  0.15680037206E+04  0.25500000920E-02 0.  1.
       -2   -1    0    0    0  501  0.00000000000E+00  0.00000000000E+00 -0.57437449930E+02  0.57437449986E+02  0.25500000920E-02 0. -1.
    10030    2    1    2    0    0  0.00000000000E+00  0.00000000000E+00  0.15105662707E+04  0.16254411706E+04  0.60020708173E+03 0.  0.
        3    1    3    3  502    0  0.18311893861E+03 -0.10073623804E+03  0.17204771424E+03  0.27070419559E+03  0.10100000352E+00 0. -1.
       -3    1    3    3    0  502 -0.18311893861E+03  0.10073623804E+03  0.13385185565E+04  0.13547369750E+04  0.10100000352E+00 0.  1.
</event>
<event>
 5   0  0.5653633E-03  0.6004004E+03  0.7818609E-02  0.9904576E-01
       -1   -1    0    0    0  501  0.00000000000E+00  0.00000000000E+00  0.16975037498E+03  0.16975037506E+03  0.50400001928E-02 0. -1.
        1   -1    0    0  501    0  0.00000000000E+00  0.00000000000E+00 -0.53089809285E+03  0.53089809288E+03  0.50400001928E-02 0.  1.
    10030    2    1    2    0    0  0.00000000000E+00  0.00000000000E+00 -0.36114771787E+03  0.70064846793E+03  0.60040036766E+03 0.  0.
        2    1    3    3  502    0  0.70319606342E+02  0.90240495329E+02  0.14331401664E+03  0.18337693804E+03  0.25500000920E-02 0. -1.
       -2    1    3    3    0  502 -0.70319606342E+02 -0.90240495329E+02 -0.50446173452E+03  0.51727152989E+03  0.25500000920E-02 0.  1.
</event>
<event>
 5   0  0.9571790E-03  0.5998059E+03  0.7818609E-02  0.9905809E-01
       -2   -1    0    0    0  501  0.00000000000E+00  0.00000000000E+00  0.48851773377E+02  0.48851773444E+02  0.25500000920E-02 0.  1.
        2   -1    0    0  501    0  0.00000000000E+00  0.00000000000E+00 -0.18411157012E+04  0.18411157012E+04  0.25500000920E-02 0. -1.
    10030    2    1    2    0    0  0.00000000000E+00  0.00000000000E+00 -0.17922639278E+04  0.18899674746E+04  0.59980585879E+03 0.  0.
        5    1    3    3  502    0 -0.21969902080E+03 -0.16264928551E+03 -0.12845736275E+04  0.13133445642E+04  0.46999998093E+01 0. -1.
       -5    1    3    3    0  502  0.21969902080E+03  0.16264928551E+03 -0.50769030024E+03  0.57662291038E+03  0.46999998093E+01 0.  1.
</event>
<event>
 5   0  0.5574736E-03  0.5998976E+03  0.7818609E-02  0.9905619E-01
       -1   -1    0    0    0  501  0.00000000000E+00  0.00000000000E+00  0.65232970790E+03  0.65232970792E+03  0.50400001928E-02 0. -1.
        1   -1    0    0  501    0  0.00000000000E+00  0.00000000000E+00 -0.13791994351E+03  0.13791994360E+03  0.50400001928E-02 0.  1.
    10030    2    1    2    0    0  0.00000000000E+00  0.00000000000E+00  0.51440976439E+03  0.79024965152E+03  0.59989757961E+03 0.  0.
        5    1    3    3  502    0 -0.55355019977E+02  0.79310552967E+02  0.63117374641E+03  0.63855832170E+03  0.46999998093E+01 0. -1.
       -5    1    3    3    0  502  0.55355019977E+02 -0.79310552967E+02 -0.11676398202E+03  0.15169132982E+03  0.46999998093E+01 0.  1.
</event>
<event>
 5   0  0.5491236E-03  0.6043766E+03  0.7818609E-02  0.9896367E-01
        1   -1    0    0  501    0  0.00000000000E+00  0.00000000000E+00  0.56571321653E+03  0.56571321655E+03  0.50400001928E-02 0. -1.
       -1   -1    0    0    0  501  0.00000000000E+00  0.00000000000E+00 -0.16142062561E+03  0.16142062568E+03  0.50400001928E-02 0.  1.
    10030    2    1    2    0    0  0.00000000000E+00  0.00000000000E+00  0.40429259092E+03  0.72713384223E+03  0.60437664204E+03 0.  0.
        3    1    3    3  502    0 -0.16512426748E+03 -0.10374837777E+03  0.47987545816E+03  0.51798669398E+03  0.10100000352E+00 0. -1.
       -3    1    3    3    0  502  0.16512426748E+03  0.10374837777E+03 -0.75582867239E+02  0.20914714825E+03  0.10100000352E+00 0.  1.
</event>
<event>
 5   0  0.5574736E-03  0.6001505E+03  0.7818609E-02  0.9905094E-01
        1   -1    0    0  501    0  0.00000000000E+00  0.00000000000E+00  0.61703783928E+03  0.61703783930E+03  0.50400001928E-02 0. -1.
       -1   -1    0    0    0  501  0.00000000000E+00  0.00000000000E+00 -0.14593133368E+03  0.14593133377E+03  0.50400001928E-02 0.  1.
    10030    2    1    2    0    0  0.00000000000E+00  0.00000000000E+00  0.47110650560E+03  0.76296917307E+03  0.60015049733E+03 0.  0.
        5    1    3    3  502    0 -0.87913712790E+02  0.97545991771E+02 -0.10741185046E+03  0.16971575361E+03  0.46999998093E+01 0.  1.
       -5    1    3    3    0  502  0.87913712790E+02 -0.97545991771E+02  0.57851835606E+03  0.59325341946E+03  0.46999998093E+01 0. -1.
</event>
<event>
 5   0  0.5503975E-03  0.5991399E+03  0.7818609E-02  0.9907192E-01
       -1   -1    0    0    0  501  0.00000000000E+00  0.00000000000E+00  0.20874463815E+03  0.20874463821E+03  0.50400001928E-02 0.  1.
        1   -1    0    0  501    0  0.00000000000E+00  0.00000000000E+00 -0.42991353768E+03  0.42991353771E+03  0.50400001928E-02 0. -1.
    10030    2    1    2    0    0  0.00000000000E+00  0.00000000000E+00 -0.22116889953E+03  0.63865817592E+03  0.59913986977E+03 0.  0.
        4    1    3    3  502    0 -0.27964100044E+03 -0.76149653621E+02 -0.29805660176E+02  0.29135519414E+03  0.12699999809E+01 0. -1.
       -4    1    3    3    0  502  0.27964100044E+03  0.76149653621E+02 -0.19136323936E+03  0.34730298178E+03  0.12699999809E+01 0.  1.
</event>
<event>
 5   0  0.9428629E-03  0.6001390E+03  0.7818609E-02  0.9905118E-01
       -2   -1    0    0    0  501  0.00000000000E+00  0.00000000000E+00  0.21386569352E+03  0.21386569353E+03  0.25500000920E-02 0. -1.
        2   -1    0    0  501    0  0.00000000000E+00  0.00000000000E+00 -0.42101980128E+03  0.42101980129E+03  0.25500000920E-02 0.  1.
    10030    2    1    2    0    0  0.00000000000E+00  0.00000000000E+00 -0.20715410777E+03  0.63488549482E+03  0.60013895655E+03 0.  0.
        3    1    3    3  502    0 -0.16485037679E+02  0.22510249605E+03  0.10560539960E+03  0.24918948778E+03  0.10100000352E+00 0. -1.
       -3    1    3    3    0  502  0.16485037679E+02 -0.22510249605E+03 -0.31275950737E+03  0.38569600704E+03  0.10100000352E+00 0.  1.
</event>
<event>
 5   0  0.3794375E-03  0.5984049E+03  0.7818609E-02  0.9908721E-01
       -4   -1    0    0    0  501  0.00000000000E+00  0.00000000000E+00  0.79169803870E+03  0.79169905733E+03  0.12699999809E+01 0. -1.
        4   -1    0    0  501    0  0.00000000000E+00  0.00000000000E+00 -0.11307141599E+03  0.11307854798E+03  0.12699999809E+01 0.  1.
    10030    2    1    2    0    0  0.00000000000E+00  0.00000000000E+00  0.67862662271E+03  0.90477760532E+03  0.59840489807E+03 0.  0.
        4    1    3    3  502    0  0.22063641917E+03  0.13984389765E+03  0.55989565730E+03  0.61783614749E+03  0.12699999809E+01 0. -1.
       -4    1    3    3    0  502 -0.22063641917E+03 -0.13984389765E+03  0.11873096541E+03  0.28694145783E+03  0.12699999809E+01 0.  1.
</event>
<event>
 5   0  0.5503975E-03  0.6009223E+03  0.7818609E-02  0.9903494E-01
        1   -1    0    0  501    0  0.00000000000E+00  0.00000000000E+00  0.81818471938E+03  0.81818471939E+03  0.50400001928E-02 0.  1.
       -1   -1    0    0    0  501  0.00000000000E+00  0.00000000000E+00 -0.11033805847E+03  0.11033805859E+03  0.50400001928E-02 0. -1.
    10030    2    1    2    0    0  0.00000000000E+00  0.00000000000E+00  0.70784666091E+03  0.92852277798E+03  0.60092233597E+03 0.  0.
        4    1    3    3  502    0 -0.69805164480E+02  0.12679743623E+03  0.76075897567E+03  0.77440698782E+03  0.12699999809E+01 0.  1.
       -4    1    3    3    0  502  0.69805164480E+02 -0.12679743623E+03 -0.52912314761E+02  0.15411579016E+03  0.12699999809E+01 0. -1.
</event>
<event>
 5   0  0.9530666E-03  0.5996075E+03  0.7818609E-02  0.9906221E-01
        2   -1    0    0  501    0  0.00000000000E+00  0.00000000000E+00  0.18020261661E+03  0.18020261663E+03  0.25500000920E-02 0. -1.
       -2   -1    0    0    0  501  0.00000000000E+00  0.00000000000E+00 -0.49878454074E+03  0.49878454074E+03  0.25500000920E-02 0.  1.
    10030    2    1    2    0    0  0.00000000000E+00  0.00000000000E+00 -0.31858192413E+03  0.67898715737E+03  0.59960746952E+03 0.  0.
        2    1    3    3  502    0 -0.48769147992E+01  0.19302775155E+03 -0.41899719344E+03  0.46134818227E+03  0.25500000920E-02 0.  1.
       -2    1    3    3    0  502  0.48769147992E+01 -0.19302775155E+03  0.10041526932E+03  0.21763897510E+03  0.25500000920E-02 0. -1.
</event>
<event>
 5   0  0.9530666E-03  0.5994427E+03  0.7818609E-02  0.9906563E-01
       -2   -1    0    0    0  501  0.00000000000E+00  0.00000000000E+00  0.24135340169E+03  0.24135340170E+03  0.25500000920E-02 0.  1.
        2   -1    0    0  501    0  0.00000000000E+00  0.00000000000E+00 -0.37220475438E+03  0.37220475438E+03  0.25500000920E-02 0. -1.
    10030    2    1    2    0    0  0.00000000000E+00  0.00000000000E+00 -0.13085135269E+03  0.61355815608E+03  0.59944268650E+03 0.  0.
        2    1    3    3  502    0 -0.27829334853E+01 -0.29081245881E+03 -0.13961172035E+03  0.32260047022E+03  0.25500000920E-02 0. -1.
       -2    1    3    3    0  502  0.27829334853E+01  0.29081245881E+03  0.87603676629E+01  0.29095768587E+03  0.25500000920E-02 0.  1.
</event>
<event>
 5   0  0.5503975E-03  0.6001107E+03  0.7818609E-02  0.9905176E-01
       -1   -1    0    0    0  501  0.00000000000E+00  0.00000000000E+00  0.52990501667E+02  0.52990501906E+02  0.50400001928E-02 0. -1.
        1   -1    0    0  501    0  0.00000000000E+00  0.00000000000E+00 -0.16990443784E+04  0.16990443784E+04  0.50400001928E-02 0.  1.
    10030    2    1    2    0    0  0.00000000000E+00  0.00000000000E+00 -0.16460538768E+04  0.17520348803E+04  0.60011070373E+03 0.  0.
        4    1    3    3  502    0  0.61000032543E+00 -0.11803311855E+03 -0.17644740252E+02  0.11935300136E+03  0.12699999809E+01 0. -1.
       -4    1    3    3    0  502 -0.61000032543E+00  0.11803311855E+03 -0.16284091365E+04  0.16326818790E+04  0.12699999809E+01 0.  1.
</event>
<event>
 5   0  0.9571790E-03  0.5999668E+03  0.7818609E-02  0.9905475E-01
       -2   -1    0    0    0  501  0.00000000000E+00  0.00000000000E+00  0.40891485249E+03  0.40891485250E+03  0.25500000920E-02 0.  1.
        2   -1    0    0  501    0  0.00000000000E+00  0.00000000000E+00 -0.22007034655E+03  0.22007034657E+03  0.25500000920E-02 0. -1.
    10030    2    1    2    0    0  0.00000000000E+00  0.00000000000E+00  0.18884450594E+03  0.62898519906E+03  0.59996677676E+03 0.  0.
        5    1    3    3  502    0 -0.12433607808E+03  0.12392443397E+01 -0.19173951405E+03  0.22857630517E+03  0.46999998093E+01 0. -1.
       -5    1    3    3    0  502  0.12433607808E+03 -0.12392443397E+01  0.38058401999E+03  0.40040889389E+03  0.46999998093E+01 0.  1.
</event>
<event>
 5   0  0.3794375E-03  0.6006271E+03  0.7818609E-02  0.9904106E-01
        3   -1    0    0  501    0  0.00000000000E+00  0.00000000000E+00  0.22396115540E+03  0.22396117817E+03  0.10100000352E+00 0.  1.
       -3   -1    0    0    0  501  0.00000000000E+00  0.00000000000E+00 -0.40269579876E+03  0.40269581142E+03  0.10100000352E+00 0. -1.
    10030    2    1    2    0    0  0.00000000000E+00  0.00000000000E+00 -0.17873464336E+03  0.62665698960E+03  0.60062709719E+03 0.  0.
        3    1    3    3  502    0  0.28666508916E+03 -0.27234835257E+02 -0.41025508292E+00  0.28795622602E+03  0.10100000352E+00 0.  1.
       -3    1    3    3    0  502 -0.28666508916E+03  0.27234835257E+02 -0.17832438827E+03  0.33870076358E+03  0.10100000352E+00 0. -1.
</event>
<event>
 5   0  0.5491236E-03  0.5998500E+03  0.7818609E-02  0.9905717E-01
       -1   -1    0    0    0  501  0.00000000000E+00  0.00000000000E+00  0.12640866141E+03  0.12640866151E+03  0.50400001928E-02 0. -1.
        1   -1    0    0  501    0  0.00000000000E+00  0.00000000000E+00 -0.71162068660E+03  0.71162068662E+03  0.50400001928E-02 0.  1.
    10030    2    1    2    0    0  0.00000000000E+00  0.00000000000E+00 -0.58521202519E+03  0.83802934813E+03  0.59985004284E+03 0.  0.
        3    1    3    3  502    0 -0.28084749664E+03  0.40786987431E+02 -0.15703951454E+03  0.32434597892E+03  0.10100000352E+00 0.  1.
       -3    1    3    3    0  502  0.28084749664E+03 -0.40786987431E+02 -0.42817251066E+03  0.51368336921E+03  0.10100000352E+00 0. -1.
</event>
<event>
 5   0  0.9681801E-03  0.5970110E+03  0.7818609E-02  0.9911627E-01
        2   -1    0    0  501    0  0.00000000000E+00  0.00000000000E+00  0.10200794959E+04  0.10200794959E+04  0.25500000920E-02 0. -1.
       -2   -1    0    0    0  501  0.00000000000E+00  0.00000000000E+00 -0.87351558945E+02  0.87351558982E+02  0.25500000920E-02 0.  1.
    10030    2    1    2    0    0  0.00000000000E+00  0.00000000000E+00  0.93272793692E+03  0.11074310548E+04  0.59701100236E+03 0.  0.
        4    1    3    3  502    0 -0.28625033994E+03  0.13247834411E+02  0.31128717001E+03  0.42310291578E+03  0.12699999809E+01 0.  1.
       -4    1    3    3    0  502  0.28625033994E+03 -0.13247834411E+02  0.62144076691E+03  0.68432813906E+03  0.12699999809E+01 0. -1.
</event>
<event>
 5   0  0.5574736E-03  0.5992966E+03  0.7818609E-02  0.9906866E-01
        1   -1    0    0  501    0  0.00000000000E+00  0.00000000000E+00  0.12004107811E+04  0.12004107811E+04  0.50400001928E-02 0.  1.
       -1   -1    0    0    0  501  0.00000000000E+00  0.00000000000E+00 -0.74798647030E+02  0.74798647200E+02  0.50400001928E-02 0. -1.
    10030    2    1    2    0    0  0.00000000000E+00  0.00000000000E+00  0.11256121340E+04  0.12752094283E+04  0.59929659575E+03 0.  0.
        5    1    3    3  502    0 -0.83919354025E+02  0.63883171631E+02  0.11595267713E+04  0.11643229539E+04  0.46999998093E+01 0.  1.
       -5    1    3    3    0  502  0.83919354025E+02 -0.63883171631E+02 -0.33914637212E+02  0.11088647444E+03  0.46999998093E+01 0. -1.
</event>
<event>
 5   0  0.3794375E-03  0.5998374E+03  0.7818609E-02  0.9905743E-01
       -4   -1    0    0    0  501  0.00000000000E+00  0.00000000000E+00  0.20091695583E+03  0.20092096963E+03  0.12699999809E+01 0.  1.
        4   -1    0    0  501    0  0.00000000000E+00  0.00000000000E+00 -0.44769411375E+03  0.44769591509E+03  0.12699999809E+01 0. -1.
    10030    2    1    2    0    0  0.00000000000E+00  0.00000000000E+00 -0.24677715792E+03  0.64861688472E+03  0.59983739253E+03 0.  0.
        4    1    3    3  502    0  0.29620455646E+03 -0.16709272892E+02 -0.17093318361E+03  0.34239758356E+03  0.12699999809E+01 0. -1.
       -4    1    3    3    0  502 -0.29620455646E+03  0.16709272892E+02 -0.75843974307E+02  0.30621930116E+03  0.12699999809E+01 0.  1.
</event>
<event>
 5   0  0.3794375E-03  0.5978957E+03  0.7818609E-02  0.9909781E-01
       -3   -1    0    0    0  501  0.00000000000E+00  0.00000000000E+00  0.93605553941E+02  0.93605608430E+02  0.10100000352E+00 0.  1.
        3   -1    0    0  501    0  0.00000000000E+00  0.00000000000E+00 -0.95474885856E+03  0.95474886391E+03  0.10100000352E+00 0. -1.
    10030    2    1    2    0    0  0.00000000000E+00  0.00000000000E+00 -0.86114330462E+03  0.10483544723E+04  0.59789573386E+03 0.  0.
        5    1    3    3  502    0  0.13281094764E+03  0.23805244256E+03 -0.21553773771E+03  0.34754326292E+03  0.46999998093E+01 0.  1.
       -5    1    3    3    0  502 -0.13281094764E+03 -0.23805244256E+03 -0.64560556691E+03  0.70081120942E+03  0.46999998093E+01 0. -1.
</event>
<event>
 5   0  0.5785798E-03  0.6014717E+03  0.7818609E-02  0.9902357E-01
       -1   -1    0    0    0  501  0.00000000000E+00  0.00000000000E+00  0.17032281536E+03  0.17032281544E+03  0.50400001928E-02 0.  1.
        1   -1    0    0  501    0  0.00000000000E+00  0.00000000000E+00 -0.53100381481E+03  0.53100381484E+03  0.50400001928E-02 0. -1.
    10030    2    1    2    0    0  0.00000000000E+00  0.00000000000E+00 -0.36068099945E+03  0.70132663027E+03  0.60147174411E+03 0.  0.
        1    1    3    3  502    0  0.25979919364E+03 -0.11831529676E+03 -0.29063820883E+03  0.40738765190E+03  0.50400001928E-02 0.  1.
       -1    1    3    3    0  502 -0.25979919364E+03  0.11831529676E+03 -0.70042790625E+02  0.29393897837E+03  0.50400001928E-02 0. -1.
</event>
<event>
 5   0  0.5785798E-03  0.5992423E+03  0.7818609E-02  0.9906979E-01
        1   -1    0    0  501    0  0.00000000000E+00  0.00000000000E+00  0.14387491252E+04  0.14387491252E+04  0.50400001928E-02 0.  1.
       -1   -1    0    0    0  501  0.00000000000E+00  0.00000000000E+00 -0.62396450348E+02  0.62396450551E+02  0.50400001928E-02 0. -1.
    10030    2    1    2    0    0  0.00000000000E+00  0.00000000000E+00  0.13763526748E+04  0.15011455757E+04  0.59924231663E+03 0.  0.
        1    1    3    3  502    0 -0.66569988403E+02  0.19430766534E+03  0.12346371865E+04  0.12516053749E+04  0.50400001928E-02 0.  1.
       -1    1    3    3    0  502  0.66569988403E+02 -0.19430766534E+03  0.14171548828E+03  0.24954020079E+03  0.50400001928E-02 0. -1.
</event>
<event>
 5   0  0.5491236E-03  0.6012401E+03  0.7818609E-02  0.9902837E-01
       -1   -1    0    0    0  501  0.00000000000E+00  0.00000000000E+00  0.28501523275E+03  0.28501523280E+03  0.50400001928E-02 0.  1.
        1   -1    0    0  501    0  0.00000000000E+00  0.00000000000E+00 -0.31707919307E+03  0.31707919311E+03  0.50400001928E-02 0. -1.
    10030    2    1    2    0    0  0.00000000000E+00  0.00000000000E+00 -0.32063960318E+02  0.60209442591E+03  0.60124005203E+03 0.  0.
        3    1    3    3  502    0  0.27826994036E+03  0.10834872533E+03 -0.50704638830E+02  0.30289367209E+03  0.10100000352E+00 0. -1.
       -3    1    3    3    0  502 -0.27826994036E+03 -0.10834872533E+03  0.18640678512E+02  0.29920075382E+03  0.10100000352E+00 0.  1.
</event>
<event>
 5   0  0.9681801E-03  0.6002554E+03  0.7818609E-02  0.9904876E-01
       -2   -1    0    0    0  501  0.00000000000E+00  0.00000000000E+00  0.14300636491E+03  0.14300636493E+03  0.25500000920E-02 0. -1.
        2   -1    0    0  501    0  0.00000000000E+00  0.00000000000E+00 -0.62987860601E+03  0.62987860602E+03  0.25500000920E-02 0.  1.
    10030    2    1    2    0    0  0.00000000000E+00  0.00000000000E+00 -0.48687224110E+03  0.77288497095E+03  0.60025544493E+03 0.  0.
        4    1    3    3  502    0 -0.15108657622E+03 -0.23373607118E+03 -0.38805603602E+03  0.47754455758E+03  0.12699999809E+01 0.  1.
       -4    1    3    3    0  502  0.15108657622E+03  0.23373607118E+03 -0.98816205084E+02  0.29534041337E+03  0.12699999809E+01 0. -1.
</event>
<event>
 5   0  0.9866317E-03  0.5996350E+03  0.7818609E-02  0.9906164E-01
       -2   -1    0    0    0  501  0.00000000000E+00  0.00000000000E+00  0.65457588855E+03  0.65457588856E+03  0.25500000920E-02 0.  1.
        2   -1    0    0  501    0  0.00000000000E+00  0.00000000000E+00 -0.13732638599E+03  0.13732638601E+03  0.25500000920E-02 0. -1.
    10030    2    1    2    0    0  0.00000000000E+00  0.00000000000E+00  0.51724950256E+03  0.79190227457E+03  0.59963502613E+03 0.  0.
        1    1    3    3  502    0 -0.15061595961E+03  0.58812719209E+02 -0.74811303011E+02  0.17815957542E+03  0.50400001928E-02 0. -1.
       -1    1    3    3    0  502  0.15061595961E+03 -0.58812719209E+02  0.59206080558E+03  0.61374269915E+03  0.50400001928E-02 0.  1.
</event>
<event>
 5   0  0.3794375E-03  0.5995741E+03  0.7818609E-02  0.9906290E-01
        4   -1    0    0  501    0  0.00000000000E+00  0.00000000000E+00  0.47905294494E+03  0.47905462836E+03  0.12699999809E+01 0. -1.
       -4   -1    0    0    0  501  0.00000000000E+00  0.00000000000E+00 -0.18759988502E+03  0.18760418375E+03  0.12699999809E+01 0.  1.
    10030    2    1    2    0    0  0.00000000000E+00  0.00000000000E+00  0.29145305992E+03  0.66665881211E+03  0.59957408686E+03 0.  0.
        4    1    3    3  502    0  0.10835213586E+02  0.29955852553E+03  0.14101621578E+03  0.33127012857E+03  0.12699999809E+01 0. -1.
       -4    1    3    3    0  502 -0.10835213586E+02 -0.29955852553E+03  0.15043684414E+03  0.33538868354E+03  0.12699999809E+01 0.  1.
</event>
<event>
 5   0  0.5653633E-03  0.6010094E+03  0.7818609E-02  0.9903314E-01
       -1   -1    0    0    0  501  0.00000000000E+00  0.00000000000E+00  0.50231495168E+02  0.50231495421E+02  0.50400001928E-02 0.  1.
        1   -1    0    0  501    0  0.00000000000E+00  0.00000000000E+00 -0.17977380321E+04  0.17977380321E+04  0.50400001928E-02 0. -1.
    10030    2    1    2    0    0  0.00000000000E+00  0.00000000000E+00 -0.17475065369E+04  0.18479695275E+04  0.60100938266E+03 0.  0.
        2    1    3    3  502    0  0.64681524958E+02  0.27391053839E+03 -0.11975899616E+04  0.12302164033E+04  0.25500000920E-02 0. -1.
       -2    1    3    3    0  502 -0.64681524958E+02 -0.27391053839E+03 -0.54991657533E+03  0.61775312427E+03  0.25500000920E-02 0.  1.
</event>
<event>
 5   0  0.3794375E-03  0.5998715E+03  0.7818609E-02  0.9905673E-01
        3   -1    0    0  501    0  0.00000000000E+00  0.00000000000E+00  0.21229565509E+03  0.21229567912E+03  0.10100000352E+00 0. -1.
       -3   -1    0    0    0  501  0.00000000000E+00  0.00000000000E+00 -0.42375550951E+03  0.42375552155E+03  0.10100000352E+00 0.  1.
    10030    2    1    2    0    0  0.00000000000E+00  0.00000000000E+00 -0.21145985442E+03  0.63605120067E+03  0.59987153611E+03 0.  0.
        1    1    3    3  502    0 -0.59367093220E+02  0.57650167255E+02  0.19995183795E+03  0.21639947104E+03  0.50400001928E-02 0. -1.
       -1    1    3    3    0  502  0.59367093220E+02 -0.57650167255E+02 -0.41141169236E+03  0.41965172963E+03  0.50400001928E-02 0.  1.
</event>
<event>
 5   0  0.5574736E-03  0.5991777E+03  0.7818609E-02  0.9907113E-01
       -1   -1    0    0    0  501  0.00000000000E+00  0.00000000000E+00  0.28463979605E+02  0.28463980052E+02  0.50400001928E-02 0. -1.
        1   -1    0    0  501    0  0.00000000000E+00  0.00000000000E+00 -0.31532304479E+04  0.31532304479E+04  0.50400001928E-02 0.  1.
    10030    2    1    2    0    0  0.00000000000E+00  0.00000000000E+00 -0.31247664683E+04  0.31816944280E+04  0.59917772948E+03 0.  0.
        5    1    3    3  502    0 -0.86268175316E+02  0.37979132340E+02 -0.52531916294E+02  0.10801066981E+03  0.46999998093E+01 0. -1.
       -5    1    3    3    0  502  0.86268175316E+02 -0.37979132340E+02 -0.30722345520E+04  0.30736837581E+04  0.46999998093E+01 0.  1.
</event>
<event>
 5   0  0.9681801E-03  0.6012374E+03  0.7818609E-02  0.9902842E-01
        2   -1    0    0  501    0  0.00000000000E+00  0.00000000000E+00  0.31697354652E+03  0.31697354653E+03  0.25500000920E-02 0. -1.
       -2   -1    0    0    0  501  0.00000000000E+00  0.00000000000E+00 -0.28510774584E+03  0.28510774585E+03  0.25500000920E-02 0.  1.
    10030    2    1    2    0    0  0.00000000000E+00  0.00000000000E+00  0.31865800679E+02  0.60208129239E+03  0.60123743512E+03 0.  0.
        4    1    3    3  502    0 -0.17705711280E+03  0.14662350308E+03 -0.17804578212E+03  0.29077411556E+03  0.12699999809E+01 0.  1.
       -4    1    3    3    0  502  0.17705711280E+03 -0.14662350308E+03  0.20991158280E+03  0.31130717683E+03  0.12699999809E+01 0. -1.
</event>
<event>
 5   0  0.5491236E-03  0.6040585E+03  0.7818609E-02  0.9897022E-01
        1   -1    0    0  501    0  0.00000000000E+00  0.00000000000E+00  0.29589575893E+03  0.29589575897E+03  0.50400001928E-02 0. -1.
       -1   -1    0    0    0  501  0.00000000000E+00  0.00000000000E+00 -0.30828985433E+03  0.30828985437E+03  0.50400001928E-02 0.  1.
    10030    2    1    2    0    0  0.00000000000E+00  0.00000000000E+00 -0.12394095401E+02  0.60418561334E+03  0.60405847545E+03 0.  0.
        3    1    3    3  502    0  0.33116376379E+02  0.18314566506E+03 -0.24411813113E+03  0.30697345351E+03  0.10100000352E+00 0.  1.
       -3    1    3    3    0  502 -0.33116376379E+02 -0.18314566506E+03  0.23172403573E+03  0.29721215983E+03  0.10100000352E+00 0. -1.
</event>
<event>
 5   0  0.9681801E-03  0.5991830E+03  0.7818609E-02  0.9907102E-01
       -2   -1    0    0    0  501  0.00000000000E+00  0.00000000000E+00  0.11054747546E+03  0.11054747549E+03  0.25500000920E-02 0.  1.
        2   -1    0    0  501    0  0.00000000000E+00  0.00000000000E+00 -0.81191429642E+03  0.81191429643E+03  0.25500000920E-02 0. -1.
    10030    2    1    2    0    0  0.00000000000E+00  0.00000000000E+00 -0.70136682096E+03  0.92246177191E+03  0.59918302971E+03 0.  0.
        4    1    3    3  502    0  0.14028198283E+03 -0.14065378890E+03 -0.54333616184E+01  0.19873011185E+03  0.12699999809E+01 0.  1.
       -4    1    3    3    0  502 -0.14028198283E+03  0.14065378890E+03 -0.69593345934E+03  0.72373166006E+03  0.12699999809E+01 0. -1.
</event>
<event>
 5   0  0.5785798E-03  0.6020823E+03  0.7818609E-02  0.9901095E-01
        1   -1    0    0  501    0  0.00000000000E+00  0.00000000000E+00  0.72478203306E+02  0.72478203481E+02  0.50400001928E-02 0.  1.
       -1   -1    0    0    0  501  0.00000000000E+00  0.00000000000E+00 -0.12503866052E+04  0.12503866052E+04  0.50400001928E-02 0. -1.
    10030    2    1    2    0    0  0.00000000000E+00  0.00000000000E+00 -0.11779084019E+04  0.13228648087E+04  0.60208230235E+03 0.  0.
        1    1    3    3  502    0 -0.86587024222E+02  0.13168266274E+03 -0.11525054281E+04  0.11632310167E+04  0.50400001928E-02 0. -1.
       -1    1    3    3    0  502  0.86587024222E+02 -0.13168266274E+03 -0.25402973775E+02  0.15963379195E+03  0.50400001928E-02 0.  1.
</event>
<event>
 5   0  0.5785798E-03  0.5988856E+03  0.7818609E-02  0.9907721E-01
        1   -1    0    0  501    0  0.00000000000E+00  0.00000000000E+00  0.14593832447E+04  0.14593832447E+04  0.50400001928E-02 0. -1.
       -1   -1    0    0    0  501  0.00000000000E+00  0.00000000000E+00 -0.61441017568E+02  0.61441017775E+02  0.50400001928E-02 0.  1.
    10030    2    1    2    0    0  0.00000000000E+00  0.00000000000E+00  0.13979422271E+04  0.15208242625E+04  0.59888560424E+03 0.  0.
        1    1    3    3  502    0 -0.11938232459E+03 -0.24979928478E+03  0.40927451905E+03  0.49412291393E+03  0.50400001928E-02 0.  1.
       -1    1    3    3    0  502  0.11938232459E+03  0.24979928478E+03  0.98866770810E+03  0.10267013486E+04  0.50400001928E-02 0. -1.
</event>
<event>
 5   0  0.9866317E-03  0.5986161E+03  0.7818609E-02  0.9908281E-01
       -2   -1    0    0    0  501  0.00000000000E+00  0.00000000000E+00  0.37792764121E+03  0.37792764122E+03  0.25500000920E-02 0. -1.
        2   -1    0    0  501    0  0.00000000000E+00  0.00000000000E+00 -0.23704355549E+03  0.23704355550E+03  0.25500000920E-02 0.  1.
    10030    2    1    2    0    0  0.00000000000E+00  0.00000000000E+00  0.14088408572E+03  0.61497119672E+03  0.59861611003E+03 0.  0.
        1    1    3    3  502    0 -0.79552799832E+02 -0.79273975181E+02  0.35546090940E+03  0.37278072542E+03  0.50400001928E-02 0. -1.
       -1    1    3    3    0  502  0.79552799832E+02  0.79273975181E+02 -0.21457682369E+03  0.24219047130E+03  0.50400001928E-02 0.  1.
</event>
<event>
 5   0  0.9866317E-03  0.5997954E+03  0.7818609E-02  0.9905831E-01
        2   -1    0    0  501    0  0.00000000000E+00  0.00000000000E+00  0.37493383267E+03  0.37493383268E+03  0.25500000920E-02 0.  1.
       -2   -1    0    0    0  501  0.00000000000E+00  0.00000000000E+00 -0.23987871275E+03  0.23987871276E+03  0.25500000920E-02 0. -1.
    10030    2    1    2    0    0  0.00000000000E+00  0.00000000000E+00  0.13505511992E+03  0.61481254545E+03  0.59979544898E+03 0.  0.
        1    1    3    3  502    0 -0.36815663720E+02  0.11621308341E+02  0.37237604940E+03  0.37437196756E+03  0.50400001928E-02 0.  1.
       -1    1    3    3    0  502  0.36815663720E+02 -0.11621308341E+02 -0.23732092948E+03  0.24044057789E+03  0.50400001928E-02 0. -1.
</event>
<event>
 5   0  0.9681801E-03  0.5990195E+03  0.7818609E-02  0.9907442E-01
       -2   -1    0    0    0  501  0.00000000000E+00  0.00000000000E+00  0.63595095341E+03  0.63595095341E+03  0.25500000920E-02 0. -1.
        2   -1    0    0  501    0  0.00000000000E+00  0.00000000000E+00 -0.14105820730E+03  0.14105820733E+03  0.25500000920E-02 0.  1.
    10030    2    1    2    0    0  0.00000000000E+00  0.00000000000E+00  0.49489274610E+03  0.77700916074E+03  0.59901953701E+03 0.  0.
        4    1    3    3  502    0  0.19689288006E+03 -0.19557359467E+03  0.10133201827E+03  0.29544141208E+03  0.12699999809E+01 0.  1.
       -4    1    3    3    0  502 -0.19689288006E+03  0.19557359467E+03  0.39356072783E+03  0.48156774865E+03  0.12699999809E+01 0. -1.
</event>
<event>
 5   0  0.9681801E-03  0.6009821E+03  0.7818609E-02  0.9903371E-01
       -2   -1    0    0    0  501  0.00000000000E+00  0.00000000000E+00  0.32089165450E+03  0.32089165451E+03  0.25500000920E-02 0.  1.
        2   -1    0    0  501    0  0.00000000000E+00  0.00000000000E+00 -0.28138741694E+03  0.28138741695E+03  0.25500000920E-02 0. -1.
    10030    2    1    2    0    0  0.00000000000E+00  0.00000000000E+00  0.39504237556E+02  0.60227907146E+03  0.60098210883E+03 0.  0.
        4    1    3    3  502    0 -0.18723839366E+03 -0.26151843498E+02  0.25381798659E+03  0.31649220874E+03  0.12699999809E+01 0.  1.
       -4    1    3    3    0  502  0.18723839366E+03  0.26151843498E+02 -0.21431374904E+03  0.28578686272E+03  0.12699999809E+01 0. -1.
</event>
<event>
 5   0  0.5785798E-03  0.5997595E+03  0.7818609E-02  0.9905905E-01
        1   -1    0    0  501    0  0.00000000000E+00  0.00000000000E+00  0.12735298749E+04  0.12735298749E+04  0.50400001928E-02 0. -1.
       -1   -1    0    0    0  501  0.00000000000E+00  0.00000000000E+00 -0.70613073919E+02  0.70613074099E+02  0.50400001928E-02 0.  1.
    10030    2    1    2    0    0  0.00000000000E+00  0.00000000000E+00  0.12029168010E+04  0.13441429490E+04  0.59975948287E+03 0.  0.
        1    1    3    3  502    0 -0.20760605968E+03 -0.98626530107E+02  0.10331340760E+04  0.10583919347E+04  0.50400001928E-02 0.  1.
       -1    1    3    3    0  502  0.20760605968E+03  0.98626530107E+02  0.16978272504E+03  0.28575101435E+03  0.50400001928E-02 0. -1.
</event>
<event>
 5   0  0.5491236E-03  0.6002446E+03  0.7818609E-02  0.9904899E-01
       -1   -1    0    0    0  501  0.00000000000E+00  0.00000000000E+00  0.13862458933E+03  0.13862458942E+03  0.50400001928E-02 0. -1.
        1   -1    0    0  501    0  0.00000000000E+00  0.00000000000E+00 -0.64976481644E+03  0.64976481646E+03  0.50400001928E-02 0.  1.
    10030    2    1    2    0    0  0.00000000000E+00  0.00000000000E+00 -0.51114022711E+03  0.78838940589E+03  0.60024455311E+03 0.  0.
        3    1    3    3  502    0 -0.12408031125E+03 -0.11096308422E+03  0.72435869231E+02  0.18153703494E+03  0.10100000352E+00 0. -1.
       -3    1    3    3    0  502  0.12408031125E+03  0.11096308422E+03 -0.58357609634E+03  0.60685237095E+03  0.10100000352E+00 0.  1.
</event>
<event>
 5   0  0.9530666E-03  0.5980310E+03  0.7818609E-02  0.9909500E-01
        2   -1    0    0  501    0  0.00000000000E+00  0.00000000000E+00  0.65200425929E+03  0.65200425930E+03  0.25500000920E-02 0.  1.
       -2   -1    0    0    0  501  0.00000000000E+00  0.00000000000E+00 -0.13713141056E+03  0.13713141058E+03  0.25500000920E-02 0. -1.
    10030    2    1    2    0    0  0.00000000000E+00  0.00000000000E+00  0.51487284874E+03  0.78913566988E+03  0.59803098173E+03 0.  0.
        2    1    3    3  502    0 -0.40979690462E+02  0.17888981180E+03 -0.54072170635E+02  0.19132354649E+03  0.25500000920E-02 0. -1.
       -2    1    3    3    0  502  0.40979690462E+02 -0.17888981180E+03  0.56894501937E+03  0.59781212339E+03  0.25500000920E-02 0.  1.
</event>
<event>
 5   0  0.3794375E-03  0.6004568E+03  0.7818609E-02  0.9904459E-01
       -3   -1    0    0    0  501  0.00000000000E+00  0.00000000000E+00  0.85258508178E+02  0.85258568002E+02  0.10100000352E+00 0. -1.
        3   -1    0    0  501    0  0.00000000000E+00  0.00000000000E+00 -0.10572206340E+04  0.10572206388E+04  0.10100000352E+00 0.  1.
    10030    2    1    2    0    0  0.00000000000E+00  0.00000000000E+00 -0.97196212580E+03  0.11424792068E+04  0.60045679610E+03 0.  0.
        4    1    3    3  502    0  0.26359489654E+03  0.14323660144E+03 -0.46375265290E+03  0.55232882366E+03  0.12699999809E+01 0. -1.
       -4    1    3    3    0  502 -0.26359489654E+03 -0.14323660144E+03 -0.50820947290E+03  0.59015038314E+03  0.12699999809E+01 0.  1.
</event>
<event>
 5   0  0.5653633E-03  0.5904927E+03  0.7818609E-02  0.9925329E-01
        1   -1    0    0  501    0  0.00000000000E+00  0.00000000000E+00  0.47488256525E+03  0.47488256527E+03  0.50400001928E-02 0. -1.
       -1   -1    0    0    0  501  0.00000000000E+00  0.00000000000E+00 -0.18356205080E+03  0.18356205087E+03  0.50400001928E-02 0.  1.
    10030    2    1    2    0    0  0.00000000000E+00  0.00000000000E+00  0.29132051444E+03  0.65844461615E+03  0.59049273526E+03 0.  0.
        2    1    3    3  502    0 -0.14369648623E+03 -0.15516469929E+03 -0.84071642768E+02  0.22758032688E+03  0.25500000920E-02 0.  1.
       -2    1    3    3    0  502  0.14369648623E+03  0.15516469929E+03  0.37539215721E+03  0.43086428926E+03  0.25500000920E-02 0. -1.
</event>
<event>
 5   0  0.5653633E-03  0.6001679E+03  0.7818609E-02  0.9905058E-01
       -1   -1    0    0    0  501  0.00000000000E+00  0.00000000000E+00  0.19220624375E+03  0.19220624381E+03  0.50400001928E-02 0. -1.
        1   -1    0    0  501    0  0.00000000000E+00  0.00000000000E+00 -0.46850912090E+03  0.46850912093E+03  0.50400001928E-02 0.  1.
    10030    2    1    2    0    0  0.00000000000E+00  0.00000000000E+00 -0.27630287715E+03  0.66071536474E+03  0.60016790424E+03 0.  0.
        2    1    3    3  502    0 -0.61556013976E+02  0.26366763667E+03  0.42870366239E+01  0.27079169887E+03  0.25500000920E-02 0. -1.
       -2    1    3    3    0  502  0.61556013976E+02 -0.26366763667E+03 -0.28058991378E+03  0.38992366587E+03  0.25500000920E-02 0.  1.
</event>
<event>
 5   0  0.5503975E-03  0.6018088E+03  0.7818609E-02  0.9901660E-01
       -1   -1    0    0    0  501  0.00000000000E+00  0.00000000000E+00  0.10308491348E+03  0.10308491361E+03  0.50400001928E-02 0. -1.
        1   -1    0    0  501    0  0.00000000000E+00  0.00000000000E+00 -0.87833866319E+03  0.87833866321E+03  0.50400001928E-02 0.  1.
    10030    2    1    2    0    0  0.00000000000E+00  0.00000000000E+00 -0.77525374971E+03  0.98142357681E+03  0.60180882403E+03 0.  0.
        4    1    3    3  502    0 -0.19499816951E+03 -0.10262839793E+03 -0.53474231478E+02  0.22675533181E+03  0.12699999809E+01 0. -1.
       -4    1    3    3    0  502  0.19499816951E+03  0.10262839793E+03 -0.72177951823E+03  0.75466824500E+03  0.12699999809E+01 0.  1.
</event>
<event>
 5   0  0.9530666E-03  0.6004779E+03  0.7818609E-02  0.9904415E-01
        2   -1    0    0  501    0  0.00000000000E+00  0.00000000000E+00  0.13653230225E+04  0.13653230225E+04  0.25500000920E-02 0. -1.
       -2   -1    0    0    0  501  0.00000000000E+00  0.00000000000E+00 -0.66023516556E+02  0.66023516605E+02  0.25500000920E-02 0.  1.
    10030    2    1    2    0    0  0.00000000000E+00  0.00000000000E+00  0.12992995060E+04  0.14313465391E+04  0.60047790041E+03 0.  0.
        2    1    3    3  502    0 -0.11936802911E+03 -0.24043881882E+03  0.97019808020E+03  0.10066498233E+04  0.25500000920E-02 0. -1.
       -2    1    3    3    0  502  0.11936802911E+03  0.24043881882E+03  0.32910142579E+03  0.42469671582E+03  0.25500000920E-02 0.  1.
</event>
<event>
 5   0  0.5785798E-03  0.5981172E+03  0.7818609E-02  0.9909320E-01
       -1   -1    0    0    0  501  0.00000000000E+00  0.00000000000E+00  0.14610087516E+03  0.14610087525E+03  0.50400001928E-02 0.  1.
        1   -1    0    0  501    0  0.00000000000E+00  0.00000000000E+00 -0.61215267832E+03  0.61215267834E+03  0.50400001928E-02 0. -1.
    10030    2    1    2    0    0  0.00000000000E+00  0.00000000000E+00 -0.46605180316E+03  0.75825355359E+03  0.59811718609E+03 0.  0.
        1    1    3    3  502    0  0.15961105387E+03 -0.16187295106E+03  0.13311182081E+02  0.22771852888E+03  0.50400001928E-02 0.  1.
       -1    1    3    3    0  502 -0.15961105387E+03  0.16187295106E+03 -0.47936298524E+03  0.53053502471E+03  0.50400001928E-02 0. -1.
</event>
<event>
 5   0  0.9530666E-03  0.6016397E+03  0.7818609E-02  0.9902010E-01
       -2   -1    0    0    0  501  0.00000000000E+00  0.00000000000E+00  0.11178146718E+03  0.11178146721E+03  0.25500000920E-02 0. -1.
        2   -1    0    0  501    0  0.00000000000E+00  0.00000000000E+00 -0.80954906605E+03  0.80954906605E+03  0.25500000920E-02 0.  1.
    10030    2    1    2    0    0  0.00000000000E+00  0.00000000000E+00 -0.69776759886E+03  0.92133053326E+03  0.60163970073E+03 0.  0.
        2    1    3    3  502    0 -0.15401222507E+02 -0.43886167701E+02  0.10624214242E+03  0.11597666232E+03  0.25500000920E-02 0. -1.
       -2    1    3    3    0  502  0.15401222507E+02  0.43886167701E+02 -0.80400974128E+03  0.80535387095E+03  0.25500000920E-02 0.  1.
</event>
<event>
 5   0  0.9530666E-03  0.5988890E+03  0.7818609E-02  0.9907714E-01
        2   -1    0    0  501    0  0.00000000000E+00  0.00000000000E+00  0.14433266525E+03  0.14433266527E+03  0.25500000920E-02 0. -1.
       -2   -1    0    0    0  501  0.00000000000E+00  0.00000000000E+00 -0.62125235560E+03  0.62125235561E+03  0.25500000920E-02 0.  1.
    10030    2    1    2    0    0  0.00000000000E+00  0.00000000000E+00 -0.47691969035E+03  0.76558502088E+03  0.59888899902E+03 0.  0.
        2    1    3    3  502    0 -0.52006325761E+02 -0.23308384339E+03 -0.46939181421E+03  0.52665112857E+03  0.25500000920E-02 0.  1.
       -2    1    3    3    0  502  0.52006325761E+02  0.23308384339E+03 -0.75278761458E+01  0.23893389231E+03  0.25500000920E-02 0. -1.
</event>
<event>
 5   0  0.9530666E-03  0.5995826E+03  0.7818609E-02  0.9906272E-01
        2   -1    0    0  501    0  0.00000000000E+00  0.00000000000E+00  0.70728951029E+03  0.70728951029E+03  0.25500000920E-02 0.  1.
       -2   -1    0    0    0  501  0.00000000000E+00  0.00000000000E+00 -0.12706937828E+03  0.12706937830E+03  0.25500000920E-02 0. -1.
    10030    2    1    2    0    0  0.00000000000E+00  0.00000000000E+00  0.58022013201E+03  0.83435888859E+03  0.59958264933E+03 0.  0.
        2    1    3    3  502    0  0.28818340626E+03 -0.79850638911E+02  0.26062205607E+03  0.39667323617E+03  0.25500000920E-02 0. -1.
       -2    1    3    3    0  502 -0.28818340626E+03  0.79850638911E+02  0.31959807594E+03  0.43768565242E+03  0.25500000920E-02 0.  1.
</event>
<event>
 5   0  0.9866317E-03  0.5961799E+03  0.7818609E-02  0.9913363E-01
        2   -1    0    0  501    0  0.00000000000E+00  0.00000000000E+00  0.22082143391E+03  0.22082143392E+03  0.25500000920E-02 0.  1.
       -2   -1    0    0    0  501  0.00000000000E+00  0.00000000000E+00 -0.40239586630E+03  0.40239586631E+03  0.25500000920E-02 0. -1.
    10030    2    1    2    0    0  0.00000000000E+00  0.00000000000E+00 -0.18157443239E+03  0.62321730023E+03  0.59617994667E+03 0.  0.
        1    1    3    3  502    0  0.67827146199E+02 -0.13588417098E+03  0.17734603221E+03  0.23348799723E+03  0.50400001928E-02 0.  1.
       -1    1    3    3    0  502 -0.67827146199E+02  0.13588417098E+03 -0.35892046460E+03  0.38972930300E+03  0.50400001928E-02 0. -1.
</event>
<event>
 5   0  0.5653633E-03  0.6001462E+03  0.7818609E-02  0.9905103E-01
       -1   -1    0    0    0  501  0.00000000000E+00  0.00000000000E+00  0.98579897477E+02  0.98579897606E+02  0.50400001928E-02 0. -1.
        1   -1    0    0  501    0  0.00000000000E+00  0.00000000000E+00 -0.91340987844E+03  0.91340987846E+03  0.50400001928E-02 0.  1.
    10030    2    1    2    0    0  0.00000000000E+00  0.00000000000E+00 -0.81482998097E+03  0.10119897761E+04  0.60014615635E+03 0.  0.
        2    1    3    3  502    0 -0.28541488460E+03 -0.32271064950E+02 -0.26098600087E+03  0.38809376527E+03  0.25500000920E-02 0.  1.
       -2    1    3    3    0  502  0.28541488460E+03  0.32271064950E+02 -0.55384398010E+03  0.62389601079E+03  0.25500000920E-02 0. -1.
</event>
<event>
 5   0  0.9681801E-03  0.5987978E+03  0.7818609E-02  0.9907903E-01
       -2   -1    0    0    0  501  0.00000000000E+00  0.00000000000E+00  0.89081550228E+02  0.89081550265E+02  0.25500000920E-02 0.  1.
        2   -1    0    0  501    0  0.00000000000E+00  0.00000000000E+00 -0.10062657859E+04  0.10062657859E+04  0.25500000920E-02 0. -1.
    10030    2    1    2    0    0  0.00000000000E+00  0.00000000000E+00 -0.91718423567E+03  0.10953473362E+04  0.59879784960E+03 0.  0.
        4    1    3    3  502    0  0.22944462683E+03  0.17974580369E+03 -0.58379464596E+03  0.65251144992E+03  0.12699999809E+01 0. -1.
       -4    1    3    3    0  502 -0.22944462683E+03 -0.17974580369E+03 -0.33338958971E+03  0.44283588625E+03  0.12699999809E+01 0.  1.
</event>
<event>
 5   0  0.9571790E-03  0.6001279E+03  0.7818609E-02  0.9905141E-01
       -2   -1    0    0    0  501  0.00000000000E+00  0.00000000000E+00  0.36932499297E+03  0.36932499298E+03  0.25500000920E-02 0.  1.
        2   -1    0    0  501    0  0.00000000000E+00  0.00000000000E+00 -0.24379172178E+03  0.24379172180E+03  0.25500000920E-02 0. -1.
    10030    2    1    2    0    0  0.00000000000E+00  0.00000000000E+00  0.12553327119E+03  0.61311671477E+03  0.60012790617E+03 0.  0.
        5    1    3    3  502    0 -0.13829709391E+03 -0.26233672358E+03  0.16288673626E+02  0.29704217480E+03  0.46999998093E+01 0. -1.
       -5    1    3    3    0  502  0.13829709391E+03  0.26233672358E+03  0.10924459756E+03  0.31607453997E+03  0.46999998093E+01 0.  1.
</event>
<event>
 5   0  0.5491236E-03  0.5982187E+03  0.7818609E-02  0.9909109E-01
       -1   -1    0    0    0  501  0.00000000000E+00  0.00000000000E+00  0.47735203439E+02  0.47735203705E+02  0.50400001928E-02 0. -1.
        1   -1    0    0  501    0  0.00000000000E+00  0.00000000000E+00 -0.18742229478E+04  0.18742229478E+04  0.50400001928E-02 0.  1.
    10030    2    1    2    0    0  0.00000000000E+00  0.00000000000E+00 -0.18264877444E+04  0.19219581515E+04  0.59821873581E+03 0.  0.
        3    1    3    3  502    0  0.16214954752E+03 -0.24775256063E+03 -0.10492709014E+04  0.10902491650E+04  0.10100000352E+00 0. -1.
       -3    1    3    3    0  502 -0.16214954752E+03  0.24775256063E+03 -0.77721684296E+03  0.83170898651E+03  0.10100000352E+00 0.  1.
</event>
<event>
 5   0  0.9571790E-03  0.6025653E+03  0.7818609E-02  0.9900098E-01
        2   -1    0    0  501    0  0.00000000000E+00  0.00000000000E+00  0.58037041363E+03  0.58037041364E+03  0.25500000920E-02 0.  1.
       -2   -1    0    0    0  501  0.00000000000E+00  0.00000000000E+00 -0.15640224836E+03  0.15640224838E+03  0.25500000920E-02 0. -1.
    10030    2    1    2    0    0  0.00000000000E+00  0.00000000000E+00  0.42396816527E+03  0.73677266202E+03  0.60256530794E+03 0.  0.
        5    1    3    3  502    0 -0.14187146290E+03 -0.25703961945E+03  0.29448207273E+03  0.41585894136E+03  0.46999998093E+01 0. -1.
       -5    1    3    3    0  502  0.14187146290E+03  0.25703961945E+03  0.12948609255E+03  0.32091372067E+03  0.46999998093E+01 0.  1.
</event>
<event>
 5   0  0.5491236E-03  0.5992364E+03  0.7818609E-02  0.9906992E-01
        1   -1    0    0  501    0  0.00000000000E+00  0.00000000000E+00  0.14960278272E+04  0.14960278272E+04  0.50400001928E-02 0. -1.
       -1   -1    0    0    0  501  0.00000000000E+00  0.00000000000E+00 -0.60006276121E+02  0.60006276333E+02  0.50400001928E-02 0.  1.
    10030    2    1    2    0    0  0.00000000000E+00  0.00000000000E+00  0.14360215511E+04  0.15560341035E+04  0.59923637758E+03 0.  0.
        3    1    3    3  502    0  0.21897942164E+02 -0.11595842644E+03  0.14331406357E+04  0.14379909487E+04  0.10100000352E+00 0. -1.
       -3    1    3    3    0  502 -0.21897942164E+02  0.11595842644E+03  0.28809153540E+01  0.11804315486E+03  0.10100000352E+00 0.  1.
</event>
<event>
 5   0  0.9571790E-03  0.6004353E+03  0.7818609E-02  0.9904503E-01
       -2   -1    0    0    0  501  0.00000000000E+00  0.00000000000E+00  0.54144130328E+02  0.54144130388E+02  0.25500000920E-02 0. -1.
        2   -1    0    0  501    0  0.00000000000E+00  0.00000000000E+00 -0.16646429970E+04  0.16646429970E+04  0.25500000920E-02 0.  1.
    10030    2    1    2    0    0  0.00000000000E+00  0.00000000000E+00 -0.16104988667E+04  0.17187871274E+04  0.60043533351E+03 0.  0.
        5    1    3    3  502    0  0.23650892895E+03  0.13139094314E+03 -0.43302194317E+03  0.51061741713E+03  0.46999998093E+01 0.  1.
       -5    1    3    3    0  502 -0.23650892895E+03 -0.13139094314E+03 -0.11774769235E+04  0.12081697103E+04  0.46999998093E+01 0. -1.
</event>
<event>
 5   0  0.9530666E-03  0.6022663E+03  0.7818609E-02  0.9900715E-01
       -2   -1    0    0    0  501  0.00000000000E+00  0.00000000000E+00  0.10328584515E+03  0.10328584519E+03  0.25500000920E-02 0. -1.
        2   -1    0    0  501    0  0.00000000000E+00  0.00000000000E+00 -0.87796326962E+03  0.87796326962E+03  0.25500000920E-02 0.  1.
    10030    2    1    2    0    0  0.00000000000E+00  0.00000000000E+00 -0.77467742446E+03  0.98124911481E+03  0.60226631430E+03 0.  0.
        2    1    3    3  502    0 -0.29376230119E+03 -0.58374864334E+02 -0.33640601900E+03  0.45041416942E+03  0.25500000920E-02 0. -1.
       -2    1    3    3    0  502  0.29376230119E+03  0.58374864334E+02 -0.43827140546E+03  0.53083494539E+03  0.25500000920E-02 0.  1.
</event>
<event>
 5   0  0.5785798E-03  0.5990941E+03  0.7818609E-02  0.9907287E-01
       -1   -1    0    0    0  501  0.00000000000E+00  0.00000000000E+00  0.16398747262E+03  0.16398747270E+03  0.50400001928E-02 0. -1.
        1   -1    0    0  501    0  0.00000000000E+00  0.00000000000E+00 -0.54716645096E+03  0.54716645098E+03  0.50400001928E-02 0.  1.
    10030    2    1    2    0    0  0.00000000000E+00  0.00000000000E+00 -0.38317897834E+03  0.71115392368E+03  0.59909412761E+03 0.  0.
        1    1    3    3  502    0 -0.96665442915E+02  0.66502765204E+01 -0.52805029983E+03  0.53686642026E+03  0.50400001928E-02 0.  1.
       -1    1    3    3    0  502  0.96665442915E+02 -0.66502765204E+01  0.14487132149E+03  0.17428750342E+03  0.50400001928E-02 0. -1.
</event>
<event>
 5   0  0.5785798E-03  0.6002884E+03  0.7818609E-02  0.9904808E-01
       -1   -1    0    0    0  501  0.00000000000E+00  0.00000000000E+00  0.80796320462E+02  0.80796320619E+02  0.50400001928E-02 0.  1.
        1   -1    0    0  501    0  0.00000000000E+00  0.00000000000E+00 -0.11149830995E+04  0.11149830995E+04  0.50400001928E-02 0. -1.
    10030    2    1    2    0    0  0.00000000000E+00  0.00000000000E+00 -0.10341867790E+04  0.11957794201E+04  0.60028837042E+03 0.  0.
        1    1    3    3  502    0  0.12028288953E+03 -0.24027897524E+03 -0.25069571706E+03  0.36749190744E+03  0.50400001928E-02 0.  1.
       -1    1    3    3    0  502 -0.12028288953E+03  0.24027897524E+03 -0.78349106194E+03  0.82828751265E+03  0.50400001928E-02 0. -1.
</event>
<event>
 5   0  0.9681801E-03  0.6001567E+03  0.7818609E-02  0.9905081E-01
        2   -1    0    0  501    0  0.00000000000E+00  0.00000000000E+00  0.14146566876E+04  0.14146566876E+04  0.25500000920E-02 0.  1.
       -2   -1    0    0    0  501  0.00000000000E+00  0.00000000000E+00 -0.63652901830E+02  0.63652901881E+02  0.25500000920E-02 0. -1.
    10030    2    1    2    0    0  0.00000000000E+00  0.00000000000E+00  0.13510037858E+04  0.14783095895E+04  0.60015665722E+03 0.  0.
        4    1    3    3  502    0 -0.84334355114E+01 -0.28989281707E+03  0.86528744854E+03  0.91259681663E+03  0.12699999809E+01 0.  1.
       -4    1    3    3    0  502  0.84334355114E+01  0.28989281707E+03  0.48571633727E+03  0.56571277289E+03  0.12699999809E+01 0. -1.
</event>
<event>
 5   0  0.9681801E-03  0.6027162E+03  0.7818609E-02  0.9899787E-01
       -2   -1    0    0    0  501  0.00000000000E+00  0.00000000000E+00  0.45809285729E+02  0.45809285800E+02  0.25500000920E-02 0. -1.
        2   -1    0    0  501    0  0.00000000000E+00  0.00000000000E+00 -0.19824955793E+04  0.19824955793E+04  0.25500000920E-02 0.  1.
    10030    2    1    2    0    0  0.00000000000E+00  0.00000000000E+00 -0.19366862936E+04  0.20283048651E+04  0.60271620692E+03 0.  0.
        4    1    3    3  502    0 -0.15485362030E+03  0.13271328837E+03 -0.22171770769E+03  0.30125207955E+03  0.12699999809E+01 0. -1.
       -4    1    3    3    0  502  0.15485362030E+03 -0.13271328837E+03 -0.17149685859E+04  0.17270527856E+04  0.12699999809E+01 0.  1.
</event>
<event>
 5   0  0.9866317E-03  0.5985059E+03  0.7818609E-02  0.9908511E-01
       -2   -1    0    0    0  501  0.00000000000E+00  0.00000000000E+00  0.18944103461E+03  0.18944103463E+03  0.25500000920E-02 0.  1.
        2   -1    0    0  501    0  0.00000000000E+00  0.00000000000E+00 -0.47271876153E+03  0.47271876153E+03  0.25500000920E-02 0. -1.
    10030    2    1    2    0    0  0.00000000000E+00  0.00000000000E+00 -0.28327772692E+03  0.66215979616E+03  0.59850591065E+03 0.  0.
        1    1    3    3  502    0  0.25040831873E+03  0.44503358693E+01 -0.32285218871E+03  0.40860453664E+03  0.50400001928E-02 0. -1.
       -1    1    3    3    0  502 -0.25040831873E+03 -0.44503358693E+01  0.39574461791E+02  0.25355525952E+03  0.50400001928E-02 0.  1.
</event>
<event>
 5   0  0.3794375E-03  0.6004767E+03  0.7818609E-02  0.9904418E-01
       -4   -1    0    0    0  501  0.00000000000E+00  0.00000000000E+00  0.35812389201E+03  0.35812614387E+03  0.12699999809E+01 0. -1.
        4   -1    0    0  501    0  0.00000000000E+00  0.00000000000E+00 -0.25170448540E+03  0.25170768934E+03  0.12699999809E+01 0.  1.
    10030    2    1    2    0    0  0.00000000000E+00  0.00000000000E+00  0.10641940660E+03  0.60983383321E+03  0.60047665569E+03 0.  0.
        2    1    3    3  502    0  0.58342011182E+02 -0.24166930698E+03 -0.11774403387E+03  0.27508453560E+03  0.25500000920E-02 0.  1.
       -2    1    3    3    0  502 -0.58342011182E+02  0.24166930698E+03  0.22416344047E+03  0.33474929762E+03  0.25500000920E-02 0. -1.
</event>
<event>
 5   0  0.5491236E-03  0.6004029E+03  0.7818609E-02  0.9904570E-01
       -1   -1    0    0    0  501  0.00000000000E+00  0.00000000000E+00  0.64343385848E+02  0.64343386046E+02  0.50400001928E-02 0. -1.
        1   -1    0    0  501    0  0.00000000000E+00  0.00000000000E+00 -0.14006243812E+04  0.14006243812E+04  0.50400001928E-02 0.  1.
    10030    2    1    2    0    0  0.00000000000E+00  0.00000000000E+00 -0.13362809954E+04  0.14649677673E+04  0.60040291519E+03 0.  0.
        3    1    3    3  502    0 -0.72113850429E+02  0.45517667993E+02 -0.13704490667E+04  0.13730997488E+04  0.10100000352E+00 0.  1.
       -3    1    3    3    0  502  0.72113850429E+02 -0.45517667993E+02  0.34168071315E+02  0.91868018492E+02  0.10100000352E+00 0. -1.
</event>
<event>
 5   0  0.5785798E-03  0.5999150E+03  0.7818609E-02  0.9905582E-01
        1   -1    0    0  501    0  0.00000000000E+00  0.00000000000E+00  0.64070527150E+03  0.64070527152E+03  0.50400001928E-02 0.  1.
       -1   -1    0    0    0  501  0.00000000000E+00  0.00000000000E+00 -0.14043041634E+03  0.14043041643E+03  0.50400001928E-02 0. -1.
    10030    2    1    2    0    0  0.00000000000E+00  0.00000000000E+00  0.50027485517E+03  0.78113568795E+03  0.59991502088E+03 0.  0.
        1    1    3    3  502    0 -0.15466443836E+03 -0.20485749991E+03  0.45221890860E+03  0.51999002402E+03  0.50400001928E-02 0. -1.
       -1    1    3    3    0  502  0.15466443836E+03  0.20485749991E+03  0.48055946566E+02  0.26114566393E+03  0.50400001928E-02 0.  1.
</event>
<event>
 5   0  0.9530666E-03  0.5994654E+03  0.7818609E-02  0.9906516E-01
       -2   -1    0    0    0  501  0.00000000000E+00  0.00000000000E+00  0.13050087830E+03  0.13050087833E+03  0.25500000920E-02 0. -1.
        2   -1    0    0  501    0  0.00000000000E+00  0.00000000000E+00 -0.68842210320E+03  0.68842210321E+03  0.25500000920E-02 0.  1.
    10030    2    1    2    0    0  0.00000000000E+00  0.00000000000E+00 -0.55792122490E+03  0.81892298153E+03  0.59946539224E+03 0.  0.
        2    1    3    3  502    0 -0.41962820497E+02  0.24558410313E+03 -0.50659897315E+03  0.56454844754E+03  0.25500000920E-02 0.  1.
       -2    1    3    3    0  502  0.41962820497E+02 -0.24558410313E+03 -0.51322251746E+02  0.25437453399E+03  0.25500000920E-02 0. -1.
</event>
<event>
 5   0  0.5574736E-03  0.6005472E+03  0.7818609E-02  0.9904271E-01
       -1   -1    0    0    0  501  0.00000000000E+00  0.00000000000E+00  0.20942535963E+03  0.20942535969E+03  0.50400001928E-02 0.  1.
        1   -1    0    0  501    0  0.00000000000E+00  0.00000000000E+00 -0.43053157313E+03  0.43053157316E+03  0.50400001928E-02 0. -1.
    10030    2    1    2    0    0  0.00000000000E+00  0.00000000000E+00 -0.22110621349E+03  0.63995693285E+03  0.60054718238E+03 0.  0.
        5    1    3    3  502    0  0.83178399361E+02  0.28755772141E+03 -0.13517915334E+03  0.32848680759E+03  0.46999998093E+01 0.  1.
       -5    1    3    3    0  502 -0.83178399361E+02 -0.28755772141E+03 -0.85927060155E+02  0.31147012526E+03  0.46999998093E+01 0. -1.
</event>
<event>
 5   0  0.5785798E-03  0.5995089E+03  0.7818609E-02  0.9906425E-01
       -1   -1    0    0    0  501  0.00000000000E+00  0.00000000000E+00  0.10058419680E+03  0.10058419692E+03  0.50400001928E-02 0. -1.
        1   -1    0    0  501    0  0.00000000000E+00  0.00000000000E+00 -0.89330875105E+03  0.89330875107E+03  0.50400001928E-02 0.  1.
    10030    2    1    2    0    0  0.00000000000E+00  0.00000000000E+00 -0.79272455426E+03  0.99389294799E+03  0.59950894334E+03 0.  0.
        1    1    3    3  502    0  0.28292075028E+03  0.73315253513E+02 -0.50674869244E+03  0.58499018338E+03  0.50400001928E-02 0. -1.
       -1    1    3    3    0  502 -0.28292075028E+03 -0.73315253513E+02 -0.28597586182E+03  0.40890276461E+03  0.50400001928E-02 0.  1.
</event>
<event>
 5   0  0.5653633E-03  0.5984898E+03  0.7818609E-02  0.9908544E-01
        1   -1    0    0  501    0  0.00000000000E+00  0.00000000000E+00  0.14899021863E+04  0.14899021863E+04  0.50400001928E-02 0. -1.
       -1   -1    0    0    0  501  0.00000000000E+00  0.00000000000E+00 -0.60102947777E+02  0.60102947989E+02  0.50400001928E-02 0.  1.
    10030    2    1    2    0    0  0.00000000000E+00  0.00000000000E+00  0.14297992386E+04  0.15500051343E+04  0.59848981100E+03 0.  0.
        2    1    3    3  502    0 -0.39402378262E+02 -0.21767130020E+03  0.12368331193E+04  0.12564591149E+04  0.25500000920E-02 0. -1.
       -2    1    3    3    0  502  0.39402378262E+02  0.21767130020E+03  0.19296611921E+03  0.29354601941E+03  0.25500000920E-02 0.  1.
</event>
<event>
 5   0  0.9530666E-03  0.5994323E+03  0.7818609E-02  0.9906584E-01
        2   -1    0    0  501    0  0.00000000000E+00  0.00000000000E+00  0.20739921994E+03  0.20739921996E+03  0.25500000920E-02 0.  1.
       -2   -1    0    0    0  501  0.00000000000E+00  0.00000000000E+00 -0.43312498785E+03  0.43312498785E+03  0.25500000920E-02 0. -1.
    10030    2    1    2    0    0  0.00000000000E+00  0.00000000000E+00 -0.22572576790E+03  0.64052420781E+03  0.59943234689E+03 0.  0.
        2    1    3    3  502    0  0.12577008192E+03 -0.66564492550E+02 -0.39472726964E+03  0.41959333000E+03  0.25500000920E-02 0. -1.
       -2    1    3    3    0  502 -0.12577008192E+03  0.66564492550E+02  0.16900150174E+03  0.22093087781E+03  0.25500000920E-02 0.  1.
</event>
<event>
 5   0  0.9571790E-03  0.6003105E+03  0.7818609E-02  0.9904762E-01
       -2   -1    0    0    0  501  0.00000000000E+00  0.00000000000E+00  0.26609387135E+03  0.26609387136E+03  0.25500000920E-02 0. -1.
        2   -1    0    0  501    0  0.00000000000E+00  0.00000000000E+00 -0.33857661977E+03  0.33857661978E+03  0.25500000920E-02 0.  1.
    10030    2    1    2    0    0  0.00000000000E+00  0.00000000000E+00 -0.72482748422E+02  0.60467049114E+03  0.60031046471E+03 0.  0.
        5    1    3    3  502    0  0.57945907901E+02 -0.26581986646E+03 -0.16386259941E+03  0.31763339108E+03  0.46999998093E+01 0. -1.
       -5    1    3    3    0  502 -0.57945907901E+02  0.26581986646E+03  0.91379850989E+02  0.28703710006E+03  0.46999998093E+01 0.  1.
</event>
<event>
 5   0  0.5574736E-03  0.5977024E+03  0.7818609E-02  0.9910184E-01
       -1   -1    0    0    0  501  0.00000000000E+00  0.00000000000E+00  0.18527570721E+03  0.18527570728E+03  0.50400001928E-02 0. -1.
        1   -1    0    0  501    0  0.00000000000E+00  0.00000000000E+00 -0.48204939101E+03  0.48204939103E+03  0.50400001928E-02 0.  1.
    10030    2    1    2    0    0  0.00000000000E+00  0.00000000000E+00 -0.29677368379E+03  0.66732509831E+03  0.59770240710E+03 0.  0.
        5    1    3    3  502    0 -0.16232388431E+03  0.10379315730E+03 -0.40339500657E+03  0.44707011111E+03  0.46999998093E+01 0.  1.
       -5    1    3    3    0  502  0.16232388431E+03 -0.10379315730E+03  0.10662132278E+03  0.22025498721E+03  0.46999998093E+01 0. -1.
</event>
<event>
 5   0  0.5785798E-03  0.6013097E+03  0.7818609E-02  0.9902693E-01
       -1   -1    0    0    0  501  0.00000000000E+00  0.00000000000E+00  0.24270573659E+03  0.24270573664E+03  0.50400001928E-02 0. -1.
        1   -1    0    0  501    0  0.00000000000E+00  0.00000000000E+00 -0.37244007612E+03  0.37244007616E+03  0.50400001928E-02 0.  1.
    10030    2    1    2    0    0  0.00000000000E+00  0.00000000000E+00 -0.12973433954E+03  0.61514581280E+03  0.60130971400E+03 0.  0.
        1    1    3    3  502    0 -0.91519729121E+02  0.16076778816E+03 -0.30732527405E+03  0.35870735513E+03  0.50400001928E-02 0.  1.
       -1    1    3    3    0  502  0.91519729121E+02 -0.16076778816E+03  0.17759093451E+03  0.25643845767E+03  0.50400001928E-02 0. -1.
</event>
<event>
 5   0  0.5491236E-03  0.6003623E+03  0.7818609E-02  0.9904655E-01
       -1   -1    0    0    0  501  0.00000000000E+00  0.00000000000E+00  0.71557042199E+02  0.71557042376E+02  0.50400001928E-02 0.  1.
        1   -1    0    0  501    0  0.00000000000E+00  0.00000000000E+00 -0.12592570248E+04  0.12592570249E+04  0.50400001928E-02 0. -1.
    10030    2    1    2    0    0  0.00000000000E+00  0.00000000000E+00 -0.11876999826E+04  0.13308140672E+04  0.60036225128E+03 0.  0.
        3    1    3    3  502    0 -0.83312098797E+02 -0.73207343416E+02 -0.12121759263E+04  0.12172389689E+04  0.10100000352E+00 0. -1.
       -3    1    3    3    0  502  0.83312098797E+02  0.73207343416E+02  0.24475943667E+02  0.11357509831E+03  0.10100000352E+00 0.  1.
</event>
<event>
 5   0  0.9571790E-03  0.5995477E+03  0.7818609E-02  0.9906345E-01
       -2   -1    0    0    0  501  0.00000000000E+00  0.00000000000E+00  0.20347790478E+03  0.20347790480E+03  0.25500000920E-02 0. -1.
        2   -1    0    0  501    0  0.00000000000E+00  0.00000000000E+00 -0.44164186151E+03  0.44164186152E+03  0.25500000920E-02 0.  1.
    10030    2    1    2    0    0  0.00000000000E+00  0.00000000000E+00 -0.23816395673E+03  0.64511976632E+03  0.59954769836E+03 0.  0.
        5    1    3    3  502    0  0.63746402574E+01  0.11803178465E+03 -0.41546411854E+03  0.43197761750E+03  0.46999998093E+01 0.  1.
       -5    1    3    3    0  502 -0.63746402574E+01 -0.11803178465E+03  0.17730016181E+03  0.21314214882E+03  0.46999998093E+01 0. -1.
</event>
<event>
 5   0  0.5574736E-03  0.6019621E+03  0.7818609E-02  0.9901344E-01
        1   -1    0    0  501    0  0.00000000000E+00  0.00000000000E+00  0.29461949649E+03  0.29461949654E+03  0.50400001928E-02 0.  1.
       -1   -1    0    0    0  501  0.00000000000E+00  0.00000000000E+00 -0.30747995731E+03  0.30747995735E+03  0.50400001928E-02 0. -1.
    10030    2    1    2    0    0  0.00000000000E+00  0.00000000000E+00 -0.12860460815E+02  0.60209945389E+03  0.60196209259E+03 0.  0.
        5    1    3    3  502    0  0.81793587223E+02  0.13109632902E+03 -0.26473528588E+03  0.30656695840E+03  0.46999998093E+01 0. -1.
       -5    1    3    3    0  502 -0.81793587223E+02 -0.13109632902E+03  0.25187482506E+03  0.29553249549E+03  0.46999998093E+01 0.  1.
</event>
<event>
 5   0  0.9530666E-03  0.5994038E+03  0.7818609E-02  0.9906644E-01
       -2   -1    0    0    0  501  0.00000000000E+00  0.00000000000E+00  0.27947363917E+03  0.27947363918E+03  0.25500000920E-02 0. -1.
        2   -1    0    0  501    0  0.00000000000E+00  0.00000000000E+00 -0.32139427059E+03  0.32139427060E+03  0.25500000920E-02 0.  1.
    10030    2    1    2    0    0  0.00000000000E+00  0.00000000000E+00 -0.41920631419E+02  0.60086790978E+03  0.59940379184E+03 0.  0.
        2    1    3    3  502    0 -0.19879392332E+03 -0.22281243727E+03 -0.46651421300E+02  0.30222634112E+03  0.25500000920E-02 0.  1.
       -2    1    3    3    0  502  0.19879392332E+03  0.22281243727E+03  0.47307898809E+01  0.29864156866E+03  0.25500000920E-02 0. -1.
</event>
<event>
 5   0  0.9530666E-03  0.5977728E+03  0.7818609E-02  0.9910038E-01
        2   -1    0    0  501    0  0.00000000000E+00  0.00000000000E+00  0.61299380907E+03  0.61299380908E+03  0.25500000920E-02 0. -1.
       -2   -1    0    0    0  501  0.00000000000E+00  0.00000000000E+00 -0.14573245432E+03  0.14573245434E+03  0.25500000920E-02 0.  1.
    10030    2    1    2    0    0  0.00000000000E+00  0.00000000000E+00  0.46726135475E+03  0.75872626342E+03  0.59777284076E+03 0.  0.
        2    1    3    3  502    0 -0.21766921593E+03 -0.10193943094E+03  0.45912112510E+03  0.51823136017E+03  0.25500000920E-02 0. -1.
       -2    1    3    3    0  502  0.21766921593E+03  0.10193943094E+03  0.81402296522E+01  0.24049490325E+03  0.25500000920E-02 0.  1.
</event>
<event>
 5   0  0.9571790E-03  0.5996766E+03  0.7818609E-02  0.9906077E-01
       -2   -1    0    0    0  501  0.00000000000E+00  0.00000000000E+00  0.17930351195E+03  0.17930351197E+03  0.25500000920E-02 0.  1.
        2   -1    0    0  501    0  0.00000000000E+00  0.00000000000E+00 -0.50140124045E+03  0.50140124045E+03  0.25500000920E-02 0. -1.
    10030    2    1    2    0    0  0.00000000000E+00  0.00000000000E+00 -0.32209772850E+03  0.68070475242E+03  0.59967659056E+03 0.  0.
        5    1    3    3  502    0 -0.21559510418E+03  0.19354378464E+03 -0.24853757365E+03  0.38175052198E+03  0.46999998093E+01 0. -1.
       -5    1    3    3    0  502  0.21559510418E+03 -0.19354378464E+03 -0.73560154845E+02  0.29895423044E+03  0.46999998093E+01 0.  1.
</event>
<event>
 5   0  0.9866317E-03  0.5996952E+03  0.7818609E-02  0.9906039E-01
       -2   -1    0    0    0  501  0.00000000000E+00  0.00000000000E+00  0.57349560184E+02  0.57349560241E+02  0.25500000920E-02 0. -1.
        2   -1    0    0  501    0  0.00000000000E+00  0.00000000000E+00 -0.15677295131E+04  0.15677295132E+04  0.25500000920E-02 0.  1.
    10030    2    1    2    0    0  0.00000000000E+00  0.00000000000E+00 -0.15103799530E+04  0.16250790734E+04  0.59969524965E+03 0.  0.
        1    1    3    3  502    0 -0.95179081020E+02 -0.71883668416E+02 -0.97014061147E+01  0.11966802645E+03  0.50400001928E-02 0. -1.
       -1    1    3    3    0  502  0.95179081020E+02  0.71883668416E+02 -0.15006785468E+04  0.15054110469E+04  0.50400001928E-02 0.  1.
</event>
<event>
 5   0  0.9530666E-03  0.6007249E+03  0.7818609E-02  0.9903903E-01
        2   -1    0    0  501    0  0.00000000000E+00  0.00000000000E+00  0.48334924666E+03  0.48334924667E+03  0.25500000920E-02 0. -1.
       -2   -1    0    0    0  501  0.00000000000E+00  0.00000000000E+00 -0.18665094743E+03  0.18665094745E+03  0.25500000920E-02 0.  1.
    10030    2    1    2    0    0  0.00000000000E+00  0.00000000000E+00  0.29669829923E+03  0.67000019411E+03  0.60072487825E+03 0.  0.
        2    1    3    3  502    0  0.59937917350E+02 -0.28251193231E+03  0.56296097649E+02  0.29423595371E+03  0.25500000920E-02 0.  1.
       -2    1    3    3    0  502 -0.59937917350E+02  0.28251193231E+03  0.24040220158E+03  0.37576424041E+03  0.25500000920E-02 0. -1.
</event>
<event>
 5   0  0.9866317E-03  0.5989685E+03  0.7818609E-02  0.9907548E-01
       -2   -1    0    0    0  501  0.00000000000E+00  0.00000000000E+00  0.14066863981E+03  0.14066863983E+03  0.25500000920E-02 0.  1.
        2   -1    0    0  501    0  0.00000000000E+00  0.00000000000E+00 -0.63760355459E+03  0.63760355459E+03  0.25500000920E-02 0. -1.
    10030    2    1    2    0    0  0.00000000000E+00  0.00000000000E+00 -0.49693491478E+03  0.77827219442E+03  0.59896852930E+03 0.  0.
        1    1    3    3  502    0 -0.47018441716E+02  0.23694857886E+03 -0.47847684420E+03  0.53599949006E+03  0.50400001928E-02 0. -1.
       -1    1    3    3    0  502  0.47018441716E+02 -0.23694857886E+03 -0.18458070584E+02  0.24227270437E+03  0.50400001928E-02 0.  1.
</event>
<event>
 5   0  0.5653633E-03  0.6003722E+03  0.7818609E-02  0.9904634E-01
       -1   -1    0    0    0  501  0.00000000000E+00  0.00000000000E+00  0.14736233593E+03  0.14736233601E+03  0.50400001928E-02 0.  1.
        1   -1    0    0  501    0  0.00000000000E+00  0.00000000000E+00 -0.61149747535E+03  0.61149747537E+03  0.50400001928E-02 0. -1.
    10030    2    1    2    0    0  0.00000000000E+00  0.00000000000E+00 -0.46413513942E+03  0.75885981138E+03  0.60037220596E+03 0.  0.
        2    1    3    3  502    0  0.20647510183E+03  0.13554129914E+03 -0.16417658322E+02  0.24753373701E+03  0.25500000920E-02 0.  1.
       -2    1    3    3    0  502 -0.20647510183E+03 -0.13554129914E+03 -0.44771748110E+03  0.51132607437E+03  0.25500000920E-02 0. -1.
</event>
<event>
 5   0  0.5503975E-03  0.6002896E+03  0.7818609E-02  0.9904805E-01
       -1   -1    0    0    0  501  0.00000000000E+00  0.00000000000E+00  0.31468602429E+03  0.31468602433E+03  0.50400001928E-02 0. -1.
        1   -1    0    0  501    0  0.00000000000E+00  0.00000000000E+00 -0.28627547752E+03  0.28627547756E+03  0.50400001928E-02 0.  1.
    10030    2    1    2    0    0  0.00000000000E+00  0.00000000000E+00  0.28410546773E+02  0.60096150189E+03  0.60028956978E+03 0.  0.
        4    1    3    3  502    0  0.12859311365E+03 -0.21293714479E+03 -0.15393170751E+03  0.29253204950E+03  0.12699999809E+01 0.  1.
       -4    1    3    3    0  502 -0.12859311365E+03  0.21293714479E+03  0.18234225428E+03  0.30842945239E+03  0.12699999809E+01 0. -1.
</event>
<event>
 5   0  0.5503975E-03  0.5997980E+03  0.7818609E-02  0.9905825E-01
       -1   -1    0    0    0  501  0.00000000000E+00  0.00000000000E+00  0.15379340259E+03  0.15379340268E+03  0.50400001928E-02 0. -1.
        1   -1    0    0  501    0  0.00000000000E+00  0.00000000000E+00 -0.58480675046E+03  0.58480675048E+03  0.50400001928E-02 0.  1.
    10030    2    1    2    0    0  0.00000000000E+00  0.00000000000E+00 -0.43101334787E+03  0.73860015316E+03  0.59979803285E+03 0.  0.
        4    1    3    3  502    0  0.18649409161E+03 -0.91646958477E+02 -0.48178455185E+03  0.52468769617E+03  0.12699999809E+01 0.  1.
       -4    1    3    3    0  502 -0.18649409161E+03  0.91646958477E+02  0.50771203987E+02  0.21391245699E+03  0.12699999809E+01 0. -1.
</event>
<event>
 5   0  0.9681801E-03  0.6000504E+03  0.7818609E-02  0.9905301E-01
       -2   -1    0    0    0  501  0.00000000000E+00  0.00000000000E+00  0.10611959360E+03  0.10611959363E+03  0.25500000920E-02 0. -1.
        2   -1    0    0  501    0  0.00000000000E+00  0.00000000000E+00 -0.84824231979E+03  0.84824231979E+03  0.25500000920E-02 0.  1.
    10030    2    1    2    0    0  0.00000000000E+00  0.00000000000E+00 -0.74212272619E+03  0.95436191342E+03  0.60005043210E+03 0.  0.
        4    1    3    3  502    0  0.25339580152E+03 -0.44736445140E+02 -0.12568157742E+03  0.28637083223E+03  0.12699999809E+01 0. -1.
       -4    1    3    3    0  502 -0.25339580152E+03  0.44736445140E+02 -0.61644114877E+03  0.66799108119E+03  0.12699999809E+01 0.  1.
</event>
<event>
 5   0  0.5574736E-03  0.5971444E+03  0.7818609E-02  0.9911348E-01
       -1   -1    0    0    0  501  0.00000000000E+00  0.00000000000E+00  0.29497414223E+03  0.29497414228E+03  0.50400001928E-02 0.  1.
        1   -1    0    0  501    0  0.00000000000E+00  0.00000000000E+00 -0.30221417306E+03  0.30221417310E+03  0.50400001928E-02 0. -1.
    10030    2    1    2    0    0  0.00000000000E+00  0.00000000000E+00 -0.72400308248E+01  0.59718831538E+03  0.59714442640E+03 0.  0.
        5    1    3    3  502    0 -0.25582696729E+03 -0.14673751452E+03  0.42686099709E+02  0.29803276408E+03  0.46999998093E+01 0.  1.
       -5    1    3    3    0  502  0.25582696729E+03  0.14673751452E+03 -0.49926130534E+02  0.29915555129E+03  0.46999998093E+01 0. -1.
</event>
<event>
 5   0  0.5653633E-03  0.5997520E+03  0.7818609E-02  0.9905921E-01
       -1   -1    0    0    0  501  0.00000000000E+00  0.00000000000E+00  0.64329832251E+02  0.64329832448E+02  0.50400001928E-02 0.  1.
        1   -1    0    0  501    0  0.00000000000E+00  0.00000000000E+00 -0.13978834237E+04  0.13978834237E+04  0.50400001928E-02 0. -1.
    10030    2    1    2    0    0  0.00000000000E+00  0.00000000000E+00 -0.13335535914E+04  0.14622132561E+04  0.59975196974E+03 0.  0.
        2    1    3    3  502    0 -0.28131012837E+03 -0.83816214086E+02 -0.81637452371E+03  0.86754130105E+03  0.25500000920E-02 0. -1.
       -2    1    3    3    0  502  0.28131012837E+03  0.83816214086E+02 -0.51717906772E+03  0.59467195508E+03  0.25500000920E-02 0.  1.
</event>
<event>
 5   0  0.5503975E-03  0.6016611E+03  0.7818609E-02  0.9901966E-01
        1   -1    0    0  501    0  0.00000000000E+00  0.00000000000E+00  0.50432004483E+03  0.50432004486E+03  0.50400001928E-02 0. -1.
       -1   -1    0    0    0  501  0.00000000000E+00  0.00000000000E+00 -0.17944761318E+03  0.17944761325E+03  0.50400001928E-02 0.  1.
    10030    2    1    2    0    0  0.00000000000E+00  0.00000000000E+00  0.32487243166E+03  0.68376765811E+03  0.60166112839E+03 0.  0.
        4    1    3    3  502    0 -0.11324345919E+03 -0.45257691765E+02 -0.15009220136E+03  0.19339498836E+03  0.12699999809E+01 0.  1.
       -4    1    3    3    0  502  0.11324345919E+03  0.45257691765E+02  0.47496463302E+03  0.49037266975E+03  0.12699999809E+01 0. -1.
</event>
<event>
 5   0  0.5503975E-03  0.6135610E+03  0.7818609E-02  0.9877664E-01
        1   -1    0    0  501    0  0.00000000000E+00  0.00000000000E+00  0.39025151033E+03  0.39025151036E+03  0.50400001928E-02 0.  1.
       -1   -1    0    0    0  501  0.00000000000E+00  0.00000000000E+00 -0.24116314057E+03  0.24116314062E+03  0.50400001928E-02 0. -1.
    10030    2    1    2    0    0  0.00000000000E+00  0.00000000000E+00  0.14908836976E+03  0.63141465099E+03  0.61356101529E+03 0.  0.
        4    1    3    3  502    0 -0.25350295819E+03 -0.16881026384E+03  0.36704529954E+02  0.30677270154E+03  0.12699999809E+01 0.  1.
       -4    1    3    3    0  502  0.25350295819E+03  0.16881026384E+03  0.11238383981E+03  0.32464194945E+03  0.12699999809E+01 0. -1.
</event>
<event>
 5   0  0.9428629E-03  0.5994576E+03  0.7818609E-02  0.9906532E-01
       -2   -1    0    0    0  501  0.00000000000E+00  0.00000000000E+00  0.82196175778E+02  0.82196175818E+02  0.25500000920E-02 0.  1.
        2   -1    0    0  501    0  0.00000000000E+00  0.00000000000E+00 -0.10929626201E+04  0.10929626201E+04  0.25500000920E-02 0. -1.
    10030    2    1    2    0    0  0.00000000000E+00  0.00000000000E+00 -0.10107664444E+04  0.11751587960E+04  0.59945758038E+03 0.  0.
        3    1    3    3  502    0 -0.18580544561E+03 -0.91326769176E+02 -0.80506744822E+02  0.22213866964E+03  0.10100000352E+00 0.  1.
       -3    1    3    3    0  502  0.18580544561E+03  0.91326769176E+02 -0.93025969954E+03  0.95302012632E+03  0.10100000352E+00 0. -1.
</event>
<event>
 5   0  0.5653633E-03  0.6003492E+03  0.7818609E-02  0.9904682E-01
        1   -1    0    0  501    0  0.00000000000E+00  0.00000000000E+00  0.54445302539E+03  0.54445302541E+03  0.50400001928E-02 0. -1.
       -1   -1    0    0    0  501  0.00000000000E+00  0.00000000000E+00 -0.16549599649E+03  0.16549599657E+03  0.50400001928E-02 0.  1.
    10030    2    1    2    0    0  0.00000000000E+00  0.00000000000E+00  0.37895702889E+03  0.70994902198E+03  0.60034921843E+03 0.  0.
        2    1    3    3  502    0 -0.80943196440E+01 -0.12066371706E+03 -0.13541261473E+03  0.18155392273E+03  0.25500000920E-02 0.  1.
       -2    1    3    3    0  502  0.80943196440E+01  0.12066371706E+03  0.51436964362E+03  0.52839509925E+03  0.25500000920E-02 0. -1.
</event>
<event>
 5   0  0.9428629E-03  0.6003522E+03  0.7818609E-02  0.9904676E-01
       -2   -1    0    0    0  501  0.00000000000E+00  0.00000000000E+00  0.10897480794E+03  0.10897480797E+03  0.25500000920E-02 0. -1.
        2   -1    0    0  501    0  0.00000000000E+00  0.00000000000E+00 -0.82684883095E+03  0.82684883096E+03  0.25500000920E-02 0.  1.
    10030    2    1    2    0    0  0.00000000000E+00  0.00000000000E+00 -0.71787402301E+03  0.93582363892E+03  0.60035220517E+03 0.  0.
        3    1    3    3  502    0  0.51002555425E+02  0.11255911085E+03  0.67485280686E+02  0.14080158879E+03  0.10100000352E+00 0. -1.
       -3    1    3    3    0  502 -0.51002555425E+02 -0.11255911085E+03 -0.78535930370E+03  0.79502205014E+03  0.10100000352E+00 0.  1.
</event>
<event>
 5   0  0.5574736E-03  0.6010381E+03  0.7818609E-02  0.9903255E-01
       -1   -1    0    0    0  501  0.00000000000E+00  0.00000000000E+00  0.16528993771E+03  0.16528993779E+03  0.50400001928E-02 0. -1.
        1   -1    0    0  501    0  0.00000000000E+00  0.00000000000E+00 -0.54638351674E+03  0.54638351677E+03  0.50400001928E-02 0.  1.
    10030    2    1    2    0    0  0.00000000000E+00  0.00000000000E+00 -0.38109357903E+03  0.71167345456E+03  0.60103809358E+03 0.  0.
        5    1    3    3  502    0  0.44384491376E+02  0.22497347961E+03 -0.42047232839E+03  0.47895941221E+03  0.46999998093E+01 0.  1.
       -5    1    3    3    0  502 -0.44384491376E+02 -0.22497347961E+03  0.39378749360E+02  0.23271404234E+03  0.46999998093E+01 0. -1.
</event>
<event>
 5   0  0.9428629E-03  0.6072876E+03  0.7818609E-02  0.9890401E-01
       -2   -1    0    0    0  501  0.00000000000E+00  0.00000000000E+00  0.10013557957E+03  0.10013557960E+03  0.25500000920E-02 0.  1.
        2   -1    0    0  501    0  0.00000000000E+00  0.00000000000E+00 -0.92074735744E+03  0.92074735745E+03  0.25500000920E-02 0. -1.
    10030    2    1    2    0    0  0.00000000000E+00  0.00000000000E+00 -0.82061177788E+03  0.10208829370E+04  0.60728764285E+03 0.  0.
        3    1    3    3  502    0 -0.25401631318E+03 -0.11229044174E+03 -0.61664537659E+03  0.67630241856E+03  0.10100000352E+00 0.  1.
       -3    1    3    3    0  502  0.25401631318E+03  0.11229044174E+03 -0.20396640128E+03  0.34458051849E+03  0.10100000352E+00 0. -1.
</event>
<event>
 5   0  0.5785798E-03  0.5998478E+03  0.7818609E-02  0.9905722E-01
        1   -1    0    0  501    0  0.00000000000E+00  0.00000000000E+00  0.53961833452E+03  0.53961833454E+03  0.50400001928E-02 0. -1.
       -1   -1    0    0    0  501  0.00000000000E+00  0.00000000000E+00 -0.16669994011E+03  0.16669994018E+03  0.50400001928E-02 0.  1.
    10030    2    1    2    0    0  0.00000000000E+00  0.00000000000E+00  0.37291839441E+03  0.70631827473E+03  0.59984779430E+03 0.  0.
        1    1    3    3  502    0 -0.19839152838E+03 -0.19876990443E+03  0.62482414476E+02  0.28770249492E+03  0.50400001928E-02 0.  1.
       -1    1    3    3    0  502  0.19839152838E+03  0.19876990443E+03  0.31043597994E+03  0.41861577981E+03  0.50400001928E-02 0. -1.
</event>
<event>
 5   0  0.5574736E-03  0.6007973E+03  0.7818609E-02  0.9903753E-01
        1   -1    0    0  501    0  0.00000000000E+00  0.00000000000E+00  0.39967140863E+03  0.39967140866E+03  0.50400001928E-02 0. -1.
       -1   -1    0    0    0  501  0.00000000000E+00  0.00000000000E+00 -0.22578387150E+03  0.22578387156E+03  0.50400001928E-02 0.  1.
    10030    2    1    2    0    0  0.00000000000E+00  0.00000000000E+00  0.17388753713E+03  0.62545528022E+03  0.60079733021E+03 0.  0.
        5    1    3    3  502    0  0.27649995508E+03  0.23262958997E+02  0.20665852303E+03  0.34601044141E+03  0.46999998093E+01 0. -1.
       -5    1    3    3    0  502 -0.27649995508E+03 -0.23262958997E+02 -0.32770985902E+02  0.27944483881E+03  0.46999998093E+01 0.  1.
</event>
<event>
 5   0  0.9571790E-03  0.5999469E+03  0.7818609E-02  0.9905516E-01
        2   -1    0    0  501    0  0.00000000000E+00  0.00000000000E+00  0.13225913835E+04  0.13225913835E+04  0.25500000920E-02 0. -1.
       -2   -1    0    0    0  501  0.00000000000E+00  0.00000000000E+00 -0.68036183525E+02  0.68036183573E+02  0.25500000920E-02 0.  1.
    10030    2    1    2    0    0  0.00000000000E+00  0.00000000000E+00  0.12545552000E+04  0.13906275671E+04  0.59994689810E+03 0.  0.
        5    1    3    3  502    0 -0.17959610447E+03  0.23708727127E+03  0.71695571402E+03  0.77621692896E+03  0.46999998093E+01 0. -1.
       -5    1    3    3    0  502  0.17959610447E+03 -0.23708727127E+03  0.53759948599E+03  0.61441063815E+03  0.46999998093E+01 0.  1.
</event>
<event>
 5   0  0.5785798E-03  0.5996615E+03  0.7818609E-02  0.9906109E-01
        1   -1    0    0  501    0  0.00000000000E+00  0.00000000000E+00  0.75519402261E+03  0.75519402262E+03  0.50400001928E-02 0. -1.
       -1   -1    0    0    0  501  0.00000000000E+00  0.00000000000E+00 -0.11904023181E+03  0.11904023192E+03  0.50400001928E-02 0.  1.
    10030    2    1    2    0    0  0.00000000000E+00  0.00000000000E+00  0.63615379079E+03  0.87423425455E+03  0.59966147640E+03 0.  0.
        1    1    3    3  502    0  0.91810732605E+02  0.38608342653E+02  0.73037251674E+03  0.73713216452E+03  0.50400001928E-02 0. -1.
       -1    1    3    3    0  502 -0.91810732605E+02 -0.38608342653E+02 -0.94218725946E+02  0.13710209002E+03  0.50400001928E-02 0.  1.
</event>
<event>
 5   0  0.5653633E-03  0.6003962E+03  0.7818609E-02  0.9904584E-01
       -1   -1    0    0    0  501  0.00000000000E+00  0.00000000000E+00  0.11354571769E+03  0.11354571780E+03  0.50400001928E-02 0.  1.
        1   -1    0    0  501    0  0.00000000000E+00  0.00000000000E+00 -0.79367944279E+03  0.79367944281E+03  0.50400001928E-02 0. -1.
    10030    2    1    2    0    0  0.00000000000E+00  0.00000000000E+00 -0.68013372510E+03  0.90722516060E+03  0.60039620919E+03 0.  0.
        2    1    3    3  502    0 -0.17350555989E+03  0.40240520167E+02  0.25079139462E+02  0.17986784598E+03  0.25500000920E-02 0.  1.
       -2    1    3    3    0  502  0.17350555989E+03 -0.40240520167E+02 -0.70521286457E+03  0.72735731462E+03  0.25500000920E-02 0. -1.
</event>
<event>
 5   0  0.9530666E-03  0.5996111E+03  0.7818609E-02  0.9906213E-01
        2   -1    0    0  501    0  0.00000000000E+00  0.00000000000E+00  0.12374777119E+04  0.12374777119E+04  0.25500000920E-02 0.  1.
       -2   -1    0    0    0  501  0.00000000000E+00  0.00000000000E+00 -0.72634325117E+02  0.72634325162E+02  0.25500000920E-02 0. -1.
    10030    2    1    2    0    0  0.00000000000E+00  0.00000000000E+00  0.11648433868E+04  0.13101120371E+04  0.59961106889E+03 0.  0.
        2    1    3    3  502    0 -0.17512004344E+03  0.11858794006E+03  0.11813824266E+03  0.24225353151E+03  0.25500000920E-02 0. -1.
       -2    1    3    3    0  502  0.17512004344E+03 -0.11858794006E+03  0.10467051442E+04  0.10678585056E+04  0.25500000920E-02 0.  1.
</event>
<event>
 5   0  0.9530666E-03  0.6027866E+03  0.7818609E-02  0.9899642E-01
        2   -1    0    0  501    0  0.00000000000E+00  0.00000000000E+00  0.16588109913E+03  0.16588109915E+03  0.25500000920E-02 0.  1.
       -2   -1    0    0    0  501  0.00000000000E+00  0.00000000000E+00 -0.54760862389E+03  0.54760862390E+03  0.25500000920E-02 0. -1.
    10030    2    1    2    0    0  0.00000000000E+00  0.00000000000E+00 -0.38172752476E+03  0.71348972305E+03  0.60278659718E+03 0.  0.
        2    1    3    3  502    0 -0.20322380362E+02  0.18217876746E+03  0.92313306159E+02  0.20524095341E+03  0.25500000920E-02 0.  1.
       -2    1    3    3    0  502  0.20322380362E+02 -0.18217876746E+03 -0.47404083092E+03  0.50824876964E+03  0.25500000920E-02 0. -1.
</event>
<event>
 5   0  0.9681801E-03  0.5983069E+03  0.7818609E-02  0.9908925E-01
       -2   -1    0    0    0  501  0.00000000000E+00  0.00000000000E+00  0.37479842793E+03  0.37479842794E+03  0.25500000920E-02 0.  1.
        2   -1    0    0  501    0  0.00000000000E+00  0.00000000000E+00 -0.23877577002E+03  0.23877577004E+03  0.25500000920E-02 0. -1.
    10030    2    1    2    0    0  0.00000000000E+00  0.00000000000E+00  0.13602265791E+03  0.61357419798E+03  0.59830688861E+03 0.  0.
        4    1    3    3  502    0 -0.14852210989E+02  0.72603042274E+02 -0.22921079040E+03  0.24089622092E+03  0.12699999809E+01 0. -1.
       -4    1    3    3    0  502  0.14852210989E+02 -0.72603042274E+02  0.36523344831E+03  0.37267797706E+03  0.12699999809E+01 0.  1.
</event>
<event>
 5   0  0.9866317E-03  0.6002842E+03  0.7818609E-02  0.9904817E-01
       -2   -1    0    0    0  501  0.00000000000E+00  0.00000000000E+00  0.88322740752E+02  0.88322740789E+02  0.25500000920E-02 0. -1.
        2   -1    0    0  501    0  0.00000000000E+00  0.00000000000E+00 -0.10199558279E+04  0.10199558279E+04  0.25500000920E-02 0.  1.
    10030    2    1    2    0    0  0.00000000000E+00  0.00000000000E+00 -0.93163308715E+03  0.11082785687E+04  0.60028424663E+03 0.  0.
        1    1    3    3  502    0 -0.13727143110E+03 -0.67330567776E+02 -0.94266720684E+03  0.95498602818E+03  0.50400001928E-02 0.  1.
       -1    1    3    3    0  502  0.13727143110E+03  0.67330567776E+02  0.11034119689E+02  0.15329254051E+03  0.50400001928E-02 0. -1.
</event>
<event>
 5   0  0.3794375E-03  0.6040799E+03  0.7818609E-02  0.9896978E-01
       -4   -1    0    0    0  501  0.00000000000E+00  0.00000000000E+00  0.93178670648E+02  0.93187325123E+02  0.12699999809E+01 0. -1.
        4   -1    0    0  501    0  0.00000000000E+00  0.00000000000E+00 -0.97901210242E+03  0.97901292616E+03  0.12699999809E+01 0.  1.
    10030    2    1    2    0    0  0.00000000000E+00  0.00000000000E+00 -0.88583343177E+03  0.10722002513E+04  0.60407988710E+03 0.  0.
        4    1    3    3  502    0 -0.10479188067E+03  0.13161514996E+03  0.23138350980E+01  0.16825829158E+03  0.12699999809E+01 0. -1.
       -4    1    3    3    0  502  0.10479188067E+03 -0.13161514996E+03 -0.88814726687E+03  0.90394195970E+03  0.12699999809E+01 0.  1.
</event>
<event>
 5   0  0.9681801E-03  0.5991824E+03  0.7818609E-02  0.9907104E-01
       -2   -1    0    0    0  501  0.00000000000E+00  0.00000000000E+00  0.62075756706E+03  0.62075756706E+03  0.25500000920E-02 0.  1.
        2   -1    0    0  501    0  0.00000000000E+00  0.00000000000E+00 -0.14458929421E+03  0.14458929423E+03  0.25500000920E-02 0. -1.
    10030    2    1    2    0    0  0.00000000000E+00  0.00000000000E+00  0.47616827285E+03  0.76534686129E+03  0.59918243801E+03 0.  0.
        4    1    3    3  502    0 -0.23862585800E+02  0.21384726737E+03  0.50434672887E+03  0.54833138939E+03  0.12699999809E+01 0.  1.
       -4    1    3    3    0  502  0.23862585800E+02 -0.21384726737E+03 -0.28178456026E+02  0.21701547190E+03  0.12699999809E+01 0. -1.
</event>
<event>
 5   0  0.9428629E-03  0.6000704E+03  0.7818609E-02  0.9905260E-01
        2   -1    0    0  501    0  0.00000000000E+00  0.00000000000E+00  0.90675269042E+03  0.90675269043E+03  0.25500000920E-02 0.  1.
       -2   -1    0    0    0  501  0.00000000000E+00  0.00000000000E+00 -0.99278570256E+02  0.99278570289E+02  0.25500000920E-02 0. -1.
    10030    2    1    2    0    0  0.00000000000E+00  0.00000000000E+00  0.80747412017E+03  0.10060312607E+04  0.60007036487E+03 0.  0.
        3    1    3    3  502    0 -0.21101832319E+03  0.73107126192E+02  0.73966004271E+03  0.77263857890E+03  0.10100000352E+00 0.  1.
       -3    1    3    3    0  502  0.21101832319E+03 -0.73107126192E+02  0.67814077460E+02  0.23339268182E+03  0.10100000352E+00 0. -1.
</event>
<event>
 5   0  0.5574736E-03  0.5993797E+03  0.7818609E-02  0.9906694E-01
        1   -1    0    0  501    0  0.00000000000E+00  0.00000000000E+00  0.11773049985E+04  0.11773049985E+04  0.50400001928E-02 0. -1.
       -1   -1    0    0    0  501  0.00000000000E+00  0.00000000000E+00 -0.76287790556E+02  0.76287790723E+02  0.50400001928E-02 0.  1.
    10030    2    1    2    0    0  0.00000000000E+00  0.00000000000E+00  0.11010172079E+04  0.12535927892E+04  0.59937967017E+03 0.  0.
        5    1    3    3  502    0  0.14920783264E+03 -0.25984925169E+03  0.54485914704E+03  0.62183453671E+03  0.46999998093E+01 0. -1.
       -5    1    3    3    0  502 -0.14920783264E+03  0.25984925169E+03  0.55615806086E+03  0.63175825248E+03  0.46999998093E+01 0.  1.
</event>
<event>
 5   0  0.5574736E-03  0.5993263E+03  0.7818609E-02  0.9906805E-01
        1   -1    0    0  501    0  0.00000000000E+00  0.00000000000E+00  0.46894692501E+03  0.46894692504E+03  0.50400001928E-02 0. -1.
       -1   -1    0    0    0  501  0.00000000000E+00  0.00000000000E+00 -0.19148860274E+03  0.19148860281E+03  0.50400001928E-02 0.  1.
    10030    2    1    2    0    0  0.00000000000E+00  0.00000000000E+00  0.27745832227E+03  0.66043552785E+03  0.59932625994E+03 0.  0.
        5    1    3    3  502    0  0.29374741755E+03 -0.24323222572E+02  0.19803830477E+03  0.35513437546E+03  0.46999998093E+01 0.  1.
       -5    1    3    3    0  502 -0.29374741755E+03  0.24323222572E+02  0.79420017500E+02  0.30530115239E+03  0.46999998093E+01 0. -1.
</event>
<event>
 5   0  0.5491236E-03  0.6000133E+03  0.7818609E-02  0.9905378E-01
        1   -1    0    0  501    0  0.00000000000E+00  0.00000000000E+00  0.11121390400E+03  0.11121390411E+03  0.50400001928E-02 0. -1.
       -1   -1    0    0    0  501  0.00000000000E+00  0.00000000000E+00 -0.80928727370E+03  0.80928727372E+03  0.50400001928E-02 0.  1.
    10030    2    1    2    0    0  0.00000000000E+00  0.00000000000E+00 -0.69807336970E+03  0.92050117782E+03  0.60001332392E+03 0.  0.
        3    1    3    3  502    0  0.28466501821E+03  0.75477025494E+02 -0.26126819021E+03  0.39369027342E+03  0.10100000352E+00 0.  1.
       -3    1    3    3    0  502 -0.28466501821E+03 -0.75477025494E+02 -0.43680517949E+03  0.52681090441E+03  0.10100000352E+00 0. -1.
</event>
<event>
 5   0  0.3794375E-03  0.6000918E+03  0.7818609E-02  0.9905216E-01
       -3   -1    0    0    0  501  0.00000000000E+00  0.00000000000E+00  0.12813776429E+04  0.12813776468E+04  0.10100000352E+00 0. -1.
        3   -1    0    0  501    0  0.00000000000E+00  0.00000000000E+00 -0.70258368002E+02  0.70258440599E+02  0.10100000352E+00 0.  1.
    10030    2    1    2    0    0  0.00000000000E+00  0.00000000000E+00  0.12111192749E+04  0.13516360874E+04  0.60009183875E+03 0.  0.
        3    1    3    3  502    0  0.15197698273E+03 -0.25155815661E+03  0.46949946440E+03  0.55390275926E+03  0.10100000352E+00 0.  1.
       -3    1    3    3    0  502 -0.15197698273E+03  0.25155815661E+03  0.74161981046E+03  0.79773332819E+03  0.10100000352E+00 0. -1.
</event>
<event>
 5   0  0.9571790E-03  0.5996329E+03  0.7818609E-02  0.9906168E-01
       -2   -1    0    0    0  501  0.00000000000E+00  0.00000000000E+00  0.19499277906E+03  0.19499277908E+03  0.25500000920E-02 0. -1.
        2   -1    0    0  501    0  0.00000000000E+00  0.00000000000E+00 -0.46099092051E+03  0.46099092051E+03  0.25500000920E-02 0.  1.
    10030    2    1    2    0    0  0.00000000000E+00  0.00000000000E+00 -0.26599814145E+03  0.65598369959E+03  0.59963289009E+03 0.  0.
        5    1    3    3  502    0  0.36774539395E+02 -0.49846697366E+02  0.18787487750E+03  0.19787905291E+03  0.46999998093E+01 0. -1.
       -5    1    3    3    0  502 -0.36774539395E+02  0.49846697366E+02 -0.45387301895E+03  0.45810464668E+03  0.46999998093E+01 0.  1.
</event>
<event>
 5   0  0.5503975E-03  0.5994460E+03  0.7818609E-02  0.9906556E-01
        1   -1    0    0  501    0  0.00000000000E+00  0.00000000000E+00  0.95546877060E+03  0.95546877061E+03  0.50400001928E-02 0. -1.
       -1   -1    0    0    0  501  0.00000000000E+00  0.00000000000E+00 -0.94020743069E+02  0.94020743204E+02  0.50400001928E-02 0.  1.
    10030    2    1    2    0    0  0.00000000000E+00  0.00000000000E+00  0.86144802753E+03  0.10494895138E+04  0.59944602382E+03 0.  0.
        4    1    3    3  502    0 -0.45279302628E+02  0.60202949073E+02 -0.77172050153E+02  0.10785058437E+03  0.12699999809E+01 0.  1.
       -4    1    3    3    0  502  0.45279302628E+02 -0.60202949073E+02  0.93862007768E+03  0.94163892945E+03  0.12699999809E+01 0. -1.
</event>
<event>
 5   0  0.9866317E-03  0.5983177E+03  0.7818609E-02  0.9908902E-01
       -2   -1    0    0    0  501  0.00000000000E+00  0.00000000000E+00  0.79599873944E+02  0.79599873985E+02  0.25500000920E-02 0. -1.
        2   -1    0    0  501    0  0.00000000000E+00  0.00000000000E+00 -0.11243237321E+04  0.11243237321E+04  0.25500000920E-02 0.  1.
    10030    2    1    2    0    0  0.00000000000E+00  0.00000000000E+00 -0.10447238581E+04  0.12039236061E+04  0.59831773289E+03 0.  0.
        1    1    3    3  502    0  0.14896359408E+03 -0.91045498996E+02 -0.33536129611E+02  0.17777544055E+03  0.50400001928E-02 0. -1.
       -1    1    3    3    0  502 -0.14896359408E+03  0.91045498996E+02 -0.10111877285E+04  0.10261481655E+04  0.50400001928E-02 0.  1.
</event>
<event>
 5   0  0.3794375E-03  0.5999779E+03  0.7818609E-02  0.9905452E-01
        3   -1    0    0  501    0  0.00000000000E+00  0.00000000000E+00  0.73659209337E+02  0.73659278582E+02  0.10100000352E+00 0. -1.
       -3   -1    0    0    0  501  0.00000000000E+00  0.00000000000E+00 -0.12217524176E+04  0.12217524217E+04  0.10100000352E+00 0.  1.
    10030    2    1    2    0    0  0.00000000000E+00  0.00000000000E+00 -0.11480932082E+04  0.12954117003E+04  0.59997788172E+03 0.  0.
        2    1    3    3  502    0  0.27279759309E+03 -0.73064308692E+02 -0.79249413780E+03  0.84131080966E+03  0.25500000920E-02 0.  1.
       -2    1    3    3    0  502 -0.27279759309E+03  0.73064308692E+02 -0.35559907042E+03  0.45410089065E+03  0.25500000920E-02 0. -1.
</event>
<event>
 5   0  0.9530666E-03  0.5992728E+03  0.7818609E-02  0.9906916E-01
        2   -1    0    0  501    0  0.00000000000E+00  0.00000000000E+00  0.40801786079E+03  0.40801786080E+03  0.25500000920E-02 0. -1.
       -2   -1    0    0    0  501  0.00000000000E+00  0.00000000000E+00 -0.22004419135E+03  0.22004419136E+03  0.25500000920E-02 0.  1.
    10030    2    1    2    0    0  0.00000000000E+00  0.00000000000E+00  0.18797366944E+03  0.62806205216E+03  0.59927276006E+03 0.  0.
        2    1    3    3  502    0  0.16894298581E+03 -0.12032028376E+03  0.32062361557E+03  0.38186150108E+03  0.25500000920E-02 0. -1.
       -2    1    3    3    0  502 -0.16894298581E+03  0.12032028376E+03 -0.13264994613E+03  0.24620055108E+03  0.25500000920E-02 0.  1.
</event>
<event>
 5   0  0.5574736E-03  0.5996344E+03  0.7818609E-02  0.9906165E-01
       -1   -1    0    0    0  501  0.00000000000E+00  0.00000000000E+00  0.31935262081E+03  0.31935262085E+03  0.50400001928E-02 0.  1.
        1   -1    0    0  501    0  0.00000000000E+00  0.00000000000E+00 -0.28147683483E+03  0.28147683487E+03  0.50400001928E-02 0. -1.
    10030    2    1    2    0    0  0.00000000000E+00  0.00000000000E+00  0.37875785979E+02  0.60082945572E+03  0.59963443839E+03 0.  0.
        5    1    3    3  502    0 -0.24017087718E+03  0.12919919719E+03  0.14366002063E+03  0.30827710639E+03  0.46999998093E+01 0.  1.
       -5    1    3    3    0  502  0.24017087718E+03 -0.12919919719E+03 -0.10578423465E+03  0.29255234933E+03  0.46999998093E+01 0. -1.
</event>
<event>
 5   0  0.9681801E-03  0.5985516E+03  0.7818609E-02  0.9908416E-01
        2   -1    0    0  501    0  0.00000000000E+00  0.00000000000E+00  0.19331558599E+03  0.19331558601E+03  0.25500000920E-02 0.  1.
       -2   -1    0    0    0  501  0.00000000000E+00  0.00000000000E+00 -0.46331492838E+03  0.46331492839E+03  0.25500000920E-02 0. -1.
    10030    2    1    2    0    0  0.00000000000E+00  0.00000000000E+00 -0.26999934239E+03  0.65663051440E+03  0.59855157468E+03 0.  0.
        4    1    3    3  502    0  0.28458944842E+03  0.57476192886E+02 -0.21463634882E+03  0.36106099490E+03  0.12699999809E+01 0. -1.
       -4    1    3    3    0  502 -0.28458944842E+03 -0.57476192886E+02 -0.55362993574E+02  0.29556951950E+03  0.12699999809E+01 0.  1.
</event>
<event>
 5   0  0.9571790E-03  0.6010061E+03  0.7818609E-02  0.9903321E-01
        2   -1    0    0  501    0  0.00000000000E+00  0.00000000000E+00  0.50140735708E+03  0.50140735709E+03  0.25500000920E-02 0.  1.
       -2   -1    0    0    0  501  0.00000000000E+00  0.00000000000E+00 -0.18009721395E+03  0.18009721396E+03  0.25500000920E-02 0. -1.
    10030    2    1    2    0    0  0.00000000000E+00  0.00000000000E+00  0.32131014313E+03  0.68150457105E+03  0.60100605012E+03 0.  0.
        5    1    3    3  502    0 -0.21518199777E+03  0.84375397763E+02 -0.57042075506E+02  0.23811423370E+03  0.46999998093E+01 0. -1.
       -5    1    3    3    0  502  0.21518199777E+03 -0.84375397763E+02  0.37835221864E+03  0.44339033736E+03  0.46999998093E+01 0.  1.
</event>
<event>
 5   0  0.5503975E-03  0.5999156E+03  0.7818609E-02  0.9905581E-01
       -1   -1    0    0    0  501  0.00000000000E+00  0.00000000000E+00  0.74296375642E+02  0.74296375813E+02  0.50400001928E-02 0. -1.
        1   -1    0    0  501    0  0.00000000000E+00  0.00000000000E+00 -0.12110239492E+04  0.12110239492E+04  0.50400001928E-02 0.  1.
    10030    2    1    2    0    0  0.00000000000E+00  0.00000000000E+00 -0.11367275736E+04  0.12853203251E+04  0.59991562860E+03 0.  0.
        4    1    3    3  502    0 -0.29398272936E+03  0.56469935060E+02 -0.60892326089E+03  0.67853065464E+03  0.12699999809E+01 0.  1.
       -4    1    3    3    0  502  0.29398272936E+03 -0.56469935060E+02 -0.52780431269E+03  0.60678967041E+03  0.12699999809E+01 0. -1.
</event>
<event>
 5   0  0.9428629E-03  0.5999929E+03  0.7818609E-02  0.9905421E-01
       -2   -1    0    0    0  501  0.00000000000E+00  0.00000000000E+00  0.17056848024E+03  0.17056848026E+03  0.25500000920E-02 0.  1.
        2   -1    0    0  501    0  0.00000000000E+00  0.00000000000E+00 -0.52763480160E+03  0.52763480160E+03  0.25500000920E-02 0. -1.
    10030    2    1    2    0    0  0.00000000000E+00  0.00000000000E+00 -0.35706632136E+03  0.69820328186E+03  0.59999288741E+03 0.  0.
        3    1    3    3  502    0  0.20241867044E+02 -0.17871199382E+03  0.10087300787E+03  0.20621126020E+03  0.10100000352E+00 0.  1.
       -3    1    3    3    0  502 -0.20241867044E+02  0.17871199382E+03 -0.45793932923E+03  0.49199202165E+03  0.10100000352E+00 0. -1.
</event>
<event>
 5   0  0.5574736E-03  0.6000065E+03  0.7818609E-02  0.9905393E-01
        1   -1    0    0  501    0  0.00000000000E+00  0.00000000000E+00  0.37917108838E+03  0.37917108841E+03  0.50400001928E-02 0. -1.
       -1   -1    0    0    0  501  0.00000000000E+00  0.00000000000E+00 -0.23736502341E+03  0.23736502346E+03  0.50400001928E-02 0.  1.
    10030    2    1    2    0    0  0.00000000000E+00  0.00000000000E+00  0.14180606497E+03  0.61653611188E+03  0.60000651429E+03 0.  0.
        5    1    3    3  502    0  0.21052466281E+03  0.66827382121E+02  0.27945582667E+03  0.35623613196E+03  0.46999998093E+01 0. -1.
       -5    1    3    3    0  502 -0.21052466281E+03 -0.66827382121E+02 -0.13764976170E+03  0.26029997992E+03  0.46999998093E+01 0.  1.
</event>
<event>
 5   0  0.5785798E-03  0.6019698E+03  0.7818609E-02  0.9901328E-01
       -1   -1    0    0    0  501  0.00000000000E+00  0.00000000000E+00  0.26022301602E+03  0.26022301607E+03  0.50400001928E-02 0.  1.
        1   -1    0    0  501    0  0.00000000000E+00  0.00000000000E+00 -0.34813186020E+03  0.34813186023E+03  0.50400001928E-02 0. -1.
    10030    2    1    2    0    0  0.00000000000E+00  0.00000000000E+00 -0.87908844177E+02  0.60835487630E+03  0.60196984196E+03 0.  0.
        1    1    3    3  502    0 -0.10489361725E+03 -0.92981287724E+02  0.22522339959E+03  0.26528055065E+03  0.50400001928E-02 0.  1.
       -1    1    3    3    0  502  0.10489361725E+03  0.92981287724E+02 -0.31313224377E+03  0.34307432565E+03  0.50400001928E-02 0. -1.
</event>
<event>
 5   0  0.5491236E-03  0.5925280E+03  0.7818609E-02  0.9921031E-01
       -1   -1    0    0    0  501  0.00000000000E+00  0.00000000000E+00  0.17068327854E+03  0.17068327861E+03  0.50400001928E-02 0. -1.
        1   -1    0    0  501    0  0.00000000000E+00  0.00000000000E+00 -0.51424103072E+03  0.51424103074E+03  0.50400001928E-02 0.  1.
    10030    2    1    2    0    0  0.00000000000E+00  0.00000000000E+00 -0.34355775218E+03  0.68492430935E+03  0.59252795753E+03 0.  0.
        3    1    3    3  502    0  0.29527039808E+02 -0.24703726664E+03  0.14154682080E+02  0.24919795829E+03  0.10100000352E+00 0. -1.
       -3    1    3    3    0  502 -0.29527039808E+02  0.24703726664E+03 -0.35771243426E+03  0.43572635107E+03  0.10100000352E+00 0.  1.
</event>
<event>
 5   0  0.5503975E-03  0.5999556E+03  0.7818609E-02  0.9905498E-01
        1   -1    0    0  501    0  0.00000000000E+00  0.00000000000E+00  0.32642920438E+03  0.32642920442E+03  0.50400001928E-02 0.  1.
       -1   -1    0    0    0  501  0.00000000000E+00  0.00000000000E+00 -0.27566979411E+03  0.27566979416E+03  0.50400001928E-02 0. -1.
    10030    2    1    2    0    0  0.00000000000E+00  0.00000000000E+00  0.50759410269E+02  0.60209899858E+03  0.59995557032E+03 0.  0.
        4    1    3    3  502    0 -0.75121750432E+02  0.23339390944E+03 -0.14806443200E+03  0.28642744854E+03  0.12699999809E+01 0. -1.
       -4    1    3    3    0  502  0.75121750432E+02 -0.23339390944E+03  0.19882384227E+03  0.31567155004E+03  0.12699999809E+01 0.  1.
</event>
<event>
 5   0  0.9428629E-03  0.6007315E+03  0.7818609E-02  0.9903890E-01
        2   -1    0    0  501    0  0.00000000000E+00  0.00000000000E+00  0.10077515539E+04  0.10077515539E+04  0.25500000920E-02 0.  1.
       -2   -1    0    0    0  501  0.00000000000E+00  0.00000000000E+00 -0.89525627791E+02  0.89525627827E+02  0.25500000920E-02 0. -1.
    10030    2    1    2    0    0  0.00000000000E+00  0.00000000000E+00  0.91822592606E+03  0.10972771817E+04  0.60073152252E+03 0.  0.
        3    1    3    3  502    0 -0.12052921491E+03  0.11755941296E+03  0.91345535530E+03  0.92884239974E+03  0.10100000352E+00 0.  1.
       -3    1    3    3    0  502  0.12052921491E+03 -0.11755941296E+03  0.47705707611E+01  0.16843478194E+03  0.10100000352E+00 0. -1.
</event>
<event>
 5   0  0.5574736E-03  0.5997962E+03  0.7818609E-02  0.9905829E-01
       -1   -1    0    0    0  501  0.00000000000E+00  0.00000000000E+00  0.10679611926E+03  0.10679611938E+03  0.50400001928E-02 0.  1.
        1   -1    0    0  501    0  0.00000000000E+00  0.00000000000E+00 -0.84215474637E+03  0.84215474639E+03  0.50400001928E-02 0. -1.
    10030    2    1    2    0    0  0.00000000000E+00  0.00000000000E+00 -0.73535862711E+03  0.94895086577E+03  0.59979616136E+03 0.  0.
        5    1    3    3  502    0 -0.11335083226E+03  0.13936860301E+03  0.12177503511E+02  0.18011774002E+03  0.46999998093E+01 0.  1.
       -5    1    3    3    0  502  0.11335083226E+03 -0.13936860301E+03 -0.74753613062E+03  0.76883312575E+03  0.46999998093E+01 0. -1.
</event>
<event>
 5   0  0.9428629E-03  0.5993911E+03  0.7818609E-02  0.9906670E-01
       -2   -1    0    0    0  501  0.00000000000E+00  0.00000000000E+00  0.57124327639E+03  0.57124327640E+03  0.25500000920E-02 0.  1.
        2   -1    0    0  501    0  0.00000000000E+00  0.00000000000E+00 -0.15723147032E+03  0.15723147034E+03  0.25500000920E-02 0. -1.
    10030    2    1    2    0    0  0.00000000000E+00  0.00000000000E+00  0.41401180607E+03  0.72847474674E+03  0.59939109192E+03 0.  0.
        3    1    3    3  502    0 -0.22107838530E+03  0.11297537382E+03  0.29910509351E+01  0.24829024169E+03  0.10100000352E+00 0.  1.
       -3    1    3    3    0  502  0.22107838530E+03 -0.11297537382E+03  0.41102075514E+03  0.48018450505E+03  0.10100000352E+00 0. -1.
</event>
<event>
 5   0  0.9571790E-03  0.6010570E+03  0.7818609E-02  0.9903215E-01
        2   -1    0    0  501    0  0.00000000000E+00  0.00000000000E+00  0.58937548656E+03  0.58937548657E+03  0.25500000920E-02 0. -1.
       -2   -1    0    0    0  501  0.00000000000E+00  0.00000000000E+00 -0.15324253203E+03  0.15324253205E+03  0.25500000920E-02 0.  1.
    10030    2    1    2    0    0  0.00000000000E+00  0.00000000000E+00  0.43613295454E+03  0.74261801862E+03  0.60105704184E+03 0.  0.
        5    1    3    3  502    0  0.20063676450E+03  0.20044227492E+03  0.34076976004E+03  0.44337155547E+03  0.46999998093E+01 0. -1.
       -5    1    3    3    0  502 -0.20063676450E+03 -0.20044227492E+03  0.95363194493E+02  0.29924646315E+03  0.46999998093E+01 0.  1.
</event>
<event>
 5   0  0.5653633E-03  0.5995651E+03  0.7818609E-02  0.9906309E-01
       -1   -1    0    0    0  501  0.00000000000E+00  0.00000000000E+00  0.45498162880E+02  0.45498163159E+02  0.50400001928E-02 0.  1.
        1   -1    0    0  501    0  0.00000000000E+00  0.00000000000E+00 -0.19752351095E+04  0.19752351095E+04  0.50400001928E-02 0. -1.
    10030    2    1    2    0    0  0.00000000000E+00  0.00000000000E+00 -0.19297369467E+04  0.20207332727E+04  0.59956507246E+03 0.  0.
        2    1    3    3  502    0  0.39026559585E+02  0.16053352502E+03 -0.18079601000E+04  0.18154927178E+04  0.25500000920E-02 0. -1.
       -2    1    3    3    0  502 -0.39026559585E+02 -0.16053352502E+03 -0.12177684665E+03  0.20524055495E+03  0.25500000920E-02 0.  1.
</event>
<event>
 5   0  0.5503975E-03  0.6036637E+03  0.7818609E-02  0.9897834E-01
        1   -1    0    0  501    0  0.00000000000E+00  0.00000000000E+00  0.24503430426E+03  0.24503430431E+03  0.50400001928E-02 0. -1.
       -1   -1    0    0    0  501  0.00000000000E+00  0.00000000000E+00 -0.37179472609E+03  0.37179472612E+03  0.50400001928E-02 0.  1.
    10030    2    1    2    0    0  0.00000000000E+00  0.00000000000E+00 -0.12676042182E+03  0.61682903044E+03  0.60366368803E+03 0.  0.
        4    1    3    3  502    0 -0.57024234953E+02  0.10534580509E+03  0.21970211544E+03  0.25024015356E+03  0.12699999809E+01 0. -1.
       -4    1    3    3    0  502  0.57024234953E+02 -0.10534580509E+03 -0.34646253727E+03  0.36658887688E+03  0.12699999809E+01 0.  1.
</event>
<event>
 5   0  0.9530666E-03  0.5996473E+03  0.7818609E-02  0.9906138E-01
       -2   -1    0    0    0  501  0.00000000000E+00  0.00000000000E+00  0.37748395747E+03  0.37748395748E+03  0.25500000920E-02 0.  1.
        2   -1    0    0  501    0  0.00000000000E+00  0.00000000000E+00 -0.23814054321E+03  0.23814054323E+03  0.25500000920E-02 0. -1.
    10030    2    1    2    0    0  0.00000000000E+00  0.00000000000E+00  0.13934341426E+03  0.61562450071E+03  0.59964734534E+03 0.  0.
        2    1    3    3  502    0 -0.24926867003E+03 -0.16418617196E+03  0.40592731007E+02  0.30123037486E+03  0.25500000920E-02 0. -1.
       -2    1    3    3    0  502  0.24926867003E+03  0.16418617196E+03  0.98750683249E+02  0.31439412585E+03  0.25500000920E-02 0.  1.
</event>
<event>
 5   0  0.9428629E-03  0.5999883E+03  0.7818609E-02  0.9905430E-01
       -2   -1    0    0    0  501  0.00000000000E+00  0.00000000000E+00  0.77451377062E+02  0.77451377104E+02  0.25500000920E-02 0.  1.
        2   -1    0    0  501    0  0.00000000000E+00  0.00000000000E+00 -0.11619739571E+04  0.11619739571E+04  0.25500000920E-02 0. -1.
    10030    2    1    2    0    0  0.00000000000E+00  0.00000000000E+00 -0.10845225801E+04  0.12394253342E+04  0.59998827695E+03 0.  0.
        3    1    3    3  502    0  0.25869795134E+03 -0.11020606729E+02 -0.85520961459E+03  0.89354886765E+03  0.10100000352E+00 0. -1.
       -3    1    3    3    0  502 -0.25869795134E+03  0.11020606729E+02 -0.22931296548E+03  0.34587646659E+03  0.10100000352E+00 0.  1.
</event>
<event>
 5   0  0.5785798E-03  0.6006328E+03  0.7818609E-02  0.9904094E-01
        1   -1    0    0  501    0  0.00000000000E+00  0.00000000000E+00  0.52318532796E+03  0.52318532798E+03  0.50400001928E-02 0.  1.
       -1   -1    0    0    0  501  0.00000000000E+00  0.00000000000E+00 -0.17238619265E+03  0.17238619273E+03  0.50400001928E-02 0. -1.
    10030    2    1    2    0    0  0.00000000000E+00  0.00000000000E+00  0.35079913530E+03  0.69557152071E+03  0.60063275559E+03 0.  0.
        1    1    3    3  502    0  0.11624931923E+03 -0.27135305679E+03  0.23928801950E+03  0.38000676567E+03  0.50400001928E-02 0. -1.
       -1    1    3    3    0  502 -0.11624931923E+03  0.27135305679E+03  0.11151111580E+03  0.31556475504E+03  0.50400001928E-02 0.  1.
</event>
<event>
 5   0  0.9571790E-03  0.6003578E+03  0.7818609E-02  0.9904664E-01
       -2   -1    0    0    0  501  0.00000000000E+00  0.00000000000E+00  0.80107061481E+02  0.80107061521E+02  0.25500000920E-02 0.  1.
        2   -1    0    0  501    0  0.00000000000E+00  0.00000000000E+00 -0.11248367530E+04  0.11248367530E+04  0.25500000920E-02 0. -1.
    10030    2    1    2    0    0  0.00000000000E+00  0.00000000000E+00 -0.10447296915E+04  0.12049438145E+04  0.60035778317E+03 0.  0.
        5    1    3    3  502    0 -0.27515893137E+03 -0.90797730075E+02 -0.67948710051E+03  0.73870256197E+03  0.46999998093E+01 0. -1.
       -5    1    3    3    0  502  0.27515893137E+03  0.90797730075E+02 -0.36524259099E+03  0.46624125254E+03  0.46999998093E+01 0.  1.
</event>
<event>
 5   0  0.5503975E-03  0.6002653E+03  0.7818609E-02  0.9904856E-01
        1   -1    0    0  501    0  0.00000000000E+00  0.00000000000E+00  0.22338531834E+03  0.22338531839E+03  0.50400001928E-02 0.  1.
       -1   -1    0    0    0  501  0.00000000000E+00  0.00000000000E+00 -0.40324761788E+03  0.40324761791E+03  0.50400001928E-02 0. -1.
    10030    2    1    2    0    0  0.00000000000E+00  0.00000000000E+00 -0.17986229954E+03  0.62663293631E+03  0.60026526642E+03 0.  0.
        4    1    3    3  502    0 -0.10195631389E+03 -0.18152387265E+03  0.13574054329E+03  0.24854197689E+03  0.12699999809E+01 0.  1.
       -4    1    3    3    0  502  0.10195631389E+03  0.18152387265E+03 -0.31560284283E+03  0.37809095941E+03  0.12699999809E+01 0. -1.
</event>
<event>
 5   0  0.3794375E-03  0.6008808E+03  0.7818609E-02  0.9903580E-01
        3   -1    0    0  501    0  0.00000000000E+00  0.00000000000E+00  0.57393193396E+03  0.57393194285E+03  0.10100000352E+00 0. -1.
       -3   -1    0    0    0  501  0.00000000000E+00  0.00000000000E+00 -0.15727373549E+03  0.15727376792E+03  0.10100000352E+00 0.  1.
    10030    2    1    2    0    0  0.00000000000E+00  0.00000000000E+00  0.41665819847E+03  0.73120571077E+03  0.60088080108E+03 0.  0.
        5    1    3    3  502    0 -0.11634738069E+03  0.49671642679E+02 -0.12323341861E+03  0.17667074048E+03  0.46999998093E+01 0.  1.
       -5    1    3    3    0  502  0.11634738069E+03 -0.49671642679E+02  0.53989161708E+03  0.55453497029E+03  0.46999998093E+01 0. -1.
</event>
<event>
 5   0  0.5574736E-03  0.6025237E+03  0.7818609E-02  0.9900184E-01
        1   -1    0    0  501    0  0.00000000000E+00  0.00000000000E+00  0.48005505122E+03  0.48005505125E+03  0.50400001928E-02 0.  1.
       -1   -1    0    0    0  501  0.00000000000E+00  0.00000000000E+00 -0.18905894624E+03  0.18905894630E+03  0.50400001928E-02 0. -1.
    10030    2    1    2    0    0  0.00000000000E+00  0.00000000000E+00  0.29099610498E+03  0.66911399755E+03  0.60252369962E+03 0.  0.
        5    1    3    3  502    0 -0.11697030212E+03  0.25319842534E+03  0.19146964014E+02  0.27960720735E+03  0.46999998093E+01 0. -1.
       -5    1    3    3    0  502  0.11697030212E+03 -0.25319842534E+03  0.27184914097E+03  0.38950679020E+03  0.46999998093E+01 0.  1.
</event>
<event>
 5   0  0.9530666E-03  0.6018566E+03  0.7818609E-02  0.9901562E-01
        2   -1    0    0  501    0  0.00000000000E+00  0.00000000000E+00  0.35021040059E+03  0.35021040060E+03  0.25500000920E-02 0. -1.
       -2   -1    0    0    0  501  0.00000000000E+00  0.00000000000E+00 -0.25858126918E+03  0.25858126920E+03  0.25500000920E-02 0.  1.
    10030    2    1    2    0    0  0.00000000000E+00  0.00000000000E+00  0.91629131404E+02  0.60879166979E+03  0.60185662702E+03 0.  0.
        2    1    3    3  502    0  0.11620105587E+03  0.21042933686E+03  0.22893834516E+03  0.33195776402E+03  0.25500000920E-02 0. -1.
       -2    1    3    3    0  502 -0.11620105587E+03 -0.21042933686E+03 -0.13730921376E+03  0.27683390578E+03  0.25500000920E-02 0.  1.
</event>
<event>
 5   0  0.5785798E-03  0.6000661E+03  0.7818609E-02  0.9905269E-01
       -1   -1    0    0    0  501  0.00000000000E+00  0.00000000000E+00  0.21475172317E+03  0.21475172322E+03  0.50400001928E-02 0. -1.
        1   -1    0    0  501    0  0.00000000000E+00  0.00000000000E+00 -0.41918088342E+03  0.41918088345E+03  0.50400001928E-02 0.  1.
    10030    2    1    2    0    0  0.00000000000E+00  0.00000000000E+00 -0.20442916026E+03  0.63393260668E+03  0.60006605324E+03 0.  0.
        1    1    3    3  502    0  0.91302814974E+02  0.25443477555E+03 -0.23974057111E+03  0.36131537539E+03  0.50400001928E-02 0.  1.
       -1    1    3    3    0  502 -0.91302814974E+02 -0.25443477555E+03  0.35311410852E+02  0.27261723129E+03  0.50400001928E-02 0. -1.
</event>
<event>
 5   0  0.5653633E-03  0.5984773E+03  0.7818609E-02  0.9908570E-01
       -1   -1    0    0    0  501  0.00000000000E+00  0.00000000000E+00  0.15888473210E+03  0.15888473218E+03  0.50400001928E-02 0.  1.
        1   -1    0    0  501    0  0.00000000000E+00  0.00000000000E+00 -0.56357688590E+03  0.56357688592E+03  0.50400001928E-02 0. -1.
    10030    2    1    2    0    0  0.00000000000E+00  0.00000000000E+00 -0.40469215380E+03  0.72246161810E+03  0.59847727633E+03 0.  0.
        2    1    3    3  502    0 -0.10457496381E+03 -0.24541085845E+03 -0.36601107780E+03  0.45290895507E+03  0.25500000920E-02 0. -1.
       -2    1    3    3    0  502  0.10457496381E+03  0.24541085845E+03 -0.38681075997E+02  0.26955266303E+03  0.25500000920E-02 0.  1.
</event>
<event>
 5   0  0.9571790E-03  0.5989471E+03  0.7818609E-02  0.9907593E-01
        2   -1    0    0  501    0  0.00000000000E+00  0.00000000000E+00  0.13701469763E+04  0.13701469763E+04  0.25500000920E-02 0.  1.
       -2   -1    0    0    0  501  0.00000000000E+00  0.00000000000E+00 -0.65456057753E+02  0.65456057803E+02  0.25500000920E-02 0. -1.
    10030    2    1    2    0    0  0.00000000000E+00  0.00000000000E+00  0.13046909185E+04  0.14356030341E+04  0.59894714173E+03 0.  0.
        5    1    3    3  502    0  0.28634719581E+03 -0.72832410516E+02  0.53583025274E+03  0.61191128959E+03  0.46999998093E+01 0.  1.
       -5    1    3    3    0  502 -0.28634719581E+03  0.72832410516E+02  0.76886066578E+03  0.82369174450E+03  0.46999998093E+01 0. -1.
</event>
<event>
 5   0  0.9681801E-03  0.5988611E+03  0.7818609E-02  0.9907772E-01
       -2   -1    0    0    0  501  0.00000000000E+00  0.00000000000E+00  0.67652164009E+02  0.67652164058E+02  0.25500000920E-02 0.  1.
        2   -1    0    0  501    0  0.00000000000E+00  0.00000000000E+00 -0.13252887042E+04  0.13252887042E+04  0.25500000920E-02 0. -1.
    10030    2    1    2    0    0  0.00000000000E+00  0.00000000000E+00 -0.12576365402E+04  0.13929408683E+04  0.59886108176E+03 0.  0.
        4    1    3    3  502    0 -0.12673568733E+03 -0.25930534589E+03 -0.81425383679E+03  0.86389358169E+03  0.12699999809E+01 0. -1.
       -4    1    3    3    0  502  0.12673568733E+03  0.25930534589E+03 -0.44338270339E+03  0.52904728656E+03  0.12699999809E+01 0.  1.
</event>
<event>
 5   0  0.5653633E-03  0.5994027E+03  0.7818609E-02  0.9906646E-01
        1   -1    0    0  501    0  0.00000000000E+00  0.00000000000E+00  0.59710644738E+03  0.59710644740E+03  0.50400001928E-02 0. -1.
       -1   -1    0    0    0  501  0.00000000000E+00  0.00000000000E+00 -0.15042695756E+03  0.15042695764E+03  0.50400001928E-02 0.  1.
    10030    2    1    2    0    0  0.00000000000E+00  0.00000000000E+00  0.44667948982E+03  0.74753340504E+03  0.59940272357E+03 0.  0.
        2    1    3    3  502    0 -0.60815045140E+01 -0.28670467449E+03  0.33195006902E+03  0.43866548007E+03  0.25500000920E-02 0.  1.
       -2    1    3    3    0  502  0.60815045140E+01  0.28670467449E+03  0.11472942080E+03  0.30886792497E+03  0.25500000920E-02 0. -1.
</event>
<event>
 5   0  0.5491236E-03  0.6019177E+03  0.7818609E-02  0.9901435E-01
       -1   -1    0    0    0  501  0.00000000000E+00  0.00000000000E+00  0.13006205579E+03  0.13006205589E+03  0.50400001928E-02 0. -1.
        1   -1    0    0  501    0  0.00000000000E+00  0.00000000000E+00 -0.69640770859E+03  0.69640770861E+03  0.50400001928E-02 0.  1.
    10030    2    1    2    0    0  0.00000000000E+00  0.00000000000E+00 -0.56634565280E+03  0.82646976449E+03  0.60191766313E+03 0.  0.
        3    1    3    3  502    0 -0.49583732561E+02  0.26495768674E+03 -0.99392368847E+02  0.28729771228E+03  0.10100000352E+00 0. -1.
       -3    1    3    3    0  502  0.49583732561E+02 -0.26495768674E+03 -0.46695328395E+03  0.53917205221E+03  0.10100000352E+00 0.  1.
</event>
<event>
 5   0  0.5653633E-03  0.6000184E+03  0.7818609E-02  0.9905368E-01
       -1   -1    0    0    0  501  0.00000000000E+00  0.00000000000E+00  0.81272267690E+03  0.81272267692E+03  0.50400001928E-02 0. -1.
        1   -1    0    0  501    0  0.00000000000E+00  0.00000000000E+00 -0.11074567950E+03  0.11074567962E+03  0.50400001928E-02 0.  1.
    10030    2    1    2    0    0  0.00000000000E+00  0.00000000000E+00  0.70197699740E+03  0.92346835654E+03  0.60001841692E+03 0.  0.
        2    1    3    3  502    0 -0.22395019302E+02 -0.22911038976E+03  0.64708356047E+03  0.68681164945E+03  0.25500000920E-02 0. -1.
       -2    1    3    3    0  502  0.22395019302E+02  0.22911038976E+03  0.54893436932E+02  0.23665670708E+03  0.25500000920E-02 0.  1.
</event>
<event>
 5   0  0.9428629E-03  0.6000607E+03  0.7818609E-02  0.9905280E-01
       -2   -1    0    0    0  501  0.00000000000E+00  0.00000000000E+00  0.13800421307E+03  0.13800421309E+03  0.25500000920E-02 0. -1.
        2   -1    0    0  501    0  0.00000000000E+00  0.00000000000E+00 -0.65228599567E+03  0.65228599568E+03  0.25500000920E-02 0.  1.
    10030    2    1    2    0    0  0.00000000000E+00  0.00000000000E+00 -0.51428178261E+03  0.79029020877E+03  0.60006071539E+03 0.  0.
        3    1    3    3  502    0  0.83161565534E+02  0.28819835257E+03 -0.24839794769E+03  0.38945562908E+03  0.10100000352E+00 0. -1.
       -3    1    3    3    0  502 -0.83161565534E+02 -0.28819835257E+03 -0.26588383492E+03  0.40083457969E+03  0.10100000352E+00 0.  1.
</event>
<event>
 5   0  0.5574736E-03  0.5997149E+03  0.7818609E-02  0.9905998E-01
        1   -1    0    0  501    0  0.00000000000E+00  0.00000000000E+00  0.90124913418E+03  0.90124913420E+03  0.50400001928E-02 0.  1.
       -1   -1    0    0    0  501  0.00000000000E+00  0.00000000000E+00 -0.99766506089E+02  0.99766506216E+02  0.50400001928E-02 0. -1.
    10030    2    1    2    0    0  0.00000000000E+00  0.00000000000E+00  0.80148262809E+03  0.10010156404E+04  0.59971485659E+03 0.  0.
        5    1    3    3  502    0  0.11340988527E+03  0.24158750977E+03  0.17269535111E+03  0.31791838771E+03  0.46999998093E+01 0. -1.
       -5    1    3    3    0  502 -0.11340988527E+03 -0.24158750977E+03  0.62878727698E+03  0.68309725270E+03  0.46999998093E+01 0.  1.
</event>
<event>
 5   0  0.5503975E-03  0.6001839E+03  0.7818609E-02  0.9905025E-01
       -1   -1    0    0    0  501  0.00000000000E+00  0.00000000000E+00  0.77000291420E+02  0.77000291585E+02  0.50400001928E-02 0.  1.
        1   -1    0    0  501    0  0.00000000000E+00  0.00000000000E+00 -0.11695432333E+04  0.11695432333E+04  0.50400001928E-02 0. -1.
    10030    2    1    2    0    0  0.00000000000E+00  0.00000000000E+00 -0.10925429419E+04  0.12465435249E+04  0.60018387151E+03 0.  0.
        4    1    3    3  502    0 -0.70300329028E+02 -0.78589430734E+02 -0.11297948611E+04  0.11347054578E+04  0.12699999809E+01 0. -1.
       -4    1    3    3    0  502  0.70300329028E+02  0.78589430734E+02  0.37251919161E+02  0.11183806716E+03  0.12699999809E+01 0.  1.
</event>
<event>
 5   0  0.5785798E-03  0.5988149E+03  0.7818609E-02  0.9907868E-01
       -1   -1    0    0    0  501  0.00000000000E+00  0.00000000000E+00  0.58255823972E+02  0.58255824190E+02  0.50400001928E-02 0.  1.
        1   -1    0    0  501    0  0.00000000000E+00  0.00000000000E+00 -0.15388132011E+04  0.15388132011E+04  0.50400001928E-02 0. -1.
    10030    2    1    2    0    0  0.00000000000E+00  0.00000000000E+00 -0.14805573771E+04  0.15970690253E+04  0.59881493352E+03 0.  0.
        1    1    3    3  502    0 -0.24854425230E+03 -0.16631395232E+03 -0.70160600868E+03  0.76268313704E+03  0.50400001928E-02 0.  1.
       -1    1    3    3    0  502  0.24854425230E+03  0.16631395232E+03 -0.77895136846E+03  0.83438588827E+03  0.50400001928E-02 0. -1.
</event>
<event>
 5   0  0.9866317E-03  0.6030376E+03  0.7818609E-02  0.9899124E-01
       -2   -1    0    0    0  501  0.00000000000E+00  0.00000000000E+00  0.20734281637E+03  0.20734281639E+03  0.25500000920E-02 0.  1.
        2   -1    0    0  501    0  0.00000000000E+00  0.00000000000E+00 -0.43846994496E+03  0.43846994497E+03  0.25500000920E-02 0. -1.
    10030    2    1    2    0    0  0.00000000000E+00  0.00000000000E+00 -0.23112712859E+03  0.64581276136E+03  0.60303762168E+03 0.  0.
        1    1    3    3  502    0  0.51705844137E+02 -0.16837279229E+02  0.20204810040E+03  0.20923771933E+03  0.50400001928E-02 0.  1.
       -1    1    3    3    0  502 -0.51705844137E+02  0.16837279229E+02 -0.43317522899E+03  0.43657504203E+03  0.50400001928E-02 0. -1.
</event>
<event>
 5   0  0.5785798E-03  0.6008579E+03  0.7818609E-02  0.9903628E-01
        1   -1    0    0  501    0  0.00000000000E+00  0.00000000000E+00  0.88436975666E+02  0.88436975809E+02  0.50400001928E-02 0.  1.
       -1   -1    0    0    0  501  0.00000000000E+00  0.00000000000E+00 -0.10205861859E+04  0.10205861859E+04  0.50400001928E-02 0. -1.
    10030    2    1    2    0    0  0.00000000000E+00  0.00000000000E+00 -0.93214921026E+03  0.11090231618E+04  0.60085790592E+03 0.  0.
        1    1    3    3  502    0  0.21797756495E+03 -0.16436283590E+02 -0.84646211980E+03  0.87423251514E+03  0.50400001928E-02 0. -1.
       -1    1    3    3    0  502 -0.21797756495E+03  0.16436283590E+02 -0.85687090463E+02  0.23479064661E+03  0.50400001928E-02 0.  1.
</event>
<event>
 5   0  0.9428629E-03  0.5982135E+03  0.7818609E-02  0.9909120E-01
        2   -1    0    0  501    0  0.00000000000E+00  0.00000000000E+00  0.13898869335E+04  0.13898869335E+04  0.25500000920E-02 0. -1.
       -2   -1    0    0    0  501  0.00000000000E+00  0.00000000000E+00 -0.64368425954E+02  0.64368426004E+02  0.25500000920E-02 0.  1.
    10030    2    1    2    0    0  0.00000000000E+00  0.00000000000E+00  0.13255185076E+04  0.14542553595E+04  0.59821345422E+03 0.  0.
        3    1    3    3  502    0  0.51388727552E+02  0.19444361649E+03  0.12009696881E+04  0.12176934438E+04  0.10100000352E+00 0. -1.
       -3    1    3    3    0  502 -0.51388727552E+02 -0.19444361649E+03  0.12454881950E+03  0.23656191569E+03  0.10100000352E+00 0.  1.
</event>
<event>
 5   0  0.9428629E-03  0.6000921E+03  0.7818609E-02  0.9905215E-01
        2   -1    0    0  501    0  0.00000000000E+00  0.00000000000E+00  0.17165216571E+04  0.17165216571E+04  0.25500000920E-02 0. -1.
       -2   -1    0    0    0  501  0.00000000000E+00  0.00000000000E+00 -0.52447718791E+02  0.52447718853E+02  0.25500000920E-02 0.  1.
    10030    2    1    2    0    0  0.00000000000E+00  0.00000000000E+00  0.16640739383E+04  0.17689693759E+04  0.60009214368E+03 0.  0.
        3    1    3    3  502    0 -0.23006848752E+03  0.65022823992E+02  0.29760791637E+03  0.38174593473E+03  0.10100000352E+00 0.  1.
       -3    1    3    3    0  502  0.23006848752E+03 -0.65022823992E+02  0.13664660219E+04  0.13872234412E+04  0.10100000352E+00 0. -1.
</event>
<event>
 5   0  0.9681801E-03  0.6031651E+03  0.7818609E-02  0.9898861E-01
        2   -1    0    0  501    0  0.00000000000E+00  0.00000000000E+00  0.83107468714E+03  0.83107468714E+03  0.25500000920E-02 0. -1.
       -2   -1    0    0    0  501  0.00000000000E+00  0.00000000000E+00 -0.10943906862E+03  0.10943906865E+03  0.25500000920E-02 0.  1.
    10030    2    1    2    0    0  0.00000000000E+00  0.00000000000E+00  0.72163561852E+03  0.94051375579E+03  0.60316511745E+03 0.  0.
        4    1    3    3  502    0 -0.29988301035E+00 -0.91540035579E+02  0.80888389407E+03  0.81404817734E+03  0.12699999809E+01 0. -1.
       -4    1    3    3    0  502  0.29988301035E+00  0.91540035579E+02 -0.87248275557E+02  0.12646557844E+03  0.12699999809E+01 0.  1.
</event>
<event>
 5   0  0.5491236E-03  0.5952989E+03  0.7818609E-02  0.9915208E-01
       -1   -1    0    0    0  501  0.00000000000E+00  0.00000000000E+00  0.45333361306E+03  0.45333361309E+03  0.50400001928E-02 0.  1.
        1   -1    0    0  501    0  0.00000000000E+00  0.00000000000E+00 -0.19543045998E+03  0.19543046004E+03  0.50400001928E-02 0. -1.
    10030    2    1    2    0    0  0.00000000000E+00  0.00000000000E+00  0.25790315308E+03  0.64876407313E+03  0.59529890494E+03 0.  0.
        3    1    3    3  502    0  0.59704960012E+02  0.28729176674E+02 -0.18729148474E+03  0.19866594651E+03  0.10100000352E+00 0. -1.
       -3    1    3    3    0  502 -0.59704960012E+02 -0.28729176674E+02  0.44519463783E+03  0.45009812663E+03  0.10100000352E+00 0.  1.
</event>
<event>
 5   0  0.9681801E-03  0.5997394E+03  0.7818609E-02  0.9905947E-01
        2   -1    0    0  501    0  0.00000000000E+00  0.00000000000E+00  0.14033206569E+04  0.14033206569E+04  0.25500000920E-02 0. -1.
       -2   -1    0    0    0  501  0.00000000000E+00  0.00000000000E+00 -0.64077888975E+02  0.64077889026E+02  0.25500000920E-02 0.  1.
    10030    2    1    2    0    0  0.00000000000E+00  0.00000000000E+00  0.13392427679E+04  0.14673985459E+04  0.59973936101E+03 0.  0.
        4    1    3    3  502    0 -0.15073205076E+03  0.22503060699E+03  0.98449232041E+03  0.10210708433E+04  0.12699999809E+01 0. -1.
       -4    1    3    3    0  502  0.15073205076E+03 -0.22503060699E+03  0.35475044748E+03  0.44632770259E+03  0.12699999809E+01 0.  1.
</event>
<event>
 5   0  0.5574736E-03  0.6053916E+03  0.7818609E-02  0.9894283E-01
       -1   -1    0    0    0  501  0.00000000000E+00  0.00000000000E+00  0.14146025407E+03  0.14146025416E+03  0.50400001928E-02 0.  1.
        1   -1    0    0  501    0  0.00000000000E+00  0.00000000000E+00 -0.64770668775E+03  0.64770668777E+03  0.50400001928E-02 0. -1.
    10030    2    1    2    0    0  0.00000000000E+00  0.00000000000E+00 -0.50624643368E+03  0.78916694193E+03  0.60539161758E+03 0.  0.
        5    1    3    3  502    0  0.16588574261E+03  0.82204777670E+02  0.58989833447E+02  0.19436459431E+03  0.46999998093E+01 0.  1.
       -5    1    3    3    0  502 -0.16588574261E+03 -0.82204777670E+02 -0.56523626712E+03  0.59480234763E+03  0.46999998093E+01 0. -1.
</event>
<event>
 5   0  0.9866317E-03  0.5965066E+03  0.7818609E-02  0.9912680E-01
        2   -1    0    0  501    0  0.00000000000E+00  0.00000000000E+00  0.12129218583E+04  0.12129218583E+04  0.25500000920E-02 0. -1.
       -2   -1    0    0    0  501  0.00000000000E+00  0.00000000000E+00 -0.73339461277E+02  0.73339461321E+02  0.25500000920E-02 0.  1.
    10030    2    1    2    0    0  0.00000000000E+00  0.00000000000E+00  0.11395823970E+04  0.12862613196E+04  0.59650661585E+03 0.  0.
        1    1    3    3  502    0 -0.83916511498E+02  0.67850546989E+02  0.11693475091E+04  0.11743165138E+04  0.50400001928E-02 0. -1.
       -1    1    3    3    0  502  0.83916511498E+02 -0.67850546989E+02 -0.29765112039E+02  0.11194480581E+03  0.50400001928E-02 0.  1.
</event>
<event>
 5   0  0.5653633E-03  0.5999962E+03  0.7818609E-02  0.9905414E-01
       -1   -1    0    0    0  501  0.00000000000E+00  0.00000000000E+00  0.25972447412E+03  0.25972447417E+03  0.50400001928E-02 0. -1.
        1   -1    0    0  501    0  0.00000000000E+00  0.00000000000E+00 -0.34651668526E+03  0.34651668529E+03  0.50400001928E-02 0.  1.
    10030    2    1    2    0    0  0.00000000000E+00  0.00000000000E+00 -0.86792211134E+02  0.60624115946E+03  0.59999621292E+03 0.  0.
        2    1    3    3  502    0 -0.29615276388E+03  0.12267565643E+02 -0.90158596327E+02  0.30981530824E+03  0.25500000920E-02 0. -1.
       -2    1    3    3    0  502  0.29615276388E+03 -0.12267565643E+02  0.33663851928E+01  0.29642585123E+03  0.25500000920E-02 0.  1.
</event>
<event>
 5   0  0.9571790E-03  0.6004455E+03  0.7818609E-02  0.9904482E-01
        2   -1    0    0  501    0  0.00000000000E+00  0.00000000000E+00  0.59525572174E+03  0.59525572174E+03  0.25500000920E-02 0.  1.
       -2   -1    0    0    0  501  0.00000000000E+00  0.00000000000E+00 -0.15142014821E+03  0.15142014823E+03  0.25500000920E-02 0. -1.
    10030    2    1    2    0    0  0.00000000000E+00  0.00000000000E+00  0.44383557352E+03  0.74667586998E+03  0.60044553332E+03 0.  0.
        5    1    3    3  502    0  0.24525907862E+02 -0.20106747850E+03 -0.53580869284E+02  0.20957731418E+03  0.46999998093E+01 0. -1.
       -5    1    3    3    0  502 -0.24525907862E+02  0.20106747850E+03  0.49741644281E+03  0.53709855580E+03  0.46999998093E+01 0.  1.
</event>
<event>
 5   0  0.5491236E-03  0.5984967E+03  0.7818609E-02  0.9908530E-01
       -1   -1    0    0    0  501  0.00000000000E+00  0.00000000000E+00  0.17176016234E+03  0.17176016242E+03  0.50400001928E-02 0.  1.
        1   -1    0    0  501    0  0.00000000000E+00  0.00000000000E+00 -0.52136400618E+03  0.52136400620E+03  0.50400001928E-02 0. -1.
    10030    2    1    2    0    0  0.00000000000E+00  0.00000000000E+00 -0.34960384383E+03  0.69312416862E+03  0.59849667125E+03 0.  0.
        3    1    3    3  502    0  0.12886121111E+02  0.12110732701E+03  0.14175923143E+03  0.18689228627E+03  0.10100000352E+00 0.  1.
       -3    1    3    3    0  502 -0.12886121111E+02 -0.12110732701E+03 -0.49136307526E+03  0.50623188234E+03  0.10100000352E+00 0. -1.
</event>
<event>
 5   0  0.5785798E-03  0.5993492E+03  0.7818609E-02  0.9906757E-01
       -1   -1    0    0    0  501  0.00000000000E+00  0.00000000000E+00  0.14601597191E+03  0.14601597200E+03  0.50400001928E-02 0.  1.
        1   -1    0    0  501    0  0.00000000000E+00  0.00000000000E+00 -0.61503455131E+03  0.61503455133E+03  0.50400001928E-02 0. -1.
    10030    2    1    2    0    0  0.00000000000E+00  0.00000000000E+00 -0.46901857940E+03  0.76105052333E+03  0.59934920642E+03 0.  0.
        1    1    3    3  502    0  0.15777155141E+03 -0.22628173436E+03 -0.38318693073E+03  0.47215199846E+03  0.50400001928E-02 0. -1.
       -1    1    3    3    0  502 -0.15777155141E+03  0.22628173436E+03 -0.85831648665E+02  0.28889852487E+03  0.50400001928E-02 0.  1.
</event>
<event>
 5   0  0.3794375E-03  0.5997229E+03  0.7818609E-02  0.9905981E-01
        3   -1    0    0  501    0  0.00000000000E+00  0.00000000000E+00  0.10235136819E+03  0.10235141802E+03  0.10100000352E+00 0.  1.
       -3   -1    0    0    0  501  0.00000000000E+00  0.00000000000E+00 -0.87851164793E+03  0.87851165374E+03  0.10100000352E+00 0. -1.
    10030    2    1    2    0    0  0.00000000000E+00  0.00000000000E+00 -0.77616027974E+03  0.98086307176E+03  0.59972292409E+03 0.  0.
        3    1    3    3  502    0  0.21825731502E+03 -0.23678435390E+02 -0.54016131112E+02  0.22608555125E+03  0.10100000352E+00 0.  1.
       -3    1    3    3    0  502 -0.21825731502E+03  0.23678435390E+02 -0.72214414863E+03  0.75477752051E+03  0.10100000352E+00 0. -1.
</event>
<event>
 5   0  0.5574736E-03  0.5998341E+03  0.7818609E-02  0.9905750E-01
        1   -1    0    0  501    0  0.00000000000E+00  0.00000000000E+00  0.34246067500E+03  0.34246067504E+03  0.50400001928E-02 0. -1.
       -1   -1    0    0    0  501  0.00000000000E+00  0.00000000000E+00 -0.26265857967E+03  0.26265857972E+03  0.50400001928E-02 0.  1.
    10030    2    1    2    0    0  0.00000000000E+00  0.00000000000E+00  0.79802095334E+02  0.60511925476E+03  0.59983409211E+03 0.  0.
        5    1    3    3  502    0 -0.15146481207E+03  0.13041860222E+03 -0.18562529612E+03  0.27281759778E+03  0.46999998093E+01 0.  1.
       -5    1    3    3    0  502  0.15146481207E+03 -0.13041860222E+03  0.26542739145E+03  0.33230165698E+03  0.46999998093E+01 0. -1.
</event>
<event>
 5   0  0.5785798E-03  0.6011096E+03  0.7818609E-02  0.9903107E-01
        1   -1    0    0  501    0  0.00000000000E+00  0.00000000000E+00  0.82439768826E+03  0.82439768827E+03  0.50400001928E-02 0. -1.
       -1   -1    0    0    0  501  0.00000000000E+00  0.00000000000E+00 -0.10957476352E+03  0.10957476364E+03  0.50400001928E-02 0.  1.
    10030    2    1    2    0    0  0.00000000000E+00  0.00000000000E+00  0.71482292474E+03  0.93397245191E+03  0.60110958003E+03 0.  0.
        1    1    3    3  502    0  0.11691577054E+02  0.16793182368E+03  0.74427706788E+03  0.76307676165E+03  0.50400001928E-02 0. -1.
       -1    1    3    3    0  502 -0.11691577054E+02 -0.16793182368E+03 -0.29454143140E+02  0.17089569026E+03  0.50400001928E-02 0.  1.
</event>
<event>
 5   0  0.5653633E-03  0.6014226E+03  0.7818609E-02  0.9902459E-01
       -1   -1    0    0    0  501  0.00000000000E+00  0.00000000000E+00  0.10612703771E+03  0.10612703783E+03  0.50400001928E-02 0.  1.
        1   -1    0    0  501    0  0.00000000000E+00  0.00000000000E+00 -0.85206630480E+03  0.85206630482E+03  0.50400001928E-02 0. -1.
    10030    2    1    2    0    0  0.00000000000E+00  0.00000000000E+00 -0.74593926709E+03  0.95819334265E+03  0.60142255671E+03 0.  0.
        2    1    3    3  502    0 -0.82450149064E+02  0.26674572073E+03 -0.19501449487E+03  0.34056124240E+03  0.25500000920E-02 0.  1.
       -2    1    3    3    0  502  0.82450149064E+02 -0.26674572073E+03 -0.55092477222E+03  0.61763210025E+03  0.25500000920E-02 0. -1.
</event>
<event>
 5   0  0.5491236E-03  0.5998389E+03  0.7818609E-02  0.9905740E-01
       -1   -1    0    0    0  501  0.00000000000E+00  0.00000000000E+00  0.37311232128E+03  0.37311232131E+03  0.50400001928E-02 0.  1.
        1   -1    0    0  501    0  0.00000000000E+00  0.00000000000E+00 -0.24108470065E+03  0.24108470070E+03  0.50400001928E-02 0. -1.
    10030    2    1    2    0    0  0.00000000000E+00  0.00000000000E+00  0.13202762063E+03  0.61419702201E+03  0.59983888606E+03 0.  0.
        3    1    3    3  502    0  0.16359991938E+03 -0.64454090974E+02 -0.18276781735E+03  0.25362048167E+03  0.10100000352E+00 0. -1.
       -3    1    3    3    0  502 -0.16359991938E+03  0.64454090974E+02  0.31479543798E+03  0.36057654033E+03  0.10100000352E+00 0.  1.
</event>
<event>
 5   0  0.9571790E-03  0.6001528E+03  0.7818609E-02  0.9905089E-01
       -2   -1    0    0    0  501  0.00000000000E+00  0.00000000000E+00  0.16511787435E+03  0.16511787437E+03  0.25500000920E-02 0.  1.
        2   -1    0    0  501    0  0.00000000000E+00  0.00000000000E+00 -0.54534280665E+03  0.54534280666E+03  0.25500000920E-02 0. -1.
    10030    2    1    2    0    0  0.00000000000E+00  0.00000000000E+00 -0.38022493231E+03  0.71046068103E+03  0.60015279732E+03 0.  0.
        5    1    3    3  502    0 -0.11736587905E+03 -0.14577194422E+03  0.87512017872E+02  0.20665104054E+03  0.46999998093E+01 0.  1.
       -5    1    3    3    0  502  0.11736587905E+03  0.14577194422E+03 -0.46773695018E+03  0.50380964049E+03  0.46999998093E+01 0. -1.
</event>
<event>
 5   0  0.5574736E-03  0.6008626E+03  0.7818609E-02  0.9903618E-01
       -1   -1    0    0    0  501  0.00000000000E+00  0.00000000000E+00  0.66162177869E+02  0.66162178061E+02  0.50400001928E-02 0. -1.
        1   -1    0    0  501    0  0.00000000000E+00  0.00000000000E+00 -0.13642079223E+04  0.13642079223E+04  0.50400001928E-02 0.  1.
    10030    2    1    2    0    0  0.00000000000E+00  0.00000000000E+00 -0.12980457444E+04  0.14303701004E+04  0.60086260443E+03 0.  0.
        5    1    3    3  502    0  0.10157537859E+03 -0.27991465822E+03 -0.74326002309E+03  0.80070426834E+03  0.46999998093E+01 0.  1.
       -5    1    3    3    0  502 -0.10157537859E+03  0.27991465822E+03 -0.55478572136E+03  0.62966583204E+03  0.46999998093E+01 0. -1.
</event>
<event>
 5   0  0.9866317E-03  0.6021533E+03  0.7818609E-02  0.9900949E-01
        2   -1    0    0  501    0  0.00000000000E+00  0.00000000000E+00  0.96041677060E+03  0.96041677061E+03  0.25500000920E-02 0.  1.
       -2   -1    0    0    0  501  0.00000000000E+00  0.00000000000E+00 -0.94383128888E+02  0.94383128922E+02  0.25500000920E-02 0. -1.
    10030    2    1    2    0    0  0.00000000000E+00  0.00000000000E+00  0.86603364172E+03  0.10547998995E+04  0.60215326908E+03 0.  0.
        1    1    3    3  502    0  0.23800548304E+03  0.14108328926E+03  0.22504163467E+03  0.35664385853E+03  0.50400001928E-02 0. -1.
       -1    1    3    3    0  502 -0.23800548304E+03 -0.14108328926E+03  0.64099200705E+03  0.69815604101E+03  0.50400001928E-02 0.  1.
</event>
<event>
 5   0  0.5785798E-03  0.6010573E+03  0.7818609E-02  0.9903215E-01
        1   -1    0    0  501    0  0.00000000000E+00  0.00000000000E+00  0.32974726317E+03  0.32974726321E+03  0.50400001928E-02 0.  1.
       -1   -1    0    0    0  501  0.00000000000E+00  0.00000000000E+00 -0.27389908030E+03  0.27389908035E+03  0.50400001928E-02 0. -1.
    10030    2    1    2    0    0  0.00000000000E+00  0.00000000000E+00  0.55848182872E+02  0.60364634356E+03  0.60105730889E+03 0.  0.
        1    1    3    3  502    0  0.20474788017E+03  0.20431826097E+03 -0.53973632044E+02  0.29424615407E+03  0.50400001928E-02 0. -1.
       -1    1    3    3    0  502 -0.20474788017E+03 -0.20431826097E+03  0.10982181492E+03  0.30940018949E+03  0.50400001928E-02 0.  1.
</event>
<event>
 5   0  0.9681801E-03  0.5990646E+03  0.7818609E-02  0.9907349E-01
        2   -1    0    0  501    0  0.00000000000E+00  0.00000000000E+00  0.10413706853E+04  0.10413706853E+04  0.25500000920E-02 0.  1.
       -2   -1    0    0    0  501  0.00000000000E+00  0.00000000000E+00 -0.86155285676E+02  0.86155285714E+02  0.25500000920E-02 0. -1.
    10030    2    1    2    0    0  0.00000000000E+00  0.00000000000E+00  0.95521539962E+03  0.11275259710E+04  0.59906456717E+03 0.  0.
        4    1    3    3  502    0  0.17136826054E+03 -0.22681875621E+03  0.30000519587E+03  0.41330201952E+03  0.12699999809E+01 0. -1.
       -4    1    3    3    0  502 -0.17136826054E+03  0.22681875621E+03  0.65521020376E+03  0.71422395150E+03  0.12699999809E+01 0.  1.
</event>
<event>
 5   0  0.9428629E-03  0.6005529E+03  0.7818609E-02  0.9904260E-01
        2   -1    0    0  501    0  0.00000000000E+00  0.00000000000E+00  0.18189861184E+04  0.18189861184E+04  0.25500000920E-02 0. -1.
       -2   -1    0    0    0  501  0.00000000000E+00  0.00000000000E+00 -0.49569341485E+02  0.49569341551E+02  0.25500000920E-02 0.  1.
    10030    2    1    2    0    0  0.00000000000E+00  0.00000000000E+00  0.17694167769E+04  0.18685554600E+04  0.60055289234E+03 0.  0.
        3    1    3    3  502    0  0.17834230690E+03 -0.23249908961E+03  0.10888339348E+04  0.11275731253E+04  0.10100000352E+00 0. -1.
       -3    1    3    3    0  502 -0.17834230690E+03  0.23249908961E+03  0.68058284208E+03  0.74098233463E+03  0.10100000352E+00 0.  1.
</event>
<event>
 5   0  0.5785798E-03  0.6003389E+03  0.7818609E-02  0.9904703E-01
        1   -1    0    0  501    0  0.00000000000E+00  0.00000000000E+00  0.10812607302E+04  0.10812607302E+04  0.50400001928E-02 0.  1.
       -1   -1    0    0    0  501  0.00000000000E+00  0.00000000000E+00 -0.83330218138E+02  0.83330218290E+02  0.50400001928E-02 0. -1.
    10030    2    1    2    0    0  0.00000000000E+00  0.00000000000E+00  0.99793051204E+03  0.11645909485E+04  0.60033887965E+03 0.  0.
        1    1    3    3  502    0 -0.26177637815E+03 -0.68955740328E+02  0.75055271230E+03  0.79787915140E+03  0.50400001928E-02 0.  1.
       -1    1    3    3    0  502  0.26177637815E+03  0.68955740328E+02  0.24737779974E+03  0.36671179707E+03  0.50400001928E-02 0. -1.
</event>
<event>
 5   0  0.5574736E-03  0.6002206E+03  0.7818609E-02  0.9904949E-01
        1   -1    0    0  501    0  0.00000000000E+00  0.00000000000E+00  0.10661340729E+04  0.10661340729E+04  0.50400001928E-02 0.  1.
       -1   -1    0    0    0  501  0.00000000000E+00  0.00000000000E+00 -0.84479229091E+02  0.84479229242E+02  0.50400001928E-02 0. -1.
    10030    2    1    2    0    0  0.00000000000E+00  0.00000000000E+00  0.98165484383E+03  0.11506133022E+04  0.60022057506E+03 0.  0.
        5    1    3    3  502    0 -0.28841756847E+02  0.29510995721E+03  0.40251371178E+03  0.49996111044E+03  0.46999998093E+01 0. -1.
       -5    1    3    3    0  502  0.28841756847E+02 -0.29510995721E+03  0.57914113204E+03  0.65065219173E+03  0.46999998093E+01 0.  1.
</event>
<event>
 5   0  0.5574736E-03  0.6000245E+03  0.7818609E-02  0.9905355E-01
       -1   -1    0    0    0  501  0.00000000000E+00  0.00000000000E+00  0.64541000818E+02  0.64541001015E+02  0.50400001928E-02 0.  1.
        1   -1    0    0  501    0  0.00000000000E+00  0.00000000000E+00 -0.13945763403E+04  0.13945763403E+04  0.50400001928E-02 0. -1.
    10030    2    1    2    0    0  0.00000000000E+00  0.00000000000E+00 -0.13300353395E+04  0.14591173413E+04  0.60002450906E+03 0.  0.
        5    1    3    3  502    0 -0.40317089218E+02 -0.29576411843E+03 -0.59274146113E+03  0.66367643560E+03  0.46999998093E+01 0.  1.
       -5    1    3    3    0  502  0.40317089218E+02  0.29576411843E+03 -0.73729387833E+03  0.79544090570E+03  0.46999998093E+01 0. -1.
</event>
<event>
 5   0  0.5653633E-03  0.5960348E+03  0.7818609E-02  0.9913667E-01
       -1   -1    0    0    0  501  0.00000000000E+00  0.00000000000E+00  0.13388381738E+03  0.13388381748E+03  0.50400001928E-02 0.  1.
        1   -1    0    0  501    0  0.00000000000E+00  0.00000000000E+00 -0.66336906520E+03  0.66336906522E+03  0.50400001928E-02 0. -1.
    10030    2    1    2    0    0  0.00000000000E+00  0.00000000000E+00 -0.52948524782E+03  0.79725288270E+03  0.59603484068E+03 0.  0.
        2    1    3    3  502    0 -0.14457481463E+03 -0.63717959110E+02  0.73254883689E+02  0.17414974398E+03  0.25500000920E-02 0.  1.
       -2    1    3    3    0  502  0.14457481463E+03  0.63717959110E+02 -0.60274013151E+03  0.62310313871E+03  0.25500000920E-02 0. -1.
</event>
<event>
 5   0  0.9571790E-03  0.6012518E+03  0.7818609E-02  0.9902812E-01
       -2   -1    0    0    0  501  0.00000000000E+00  0.00000000000E+00  0.55631294602E+02  0.55631294661E+02  0.25500000920E-02 0. -1.
        2   -1    0    0  501    0  0.00000000000E+00  0.00000000000E+00 -0.16245518504E+04  0.16245518504E+04  0.25500000920E-02 0.  1.
    10030    2    1    2    0    0  0.00000000000E+00  0.00000000000E+00 -0.15689205558E+04  0.16801831451E+04  0.60125176969E+03 0.  0.
        5    1    3    3  502    0 -0.36280346354E+02 -0.22789853812E+03 -0.13227129433E+04  0.13427008705E+04  0.46999998093E+01 0.  1.
       -5    1    3    3    0  502  0.36280346354E+02  0.22789853812E+03 -0.24620761249E+03  0.33748227458E+03  0.46999998093E+01 0. -1.
</event>
<event>
 5   0  0.9530666E-03  0.6003939E+03  0.7818609E-02  0.9904589E-01
       -2   -1    0    0    0  501  0.00000000000E+00  0.00000000000E+00  0.15085051912E+03  0.15085051914E+03  0.25500000920E-02 0.  1.
        2   -1    0    0  501    0  0.00000000000E+00  0.00000000000E+00 -0.59740072263E+03  0.59740072263E+03  0.25500000920E-02 0. -1.
    10030    2    1    2    0    0  0.00000000000E+00  0.00000000000E+00 -0.44655020351E+03  0.74825124178E+03  0.60039390118E+03 0.  0.
        2    1    3    3  502    0  0.22814896629E+03  0.10502263801E+03 -0.18354114430E+02  0.25183045653E+03  0.25500000920E-02 0.  1.
       -2    1    3    3    0  502 -0.22814896629E+03 -0.10502263801E+03 -0.42819608908E+03  0.49642078524E+03  0.25500000920E-02 0. -1.
</event>
<event>
 5   0  0.9428629E-03  0.5994663E+03  0.7818609E-02  0.9906514E-01
        2   -1    0    0  501    0  0.00000000000E+00  0.00000000000E+00  0.36099686783E+03  0.36099686784E+03  0.25500000920E-02 0.  1.
       -2   -1    0    0    0  501  0.00000000000E+00  0.00000000000E+00 -0.24886631920E+03  0.24886631921E+03  0.25500000920E-02 0. -1.
    10030    2    1    2    0    0  0.00000000000E+00  0.00000000000E+00  0.11213054863E+03  0.60986318705E+03  0.59946630179E+03 0.  0.
        3    1    3    3  502    0  0.71519968544E+02  0.24386289917E+03  0.21774204454E+03  0.33465777692E+03  0.10100000352E+00 0.  1.
       -3    1    3    3    0  502 -0.71519968544E+02 -0.24386289917E+03 -0.10561149591E+03  0.27520541013E+03  0.10100000352E+00 0. -1.
</event>
<event>
 5   0  0.9530666E-03  0.5994018E+03  0.7818609E-02  0.9906648E-01
       -2   -1    0    0    0  501  0.00000000000E+00  0.00000000000E+00  0.14394837512E+03  0.14394837514E+03  0.25500000920E-02 0.  1.
        2   -1    0    0  501    0  0.00000000000E+00  0.00000000000E+00 -0.62397799594E+03  0.62397799594E+03  0.25500000920E-02 0. -1.
    10030    2    1    2    0    0  0.00000000000E+00  0.00000000000E+00 -0.48002962082E+03  0.76792637109E+03  0.59940176388E+03 0.  0.
        2    1    3    3  502    0 -0.11772966452E+03  0.23680550262E+03 -0.42066897063E+03  0.49688982968E+03  0.25500000920E-02 0.  1.
       -2    1    3    3    0  502  0.11772966452E+03 -0.23680550262E+03 -0.59360650186E+02  0.27103654141E+03  0.25500000920E-02 0. -1.
</event>
<event>
 5   0  0.9428629E-03  0.5994563E+03  0.7818609E-02  0.9906535E-01
        2   -1    0    0  501    0  0.00000000000E+00  0.00000000000E+00  0.96784434424E+03  0.96784434425E+03  0.25500000920E-02 0.  1.
       -2   -1    0    0    0  501  0.00000000000E+00  0.00000000000E+00 -0.92821713909E+02  0.92821713944E+02  0.25500000920E-02 0. -1.
    10030    2    1    2    0    0  0.00000000000E+00  0.00000000000E+00  0.87502263033E+03  0.10606660582E+04  0.59945632318E+03 0.  0.
        3    1    3    3  502    0 -0.21840289747E+03  0.11000954395E+03  0.13086680146E+03  0.27735907288E+03  0.10100000352E+00 0. -1.
       -3    1    3    3    0  502  0.21840289747E+03 -0.11000954395E+03  0.74415582887E+03  0.78330698531E+03  0.10100000352E+00 0.  1.
</event>
<event>
 5   0  0.9571790E-03  0.6002246E+03  0.7818609E-02  0.9904940E-01
        2   -1    0    0  501    0  0.00000000000E+00  0.00000000000E+00  0.71033140366E+03  0.71033140366E+03  0.25500000920E-02 0. -1.
       -2   -1    0    0    0  501  0.00000000000E+00  0.00000000000E+00 -0.12679628646E+03  0.12679628648E+03  0.25500000920E-02 0.  1.
    10030    2    1    2    0    0  0.00000000000E+00  0.00000000000E+00  0.58353511720E+03  0.83712769014E+03  0.60022457180E+03 0.  0.
        5    1    3    3  502    0 -0.18442854266E+03 -0.54259819905E+02 -0.29578641743E+02  0.19456361800E+03  0.46999998093E+01 0.  1.
       -5    1    3    3    0  502  0.18442854266E+03  0.54259819905E+02  0.61311375895E+03  0.64256407214E+03  0.46999998093E+01 0. -1.
</event>
<event>
 5   0  0.9681801E-03  0.5997491E+03  0.7818609E-02  0.9905927E-01
        2   -1    0    0  501    0  0.00000000000E+00  0.00000000000E+00  0.48331410561E+03  0.48331410562E+03  0.25500000920E-02 0. -1.
       -2   -1    0    0    0  501  0.00000000000E+00  0.00000000000E+00 -0.18605862387E+03  0.18605862388E+03  0.25500000920E-02 0.  1.
    10030    2    1    2    0    0  0.00000000000E+00  0.00000000000E+00  0.29725548175E+03  0.66937272950E+03  0.59974913887E+03 0.  0.
        4    1    3    3  502    0 -0.38817590173E+02  0.11588698414E+02 -0.18298756328E+03  0.18742242249E+03  0.12699999809E+01 0.  1.
       -4    1    3    3    0  502  0.38817590173E+02 -0.11588698414E+02  0.48024304502E+03  0.48195030701E+03  0.12699999809E+01 0. -1.
</event>
<event>
 5   0  0.9681801E-03  0.5994491E+03  0.7818609E-02  0.9906550E-01
        2   -1    0    0  501    0  0.00000000000E+00  0.00000000000E+00  0.10207039167E+04  0.10207039167E+04  0.25500000920E-02 0.  1.
       -2   -1    0    0    0  501  0.00000000000E+00  0.00000000000E+00 -0.88012608930E+02  0.88012608967E+02  0.25500000920E-02 0. -1.
    10030    2    1    2    0    0  0.00000000000E+00  0.00000000000E+00  0.93269130781E+03  0.11087165257E+04  0.59944912938E+03 0.  0.
        4    1    3    3  502    0 -0.21799425837E+03  0.61920835937E+02  0.82914934441E+03  0.85956147822E+03  0.12699999809E+01 0.  1.
       -4    1    3    3    0  502  0.21799425837E+03 -0.61920835937E+02  0.10354196340E+03  0.24915504749E+03  0.12699999809E+01 0. -1.
</event>
<event>
 5   0  0.5785798E-03  0.5991642E+03  0.7818609E-02  0.9907142E-01
        1   -1    0    0  501    0  0.00000000000E+00  0.00000000000E+00  0.63282629430E+03  0.63282629432E+03  0.50400001928E-02 0.  1.
       -1   -1    0    0    0  501  0.00000000000E+00  0.00000000000E+00 -0.14182315809E+03  0.14182315818E+03  0.50400001928E-02 0. -1.
    10030    2    1    2    0    0  0.00000000000E+00  0.00000000000E+00  0.49100313621E+03  0.77464945250E+03  0.59916416322E+03 0.  0.
        1    1    3    3  502    0  0.24992396497E+02 -0.10986802459E+02  0.63121466012E+03  0.63180477751E+03  0.50400001928E-02 0.  1.
       -1    1    3    3    0  502 -0.24992396497E+02  0.10986802459E+02 -0.14021152391E+03  0.14284467499E+03  0.50400001928E-02 0. -1.
</event>
<event>
 5   0  0.9530666E-03  0.5996646E+03  0.7818609E-02  0.9906102E-01
        2   -1    0    0  501    0  0.00000000000E+00  0.00000000000E+00  0.47897102407E+03  0.47897102407E+03  0.25500000920E-02 0.  1.
       -2   -1    0    0    0  501  0.00000000000E+00  0.00000000000E+00 -0.18769280084E+03  0.18769280085E+03  0.25500000920E-02 0. -1.
    10030    2    1    2    0    0  0.00000000000E+00  0.00000000000E+00  0.29127822323E+03  0.66666382493E+03  0.59966461638E+03 0.  0.
        2    1    3    3  502    0 -0.78042803662E+02  0.25297234129E+03 -0.10849078748E+02  0.26495921795E+03  0.25500000920E-02 0. -1.
       -2    1    3    3    0  502  0.78042803662E+02 -0.25297234129E+03  0.30212730198E+03  0.40170460698E+03  0.25500000920E-02 0.  1.
</event>
<event>
 5   0  0.5574736E-03  0.6007663E+03  0.7818609E-02  0.9903818E-01
        1   -1    0    0  501    0  0.00000000000E+00  0.00000000000E+00  0.84107810182E+02  0.84107810333E+02  0.50400001928E-02 0. -1.
       -1   -1    0    0    0  501  0.00000000000E+00  0.00000000000E+00 -0.10727901837E+04  0.10727901837E+04  0.50400001928E-02 0.  1.
    10030    2    1    2    0    0  0.00000000000E+00  0.00000000000E+00 -0.98868237356E+03  0.11568979941E+04  0.60076628811E+03 0.  0.
        5    1    3    3  502    0  0.24733238806E+03  0.16904453926E+03 -0.53557899301E+03  0.61369073171E+03  0.46999998093E+01 0.  1.
       -5    1    3    3    0  502 -0.24733238806E+03 -0.16904453926E+03 -0.45310338055E+03  0.54320726237E+03  0.46999998093E+01 0. -1.
</event>
<event>
 5   0  0.5503975E-03  0.5995003E+03  0.7818609E-02  0.9906443E-01
        1   -1    0    0  501    0  0.00000000000E+00  0.00000000000E+00  0.91181821461E+02  0.91181821600E+02  0.50400001928E-02 0.  1.
       -1   -1    0    0    0  501  0.00000000000E+00  0.00000000000E+00 -0.98539532643E+03  0.98539532644E+03  0.50400001928E-02 0. -1.
    10030    2    1    2    0    0  0.00000000000E+00  0.00000000000E+00 -0.89421350497E+03  0.10765771480E+04  0.59950026123E+03 0.  0.
        4    1    3    3  502    0  0.19286070794E+03 -0.18844150718E+03 -0.21198103960E+03  0.34299129485E+03  0.12699999809E+01 0.  1.
       -4    1    3    3    0  502 -0.19286070794E+03  0.18844150718E+03 -0.68223246537E+03  0.73358585319E+03  0.12699999809E+01 0. -1.
</event>
<event>
 5   0  0.5574736E-03  0.6008171E+03  0.7818609E-02  0.9903712E-01
       -1   -1    0    0    0  501  0.00000000000E+00  0.00000000000E+00  0.20718443076E+03  0.20718443082E+03  0.50400001928E-02 0.  1.
        1   -1    0    0  501    0  0.00000000000E+00  0.00000000000E+00 -0.43557952989E+03  0.43557952992E+03  0.50400001928E-02 0. -1.
    10030    2    1    2    0    0  0.00000000000E+00  0.00000000000E+00 -0.22839509913E+03  0.64276396074E+03  0.60081710022E+03 0.  0.
        5    1    3    3  502    0  0.86238155376E+02  0.17664420886E+02 -0.42143076965E+03  0.43055201174E+03  0.46999998093E+01 0. -1.
       -5    1    3    3    0  502 -0.86238155376E+02 -0.17664420886E+02  0.19303567052E+03  0.21221194900E+03  0.46999998093E+01 0.  1.
</event>
<event>
 5   0  0.9866317E-03  0.6068096E+03  0.7818609E-02  0.9891378E-01
        2   -1    0    0  501    0  0.00000000000E+00  0.00000000000E+00  0.82983338360E+03  0.82983338361E+03  0.25500000920E-02 0.  1.
       -2   -1    0    0    0  501  0.00000000000E+00  0.00000000000E+00 -0.11093125500E+03  0.11093125503E+03  0.25500000920E-02 0. -1.
    10030    2    1    2    0    0  0.00000000000E+00  0.00000000000E+00  0.71890212860E+03  0.94076463863E+03  0.60680955397E+03 0.  0.
        1    1    3    3  502    0  0.42061127164E+02 -0.14988531336E+03  0.76319549899E+03  0.77891085195E+03  0.50400001928E-02 0.  1.
       -1    1    3    3    0  502 -0.42061127164E+02  0.14988531336E+03 -0.44293370387E+02  0.16185378668E+03  0.50400001928E-02 0. -1.
</event>
<event>
 5   0  0.9428629E-03  0.6002221E+03  0.7818609E-02  0.9904945E-01
        2   -1    0    0  501    0  0.00000000000E+00  0.00000000000E+00  0.59595896840E+03  0.59595896841E+03  0.25500000920E-02 0.  1.
       -2   -1    0    0    0  501  0.00000000000E+00  0.00000000000E+00 -0.15112892531E+03  0.15112892534E+03  0.25500000920E-02 0. -1.
    10030    2    1    2    0    0  0.00000000000E+00  0.00000000000E+00  0.44483004309E+03  0.74708789374E+03  0.60022208702E+03 0.  0.
        3    1    3    3  502    0 -0.25496984311E+02 -0.29247716832E+03  0.29988246869E+03  0.41966950739E+03  0.10100000352E+00 0. -1.
       -3    1    3    3    0  502  0.25496984311E+02  0.29247716832E+03  0.14494757440E+03  0.32741838636E+03  0.10100000352E+00 0.  1.
</event>
<event>
 5   0  0.9571790E-03  0.6011019E+03  0.7818609E-02  0.9903123E-01
       -2   -1    0    0    0  501  0.00000000000E+00  0.00000000000E+00  0.16907054931E+03  0.16907054933E+03  0.25500000920E-02 0. -1.
        2   -1    0    0  501    0  0.00000000000E+00  0.00000000000E+00 -0.53427909485E+03  0.53427909485E+03  0.25500000920E-02 0.  1.
    10030    2    1    2    0    0  0.00000000000E+00  0.00000000000E+00 -0.36520854553E+03  0.70334964419E+03  0.60110185514E+03 0.  0.
        5    1    3    3  502    0  0.72498961305E+02  0.25525649052E+03 -0.17554563581E+02  0.26597411160E+03  0.46999998093E+01 0. -1.
       -5    1    3    3    0  502 -0.72498961305E+02 -0.25525649052E+03 -0.34765398195E+03  0.43737553259E+03  0.46999998093E+01 0.  1.
</event>
<event>
 5   0  0.5574736E-03  0.6002681E+03  0.7818609E-02  0.9904850E-01
       -1   -1    0    0    0  501  0.00000000000E+00  0.00000000000E+00  0.23320538964E+03  0.23320538970E+03  0.50400001928E-02 0.  1.
        1   -1    0    0  501    0  0.00000000000E+00  0.00000000000E+00 -0.38627081173E+03  0.38627081176E+03  0.50400001928E-02 0. -1.
    10030    2    1    2    0    0  0.00000000000E+00  0.00000000000E+00 -0.15306542209E+03  0.61947620146E+03  0.60026805740E+03 0.  0.
        5    1    3    3  502    0 -0.28473955608E+03 -0.22059436646E+02 -0.17165098013E+03  0.33324072758E+03  0.46999998093E+01 0. -1.
       -5    1    3    3    0  502  0.28473955608E+03  0.22059436646E+02  0.18585558048E+02  0.28623547388E+03  0.46999998093E+01 0.  1.
</event>
<event>
 5   0  0.9428629E-03  0.6015346E+03  0.7818609E-02  0.9902227E-01
       -2   -1    0    0    0  501  0.00000000000E+00  0.00000000000E+00  0.41120568986E+03  0.41120568986E+03  0.25500000920E-02 0. -1.
        2   -1    0    0  501    0  0.00000000000E+00  0.00000000000E+00 -0.21998956695E+03  0.21998956697E+03  0.25500000920E-02 0.  1.
    10030    2    1    2    0    0  0.00000000000E+00  0.00000000000E+00  0.19121612290E+03  0.63119525683E+03  0.60153457639E+03 0.  0.
        3    1    3    3  502    0 -0.66362112430E+02 -0.29168236516E+03  0.12843010703E+03  0.32554083416E+03  0.10100000352E+00 0.  1.
       -3    1    3    3    0  502  0.66362112430E+02  0.29168236516E+03  0.62786015868E+02  0.30565442267E+03  0.10100000352E+00 0. -1.
</event>
<event>
 5   0  0.9681801E-03  0.6003318E+03  0.7818609E-02  0.9904718E-01
       -2   -1    0    0    0  501  0.00000000000E+00  0.00000000000E+00  0.42065163967E+02  0.42065164045E+02  0.25500000920E-02 0.  1.
        2   -1    0    0  501    0  0.00000000000E+00  0.00000000000E+00 -0.21419049285E+04  0.21419049285E+04  0.25500000920E-02 0. -1.
    10030    2    1    2    0    0  0.00000000000E+00  0.00000000000E+00 -0.20998397645E+04  0.21839700925E+04  0.60033184858E+03 0.  0.
        4    1    3    3  502    0 -0.21754760920E+03 -0.16530762778E+03 -0.59781337811E+03  0.65729447131E+03  0.12699999809E+01 0.  1.
       -4    1    3    3    0  502  0.21754760920E+03  0.16530762778E+03 -0.15020263864E+04  0.15266756212E+04  0.12699999809E+01 0. -1.
</event>
<event>
 5   0  0.9571790E-03  0.5991935E+03  0.7818609E-02  0.9907081E-01
       -2   -1    0    0    0  501  0.00000000000E+00  0.00000000000E+00  0.74445103470E+02  0.74445103513E+02  0.25500000920E-02 0. -1.
        2   -1    0    0  501    0  0.00000000000E+00  0.00000000000E+00 -0.12056968511E+04  0.12056968511E+04  0.25500000920E-02 0.  1.
    10030    2    1    2    0    0  0.00000000000E+00  0.00000000000E+00 -0.11312517476E+04  0.12801419546E+04  0.59919354756E+03 0.  0.
        5    1    3    3  502    0  0.18869575994E+03  0.16362922292E+03 -0.21226901481E+03  0.32781219785E+03  0.46999998093E+01 0. -1.
       -5    1    3    3    0  502 -0.18869575994E+03 -0.16362922292E+03 -0.91898273277E+03  0.95232975672E+03  0.46999998093E+01 0.  1.
</event>
<event>
 5   0  0.5574736E-03  0.5978388E+03  0.7818609E-02  0.9909900E-01
        1   -1    0    0  501    0  0.00000000000E+00  0.00000000000E+00  0.39702284841E+03  0.39702284844E+03  0.50400001928E-02 0. -1.
       -1   -1    0    0    0  501  0.00000000000E+00  0.00000000000E+00 -0.22505709237E+03  0.22505709243E+03  0.50400001928E-02 0.  1.
    10030    2    1    2    0    0  0.00000000000E+00  0.00000000000E+00  0.17196575603E+03  0.62207994087E+03  0.59783880067E+03 0.  0.
        5    1    3    3  502    0  0.21924090890E+03 -0.18383180999E+03  0.17591660996E+03  0.33590095886E+03  0.46999998093E+01 0.  1.
       -5    1    3    3    0  502 -0.21924090890E+03  0.18383180999E+03 -0.39508539294E+01  0.28617898201E+03  0.46999998093E+01 0. -1.
</event>
<event>
 5   0  0.9428629E-03  0.5993950E+03  0.7818609E-02  0.9906662E-01
        2   -1    0    0  501    0  0.00000000000E+00  0.00000000000E+00  0.13084797240E+04  0.13084797240E+04  0.25500000920E-02 0.  1.
       -2   -1    0    0    0  501  0.00000000000E+00  0.00000000000E+00 -0.68643469642E+02  0.68643469690E+02  0.25500000920E-02 0. -1.
    10030    2    1    2    0    0  0.00000000000E+00  0.00000000000E+00  0.12398362544E+04  0.13771231937E+04  0.59939498913E+03 0.  0.
        3    1    3    3  502    0  0.95231178672E+02  0.86940265809E+02  0.12414859131E+04  0.12481646004E+04  0.10100000352E+00 0.  1.
       -3    1    3    3    0  502 -0.95231178672E+02 -0.86940265809E+02 -0.16496586803E+01  0.12895859330E+03  0.10100000352E+00 0. -1.
</event>
<event>
 5   0  0.9866317E-03  0.6002350E+03  0.7818609E-02  0.9904919E-01
       -2   -1    0    0    0  501  0.00000000000E+00  0.00000000000E+00  0.11705728873E+03  0.11705728875E+03  0.25500000920E-02 0. -1.
        2   -1    0    0  501    0  0.00000000000E+00  0.00000000000E+00 -0.76945666653E+03  0.76945666654E+03  0.25500000920E-02 0.  1.
    10030    2    1    2    0    0  0.00000000000E+00  0.00000000000E+00 -0.65239937781E+03  0.88651395529E+03  0.60023499128E+03 0.  0.
        1    1    3    3  502    0 -0.71119456416E+02  0.21701460551E+03 -0.38604002021E+02  0.23161084837E+03  0.50400001928E-02 0. -1.
       -1    1    3    3    0  502  0.71119456416E+02 -0.21701460551E+03 -0.61379537579E+03  0.65490310692E+03  0.50400001928E-02 0.  1.
</event>
<event>
 5   0  0.9681801E-03  0.6001571E+03  0.7818609E-02  0.9905080E-01
       -2   -1    0    0    0  501  0.00000000000E+00  0.00000000000E+00  0.11059627711E+03  0.11059627714E+03  0.25500000920E-02 0.  1.
        2   -1    0    0  501    0  0.00000000000E+00  0.00000000000E+00 -0.81419682941E+03  0.81419682942E+03  0.25500000920E-02 0. -1.
    10030    2    1    2    0    0  0.00000000000E+00  0.00000000000E+00 -0.70360055230E+03  0.92479310656E+03  0.60015710672E+03 0.  0.
        4    1    3    3  502    0 -0.11440193496E+03  0.23650005623E+03 -0.12836474384E+03  0.29240246182E+03  0.12699999809E+01 0.  1.
       -4    1    3    3    0  502  0.11440193496E+03 -0.23650005623E+03 -0.57523580846E+03  0.63239064474E+03  0.12699999809E+01 0. -1.
</event>
<event>
 5   0  0.9866317E-03  0.5971441E+03  0.7818609E-02  0.9911349E-01
        2   -1    0    0  501    0  0.00000000000E+00  0.00000000000E+00  0.30757291657E+03  0.30757291658E+03  0.25500000920E-02 0. -1.
       -2   -1    0    0    0  501  0.00000000000E+00  0.00000000000E+00 -0.28983460240E+03  0.28983460242E+03  0.25500000920E-02 0.  1.
    10030    2    1    2    0    0  0.00000000000E+00  0.00000000000E+00  0.17738314163E+02  0.59740751899E+03  0.59714411658E+03 0.  0.
        1    1    3    3  502    0  0.25394434033E+03  0.12604688559E+03 -0.84818980037E+02  0.29592195720E+03  0.50400001928E-02 0. -1.
       -1    1    3    3    0  502 -0.25394434033E+03 -0.12604688559E+03  0.10255729420E+03  0.30148556180E+03  0.50400001928E-02 0.  1.
</event>
<event>
 5   0  0.9428629E-03  0.6008675E+03  0.7818609E-02  0.9903608E-01
        2   -1    0    0  501    0  0.00000000000E+00  0.00000000000E+00  0.26043393774E+03  0.26043393775E+03  0.25500000920E-02 0. -1.
       -2   -1    0    0    0  501  0.00000000000E+00  0.00000000000E+00 -0.34657715323E+03  0.34657715324E+03  0.25500000920E-02 0.  1.
    10030    2    1    2    0    0  0.00000000000E+00  0.00000000000E+00 -0.86143215490E+02  0.60701109098E+03  0.60086754863E+03 0.  0.
        3    1    3    3  502    0  0.73204423671E+02 -0.27874723905E+03 -0.12880111212E+03  0.31567174028E+03  0.10100000352E+00 0.  1.
       -3    1    3    3    0  502 -0.73204423671E+02  0.27874723905E+03  0.42657896634E+02  0.29133935071E+03  0.10100000352E+00 0. -1.
</event>
<event>
 5   0  0.9530666E-03  0.5956196E+03  0.7818609E-02  0.9914536E-01
        2   -1    0    0  501    0  0.00000000000E+00  0.00000000000E+00  0.14220493345E+04  0.14220493346E+04  0.25500000920E-02 0. -1.
       -2   -1    0    0    0  501  0.00000000000E+00  0.00000000000E+00 -0.62368206368E+02  0.62368206420E+02  0.25500000920E-02 0.  1.
    10030    2    1    2    0    0  0.00000000000E+00  0.00000000000E+00  0.13596811282E+04  0.14844175410E+04  0.59561956450E+03 0.  0.
        2    1    3    3  502    0  0.25816664490E+03 -0.13743112196E+03  0.53989076257E+03  0.61401902686E+03  0.25500000920E-02 0.  1.
       -2    1    3    3    0  502 -0.25816664490E+03  0.13743112196E+03  0.81979036561E+03  0.87039851412E+03  0.25500000920E-02 0. -1.
</event>
<event>
 5   0  0.9866317E-03  0.5958231E+03  0.7818609E-02  0.9914110E-01
       -2   -1    0    0    0  501  0.00000000000E+00  0.00000000000E+00  0.39727449645E+02  0.39727449727E+02  0.25500000920E-02 0.  1.
        2   -1    0    0  501    0  0.00000000000E+00  0.00000000000E+00 -0.22340044112E+04  0.22340044112E+04  0.25500000920E-02 0. -1.
    10030    2    1    2    0    0  0.00000000000E+00  0.00000000000E+00 -0.21942769615E+04  0.22737318609E+04  0.59582312089E+03 0.  0.
        1    1    3    3  502    0  0.67092057810E+02  0.22370665397E+03 -0.39135983828E+03  0.45575051760E+03  0.50400001928E-02 0.  1.
       -1    1    3    3    0  502 -0.67092057810E+02 -0.22370665397E+03 -0.18029171233E+04  0.18179813433E+04  0.50400001928E-02 0. -1.
</event>
<event>
 5   0  0.9530666E-03  0.5999735E+03  0.7818609E-02  0.9905461E-01
        2   -1    0    0  501    0  0.00000000000E+00  0.00000000000E+00  0.81039229971E+03  0.81039229971E+03  0.25500000920E-02 0. -1.
       -2   -1    0    0    0  501  0.00000000000E+00  0.00000000000E+00 -0.11104750673E+03  0.11104750676E+03  0.25500000920E-02 0.  1.
    10030    2    1    2    0    0  0.00000000000E+00  0.00000000000E+00  0.69934479298E+03  0.92143980647E+03  0.59997348065E+03 0.  0.
        2    1    3    3  502    0  0.18395103243E+03  0.21389433289E+03  0.19302615329E+03  0.34183016812E+03  0.25500000920E-02 0. -1.
       -2    1    3    3    0  502 -0.18395103243E+03 -0.21389433289E+03  0.50631863968E+03  0.57960963835E+03  0.25500000920E-02 0.  1.
</event>
<event>
 5   0  0.5785798E-03  0.6003341E+03  0.7818609E-02  0.9904713E-01
       -1   -1    0    0    0  501  0.00000000000E+00  0.00000000000E+00  0.62505731221E+02  0.62505731424E+02  0.50400001928E-02 0.  1.
        1   -1    0    0  501    0  0.00000000000E+00  0.00000000000E+00 -0.14414719289E+04  0.14414719289E+04  0.50400001928E-02 0. -1.
    10030    2    1    2    0    0  0.00000000000E+00  0.00000000000E+00 -0.13789661977E+04  0.15039776603E+04  0.60033409735E+03 0.  0.
        1    1    3    3  502    0  0.13557164786E+03  0.25984086927E+03 -0.52706142434E+03  0.60306773592E+03  0.50400001928E-02 0.  1.
       -1    1    3    3    0  502 -0.13557164786E+03 -0.25984086927E+03 -0.85190477334E+03  0.90090992441E+03  0.50400001928E-02 0. -1.
</event>
<event>
 5   0  0.5653633E-03  0.6036064E+03  0.7818609E-02  0.9897952E-01
       -1   -1    0    0    0  501  0.00000000000E+00  0.00000000000E+00  0.44894996094E+03  0.44894996097E+03  0.50400001928E-02 0. -1.
        1   -1    0    0  501    0  0.00000000000E+00  0.00000000000E+00 -0.20288490472E+03  0.20288490478E+03  0.50400001928E-02 0.  1.
    10030    2    1    2    0    0  0.00000000000E+00  0.00000000000E+00  0.24606505622E+03  0.65183486575E+03  0.60360639519E+03 0.  0.
        2    1    3    3  502    0 -0.11484160572E+03 -0.22124913376E+03  0.30675974883E+03  0.39527372428E+03  0.25500000920E-02 0. -1.
       -2    1    3    3    0  502  0.11484160572E+03  0.22124913376E+03 -0.60694692612E+02  0.25656114147E+03  0.25500000920E-02 0.  1.
</event>
<event>
 5   0  0.5503975E-03  0.5979203E+03  0.7818609E-02  0.9909730E-01
       -1   -1    0    0    0  501  0.00000000000E+00  0.00000000000E+00  0.29428389816E+03  0.29428389820E+03  0.50400001928E-02 0. -1.
        1   -1    0    0  501    0  0.00000000000E+00  0.00000000000E+00 -0.30371071878E+03  0.30371071882E+03  0.50400001928E-02 0.  1.
    10030    2    1    2    0    0  0.00000000000E+00  0.00000000000E+00 -0.94268206209E+01  0.59799461702E+03  0.59792030994E+03 0.  0.
        4    1    3    3  502    0 -0.13987855944E+03  0.63663607457E+02 -0.26117557119E+03  0.30304019237E+03  0.12699999809E+01 0.  1.
       -4    1    3    3    0  502  0.13987855944E+03 -0.63663607457E+02  0.25174875057E+03  0.29495442465E+03  0.12699999809E+01 0. -1.
</event>
<event>
 5   0  0.3794375E-03  0.6000625E+03  0.7818609E-02  0.9905276E-01
       -3   -1    0    0    0  501  0.00000000000E+00  0.00000000000E+00  0.88908352686E+02  0.88908410054E+02  0.10100000352E+00 0.  1.
        3   -1    0    0  501    0  0.00000000000E+00  0.00000000000E+00 -0.10124887689E+04  0.10124887739E+04  0.10100000352E+00 0. -1.
    10030    2    1    2    0    0  0.00000000000E+00  0.00000000000E+00 -0.92358041620E+03  0.11013971840E+04  0.60006247315E+03 0.  0.
        3    1    3    3  502    0  0.60211781518E+02  0.29392295271E+03 -0.45884660645E+03  0.54823022465E+03  0.10100000352E+00 0. -1.
       -3    1    3    3    0  502 -0.60211781518E+02 -0.29392295271E+03 -0.46473380975E+03  0.55316695933E+03  0.10100000352E+00 0.  1.
</event>
<event>
 5   0  0.5574736E-03  0.6036324E+03  0.7818609E-02  0.9897898E-01
       -1   -1    0    0    0  501  0.00000000000E+00  0.00000000000E+00  0.73373900761E+03  0.73373900763E+03  0.50400001928E-02 0.  1.
        1   -1    0    0  501    0  0.00000000000E+00  0.00000000000E+00 -0.12414908049E+03  0.12414908059E+03  0.50400001928E-02 0. -1.
    10030    2    1    2    0    0  0.00000000000E+00  0.00000000000E+00  0.60958992712E+03  0.85788808822E+03  0.60363241519E+03 0.  0.
        5    1    3    3  502    0 -0.12865520361E+02  0.88738932424E+02 -0.10472750133E+03  0.13794948088E+03  0.46999998093E+01 0. -1.
       -5    1    3    3    0  502  0.12865520361E+02 -0.88738932424E+02  0.71431742846E+03  0.71993860734E+03  0.46999998093E+01 0.  1.
</event>
<event>
 5   0  0.9428629E-03  0.5941985E+03  0.7818609E-02  0.9917516E-01
        2   -1    0    0  501    0  0.00000000000E+00  0.00000000000E+00  0.25936436090E+04  0.25936436090E+04  0.25500000920E-02 0. -1.
       -2   -1    0    0    0  501  0.00000000000E+00  0.00000000000E+00 -0.34032414547E+02  0.34032414642E+02  0.25500000920E-02 0.  1.
    10030    2    1    2    0    0  0.00000000000E+00  0.00000000000E+00  0.25596111945E+04  0.26276760237E+04  0.59419846723E+03 0.  0.
        3    1    3    3  502    0  0.12174768760E+03  0.62496351119E+02  0.24459613117E+04  0.24497867339E+04  0.10100000352E+00 0. -1.
       -3    1    3    3    0  502 -0.12174768760E+03 -0.62496351119E+02  0.11364988279E+03  0.17788928972E+03  0.10100000352E+00 0.  1.
</event>
<event>
 5   0  0.5574736E-03  0.5995144E+03  0.7818609E-02  0.9906414E-01
        1   -1    0    0  501    0  0.00000000000E+00  0.00000000000E+00  0.74146859485E+03  0.74146859487E+03  0.50400001928E-02 0. -1.
       -1   -1    0    0    0  501  0.00000000000E+00  0.00000000000E+00 -0.12118435307E+03  0.12118435318E+03  0.50400001928E-02 0.  1.
    10030    2    1    2    0    0  0.00000000000E+00  0.00000000000E+00  0.62028424178E+03  0.86265294804E+03  0.59951444367E+03 0.  0.
        5    1    3    3  502    0 -0.18280783561E+03  0.12385003655E+02  0.65144278284E+03  0.67673619852E+03  0.46999998093E+01 0. -1.
       -5    1    3    3    0  502  0.18280783561E+03 -0.12385003655E+02 -0.31158541055E+02  0.18591674953E+03  0.46999998093E+01 0.  1.
</event>
<event>
 5   0  0.9428629E-03  0.6005168E+03  0.7818609E-02  0.9904335E-01
        2   -1    0    0  501    0  0.00000000000E+00  0.00000000000E+00  0.27229510829E+03  0.27229510830E+03  0.25500000920E-02 0. -1.
       -2   -1    0    0    0  501  0.00000000000E+00  0.00000000000E+00 -0.33109333317E+03  0.33109333318E+03  0.25500000920E-02 0.  1.
    10030    2    1    2    0    0  0.00000000000E+00  0.00000000000E+00 -0.58798224885E+02  0.60338844148E+03  0.60051676085E+03 0.  0.
        3    1    3    3  502    0  0.25424981080E+03 -0.14027534227E+03  0.47352994483E+02  0.29421497962E+03  0.10100000352E+00 0.  1.
       -3    1    3    3    0  502 -0.25424981080E+03  0.14027534227E+03 -0.10615121937E+03  0.30917346186E+03  0.10100000352E+00 0. -1.
</event>
<event>
 5   0  0.5491236E-03  0.5999254E+03  0.7818609E-02  0.9905561E-01
        1   -1    0    0  501    0  0.00000000000E+00  0.00000000000E+00  0.90739309821E+03  0.90739309822E+03  0.50400001928E-02 0.  1.
       -1   -1    0    0    0  501  0.00000000000E+00  0.00000000000E+00 -0.99160579744E+02  0.99160579872E+02  0.50400001928E-02 0. -1.
    10030    2    1    2    0    0  0.00000000000E+00  0.00000000000E+00  0.80823251846E+03  0.10065536781E+04  0.59992541451E+03 0.  0.
        3    1    3    3  502    0 -0.18726962729E+03 -0.17349203125E+03  0.13985259116E+03  0.29108101220E+03  0.10100000352E+00 0. -1.
       -3    1    3    3    0  502  0.18726962729E+03  0.17349203125E+03  0.66837992731E+03  0.71547266589E+03  0.10100000352E+00 0.  1.
</event>
<event>
 5   0  0.5653633E-03  0.5996600E+03  0.7818609E-02  0.9906112E-01
        1   -1    0    0  501    0  0.00000000000E+00  0.00000000000E+00  0.49825685648E+03  0.49825685651E+03  0.50400001928E-02 0. -1.
       -1   -1    0    0    0  501  0.00000000000E+00  0.00000000000E+00 -0.18042509080E+03  0.18042509087E+03  0.50400001928E-02 0.  1.
    10030    2    1    2    0    0  0.00000000000E+00  0.00000000000E+00  0.31783176568E+03  0.67868194737E+03  0.59966003236E+03 0.  0.
        2    1    3    3  502    0  0.29026030309E+02 -0.17144510945E+03 -0.11753021928E+03  0.20987922346E+03  0.25500000920E-02 0.  1.
       -2    1    3    3    0  502 -0.29026030309E+02  0.17144510945E+03  0.43536198496E+03  0.46880272391E+03  0.25500000920E-02 0. -1.
</event>
<event>
 5   0  0.5574736E-03  0.6028170E+03  0.7818609E-02  0.9899579E-01
       -1   -1    0    0    0  501  0.00000000000E+00  0.00000000000E+00  0.14307678860E+03  0.14307678868E+03  0.50400001928E-02 0.  1.
        1   -1    0    0  501    0  0.00000000000E+00  0.00000000000E+00 -0.63495335932E+03  0.63495335934E+03  0.50400001928E-02 0. -1.
    10030    2    1    2    0    0  0.00000000000E+00  0.00000000000E+00 -0.49187657072E+03  0.77803014802E+03  0.60281701237E+03 0.  0.
        5    1    3    3  502    0  0.17884435501E+03  0.18990104815E+02  0.66174209399E+02  0.19169518353E+03  0.46999998093E+01 0.  1.
       -5    1    3    3    0  502 -0.17884435501E+03 -0.18990104815E+02 -0.55805078012E+03  0.58633496450E+03  0.46999998093E+01 0. -1.
</event>
<event>
 5   0  0.9681801E-03  0.5981638E+03  0.7818609E-02  0.9909223E-01
       -2   -1    0    0    0  501  0.00000000000E+00  0.00000000000E+00  0.79621146324E+03  0.79621146324E+03  0.25500000920E-02 0. -1.
        2   -1    0    0  501    0  0.00000000000E+00  0.00000000000E+00 -0.11234451318E+03  0.11234451321E+03  0.25500000920E-02 0.  1.
    10030    2    1    2    0    0  0.00000000000E+00  0.00000000000E+00  0.68386695006E+03  0.90855597645E+03  0.59816382116E+03 0.  0.
        4    1    3    3  502    0  0.10064736239E+03 -0.27673333119E+03  0.42139935608E+03  0.51409168283E+03  0.12699999809E+01 0.  1.
       -4    1    3    3    0  502 -0.10064736239E+03  0.27673333119E+03  0.26246759398E+03  0.39446429362E+03  0.12699999809E+01 0. -1.
</event>
<event>
 5   0  0.9681801E-03  0.6006334E+03  0.7818609E-02  0.9904093E-01
        2   -1    0    0  501    0  0.00000000000E+00  0.00000000000E+00  0.11613328754E+04  0.11613328754E+04  0.25500000920E-02 0. -1.
       -2   -1    0    0    0  501  0.00000000000E+00  0.00000000000E+00 -0.77660862342E+02  0.77660862384E+02  0.25500000920E-02 0.  1.
    10030    2    1    2    0    0  0.00000000000E+00  0.00000000000E+00  0.10836720130E+04  0.12389937377E+04  0.60063337434E+03 0.  0.
        4    1    3    3  502    0 -0.28610536578E+03  0.30968016049E+02  0.36470781110E+03  0.46457367416E+03  0.12699999809E+01 0.  1.
       -4    1    3    3    0  502  0.28610536578E+03 -0.30968016049E+02  0.71896420192E+03  0.77442006359E+03  0.12699999809E+01 0. -1.
</event>
<event>
 5   0  0.9428629E-03  0.6082416E+03  0.7818609E-02  0.9888453E-01
       -2   -1    0    0    0  501  0.00000000000E+00  0.00000000000E+00  0.14397980655E+03  0.14397980657E+03  0.25500000920E-02 0.  1.
        2   -1    0    0  501    0  0.00000000000E+00  0.00000000000E+00 -0.64237800586E+03  0.64237800586E+03  0.25500000920E-02 0. -1.
    10030    2    1    2    0    0  0.00000000000E+00  0.00000000000E+00 -0.49839819931E+03  0.78635781243E+03  0.60824160011E+03 0.  0.
        3    1    3    3  502    0  0.10027534067E+03 -0.25158975985E+03 -0.70352834489E+02  0.27982509310E+03  0.10100000352E+00 0. -1.
       -3    1    3    3    0  502 -0.10027534067E+03  0.25158975985E+03 -0.42804536482E+03  0.50653271933E+03  0.10100000352E+00 0.  1.
</event>
<event>
 5   0  0.5503975E-03  0.6003730E+03  0.7818609E-02  0.9904632E-01
        1   -1    0    0  501    0  0.00000000000E+00  0.00000000000E+00  0.32979949856E+03  0.32979949860E+03  0.50400001928E-02 0.  1.
       -1   -1    0    0    0  501  0.00000000000E+00  0.00000000000E+00 -0.27323249231E+03  0.27323249236E+03  0.50400001928E-02 0. -1.
    10030    2    1    2    0    0  0.00000000000E+00  0.00000000000E+00  0.56567006249E+02  0.60303199096E+03  0.60037301398E+03 0.  0.
        4    1    3    3  502    0  0.23396084282E+03 -0.24679062332E+01 -0.16060938027E+03  0.28379702687E+03  0.12699999809E+01 0. -1.
       -4    1    3    3    0  502 -0.23396084282E+03  0.24679062332E+01  0.21717638652E+03  0.31923496408E+03  0.12699999809E+01 0.  1.
</event>
<event>
 5   0  0.9681801E-03  0.6018362E+03  0.7818609E-02  0.9901604E-01
        2   -1    0    0  501    0  0.00000000000E+00  0.00000000000E+00  0.63364168459E+03  0.63364168459E+03  0.25500000920E-02 0. -1.
       -2   -1    0    0    0  501  0.00000000000E+00  0.00000000000E+00 -0.14290679171E+03  0.14290679174E+03  0.25500000920E-02 0.  1.
    10030    2    1    2    0    0  0.00000000000E+00  0.00000000000E+00  0.49073489287E+03  0.77654847633E+03  0.60183619118E+03 0.  0.
        4    1    3    3  502    0  0.14646872217E+03  0.24834477636E+03  0.13420783345E+03  0.31802762455E+03  0.12699999809E+01 0.  1.
       -4    1    3    3    0  502 -0.14646872217E+03 -0.24834477636E+03  0.35652705942E+03  0.45852085178E+03  0.12699999809E+01 0. -1.
</event>
<event>
 5   0  0.5503975E-03  0.5881383E+03  0.7818609E-02  0.9930326E-01
        1   -1    0    0  501    0  0.00000000000E+00  0.00000000000E+00  0.12273366365E+04  0.12273366365E+04  0.50400001928E-02 0.  1.
       -1   -1    0    0    0  501  0.00000000000E+00  0.00000000000E+00 -0.70458794344E+02  0.70458794525E+02  0.50400001928E-02 0. -1.
    10030    2    1    2    0    0  0.00000000000E+00  0.00000000000E+00  0.11568778421E+04  0.12977954310E+04  0.58813828233E+03 0.  0.
        4    1    3    3  502    0  0.26032253945E+02  0.26741670985E+03  0.84217960511E+03  0.88400083434E+03  0.12699999809E+01 0.  1.
       -4    1    3    3    0  502 -0.26032253945E+02 -0.26741670985E+03  0.31469823703E+03  0.41379459668E+03  0.12699999809E+01 0. -1.
</event>
<event>
 5   0  0.9866317E-03  0.6002010E+03  0.7818609E-02  0.9904989E-01
        2   -1    0    0  501    0  0.00000000000E+00  0.00000000000E+00  0.50136269421E+03  0.50136269422E+03  0.25500000920E-02 0.  1.
       -2   -1    0    0    0  501  0.00000000000E+00  0.00000000000E+00 -0.17963104325E+03  0.17963104327E+03  0.25500000920E-02 0. -1.
    10030    2    1    2    0    0  0.00000000000E+00  0.00000000000E+00  0.32173165097E+03  0.68099373749E+03  0.60020097906E+03 0.  0.
        1    1    3    3  502    0  0.22911750484E+02  0.14434056535E+03  0.45825725131E+03  0.48099777080E+03  0.50400001928E-02 0.  1.
       -1    1    3    3    0  502 -0.22911750484E+02 -0.14434056535E+03 -0.13652560034E+03  0.19999596668E+03  0.50400001928E-02 0. -1.
</event>
<event>
 5   0  0.9571790E-03  0.6003610E+03  0.7818609E-02  0.9904657E-01
       -2   -1    0    0    0  501  0.00000000000E+00  0.00000000000E+00  0.26467098281E+03  0.26467098282E+03  0.25500000920E-02 0.  1.
        2   -1    0    0  501    0  0.00000000000E+00  0.00000000000E+00 -0.34045411734E+03  0.34045411735E+03  0.25500000920E-02 0. -1.
    10030    2    1    2    0    0  0.00000000000E+00  0.00000000000E+00 -0.75783134533E+02  0.60512510017E+03  0.60036097756E+03 0.  0.
        5    1    3    3  502    0 -0.15131255977E+03 -0.23990398564E+03 -0.13683788749E+03  0.31495414034E+03  0.46999998093E+01 0. -1.
       -5    1    3    3    0  502  0.15131255977E+03  0.23990398564E+03  0.61054752962E+02  0.29017095982E+03  0.46999998093E+01 0.  1.
</event>
<event>
 5   0  0.5503975E-03  0.6000889E+03  0.7818609E-02  0.9905222E-01
        1   -1    0    0  501    0  0.00000000000E+00  0.00000000000E+00  0.10157921807E+04  0.10157921807E+04  0.50400001928E-02 0. -1.
       -1   -1    0    0    0  501  0.00000000000E+00  0.00000000000E+00 -0.88627051455E+02  0.88627051598E+02  0.50400001928E-02 0.  1.
    10030    2    1    2    0    0  0.00000000000E+00  0.00000000000E+00  0.92716512927E+03  0.11044192323E+04  0.60008887993E+03 0.  0.
        4    1    3    3  502    0 -0.31341469034E+02  0.81678029057E+02 -0.64627627189E+02  0.10877468091E+03  0.12699999809E+01 0.  1.
       -4    1    3    3    0  502  0.31341469034E+02 -0.81678029057E+02  0.99179275646E+03  0.99564455142E+03  0.12699999809E+01 0. -1.
</event>
<event>
 5   0  0.5785798E-03  0.6015724E+03  0.7818609E-02  0.9902149E-01
       -1   -1    0    0    0  501  0.00000000000E+00  0.00000000000E+00  0.58485884184E+02  0.58485884401E+02  0.50400001928E-02 0. -1.
        1   -1    0    0  501    0  0.00000000000E+00  0.00000000000E+00 -0.15469088611E+04  0.15469088612E+04  0.50400001928E-02 0.  1.
    10030    2    1    2    0    0  0.00000000000E+00  0.00000000000E+00 -0.14884229770E+04  0.16053947456E+04  0.60157238194E+03 0.  0.
        1    1    3    3  502    0  0.16791966379E+03  0.13100302286E+03 -0.13110343252E+04  0.13282205417E+04  0.50400001928E-02 0.  1.
       -1    1    3    3    0  502 -0.16791966379E+03 -0.13100302286E+03 -0.17738865174E+03  0.27717420385E+03  0.50400001928E-02 0. -1.
</event>
<event>
 5   0  0.5503975E-03  0.5978591E+03  0.7818609E-02  0.9909858E-01
       -1   -1    0    0    0  501  0.00000000000E+00  0.00000000000E+00  0.18727203199E+03  0.18727203206E+03  0.50400001928E-02 0.  1.
        1   -1    0    0  501    0  0.00000000000E+00  0.00000000000E+00 -0.47716084594E+03  0.47716084596E+03  0.50400001928E-02 0. -1.
    10030    2    1    2    0    0  0.00000000000E+00  0.00000000000E+00 -0.28988881394E+03  0.66443287802E+03  0.59785911798E+03 0.  0.
        4    1    3    3  502    0 -0.23450913068E+03 -0.60711322226E+02  0.49707108657E+02  0.24729093507E+03  0.12699999809E+01 0.  1.
       -4    1    3    3    0  502  0.23450913068E+03  0.60711322226E+02 -0.33959592260E+03  0.41714194295E+03  0.12699999809E+01 0. -1.
</event>
<event>
 5   0  0.9681801E-03  0.5998909E+03  0.7818609E-02  0.9905632E-01
        2   -1    0    0  501    0  0.00000000000E+00  0.00000000000E+00  0.10533999435E+04  0.10533999435E+04  0.25500000920E-02 0.  1.
       -2   -1    0    0    0  501  0.00000000000E+00  0.00000000000E+00 -0.85406565589E+02  0.85406565627E+02  0.25500000920E-02 0. -1.
    10030    2    1    2    0    0  0.00000000000E+00  0.00000000000E+00  0.96799337792E+03  0.11388065091E+04  0.59989089471E+03 0.  0.
        4    1    3    3  502    0  0.14548873458E+03  0.59518959232E+02 -0.94385421025E+00  0.15720045216E+03  0.12699999809E+01 0. -1.
       -4    1    3    3    0  502 -0.14548873458E+03 -0.59518959232E+02  0.96893723213E+03  0.98160605698E+03  0.12699999809E+01 0.  1.
</event>
<event>
 5   0  0.5785798E-03  0.6010356E+03  0.7818609E-02  0.9903260E-01
       -1   -1    0    0    0  501  0.00000000000E+00  0.00000000000E+00  0.30501584972E+03  0.30501584976E+03  0.50400001928E-02 0. -1.
        1   -1    0    0  501    0  0.00000000000E+00  0.00000000000E+00 -0.29608612380E+03  0.29608612384E+03  0.50400001928E-02 0.  1.
    10030    2    1    2    0    0  0.00000000000E+00  0.00000000000E+00  0.89297259194E+01  0.60110197360E+03  0.60103564176E+03 0.  0.
        1    1    3    3  502    0 -0.27902344410E+01 -0.23048451381E+03  0.19730747017E+03  0.30341577797E+03  0.50400001928E-02 0. -1.
       -1    1    3    3    0  502  0.27902344410E+01  0.23048451381E+03 -0.18837774425E+03  0.29768619563E+03  0.50400001928E-02 0.  1.
</event>
<event>
 5   0  0.9866317E-03  0.5981335E+03  0.7818609E-02  0.9909286E-01
       -2   -1    0    0    0  501  0.00000000000E+00  0.00000000000E+00  0.51409802229E+03  0.51409802230E+03  0.25500000920E-02 0.  1.
        2   -1    0    0  501    0  0.00000000000E+00  0.00000000000E+00 -0.17397640871E+03  0.17397640873E+03  0.25500000920E-02 0. -1.
    10030    2    1    2    0    0  0.00000000000E+00  0.00000000000E+00  0.34012161358E+03  0.68807443103E+03  0.59813352239E+03 0.  0.
        1    1    3    3  502    0  0.18169318778E+03 -0.16420496148E+03  0.36752679171E+03  0.44164649496E+03  0.50400001928E-02 0.  1.
       -1    1    3    3    0  502 -0.18169318778E+03  0.16420496148E+03 -0.27405178133E+02  0.24642793607E+03  0.50400001928E-02 0. -1.
</event>
<event>
 5   0  0.5574736E-03  0.6003749E+03  0.7818609E-02  0.9904628E-01
       -1   -1    0    0    0  501  0.00000000000E+00  0.00000000000E+00  0.11599304125E+03  0.11599304136E+03  0.50400001928E-02 0. -1.
        1   -1    0    0  501    0  0.00000000000E+00  0.00000000000E+00 -0.77687865742E+03  0.77687865743E+03  0.50400001928E-02 0.  1.
    10030    2    1    2    0    0  0.00000000000E+00  0.00000000000E+00 -0.66088561617E+03  0.89287169879E+03  0.60037494355E+03 0.  0.
        5    1    3    3  502    0 -0.22692750438E+03 -0.19517736659E+03 -0.36370176458E+03  0.47105345794E+03  0.46999998093E+01 0.  1.
       -5    1    3    3    0  502  0.22692750438E+03  0.19517736659E+03 -0.29718385159E+03  0.42181824085E+03  0.46999998093E+01 0. -1.
</event>
<event>
 5   0  0.5574736E-03  0.6011988E+03  0.7818609E-02  0.9902922E-01
        1   -1    0    0  501    0  0.00000000000E+00  0.00000000000E+00  0.40385796296E+03  0.40385796300E+03  0.50400001928E-02 0.  1.
       -1   -1    0    0    0  501  0.00000000000E+00  0.00000000000E+00 -0.22374202079E+03  0.22374202084E+03  0.50400001928E-02 0. -1.
    10030    2    1    2    0    0  0.00000000000E+00  0.00000000000E+00  0.18011594218E+03  0.62759998384E+03  0.60119879166E+03 0.  0.
        5    1    3    3  502    0  0.10660921599E+03  0.27876128889E+03  0.52936203491E+02  0.30314635534E+03  0.46999998093E+01 0. -1.
       -5    1    3    3    0  502 -0.10660921599E+03 -0.27876128889E+03  0.12717973869E+03  0.32445362850E+03  0.46999998093E+01 0.  1.
</event>
<event>
 5   0  0.9428629E-03  0.5992270E+03  0.7818609E-02  0.9907011E-01
        2   -1    0    0  501    0  0.00000000000E+00  0.00000000000E+00  0.29937441969E+03  0.29937441970E+03  0.25500000920E-02 0. -1.
       -2   -1    0    0    0  501  0.00000000000E+00  0.00000000000E+00 -0.29985273120E+03  0.29985273121E+03  0.25500000920E-02 0.  1.
    10030    2    1    2    0    0  0.00000000000E+00  0.00000000000E+00 -0.47831150552E+00  0.59922715091E+03  0.59922696002E+03 0.  0.
        3    1    3    3  502    0  0.10296675029E+03 -0.22354083841E+03  0.17062800815E+03  0.29947718689E+03  0.10100000352E+00 0. -1.
       -3    1    3    3    0  502 -0.10296675029E+03  0.22354083841E+03 -0.17110631965E+03  0.29974996402E+03  0.10100000352E+00 0.  1.
</event>
<event>
 5   0  0.5785798E-03  0.5987342E+03  0.7818609E-02  0.9908036E-01
       -1   -1    0    0    0  501  0.00000000000E+00  0.00000000000E+00  0.43307131373E+03  0.43307131376E+03  0.50400001928E-02 0. -1.
        1   -1    0    0  501    0  0.00000000000E+00  0.00000000000E+00 -0.20694202969E+03  0.20694202975E+03  0.50400001928E-02 0.  1.
    10030    2    1    2    0    0  0.00000000000E+00  0.00000000000E+00  0.22612928405E+03  0.64001334351E+03  0.59873418707E+03 0.  0.
        1    1    3    3  502    0 -0.14626044187E+03 -0.44509313379E+02 -0.16206639843E+03  0.22279747162E+03  0.50400001928E-02 0.  1.
       -1    1    3    3    0  502  0.14626044187E+03  0.44509313379E+02  0.38819568248E+03  0.41721587189E+03  0.50400001928E-02 0. -1.
</event>
<event>
 5   0  0.5574736E-03  0.5996115E+03  0.7818609E-02  0.9906212E-01
        1   -1    0    0  501    0  0.00000000000E+00  0.00000000000E+00  0.10722774186E+04  0.10722774186E+04  0.50400001928E-02 0. -1.
       -1   -1    0    0    0  501  0.00000000000E+00  0.00000000000E+00 -0.83824849148E+02  0.83824849300E+02  0.50400001928E-02 0.  1.
    10030    2    1    2    0    0  0.00000000000E+00  0.00000000000E+00  0.98845256944E+03  0.11561022679E+04  0.59961151741E+03 0.  0.
        5    1    3    3  502    0  0.66590926288E+02  0.25558651332E+03  0.22085540649E+03  0.34432254912E+03  0.46999998093E+01 0.  1.
       -5    1    3    3    0  502 -0.66590926288E+02 -0.25558651332E+03  0.76759716295E+03  0.81177971878E+03  0.46999998093E+01 0. -1.
</event>
<event>
 5   0  0.3794375E-03  0.5991389E+03  0.7818609E-02  0.9907194E-01
       -3   -1    0    0    0  501  0.00000000000E+00  0.00000000000E+00  0.73627657338E+02  0.73627726612E+02  0.10100000352E+00 0.  1.
        3   -1    0    0  501    0  0.00000000000E+00  0.00000000000E+00 -0.12188600540E+04  0.12188600582E+04  0.10100000352E+00 0. -1.
    10030    2    1    2    0    0  0.00000000000E+00  0.00000000000E+00 -0.11452323967E+04  0.12924877848E+04  0.59913890835E+03 0.  0.
        2    1    3    3  502    0  0.22160510026E+03  0.75490864184E+02 -0.16941286069E+03  0.28897821442E+03  0.25500000920E-02 0.  1.
       -2    1    3    3    0  502 -0.22160510026E+03 -0.75490864184E+02 -0.97581953601E+03  0.10035095704E+04  0.25500000920E-02 0. -1.
</event>
<event>
 5   0  0.3794375E-03  0.5997139E+03  0.7818609E-02  0.9906000E-01
        3   -1    0    0  501    0  0.00000000000E+00  0.00000000000E+00  0.26531297309E+03  0.26531299231E+03  0.10100000352E+00 0. -1.
       -3   -1    0    0    0  501  0.00000000000E+00  0.00000000000E+00 -0.33889852980E+03  0.33889854485E+03  0.10100000352E+00 0.  1.
    10030    2    1    2    0    0  0.00000000000E+00  0.00000000000E+00 -0.73585556716E+02  0.60421153717E+03  0.59971388802E+03 0.  0.
        5    1    3    3  502    0 -0.21461538199E+03  0.12241195553E+03  0.13432696147E+03  0.28126548245E+03  0.46999998093E+01 0. -1.
       -5    1    3    3    0  502  0.21461538199E+03 -0.12241195553E+03 -0.20791251819E+03  0.32294605472E+03  0.46999998093E+01 0.  1.
</event>
<event>
 5   0  0.9571790E-03  0.6006713E+03  0.7818609E-02  0.9904014E-01
       -2   -1    0    0    0  501  0.00000000000E+00  0.00000000000E+00  0.87059859288E+02  0.87059859325E+02  0.25500000920E-02 0.  1.
        2   -1    0    0  501    0  0.00000000000E+00  0.00000000000E+00 -0.10360861676E+04  0.10360861676E+04  0.25500000920E-02 0. -1.
    10030    2    1    2    0    0  0.00000000000E+00  0.00000000000E+00 -0.94902630835E+03  0.11231460270E+04  0.60067134437E+03 0.  0.
        5    1    3    3  502    0  0.21427236508E+03 -0.20846922387E+03 -0.42138392303E+03  0.51668033089E+03  0.46999998093E+01 0.  1.
       -5    1    3    3    0  502 -0.21427236508E+03  0.20846922387E+03 -0.52764238532E+03  0.60646569608E+03  0.46999998093E+01 0. -1.
</event>
<event>
 5   0  0.5785798E-03  0.6003451E+03  0.7818609E-02  0.9904690E-01
       -1   -1    0    0    0  501  0.00000000000E+00  0.00000000000E+00  0.13014321375E+03  0.13014321385E+03  0.50400001928E-02 0.  1.
        1   -1    0    0  501    0  0.00000000000E+00  0.00000000000E+00 -0.69234161059E+03  0.69234161061E+03  0.50400001928E-02 0. -1.
    10030    2    1    2    0    0  0.00000000000E+00  0.00000000000E+00 -0.56219839684E+03  0.82248482446E+03  0.60034510829E+03 0.  0.
        1    1    3    3  502    0  0.10770093414E+03 -0.14183249577E+01  0.10275601395E+03  0.14886336450E+03  0.50400001928E-02 0.  1.
       -1    1    3    3    0  502 -0.10770093414E+03  0.14183249577E+01 -0.66495441079E+03  0.67362145996E+03  0.50400001928E-02 0. -1.
</event>
<event>
 5   0  0.5574736E-03  0.6005354E+03  0.7818609E-02  0.9904296E-01
       -1   -1    0    0    0  501  0.00000000000E+00  0.00000000000E+00  0.16510904733E+03  0.16510904741E+03  0.50400001928E-02 0.  1.
        1   -1    0    0  501    0  0.00000000000E+00  0.00000000000E+00 -0.54606757601E+03  0.54606757603E+03  0.50400001928E-02 0. -1.
    10030    2    1    2    0    0  0.00000000000E+00  0.00000000000E+00 -0.38095852868E+03  0.71117662344E+03  0.60053541873E+03 0.  0.
        5    1    3    3  502    0  0.83184497661E+01  0.15749291476E+03 -0.49301753722E+03  0.51765007178E+03  0.46999998093E+01 0. -1.
       -5    1    3    3    0  502 -0.83184497661E+01 -0.15749291476E+03  0.11205900854E+03  0.19352655166E+03  0.46999998093E+01 0.  1.
</event>
<event>
 5   0  0.5491236E-03  0.6034942E+03  0.7818609E-02  0.9898183E-01
        1   -1    0    0  501    0  0.00000000000E+00  0.00000000000E+00  0.18597192063E+04  0.18597192063E+04  0.50400001928E-02 0.  1.
       -1   -1    0    0    0  501  0.00000000000E+00  0.00000000000E+00 -0.48959710329E+02  0.48959710589E+02  0.50400001928E-02 0. -1.
    10030    2    1    2    0    0  0.00000000000E+00  0.00000000000E+00  0.18107594960E+04  0.19086789169E+04  0.60349420508E+03 0.  0.
        3    1    3    3  502    0  0.27149616225E+03 -0.74964355441E+02  0.12477933852E+04  0.12791865240E+04  0.10100000352E+00 0. -1.
       -3    1    3    3    0  502 -0.27149616225E+03  0.74964355441E+02  0.56296611077E+03  0.62949239295E+03  0.10100000352E+00 0.  1.
</event>
<event>
 5   0  0.9681801E-03  0.5987179E+03  0.7818609E-02  0.9908070E-01
        2   -1    0    0  501    0  0.00000000000E+00  0.00000000000E+00  0.20765629173E+03  0.20765629174E+03  0.25500000920E-02 0.  1.
       -2   -1    0    0    0  501  0.00000000000E+00  0.00000000000E+00 -0.43155818043E+03  0.43155818044E+03  0.25500000920E-02 0. -1.
    10030    2    1    2    0    0  0.00000000000E+00  0.00000000000E+00 -0.22390188870E+03  0.63921447218E+03  0.59871786818E+03 0.  0.
        4    1    3    3  502    0 -0.26689198876E+03  0.12196838879E+03 -0.48729619579E+02  0.29746228375E+03  0.12699999809E+01 0.  1.
       -4    1    3    3    0  502  0.26689198876E+03 -0.12196838879E+03 -0.17517226913E+03  0.34175218843E+03  0.12699999809E+01 0. -1.
</event>
<event>
 5   0  0.5653633E-03  0.5995526E+03  0.7818609E-02  0.9906335E-01
       -1   -1    0    0    0  501  0.00000000000E+00  0.00000000000E+00  0.76488808488E+03  0.76488808490E+03  0.50400001928E-02 0.  1.
        1   -1    0    0  501    0  0.00000000000E+00  0.00000000000E+00 -0.11748886195E+03  0.11748886205E+03  0.50400001928E-02 0. -1.
    10030    2    1    2    0    0  0.00000000000E+00  0.00000000000E+00  0.64739922294E+03  0.88237694695E+03  0.59955260207E+03 0.  0.
        2    1    3    3  502    0  0.18204901534E+03  0.11079959765E+03  0.63397706379E+03  0.66883877896E+03  0.25500000920E-02 0.  1.
       -2    1    3    3    0  502 -0.18204901534E+03 -0.11079959765E+03  0.13422159144E+02  0.21353816799E+03  0.25500000920E-02 0. -1.
</event>
<event>
 5   0  0.5574736E-03  0.6005509E+03  0.7818609E-02  0.9904264E-01
       -1   -1    0    0    0  501  0.00000000000E+00  0.00000000000E+00  0.14534152871E+03  0.14534152880E+03  0.50400001928E-02 0. -1.
        1   -1    0    0  501    0  0.00000000000E+00  0.00000000000E+00 -0.62036872520E+03  0.62036872523E+03  0.50400001928E-02 0.  1.
    10030    2    1    2    0    0  0.00000000000E+00  0.00000000000E+00 -0.47502719649E+03  0.76571025402E+03  0.60055087687E+03 0.  0.
        5    1    3    3  502    0  0.41560316600E+02  0.29355611337E+03 -0.17715822430E+03  0.34541218573E+03  0.46999998093E+01 0. -1.
       -5    1    3    3    0  502 -0.41560316600E+02 -0.29355611337E+03 -0.29786897219E+03  0.42029806829E+03  0.46999998093E+01 0.  1.
</event>
<event>
 5   0  0.9866317E-03  0.6015190E+03  0.7818609E-02  0.9902260E-01
        2   -1    0    0  501    0  0.00000000000E+00  0.00000000000E+00  0.81367674232E+03  0.81367674232E+03  0.25500000920E-02 0. -1.
       -2   -1    0    0    0  501  0.00000000000E+00  0.00000000000E+00 -0.11116981224E+03  0.11116981227E+03  0.25500000920E-02 0.  1.
    10030    2    1    2    0    0  0.00000000000E+00  0.00000000000E+00  0.70250693008E+03  0.92484655459E+03  0.60151904603E+03 0.  0.
        1    1    3    3  502    0 -0.25188494360E+03  0.15045877692E+03  0.45292077905E+03  0.53964905308E+03  0.50400001928E-02 0.  1.
       -1    1    3    3    0  502  0.25188494360E+03 -0.15045877692E+03  0.24958615103E+03  0.38519750152E+03  0.50400001928E-02 0. -1.
</event>
<event>
 5   0  0.9681801E-03  0.5941229E+03  0.7818609E-02  0.9917675E-01
        2   -1    0    0  501    0  0.00000000000E+00  0.00000000000E+00  0.65635164817E+03  0.65635164818E+03  0.25500000920E-02 0.  1.
       -2   -1    0    0    0  501  0.00000000000E+00  0.00000000000E+00 -0.13444851351E+03  0.13444851354E+03  0.25500000920E-02 0. -1.
    10030    2    1    2    0    0  0.00000000000E+00  0.00000000000E+00  0.52190313466E+03  0.79080016171E+03  0.59412289452E+03 0.  0.
        4    1    3    3  502    0  0.35268923252E+02  0.19109081256E+03 -0.38115511654E+02  0.19802525274E+03  0.12699999809E+01 0. -1.
       -4    1    3    3    0  502 -0.35268923252E+02 -0.19109081256E+03  0.56001864631E+03  0.59277490898E+03  0.12699999809E+01 0.  1.
</event>
<event>
 5   0  0.9681801E-03  0.6001958E+03  0.7818609E-02  0.9905000E-01
        2   -1    0    0  501    0  0.00000000000E+00  0.00000000000E+00  0.14353873568E+04  0.14353873568E+04  0.25500000920E-02 0. -1.
       -2   -1    0    0    0  501  0.00000000000E+00  0.00000000000E+00 -0.62741781619E+02  0.62741781671E+02  0.25500000920E-02 0.  1.
    10030    2    1    2    0    0  0.00000000000E+00  0.00000000000E+00  0.13726455752E+04  0.14981291385E+04  0.60019583511E+03 0.  0.
        4    1    3    3  502    0 -0.13334926245E+03 -0.22843576348E+03  0.33251264982E+03  0.42488963158E+03  0.12699999809E+01 0. -1.
       -4    1    3    3    0  502  0.13334926245E+03  0.22843576348E+03  0.10401329254E+04  0.10732395069E+04  0.12699999809E+01 0.  1.
</event>
<event>
 5   0  0.9530666E-03  0.5985613E+03  0.7818609E-02  0.9908395E-01
        2   -1    0    0  501    0  0.00000000000E+00  0.00000000000E+00  0.73418027279E+03  0.73418027280E+03  0.25500000920E-02 0.  1.
       -2   -1    0    0    0  501  0.00000000000E+00  0.00000000000E+00 -0.12199853825E+03  0.12199853828E+03  0.25500000920E-02 0. -1.
    10030    2    1    2    0    0  0.00000000000E+00  0.00000000000E+00  0.61218173454E+03  0.85617881108E+03  0.59856134225E+03 0.  0.
        2    1    3    3  502    0 -0.17345729506E+03 -0.27123957532E+02  0.65278312253E+03  0.67597999034E+03  0.25500000920E-02 0.  1.
       -2    1    3    3    0  502  0.17345729506E+03  0.27123957532E+02 -0.40601387986E+02  0.18019882074E+03  0.25500000920E-02 0. -1.
</event>
<event>
 5   0  0.9428629E-03  0.6002137E+03  0.7818609E-02  0.9904963E-01
        2   -1    0    0  501    0  0.00000000000E+00  0.00000000000E+00  0.33008316636E+03  0.33008316637E+03  0.25500000920E-02 0. -1.
       -2   -1    0    0    0  501  0.00000000000E+00  0.00000000000E+00 -0.27285284698E+03  0.27285284700E+03  0.25500000920E-02 0.  1.
    10030    2    1    2    0    0  0.00000000000E+00  0.00000000000E+00  0.57230319373E+02  0.60293601336E+03  0.60021373423E+03 0.  0.
        3    1    3    3  502    0  0.21863141020E+03  0.19282417725E+03  0.10023554543E+03  0.30826617010E+03  0.10100000352E+00 0. -1.
       -3    1    3    3    0  502 -0.21863141020E+03 -0.19282417725E+03 -0.43005226061E+02  0.29466984326E+03  0.10100000352E+00 0.  1.
</event>
<event>
 5   0  0.5491236E-03  0.5996184E+03  0.7818609E-02  0.9906198E-01
        1   -1    0    0  501    0  0.00000000000E+00  0.00000000000E+00  0.28652328006E+04  0.28652328006E+04  0.50400001928E-02 0. -1.
       -1   -1    0    0    0  501  0.00000000000E+00  0.00000000000E+00 -0.31371113356E+02  0.31371113761E+02  0.50400001928E-02 0.  1.
    10030    2    1    2    0    0  0.00000000000E+00  0.00000000000E+00  0.28338616873E+04  0.28966039144E+04  0.59961835720E+03 0.  0.
        3    1    3    3  502    0  0.19559518469E+03  0.16965605193E+02  0.32236200938E+03  0.37744215891E+03  0.10100000352E+00 0.  1.
       -3    1    3    3    0  502 -0.19559518469E+03 -0.16965605193E+02  0.25114996779E+04  0.25191617555E+04  0.10100000352E+00 0. -1.
</event>
<event>
 5   0  0.5503975E-03  0.6020824E+03  0.7818609E-02  0.9901095E-01
        1   -1    0    0  501    0  0.00000000000E+00  0.00000000000E+00  0.22493246911E+03  0.22493246916E+03  0.50400001928E-02 0. -1.
       -1   -1    0    0    0  501  0.00000000000E+00  0.00000000000E+00 -0.40290232093E+03  0.40290232096E+03  0.50400001928E-02 0.  1.
    10030    2    1    2    0    0  0.00000000000E+00  0.00000000000E+00 -0.17796985183E+03  0.62783479013E+03  0.60208243251E+03 0.  0.
        4    1    3    3  502    0 -0.11151407213E+03 -0.21121420428E+03 -0.28006384550E+03  0.36808178280E+03  0.12699999809E+01 0.  1.
       -4    1    3    3    0  502  0.11151407213E+03  0.21121420428E+03  0.10209399367E+03  0.25975300733E+03  0.12699999809E+01 0. -1.
</event>
<event>
 5   0  0.9428629E-03  0.6003697E+03  0.7818609E-02  0.9904639E-01
       -2   -1    0    0    0  501  0.00000000000E+00  0.00000000000E+00  0.22070908948E+03  0.22070908950E+03  0.25500000920E-02 0. -1.
        2   -1    0    0  501    0  0.00000000000E+00  0.00000000000E+00 -0.40827930329E+03  0.40827930330E+03  0.25500000920E-02 0.  1.
    10030    2    1    2    0    0  0.00000000000E+00  0.00000000000E+00 -0.18757021381E+03  0.62898839280E+03  0.60036973039E+03 0.  0.
        3    1    3    3  502    0 -0.95545621767E+02 -0.12388286291E+03 -0.36219074416E+03  0.39453526448E+03  0.10100000352E+00 0.  1.
       -3    1    3    3    0  502  0.95545621767E+02  0.12388286291E+03  0.17462053034E+03  0.23445312832E+03  0.10100000352E+00 0. -1.
</event>
<event>
 5   0  0.9530666E-03  0.5981600E+03  0.7818609E-02  0.9909231E-01
       -2   -1    0    0    0  501  0.00000000000E+00  0.00000000000E+00  0.28579256096E+03  0.28579256097E+03  0.25500000920E-02 0. -1.
        2   -1    0    0  501    0  0.00000000000E+00  0.00000000000E+00 -0.31298519470E+03  0.31298519471E+03  0.25500000920E-02 0.  1.
    10030    2    1    2    0    0  0.00000000000E+00  0.00000000000E+00 -0.27192633739E+02  0.59877775567E+03  0.59815997974E+03 0.  0.
        2    1    3    3  502    0  0.13550116155E+03  0.14164805207E+03  0.21252213458E+03  0.28912003239E+03  0.25500000920E-02 0. -1.
       -2    1    3    3    0  502 -0.13550116155E+03 -0.14164805207E+03 -0.23971476832E+03  0.30965772329E+03  0.25500000920E-02 0.  1.
</event>
<event>
 5   0  0.5785798E-03  0.6001747E+03  0.7818609E-02  0.9905044E-01
        1   -1    0    0  501    0  0.00000000000E+00  0.00000000000E+00  0.27742406282E+03  0.27742406287E+03  0.50400001928E-02 0.  1.
       -1   -1    0    0    0  501  0.00000000000E+00  0.00000000000E+00 -0.32460201934E+03  0.32460201938E+03  0.50400001928E-02 0. -1.
    10030    2    1    2    0    0  0.00000000000E+00  0.00000000000E+00 -0.47177956519E+02  0.60202608225E+03  0.60017467802E+03 0.  0.
        1    1    3    3  502    0 -0.23641720095E+03  0.10727492878E+03 -0.17455709518E+03  0.31284370339E+03  0.50400001928E-02 0. -1.
       -1    1    3    3    0  502  0.23641720095E+03 -0.10727492878E+03  0.12737913866E+03  0.28918237886E+03  0.50400001928E-02 0.  1.
</event>
<event>
 5   0  0.9866317E-03  0.6002687E+03  0.7818609E-02  0.9904849E-01
        2   -1    0    0  501    0  0.00000000000E+00  0.00000000000E+00  0.54631785793E+03  0.54631785794E+03  0.25500000920E-02 0.  1.
       -2   -1    0    0    0  501  0.00000000000E+00  0.00000000000E+00 -0.16488685506E+03  0.16488685508E+03  0.25500000920E-02 0. -1.
    10030    2    1    2    0    0  0.00000000000E+00  0.00000000000E+00  0.38143100287E+03  0.71120471302E+03  0.60026871805E+03 0.  0.
        1    1    3    3  502    0  0.10015529080E+03  0.25605369595E+03  0.48114034280E+02  0.27912280058E+03  0.50400001928E-02 0. -1.
       -1    1    3    3    0  502 -0.10015529080E+03 -0.25605369595E+03  0.33331696859E+03  0.43208191244E+03  0.50400001928E-02 0.  1.
</event>
<event>
 5   0  0.5653633E-03  0.5995621E+03  0.7818609E-02  0.9906315E-01
        1   -1    0    0  501    0  0.00000000000E+00  0.00000000000E+00  0.72314871027E+03  0.72314871029E+03  0.50400001928E-02 0. -1.
       -1   -1    0    0    0  501  0.00000000000E+00  0.00000000000E+00 -0.12427411586E+03  0.12427411596E+03  0.50400001928E-02 0.  1.
    10030    2    1    2    0    0  0.00000000000E+00  0.00000000000E+00  0.59887459441E+03  0.84742282625E+03  0.59956206236E+03 0.  0.
        2    1    3    3  502    0  0.13533162393E+03  0.11604512553E+03 -0.41212027116E+02  0.18297418064E+03  0.25500000920E-02 0.  1.
       -2    1    3    3    0  502 -0.13533162393E+03 -0.11604512553E+03  0.64008662152E+03  0.66444864561E+03  0.25500000920E-02 0. -1.
</event>
<event>
 5   0  0.9571790E-03  0.6009427E+03  0.7818609E-02  0.9903452E-01
        2   -1    0    0  501    0  0.00000000000E+00  0.00000000000E+00  0.43409496682E+03  0.43409496682E+03  0.25500000920E-02 0. -1.
       -2   -1    0    0    0  501  0.00000000000E+00  0.00000000000E+00 -0.20797987848E+03  0.20797987849E+03  0.25500000920E-02 0.  1.
    10030    2    1    2    0    0  0.00000000000E+00  0.00000000000E+00  0.22611508834E+03  0.64207484532E+03  0.60094265435E+03 0.  0.
        5    1    3    3  502    0 -0.21140414869E+03 -0.59757949223E+02  0.33201915192E+03  0.39814762818E+03  0.46999998093E+01 0. -1.
       -5    1    3    3    0  502  0.21140414869E+03  0.59757949223E+02 -0.10590406359E+03  0.24392721714E+03  0.46999998093E+01 0.  1.
</event>
<event>
 5   0  0.5653633E-03  0.6148573E+03  0.7818609E-02  0.9875052E-01
        1   -1    0    0  501    0  0.00000000000E+00  0.00000000000E+00  0.17671160196E+03  0.17671160204E+03  0.50400001928E-02 0.  1.
       -1   -1    0    0    0  501  0.00000000000E+00  0.00000000000E+00 -0.53483974342E+03  0.53483974345E+03  0.50400001928E-02 0. -1.
    10030    2    1    2    0    0  0.00000000000E+00  0.00000000000E+00 -0.35812814146E+03  0.71155134548E+03  0.61485734244E+03 0.  0.
        2    1    3    3  502    0 -0.56577502049E+02 -0.19868778377E+03 -0.44254033653E+03  0.48838488779E+03  0.25500000920E-02 0. -1.
       -2    1    3    3    0  502  0.56577502049E+02  0.19868778377E+03  0.84412195068E+02  0.22316645770E+03  0.25500000920E-02 0.  1.
</event>
<event>
 5   0  0.5785798E-03  0.5990608E+03  0.7818609E-02  0.9907357E-01
       -1   -1    0    0    0  501  0.00000000000E+00  0.00000000000E+00  0.10681812489E+03  0.10681812500E+03  0.50400001928E-02 0.  1.
        1   -1    0    0  501    0  0.00000000000E+00  0.00000000000E+00 -0.83991788928E+03  0.83991788929E+03  0.50400001928E-02 0. -1.
    10030    2    1    2    0    0  0.00000000000E+00  0.00000000000E+00 -0.73309976439E+03  0.94673601430E+03  0.59906077840E+03 0.  0.
        1    1    3    3  502    0 -0.20384318706E+03  0.62587155855E+02 -0.69898814433E+03  0.73078972552E+03  0.50400001928E-02 0. -1.
       -1    1    3    3    0  502  0.20384318706E+03 -0.62587155855E+02 -0.34111620065E+02  0.21594628878E+03  0.50400001928E-02 0.  1.
</event>
<event>
 5   0  0.5574736E-03  0.6007536E+03  0.7818609E-02  0.9903844E-01
       -1   -1    0    0    0  501  0.00000000000E+00  0.00000000000E+00  0.77232217362E+03  0.77232217364E+03  0.50400001928E-02 0. -1.
        1   -1    0    0  501    0  0.00000000000E+00  0.00000000000E+00 -0.11682457551E+03  0.11682457562E+03  0.50400001928E-02 0.  1.
    10030    2    1    2    0    0  0.00000000000E+00  0.00000000000E+00  0.65549759811E+03  0.88914674925E+03  0.60075356060E+03 0.  0.
        5    1    3    3  502    0 -0.16660632576E+03 -0.15611036301E+03  0.61655252380E+03  0.65748552671E+03  0.46999998093E+01 0. -1.
       -5    1    3    3    0  502  0.16660632576E+03  0.15611036301E+03  0.38945074309E+02  0.23166122255E+03  0.46999998093E+01 0.  1.
</event>
<event>
 5   0  0.9866317E-03  0.5996759E+03  0.7818609E-02  0.9906079E-01
        2   -1    0    0  501    0  0.00000000000E+00  0.00000000000E+00  0.10626206827E+04  0.10626206827E+04  0.25500000920E-02 0.  1.
       -2   -1    0    0    0  501  0.00000000000E+00  0.00000000000E+00 -0.84604786587E+02  0.84604786626E+02  0.25500000920E-02 0. -1.
    10030    2    1    2    0    0  0.00000000000E+00  0.00000000000E+00  0.97801589614E+03  0.11472254694E+04  0.59967589950E+03 0.  0.
        1    1    3    3  502    0 -0.23407830504E+03 -0.10949487058E+02  0.13115407695E+03  0.26854038073E+03  0.50400001928E-02 0. -1.
       -1    1    3    3    0  502  0.23407830504E+03  0.10949487058E+02  0.84686181919E+03  0.87868508863E+03  0.50400001928E-02 0.  1.
</event>
<event>
 5   0  0.5491236E-03  0.6008272E+03  0.7818609E-02  0.9903691E-01
       -1   -1    0    0    0  501  0.00000000000E+00  0.00000000000E+00  0.81474852796E+03  0.81474852798E+03  0.50400001928E-02 0.  1.
        1   -1    0    0  501    0  0.00000000000E+00  0.00000000000E+00 -0.11076832033E+03  0.11076832044E+03  0.50400001928E-02 0. -1.
    10030    2    1    2    0    0  0.00000000000E+00  0.00000000000E+00  0.70398020764E+03  0.92551684842E+03  0.60082718311E+03 0.  0.
        3    1    3    3  502    0 -0.85345363268E+02  0.10717798533E+03  0.76382109077E+03  0.77601135332E+03  0.10100000352E+00 0.  1.
       -3    1    3    3    0  502  0.85345363268E+02 -0.10717798533E+03 -0.59840883130E+02  0.14950549510E+03  0.10100000352E+00 0. -1.
</event>
<event>
 5   0  0.9530666E-03  0.5990238E+03  0.7818609E-02  0.9907433E-01
        2   -1    0    0  501    0  0.00000000000E+00  0.00000000000E+00  0.70742630831E+03  0.70742630832E+03  0.25500000920E-02 0. -1.
       -2   -1    0    0    0  501  0.00000000000E+00  0.00000000000E+00 -0.12680809147E+03  0.12680809149E+03  0.25500000920E-02 0.  1.
    10030    2    1    2    0    0  0.00000000000E+00  0.00000000000E+00  0.58061821684E+03  0.83423439981E+03  0.59902380595E+03 0.  0.
        2    1    3    3  502    0 -0.60825957633E+02  0.23171619026E+03  0.54065897788E+03  0.59135803057E+03  0.25500000920E-02 0. -1.
       -2    1    3    3    0  502  0.60825957633E+02 -0.23171619026E+03  0.39959238965E+02  0.24287636924E+03  0.25500000920E-02 0.  1.
</event>
<event>
 5   0  0.5503975E-03  0.5990003E+03  0.7818609E-02  0.9907482E-01
        1   -1    0    0  501    0  0.00000000000E+00  0.00000000000E+00  0.81670964556E+03  0.81670964558E+03  0.50400001928E-02 0. -1.
       -1   -1    0    0    0  501  0.00000000000E+00  0.00000000000E+00 -0.10983136444E+03  0.10983136456E+03  0.50400001928E-02 0.  1.
    10030    2    1    2    0    0  0.00000000000E+00  0.00000000000E+00  0.70687828112E+03  0.92654101013E+03  0.59900028309E+03 0.  0.
        4    1    3    3  502    0  0.42197955378E+02  0.67362539873E+02  0.80009131930E+03  0.80403116317E+03  0.12699999809E+01 0. -1.
       -4    1    3    3    0  502 -0.42197955378E+02 -0.67362539873E+02 -0.93213038186E+02  0.12250984697E+03  0.12699999809E+01 0.  1.
</event>
<event>
 5   0  0.5574736E-03  0.5998255E+03  0.7818609E-02  0.9905768E-01
        1   -1    0    0  501    0  0.00000000000E+00  0.00000000000E+00  0.79355173362E+03  0.79355173363E+03  0.50400001928E-02 0.  1.
       -1   -1    0    0    0  501  0.00000000000E+00  0.00000000000E+00 -0.11334819389E+03  0.11334819401E+03  0.50400001928E-02 0. -1.
    10030    2    1    2    0    0  0.00000000000E+00  0.00000000000E+00  0.68020353972E+03  0.90689992764E+03  0.59982549404E+03 0.  0.
        5    1    3    3  502    0 -0.14209786968E+03 -0.25012095176E+03  0.21204779657E+03  0.35740544639E+03  0.46999998093E+01 0.  1.
       -5    1    3    3    0  502  0.14209786968E+03  0.25012095176E+03  0.46815574315E+03  0.54949448125E+03  0.46999998093E+01 0. -1.
</event>
<event>
 5   0  0.9571790E-03  0.5996935E+03  0.7818609E-02  0.9906042E-01
        2   -1    0    0  501    0  0.00000000000E+00  0.00000000000E+00  0.18811289978E+03  0.18811289980E+03  0.25500000920E-02 0.  1.
       -2   -1    0    0    0  501  0.00000000000E+00  0.00000000000E+00 -0.47794742158E+03  0.47794742159E+03  0.25500000920E-02 0. -1.
    10030    2    1    2    0    0  0.00000000000E+00  0.00000000000E+00 -0.28983452180E+03  0.66606032138E+03  0.59969350646E+03 0.  0.
        5    1    3    3  502    0 -0.17458432267E+03  0.13180266594E+03 -0.37262952440E+03  0.43211859590E+03  0.46999998093E+01 0.  1.
       -5    1    3    3    0  502  0.17458432267E+03 -0.13180266594E+03  0.82795002596E+02  0.23394172549E+03  0.46999998093E+01 0. -1.
</event>
<event>
 5   0  0.5574736E-03  0.5995094E+03  0.7818609E-02  0.9906424E-01
       -1   -1    0    0    0  501  0.00000000000E+00  0.00000000000E+00  0.38940817516E+03  0.38940817519E+03  0.50400001928E-02 0. -1.
        1   -1    0    0  501    0  0.00000000000E+00  0.00000000000E+00 -0.23074214680E+03  0.23074214685E+03  0.50400001928E-02 0.  1.
    10030    2    1    2    0    0  0.00000000000E+00  0.00000000000E+00  0.15866602836E+03  0.62015032205E+03  0.59950939390E+03 0.  0.
        5    1    3    3  502    0 -0.14383687883E+03 -0.25371490687E+03  0.78862895535E+01  0.29179545103E+03  0.46999998093E+01 0.  1.
       -5    1    3    3    0  502  0.14383687883E+03  0.25371490687E+03  0.15077973881E+03  0.32835487101E+03  0.46999998093E+01 0. -1.
</event>
<event>
 5   0  0.3794375E-03  0.5997561E+03  0.7818609E-02  0.9905912E-01
        4   -1    0    0  501    0  0.00000000000E+00  0.00000000000E+00  0.10595601585E+03  0.10596362675E+03  0.12699999809E+01 0.  1.
       -4   -1    0    0    0  501  0.00000000000E+00  0.00000000000E+00 -0.84868010531E+03  0.84868105555E+03  0.12699999809E+01 0. -1.
    10030    2    1    2    0    0  0.00000000000E+00  0.00000000000E+00 -0.74272408946E+03  0.95464468230E+03  0.59975611408E+03 0.  0.
        5    1    3    3  502    0 -0.20000733555E+02 -0.14760246664E+03 -0.78557140612E+03  0.79958179169E+03  0.46999998093E+01 0. -1.
       -5    1    3    3    0  502  0.20000733555E+02  0.14760246664E+03  0.42847316650E+02  0.15506289061E+03  0.46999998093E+01 0.  1.
</event>
<event>
 5   0  0.9866317E-03  0.6022928E+03  0.7818609E-02  0.9900661E-01
        2   -1    0    0  501    0  0.00000000000E+00  0.00000000000E+00  0.57031969240E+03  0.57031969241E+03  0.25500000920E-02 0.  1.
       -2   -1    0    0    0  501  0.00000000000E+00  0.00000000000E+00 -0.15901461808E+03  0.15901461810E+03  0.25500000920E-02 0. -1.
    10030    2    1    2    0    0  0.00000000000E+00  0.00000000000E+00  0.41130507432E+03  0.72933431051E+03  0.60229284598E+03 0.  0.
        1    1    3    3  502    0 -0.10391534636E+03  0.77289982498E+02  0.53487630954E+03  0.55033154292E+03  0.50400001928E-02 0.  1.
       -1    1    3    3    0  502  0.10391534636E+03 -0.77289982498E+02 -0.12357123522E+03  0.17900276758E+03  0.50400001928E-02 0. -1.
</event>
<event>
 5   0  0.5503975E-03  0.6011305E+03  0.7818609E-02  0.9903063E-01
       -1   -1    0    0    0  501  0.00000000000E+00  0.00000000000E+00  0.37326378255E+03  0.37326378258E+03  0.50400001928E-02 0. -1.
        1   -1    0    0  501    0  0.00000000000E+00  0.00000000000E+00 -0.24202583323E+03  0.24202583329E+03  0.50400001928E-02 0.  1.
    10030    2    1    2    0    0  0.00000000000E+00  0.00000000000E+00  0.13123794931E+03  0.61528961587E+03  0.60113052830E+03 0.  0.
        4    1    3    3  502    0  0.65258300565E+01  0.16098552701E+03  0.32532540816E+03  0.36303878644E+03  0.12699999809E+01 0. -1.
       -4    1    3    3    0  502 -0.65258300565E+01 -0.16098552701E+03 -0.19408745885E+03  0.25225082943E+03  0.12699999809E+01 0.  1.
</event>
<event>
 5   0  0.9866317E-03  0.5995543E+03  0.7818609E-02  0.9906331E-01
        2   -1    0    0  501    0  0.00000000000E+00  0.00000000000E+00  0.12221335676E+04  0.12221335676E+04  0.25500000920E-02 0. -1.
       -2   -1    0    0    0  501  0.00000000000E+00  0.00000000000E+00 -0.73532345589E+02  0.73532345633E+02  0.25500000920E-02 0.  1.
    10030    2    1    2    0    0  0.00000000000E+00  0.00000000000E+00  0.11486012220E+04  0.12956659132E+04  0.59955432740E+03 0.  0.
        1    1    3    3  502    0  0.31926110038E+02  0.29107651838E+03  0.43556312556E+03  0.52484288356E+03  0.50400001928E-02 0. -1.
       -1    1    3    3    0  502 -0.31926110038E+02 -0.29107651838E+03  0.71303809642E+03  0.77082302964E+03  0.50400001928E-02 0.  1.
</event>
<event>
 5   0  0.9866317E-03  0.5988841E+03  0.7818609E-02  0.9907724E-01
        2   -1    0    0  501    0  0.00000000000E+00  0.00000000000E+00  0.13099182421E+03  0.13099182423E+03  0.25500000920E-02 0.  1.
       -2   -1    0    0    0  501  0.00000000000E+00  0.00000000000E+00 -0.68451255356E+03  0.68451255357E+03  0.25500000920E-02 0. -1.
    10030    2    1    2    0    0  0.00000000000E+00  0.00000000000E+00 -0.55352072935E+03  0.81550437780E+03  0.59888412267E+03 0.  0.
        1    1    3    3  502    0 -0.28398229833E+03 -0.10040861433E+02 -0.14816174533E+03  0.32046632813E+03  0.50400001928E-02 0.  1.
       -1    1    3    3    0  502  0.28398229833E+03  0.10040861433E+02 -0.40535898402E+03  0.49503804967E+03  0.50400001928E-02 0. -1.
</event>
<event>
 5   0  0.5503975E-03  0.5983373E+03  0.7818609E-02  0.9908862E-01
       -1   -1    0    0    0  501  0.00000000000E+00  0.00000000000E+00  0.96400087676E+03  0.96400087677E+03  0.50400001928E-02 0. -1.
        1   -1    0    0  501    0  0.00000000000E+00  0.00000000000E+00 -0.92844178016E+02  0.92844178152E+02  0.50400001928E-02 0.  1.
    10030    2    1    2    0    0  0.00000000000E+00  0.00000000000E+00  0.87115669874E+03  0.10568450549E+04  0.59833725971E+03 0.  0.
        4    1    3    3  502    0  0.89187206705E+02  0.13306453840E+03  0.88186179964E+03  0.89629368836E+03  0.12699999809E+01 0. -1.
       -4    1    3    3    0  502 -0.89187206705E+02 -0.13306453840E+03 -0.10705100904E+02  0.16055136656E+03  0.12699999809E+01 0.  1.
</event>
<event>
 5   0  0.5491236E-03  0.5996906E+03  0.7818609E-02  0.9906048E-01
       -1   -1    0    0    0  501  0.00000000000E+00  0.00000000000E+00  0.43679086333E+03  0.43679086336E+03  0.50400001928E-02 0.  1.
        1   -1    0    0  501    0  0.00000000000E+00  0.00000000000E+00 -0.20583584856E+03  0.20583584862E+03  0.50400001928E-02 0. -1.
    10030    2    1    2    0    0  0.00000000000E+00  0.00000000000E+00  0.23095501477E+03  0.64262671198E+03  0.59969064701E+03 0.  0.
        3    1    3    3  502    0  0.22002408167E+02 -0.18339966929E+03 -0.13762741034E+03  0.23034942791E+03  0.10100000352E+00 0. -1.
       -3    1    3    3    0  502 -0.22002408167E+02  0.18339966929E+03  0.36858242511E+03  0.41227728407E+03  0.10100000352E+00 0.  1.
</event>
<event>
 5   0  0.3794375E-03  0.5997286E+03  0.7818609E-02  0.9905969E-01
        3   -1    0    0  501    0  0.00000000000E+00  0.00000000000E+00  0.12148517872E+03  0.12148522071E+03  0.10100000352E+00 0. -1.
       -3   -1    0    0    0  501  0.00000000000E+00  0.00000000000E+00 -0.74016084298E+03  0.74016084987E+03  0.10100000352E+00 0.  1.
    10030    2    1    2    0    0  0.00000000000E+00  0.00000000000E+00 -0.61867566426E+03  0.86164607058E+03  0.59972858311E+03 0.  0.
        4    1    3    3  502    0 -0.10199500335E+03  0.24520780906E+03 -0.50938431791E+03  0.57445961265E+03  0.12699999809E+01 0.  1.
       -4    1    3    3    0  502  0.10199500335E+03 -0.24520780906E+03 -0.10929134634E+03  0.28718645793E+03  0.12699999809E+01 0. -1.
</event>
<event>
 5   0  0.9681801E-03  0.5864386E+03  0.7818609E-02  0.9933948E-01
        2   -1    0    0  501    0  0.00000000000E+00  0.00000000000E+00  0.40940997172E+03  0.40940997173E+03  0.25500000920E-02 0.  1.
       -2   -1    0    0    0  501  0.00000000000E+00  0.00000000000E+00 -0.21000354531E+03  0.21000354532E+03  0.25500000920E-02 0. -1.
    10030    2    1    2    0    0  0.00000000000E+00  0.00000000000E+00  0.19940642641E+03  0.61941351705E+03  0.58643855792E+03 0.  0.
        4    1    3    3  502    0 -0.59784080541E+02  0.27587982635E+03  0.15920082799E+02  0.28273464027E+03  0.12699999809E+01 0. -1.
       -4    1    3    3    0  502  0.59784080541E+02 -0.27587982635E+03  0.18348634361E+03  0.33667887678E+03  0.12699999809E+01 0.  1.
</event>
<event>
 5   0  0.5503975E-03  0.5991960E+03  0.7818609E-02  0.9907075E-01
       -1   -1    0    0    0  501  0.00000000000E+00  0.00000000000E+00  0.18409292385E+03  0.18409292392E+03  0.50400001928E-02 0. -1.
        1   -1    0    0  501    0  0.00000000000E+00  0.00000000000E+00 -0.48757423878E+03  0.48757423881E+03  0.50400001928E-02 0.  1.
    10030    2    1    2    0    0  0.00000000000E+00  0.00000000000E+00 -0.30348131494E+03  0.67166716273E+03  0.59919601882E+03 0.  0.
        4    1    3    3  502    0  0.69080183154E+01  0.29580870669E+03 -0.20439944847E+03  0.35962655506E+03  0.12699999809E+01 0. -1.
       -4    1    3    3    0  502 -0.69080183154E+01 -0.29580870669E+03 -0.99081866466E+02  0.31204060766E+03  0.12699999809E+01 0.  1.
</event>
<event>
 5   0  0.5785798E-03  0.6003156E+03  0.7818609E-02  0.9904752E-01
       -1   -1    0    0    0  501  0.00000000000E+00  0.00000000000E+00  0.10589010065E+03  0.10589010077E+03  0.50400001928E-02 0. -1.
        1   -1    0    0  501    0  0.00000000000E+00  0.00000000000E+00 -0.85083207133E+03  0.85083207135E+03  0.50400001928E-02 0.  1.
    10030    2    1    2    0    0  0.00000000000E+00  0.00000000000E+00 -0.74494197068E+03  0.95672217212E+03  0.60031556281E+03 0.  0.
        1    1    3    3  502    0  0.14944235404E+03  0.37404549734E+01  0.42343074470E+02  0.15537034519E+03  0.50400001928E-02 0. -1.
       -1    1    3    3    0  502 -0.14944235404E+03 -0.37404549734E+01 -0.78728504515E+03  0.80135182693E+03  0.50400001928E-02 0.  1.
</event>
<event>
 5   0  0.5574736E-03  0.5997058E+03  0.7818609E-02  0.9906017E-01
       -1   -1    0    0    0  501  0.00000000000E+00  0.00000000000E+00  0.47552766747E+02  0.47552767014E+02  0.50400001928E-02 0. -1.
        1   -1    0    0  501    0  0.00000000000E+00  0.00000000000E+00 -0.18907788223E+04  0.18907788223E+04  0.50400001928E-02 0.  1.
    10030    2    1    2    0    0  0.00000000000E+00  0.00000000000E+00 -0.18432260556E+04  0.19383315893E+04  0.59970580979E+03 0.  0.
        5    1    3    3  502    0  0.17014385407E+03  0.11784656785E+02 -0.12463147518E+03  0.21128867414E+03  0.46999998093E+01 0. -1.
       -5    1    3    3    0  502 -0.17014385407E+03 -0.11784656785E+02 -0.17185945804E+04  0.17270429152E+04  0.46999998093E+01 0.  1.
</event>
<event>
 5   0  0.9681801E-03  0.6010963E+03  0.7818609E-02  0.9903134E-01
        2   -1    0    0  501    0  0.00000000000E+00  0.00000000000E+00  0.11362201740E+04  0.11362201740E+04  0.25500000920E-02 0. -1.
       -2   -1    0    0    0  501  0.00000000000E+00  0.00000000000E+00 -0.79499713621E+02  0.79499713662E+02  0.25500000920E-02 0.  1.
    10030    2    1    2    0    0  0.00000000000E+00  0.00000000000E+00  0.10567204603E+04  0.12157198876E+04  0.60109626007E+03 0.  0.
        4    1    3    3  502    0 -0.15701397520E+03 -0.18347426665E+03  0.16649935409E+03  0.29332548942E+03  0.12699999809E+01 0.  1.
       -4    1    3    3    0  502  0.15701397520E+03  0.18347426665E+03  0.89022110625E+03  0.92239439821E+03  0.12699999809E+01 0. -1.
</event>
<event>
 5   0  0.9530666E-03  0.6002300E+03  0.7818609E-02  0.9904929E-01
        2   -1    0    0  501    0  0.00000000000E+00  0.00000000000E+00  0.37178604335E+03  0.37178604336E+03  0.25500000920E-02 0.  1.
       -2   -1    0    0    0  501  0.00000000000E+00  0.00000000000E+00 -0.24226036320E+03  0.24226036322E+03  0.25500000920E-02 0. -1.
    10030    2    1    2    0    0  0.00000000000E+00  0.00000000000E+00  0.12952568015E+03  0.61404640658E+03  0.60023002892E+03 0.  0.
        2    1    3    3  502    0 -0.47624570136E+02 -0.61184061905E+02  0.36136310611E+03  0.36958745052E+03  0.25500000920E-02 0.  1.
       -2    1    3    3    0  502  0.47624570136E+02  0.61184061905E+02 -0.23183742597E+03  0.24445895606E+03  0.25500000920E-02 0. -1.
</event>
<event>
 5   0  0.5574736E-03  0.6000319E+03  0.7818609E-02  0.9905340E-01
       -1   -1    0    0    0  501  0.00000000000E+00  0.00000000000E+00  0.63870452583E+02  0.63870452781E+02  0.50400001928E-02 0. -1.
        1   -1    0    0  501    0  0.00000000000E+00  0.00000000000E+00 -0.14092518877E+04  0.14092518877E+04  0.50400001928E-02 0.  1.
    10030    2    1    2    0    0  0.00000000000E+00  0.00000000000E+00 -0.13453814351E+04  0.14731223405E+04  0.60003185257E+03 0.  0.
        5    1    3    3  502    0  0.35109006749E+02 -0.78405538296E+02  0.32934307216E+02  0.92123989169E+02  0.46999998093E+01 0. -1.
       -5    1    3    3    0  502 -0.35109006749E+02  0.78405538296E+02 -0.13783157423E+04  0.13809983513E+04  0.46999998093E+01 0.  1.
</event>
<event>
 5   0  0.5785798E-03  0.5996426E+03  0.7818609E-02  0.9906148E-01
       -1   -1    0    0    0  501  0.00000000000E+00  0.00000000000E+00  0.17760314379E+03  0.17760314386E+03  0.50400001928E-02 0. -1.
        1   -1    0    0  501    0  0.00000000000E+00  0.00000000000E+00 -0.50614419355E+03  0.50614419357E+03  0.50400001928E-02 0.  1.
    10030    2    1    2    0    0  0.00000000000E+00  0.00000000000E+00 -0.32854104976E+03  0.68374733743E+03  0.59964256026E+03 0.  0.
        1    1    3    3  502    0 -0.28063248101E+03 -0.32734411586E+02 -0.49865239024E+02  0.28690185288E+03  0.50400001928E-02 0.  1.
       -1    1    3    3    0  502  0.28063248101E+03  0.32734411586E+02 -0.27867581073E+03  0.39684548455E+03  0.50400001928E-02 0. -1.
</event>
<event>
 5   0  0.9428629E-03  0.6002698E+03  0.7818609E-02  0.9904847E-01
        2   -1    0    0  501    0  0.00000000000E+00  0.00000000000E+00  0.18927033997E+04  0.18927033997E+04  0.25500000920E-02 0.  1.
       -2   -1    0    0    0  501  0.00000000000E+00  0.00000000000E+00 -0.47593799010E+02  0.47593799079E+02  0.25500000920E-02 0. -1.
    10030    2    1    2    0    0  0.00000000000E+00  0.00000000000E+00  0.18451096007E+04  0.19402971988E+04  0.60026975689E+03 0.  0.
        3    1    3    3  502    0 -0.15906617273E+03 -0.14252246754E+03  0.16041663930E+04  0.16183215155E+04  0.10100000352E+00 0.  1.
       -3    1    3    3    0  502  0.15906617273E+03  0.14252246754E+03  0.24094320769E+03  0.32197568323E+03  0.10100000352E+00 0. -1.
</event>
<event>
 5   0  0.9681801E-03  0.5992005E+03  0.7818609E-02  0.9907066E-01
        2   -1    0    0  501    0  0.00000000000E+00  0.00000000000E+00  0.33639691826E+03  0.33639691827E+03  0.25500000920E-02 0.  1.
       -2   -1    0    0    0  501  0.00000000000E+00  0.00000000000E+00 -0.26682855734E+03  0.26682855735E+03  0.25500000920E-02 0. -1.
    10030    2    1    2    0    0  0.00000000000E+00  0.00000000000E+00  0.69568360917E+02  0.60322547562E+03  0.59920048197E+03 0.  0.
        4    1    3    3  502    0  0.22411954688E+03 -0.30052107863E+01  0.23491615351E+03  0.32469341642E+03  0.12699999809E+01 0.  1.
       -4    1    3    3    0  502 -0.22411954688E+03  0.30052107863E+01 -0.16534779259E+03  0.27853205920E+03  0.12699999809E+01 0. -1.
</event>
<event>
 5   0  0.9681801E-03  0.5994376E+03  0.7818609E-02  0.9906574E-01
       -2   -1    0    0    0  501  0.00000000000E+00  0.00000000000E+00  0.29535568458E+03  0.29535568459E+03  0.25500000920E-02 0. -1.
        2   -1    0    0  501    0  0.00000000000E+00  0.00000000000E+00 -0.30414633066E+03  0.30414633067E+03  0.25500000920E-02 0.  1.
    10030    2    1    2    0    0  0.00000000000E+00  0.00000000000E+00 -0.87906460786E+01  0.59950201527E+03  0.59943756210E+03 0.  0.
        4    1    3    3  502    0 -0.15487211953E+03  0.22933954044E+01 -0.26101422512E+03  0.30351387396E+03  0.12699999809E+01 0.  1.
       -4    1    3    3    0  502  0.15487211953E+03 -0.22933954044E+01  0.25222357904E+03  0.29598814131E+03  0.12699999809E+01 0. -1.
</event>
<event>
 5   0  0.5491236E-03  0.5997245E+03  0.7818609E-02  0.9905978E-01
        1   -1    0    0  501    0  0.00000000000E+00  0.00000000000E+00  0.91416986158E+03  0.91416986159E+03  0.50400001928E-02 0. -1.
       -1   -1    0    0    0  501  0.00000000000E+00  0.00000000000E+00 -0.98359583033E+02  0.98359583162E+02  0.50400001928E-02 0.  1.
    10030    2    1    2    0    0  0.00000000000E+00  0.00000000000E+00  0.81581027855E+03  0.10125294448E+04  0.59972449167E+03 0.  0.
        3    1    3    3  502    0  0.22899942688E+03 -0.84103621213E+02  0.11352024433E+03  0.26907436274E+03  0.10100000352E+00 0.  1.
       -3    1    3    3    0  502 -0.22899942688E+03  0.84103621213E+02  0.70229003421E+03  0.74345508201E+03  0.10100000352E+00 0. -1.
</event>
<event>
 5   0  0.5491236E-03  0.6014883E+03  0.7818609E-02  0.9902323E-01
        1   -1    0    0  501    0  0.00000000000E+00  0.00000000000E+00  0.12354256130E+04  0.12354256130E+04  0.50400001928E-02 0.  1.
       -1   -1    0    0    0  501  0.00000000000E+00  0.00000000000E+00 -0.73211240321E+02  0.73211240494E+02  0.50400001928E-02 0. -1.
    10030    2    1    2    0    0  0.00000000000E+00  0.00000000000E+00  0.11622143727E+04  0.13086368535E+04  0.60148829273E+03 0.  0.
        3    1    3    3  502    0 -0.94468326547E+02  0.15395547252E+02  0.12014034424E+04  0.12052101598E+04  0.10100000352E+00 0.  1.
       -3    1    3    3    0  502  0.94468326547E+02 -0.15395547252E+02 -0.39189069703E+02  0.10342669375E+03  0.10100000352E+00 0. -1.
</event>
<event>
 5   0  0.5785798E-03  0.6008551E+03  0.7818609E-02  0.9903634E-01
        1   -1    0    0  501    0  0.00000000000E+00  0.00000000000E+00  0.40851426182E+03  0.40851426185E+03  0.50400001928E-02 0.  1.
       -1   -1    0    0    0  501  0.00000000000E+00  0.00000000000E+00 -0.22093894462E+03  0.22093894468E+03  0.50400001928E-02 0. -1.
    10030    2    1    2    0    0  0.00000000000E+00  0.00000000000E+00  0.18757531720E+03  0.62945320653E+03  0.60085509034E+03 0.  0.
        1    1    3    3  502    0 -0.30496569981E+02 -0.18645639572E+03  0.33848744990E+03  0.38764646529E+03  0.50400001928E-02 0.  1.
       -1    1    3    3    0  502  0.30496569981E+02  0.18645639572E+03 -0.15091213270E+03  0.24180674124E+03  0.50400001928E-02 0. -1.
</event>
<event>
 5   0  0.3794375E-03  0.6002263E+03  0.7818609E-02  0.9904937E-01
       -4   -1    0    0    0  501  0.00000000000E+00  0.00000000000E+00  0.58277494865E+02  0.58291331325E+02  0.12699999809E+01 0. -1.
        4   -1    0    0  501    0  0.00000000000E+00  0.00000000000E+00 -0.15453032253E+04  0.15453037472E+04  0.12699999809E+01 0.  1.
    10030    2    1    2    0    0  0.00000000000E+00  0.00000000000E+00 -0.14870257305E+04  0.16035950785E+04  0.60022633466E+03 0.  0.
        5    1    3    3  502    0  0.50369334142E+02  0.28540537323E+03 -0.53566383055E+03  0.60905757219E+03  0.46999998093E+01 0. -1.
       -5    1    3    3    0  502 -0.50369334142E+02 -0.28540537323E+03 -0.95136189994E+03  0.99453750635E+03  0.46999998093E+01 0.  1.
</event>
<event>
 5   0  0.9428629E-03  0.6032152E+03  0.7818609E-02  0.9898758E-01
        2   -1    0    0  501    0  0.00000000000E+00  0.00000000000E+00  0.60059421873E+03  0.60059421874E+03  0.25500000920E-02 0.  1.
       -2   -1    0    0    0  501  0.00000000000E+00  0.00000000000E+00 -0.15146192274E+03  0.15146192276E+03  0.25500000920E-02 0. -1.
    10030    2    1    2    0    0  0.00000000000E+00  0.00000000000E+00  0.44913229599E+03  0.75205614150E+03  0.60321523576E+03 0.  0.
        3    1    3    3  502    0 -0.75197448582E+02  0.29119700535E+03  0.19622377733E+03  0.35910184236E+03  0.10100000352E+00 0. -1.
       -3    1    3    3    0  502  0.75197448582E+02 -0.29119700535E+03  0.25290851866E+03  0.39295429913E+03  0.10100000352E+00 0.  1.
</event>
<event>
 5   0  0.9428629E-03  0.6007214E+03  0.7818609E-02  0.9903910E-01
       -2   -1    0    0    0  501  0.00000000000E+00  0.00000000000E+00  0.18007721867E+03  0.18007721869E+03  0.25500000920E-02 0. -1.
        2   -1    0    0  501    0  0.00000000000E+00  0.00000000000E+00 -0.50098815183E+03  0.50098815183E+03  0.25500000920E-02 0.  1.
    10030    2    1    2    0    0  0.00000000000E+00  0.00000000000E+00 -0.32091093315E+03  0.68106537052E+03  0.60072140957E+03 0.  0.
        3    1    3    3  502    0  0.40233498523E+02 -0.40363028690E+02  0.17389121213E+03  0.18299200077E+03  0.10100000352E+00 0. -1.
       -3    1    3    3    0  502 -0.40233498523E+02  0.40363028690E+02 -0.49480214528E+03  0.49807336976E+03  0.10100000352E+00 0.  1.
</event>
<event>
 5   0  0.3794375E-03  0.6010684E+03  0.7818609E-02  0.9903192E-01
       -3   -1    0    0    0  501  0.00000000000E+00  0.00000000000E+00  0.55516640299E+03  0.55516641218E+03  0.10100000352E+00 0.  1.
        3   -1    0    0  501    0  0.00000000000E+00  0.00000000000E+00 -0.16269139491E+03  0.16269142626E+03  0.10100000352E+00 0. -1.
    10030    2    1    2    0    0  0.00000000000E+00  0.00000000000E+00  0.39247500809E+03  0.71785783844E+03  0.60106841893E+03 0.  0.
        1    1    3    3  502    0 -0.20026039473E+03 -0.98466170836E+02  0.43664865426E+03  0.49036910566E+03  0.50400001928E-02 0.  1.
       -1    1    3    3    0  502  0.20026039473E+03  0.98466170836E+02 -0.44173646172E+02  0.22748873278E+03  0.50400001928E-02 0. -1.
</event>
<event>
 5   0  0.5491236E-03  0.5996944E+03  0.7818609E-02  0.9906040E-01
        1   -1    0    0  501    0  0.00000000000E+00  0.00000000000E+00  0.77572492060E+02  0.77572492224E+02  0.50400001928E-02 0. -1.
       -1   -1    0    0    0  501  0.00000000000E+00  0.00000000000E+00 -0.11590234387E+04  0.11590234387E+04  0.50400001928E-02 0.  1.
    10030    2    1    2    0    0  0.00000000000E+00  0.00000000000E+00 -0.10814509466E+04  0.12365959309E+04  0.59969437750E+03 0.  0.
        3    1    3    3  502    0 -0.12150456903E+03  0.42605975393E+02 -0.10991156650E+04  0.11066317746E+04  0.10100000352E+00 0.  1.
       -3    1    3    3    0  502  0.12150456903E+03 -0.42605975393E+02  0.17664718379E+02  0.12996415626E+03  0.10100000352E+00 0. -1.
</event>
<event>
 5   0  0.9530666E-03  0.5910799E+03  0.7818609E-02  0.9924087E-01
       -2   -1    0    0    0  501  0.00000000000E+00  0.00000000000E+00  0.24011084770E+03  0.24011084772E+03  0.25500000920E-02 0.  1.
        2   -1    0    0  501    0  0.00000000000E+00  0.00000000000E+00 -0.36376473814E+03  0.36376473815E+03  0.25500000920E-02 0. -1.
    10030    2    1    2    0    0  0.00000000000E+00  0.00000000000E+00 -0.12365389044E+03  0.60387558586E+03  0.59107989188E+03 0.  0.
        2    1    3    3  502    0 -0.28139388043E+03 -0.70406483949E+02 -0.39952547956E+01  0.29009576176E+03  0.25500000920E-02 0.  1.
       -2    1    3    3    0  502  0.28139388043E+03  0.70406483949E+02 -0.11965863564E+03  0.31377982410E+03  0.25500000920E-02 0. -1.
</event>
<event>
 5   0  0.9866317E-03  0.5990135E+03  0.7818609E-02  0.9907455E-01
       -2   -1    0    0    0  501  0.00000000000E+00  0.00000000000E+00  0.68300724195E+02  0.68300724242E+02  0.25500000920E-02 0.  1.
        2   -1    0    0  501    0  0.00000000000E+00  0.00000000000E+00 -0.13133726824E+04  0.13133726824E+04  0.25500000920E-02 0. -1.
    10030    2    1    2    0    0  0.00000000000E+00  0.00000000000E+00 -0.12450719582E+04  0.13816734066E+04  0.59901354034E+03 0.  0.
        1    1    3    3  502    0 -0.16943617276E+01  0.15663691983E+03 -0.33719001459E+02  0.16023409937E+03  0.50400001928E-02 0.  1.
       -1    1    3    3    0  502  0.16943617276E+01 -0.15663691983E+03 -0.12113529567E+04  0.12214393073E+04  0.50400001928E-02 0. -1.
</event>
<event>
 5   0  0.9681801E-03  0.6109907E+03  0.7818609E-02  0.9882863E-01
        2   -1    0    0  501    0  0.00000000000E+00  0.00000000000E+00  0.64507949454E+03  0.64507949454E+03  0.25500000920E-02 0.  1.
       -2   -1    0    0    0  501  0.00000000000E+00  0.00000000000E+00 -0.14467584449E+03  0.14467584452E+03  0.25500000920E-02 0. -1.
    10030    2    1    2    0    0  0.00000000000E+00  0.00000000000E+00  0.50040365004E+03  0.78975533906E+03  0.61099073855E+03 0.  0.
        4    1    3    3  502    0  0.12155051601E+03 -0.22951839589E+03  0.45811301347E+03  0.52661405983E+03  0.12699999809E+01 0. -1.
       -4    1    3    3    0  502 -0.12155051601E+03  0.22951839589E+03  0.42290636569E+02  0.26314127923E+03  0.12699999809E+01 0.  1.
</event>
<event>
 5   0  0.3794375E-03  0.6012328E+03  0.7818609E-02  0.9902852E-01
        3   -1    0    0  501    0  0.00000000000E+00  0.00000000000E+00  0.70085666945E+02  0.70085739720E+02  0.10100000352E+00 0.  1.
       -3   -1    0    0    0  501  0.00000000000E+00  0.00000000000E+00 -0.12894244633E+04  0.12894244673E+04  0.10100000352E+00 0. -1.
    10030    2    1    2    0    0  0.00000000000E+00  0.00000000000E+00 -0.12193387964E+04  0.13595102070E+04  0.60123281895E+03 0.  0.
        1    1    3    3  502    0  0.10658405993E+03  0.19648987748E+03 -0.15516288945E+03  0.27211019105E+03  0.50400001928E-02 0.  1.
       -1    1    3    3    0  502 -0.10658405993E+03 -0.19648987748E+03 -0.10641759069E+04  0.10874000160E+04  0.50400001928E-02 0. -1.
</event>
<event>
 5   0  0.5574736E-03  0.5994139E+03  0.7818609E-02  0.9906623E-01
        1   -1    0    0  501    0  0.00000000000E+00  0.00000000000E+00  0.42857599073E+03  0.42857599076E+03  0.50400001928E-02 0.  1.
       -1   -1    0    0    0  501  0.00000000000E+00  0.00000000000E+00 -0.20958770252E+03  0.20958770259E+03  0.50400001928E-02 0. -1.
    10030    2    1    2    0    0  0.00000000000E+00  0.00000000000E+00  0.21898828821E+03  0.63816369335E+03  0.59941390469E+03 0.  0.
        5    1    3    3  502    0 -0.17370716881E+03  0.68753861326E+01 -0.15037704751E+03  0.22990606309E+03  0.46999998093E+01 0. -1.
       -5    1    3    3    0  502  0.17370716881E+03 -0.68753861326E+01  0.36936533572E+03  0.40825763025E+03  0.46999998093E+01 0.  1.
</event>
<event>
 5   0  0.9866317E-03  0.6075643E+03  0.7818609E-02  0.9889836E-01
       -2   -1    0    0    0  501  0.00000000000E+00  0.00000000000E+00  0.51961253455E+02  0.51961253517E+02  0.25500000920E-02 0.  1.
        2   -1    0    0  501    0  0.00000000000E+00  0.00000000000E+00 -0.17760077126E+04  0.17760077126E+04  0.25500000920E-02 0. -1.
    10030    2    1    2    0    0  0.00000000000E+00  0.00000000000E+00 -0.17240464592E+04  0.18279689662E+04  0.60756427464E+03 0.  0.
        1    1    3    3  502    0  0.54741375957E+01  0.25675820105E+03 -0.13502173102E+04  0.13744240702E+04  0.50400001928E-02 0. -1.
       -1    1    3    3    0  502 -0.54741375957E+01 -0.25675820105E+03 -0.37382914903E+03  0.45354489600E+03  0.50400001928E-02 0.  1.
</event>
<event>
 5   0  0.9428629E-03  0.5946146E+03  0.7818609E-02  0.9916643E-01
        2   -1    0    0  501    0  0.00000000000E+00  0.00000000000E+00  0.14048745898E+04  0.14048745898E+04  0.25500000920E-02 0. -1.
       -2   -1    0    0    0  501  0.00000000000E+00  0.00000000000E+00 -0.62917799075E+02  0.62917799126E+02  0.25500000920E-02 0.  1.
    10030    2    1    2    0    0  0.00000000000E+00  0.00000000000E+00  0.13419567907E+04  0.14677923889E+04  0.59461455483E+03 0.  0.
        3    1    3    3  502    0 -0.16562776349E+02  0.27799642240E+03  0.92792860493E+03  0.96881775504E+03  0.10100000352E+00 0. -1.
       -3    1    3    3    0  502  0.16562776349E+02 -0.27799642240E+03  0.41402818578E+03  0.49897463388E+03  0.10100000352E+00 0.  1.
</event>
<event>
 5   0  0.5503975E-03  0.5996883E+03  0.7818609E-02  0.9906053E-01
        1   -1    0    0  501    0  0.00000000000E+00  0.00000000000E+00  0.20732056495E+03  0.20732056501E+03  0.50400001928E-02 0. -1.
       -1   -1    0    0    0  501  0.00000000000E+00  0.00000000000E+00 -0.43365934733E+03  0.43365934736E+03  0.50400001928E-02 0.  1.
    10030    2    1    2    0    0  0.00000000000E+00  0.00000000000E+00 -0.22633878238E+03  0.64097991237E+03  0.59968825539E+03 0.  0.
        4    1    3    3  502    0  0.69182275281E+02  0.13862507046E+03  0.16122010577E+03  0.22359926828E+03  0.12699999809E+01 0. -1.
       -4    1    3    3    0  502 -0.69182275281E+02 -0.13862507046E+03 -0.38755888815E+03  0.41738064409E+03  0.12699999809E+01 0.  1.
</event>
<event>
 5   0  0.3794375E-03  0.6017827E+03  0.7818609E-02  0.9901714E-01
        3   -1    0    0  501    0  0.00000000000E+00  0.00000000000E+00  0.31266570492E+03  0.31266572124E+03  0.10100000352E+00 0.  1.
       -3   -1    0    0    0  501  0.00000000000E+00  0.00000000000E+00 -0.28956033354E+03  0.28956035116E+03  0.10100000352E+00 0. -1.
    10030    2    1    2    0    0  0.00000000000E+00  0.00000000000E+00  0.23105371384E+02  0.60222607239E+03  0.60178267180E+03 0.  0.
        3    1    3    3  502    0  0.16733130249E+03 -0.20631258370E+03 -0.12987001165E+03  0.29568712707E+03  0.10100000352E+00 0.  1.
       -3    1    3    3    0  502 -0.16733130249E+03  0.20631258370E+03  0.15297538304E+03  0.30653894533E+03  0.10100000352E+00 0. -1.
</event>
<event>
 5   0  0.9571790E-03  0.5996653E+03  0.7818609E-02  0.9906101E-01
       -2   -1    0    0    0  501  0.00000000000E+00  0.00000000000E+00  0.97614162085E+02  0.97614162118E+02  0.25500000920E-02 0.  1.
        2   -1    0    0  501    0  0.00000000000E+00  0.00000000000E+00 -0.92096889748E+03  0.92096889749E+03  0.25500000920E-02 0. -1.
    10030    2    1    2    0    0  0.00000000000E+00  0.00000000000E+00 -0.82335473540E+03  0.10185830596E+04  0.59966526414E+03 0.  0.
        5    1    3    3  502    0  0.19774245565E+03  0.21023111264E+02 -0.79275721304E+03  0.81733110720E+03  0.46999998093E+01 0. -1.
       -5    1    3    3    0  502 -0.19774245565E+03 -0.21023111264E+02 -0.30597522360E+02  0.20125195241E+03  0.46999998093E+01 0.  1.
</event>
<event>
 5   0  0.9530666E-03  0.5997333E+03  0.7818609E-02  0.9905960E-01
       -2   -1    0    0    0  501  0.00000000000E+00  0.00000000000E+00  0.46126785699E+03  0.46126785699E+03  0.25500000920E-02 0.  1.
        2   -1    0    0  501    0  0.00000000000E+00  0.00000000000E+00 -0.19494097655E+03  0.19494097657E+03  0.25500000920E-02 0. -1.
    10030    2    1    2    0    0  0.00000000000E+00  0.00000000000E+00  0.26632688044E+03  0.65620883356E+03  0.59973329572E+03 0.  0.
        2    1    3    3  502    0 -0.16160734694E+02 -0.21788944556E+03 -0.91562279815E+02  0.23689793355E+03  0.25500000920E-02 0. -1.
       -2    1    3    3    0  502  0.16160734694E+02  0.21788944556E+03  0.35788916025E+03  0.41931090001E+03  0.25500000920E-02 0.  1.
</event>
<event>
 5   0  0.9530666E-03  0.6004466E+03  0.7818609E-02  0.9904480E-01
       -2   -1    0    0    0  501  0.00000000000E+00  0.00000000000E+00  0.29966152113E+03  0.29966152114E+03  0.25500000920E-02 0.  1.
        2   -1    0    0  501    0  0.00000000000E+00  0.00000000000E+00 -0.30078608336E+03  0.30078608338E+03  0.25500000920E-02 0. -1.
    10030    2    1    2    0    0  0.00000000000E+00  0.00000000000E+00 -0.11245622392E+01  0.60044760451E+03  0.60044655143E+03 0.  0.
        2    1    3    3  502    0 -0.73413560463E+02  0.19396406579E+03 -0.21763961961E+03  0.30063036059E+03  0.25500000920E-02 0. -1.
       -2    1    3    3    0  502  0.73413560463E+02 -0.19396406579E+03  0.21651505737E+03  0.29981724392E+03  0.25500000920E-02 0.  1.
</event>
<event>
 5   0  0.5491236E-03  0.5998902E+03  0.7818609E-02  0.9905634E-01
       -1   -1    0    0    0  501  0.00000000000E+00  0.00000000000E+00  0.75973170054E+02  0.75973170222E+02  0.50400001928E-02 0.  1.
        1   -1    0    0  501    0  0.00000000000E+00  0.00000000000E+00 -0.11841952615E+04  0.11841952615E+04  0.50400001928E-02 0. -1.
    10030    2    1    2    0    0  0.00000000000E+00  0.00000000000E+00 -0.11082220915E+04  0.12601684318E+04  0.59989021693E+03 0.  0.
        3    1    3    3  502    0 -0.27748384792E+03 -0.11086249388E+03 -0.49936143120E+03  0.58193610266E+03  0.10100000352E+00 0.  1.
       -3    1    3    3    0  502  0.27748384792E+03  0.11086249388E+03 -0.60886066027E+03  0.67823232909E+03  0.10100000352E+00 0. -1.
</event>
<event>
 5   0  0.5653633E-03  0.5993164E+03  0.7818609E-02  0.9906825E-01
       -1   -1    0    0    0  501  0.00000000000E+00  0.00000000000E+00  0.14481835047E+03  0.14481835056E+03  0.50400001928E-02 0. -1.
        1   -1    0    0  501    0  0.00000000000E+00  0.00000000000E+00 -0.62005284523E+03  0.62005284525E+03  0.50400001928E-02 0.  1.
    10030    2    1    2    0    0  0.00000000000E+00  0.00000000000E+00 -0.47523449476E+03  0.76487119580E+03  0.59931637819E+03 0.  0.
        2    1    3    3  502    0 -0.75166793485E+02 -0.28587399243E+03 -0.17482102892E+03  0.34341866366E+03  0.25500000920E-02 0.  1.
       -2    1    3    3    0  502  0.75166793485E+02  0.28587399243E+03 -0.30041346583E+03  0.42145253214E+03  0.25500000920E-02 0. -1.
</event>
<event>
 5   0  0.9866317E-03  0.5995317E+03  0.7818609E-02  0.9906378E-01
       -2   -1    0    0    0  501  0.00000000000E+00  0.00000000000E+00  0.47128015544E+02  0.47128015613E+02  0.25500000920E-02 0.  1.
        2   -1    0    0  501    0  0.00000000000E+00  0.00000000000E+00 -0.19067120319E+04  0.19067120319E+04  0.25500000920E-02 0. -1.
    10030    2    1    2    0    0  0.00000000000E+00  0.00000000000E+00 -0.18595840164E+04  0.19538400475E+04  0.59953166504E+03 0.  0.
        1    1    3    3  502    0  0.21898781052E+03 -0.83441901011E+02 -0.15389734629E+04  0.15567136961E+04  0.50400001928E-02 0. -1.
       -1    1    3    3    0  502 -0.21898781052E+03  0.83441901011E+02 -0.32061055346E+03  0.39712635145E+03  0.50400001928E-02 0.  1.
</event>
<event>
 5   0  0.3794375E-03  0.5998523E+03  0.7818609E-02  0.9905713E-01
       -4   -1    0    0    0  501  0.00000000000E+00  0.00000000000E+00  0.13903469401E+03  0.13904049424E+03  0.12699999809E+01 0.  1.
        4   -1    0    0  501    0  0.00000000000E+00  0.00000000000E+00 -0.64698186550E+03  0.64698311198E+03  0.12699999809E+01 0. -1.
    10030    2    1    2    0    0  0.00000000000E+00  0.00000000000E+00 -0.50794717149E+03  0.78602360622E+03  0.59985229891E+03 0.  0.
        3    1    3    3  502    0 -0.17366814550E+03 -0.11986916408E+03  0.25310140761E+02  0.21253200861E+03  0.10100000352E+00 0.  1.
       -3    1    3    3    0  502  0.17366814550E+03  0.11986916408E+03 -0.53325731225E+03  0.57349159761E+03  0.10100000352E+00 0. -1.
</event>
<event>
 5   0  0.5574736E-03  0.6007657E+03  0.7818609E-02  0.9903819E-01
       -1   -1    0    0    0  501  0.00000000000E+00  0.00000000000E+00  0.11019137387E+03  0.11019137398E+03  0.50400001928E-02 0. -1.
        1   -1    0    0  501    0  0.00000000000E+00  0.00000000000E+00 -0.81884670820E+03  0.81884670822E+03  0.50400001928E-02 0.  1.
    10030    2    1    2    0    0  0.00000000000E+00  0.00000000000E+00 -0.70865533434E+03  0.92903808220E+03  0.60076565755E+03 0.  0.
        5    1    3    3  502    0 -0.83031376180E+01  0.14824483662E+03 -0.75806645333E+03  0.77248450556E+03  0.46999998093E+01 0.  1.
       -5    1    3    3    0  502  0.83031376180E+01 -0.14824483662E+03  0.49411118988E+02  0.15655357664E+03  0.46999998093E+01 0. -1.
</event>
<event>
 5   0  0.9571790E-03  0.5990065E+03  0.7818609E-02  0.9907469E-01
       -2   -1    0    0    0  501  0.00000000000E+00  0.00000000000E+00  0.14776034270E+03  0.14776034273E+03  0.25500000920E-02 0. -1.
        2   -1    0    0  501    0  0.00000000000E+00  0.00000000000E+00 -0.60707904462E+03  0.60707904463E+03  0.25500000920E-02 0.  1.
    10030    2    1    2    0    0  0.00000000000E+00  0.00000000000E+00 -0.45931870192E+03  0.75483938735E+03  0.59900653650E+03 0.  0.
        5    1    3    3  502    0 -0.17003942941E+03  0.19509457318E+03 -0.41954056558E+03  0.49296214480E+03  0.46999998093E+01 0.  1.
       -5    1    3    3    0  502  0.17003942941E+03 -0.19509457318E+03 -0.39778136332E+02  0.26187724255E+03  0.46999998093E+01 0. -1.
</event>
<event>
 5   0  0.3794375E-03  0.6003633E+03  0.7818609E-02  0.9904653E-01
       -4   -1    0    0    0  501  0.00000000000E+00  0.00000000000E+00  0.99430894661E+02  0.99439004988E+02  0.12699999809E+01 0.  1.
        4   -1    0    0  501    0  0.00000000000E+00  0.00000000000E+00 -0.90620225752E+03  0.90620314744E+03  0.12699999809E+01 0. -1.
    10030    2    1    2    0    0  0.00000000000E+00  0.00000000000E+00 -0.80677136286E+03  0.10056421524E+04  0.60036331235E+03 0.  0.
        3    1    3    3  502    0  0.16568272301E+03  0.14643761109E+03 -0.63327544425E+02  0.23001114479E+03  0.10100000352E+00 0.  1.
       -3    1    3    3    0  502 -0.16568272301E+03 -0.14643761109E+03 -0.74344381843E+03  0.77563100764E+03  0.10100000352E+00 0. -1.
</event>
<event>
 5   0  0.5491236E-03  0.6005699E+03  0.7818609E-02  0.9904224E-01
        1   -1    0    0  501    0  0.00000000000E+00  0.00000000000E+00  0.91667675331E+03  0.91667675332E+03  0.50400001928E-02 0.  1.
       -1   -1    0    0    0  501  0.00000000000E+00  0.00000000000E+00 -0.98367334662E+02  0.98367334791E+02  0.50400001928E-02 0. -1.
    10030    2    1    2    0    0  0.00000000000E+00  0.00000000000E+00  0.81830941865E+03  0.10150440881E+04  0.60056989283E+03 0.  0.
        3    1    3    3  502    0  0.95064291164E+02  0.28081125403E+03  0.48983734493E+03  0.57256686468E+03  0.10100000352E+00 0.  1.
       -3    1    3    3    0  502 -0.95064291164E+02 -0.28081125403E+03  0.32847207372E+03  0.44247722343E+03  0.10100000352E+00 0. -1.
</event>
<event>
 5   0  0.5491236E-03  0.5994970E+03  0.7818609E-02  0.9906450E-01
        1   -1    0    0  501    0  0.00000000000E+00  0.00000000000E+00  0.32098060171E+03  0.32098060175E+03  0.50400001928E-02 0. -1.
       -1   -1    0    0    0  501  0.00000000000E+00  0.00000000000E+00 -0.27992089546E+03  0.27992089550E+03  0.50400001928E-02 0.  1.
    10030    2    1    2    0    0  0.00000000000E+00  0.00000000000E+00  0.41059706256E+02  0.60090149726E+03  0.59949704747E+03 0.  0.
        3    1    3    3  502    0 -0.29057091663E+03  0.24672620050E+02 -0.48979354811E+02  0.29570117208E+03  0.10100000352E+00 0.  1.
       -3    1    3    3    0  502  0.29057091663E+03 -0.24672620050E+02  0.90039061067E+02  0.30520032518E+03  0.10100000352E+00 0. -1.
</event>
<event>
 5   0  0.9530666E-03  0.6004945E+03  0.7818609E-02  0.9904381E-01
       -2   -1    0    0    0  501  0.00000000000E+00  0.00000000000E+00  0.17587595305E+03  0.17587595306E+03  0.25500000920E-02 0.  1.
        2   -1    0    0  501    0  0.00000000000E+00  0.00000000000E+00 -0.51256814501E+03  0.51256814502E+03  0.25500000920E-02 0. -1.
    10030    2    1    2    0    0  0.00000000000E+00  0.00000000000E+00 -0.33669219197E+03  0.68844409808E+03  0.60049449960E+03 0.  0.
        2    1    3    3  502    0 -0.17966180543E+02  0.28490464014E+03 -0.27500387008E+03  0.39638436672E+03  0.25500000920E-02 0. -1.
       -2    1    3    3    0  502  0.17966180543E+02 -0.28490464014E+03 -0.61688321888E+02  0.29205973136E+03  0.25500000920E-02 0.  1.
</event>
<event>
 5   0  0.9428629E-03  0.6004442E+03  0.7818609E-02  0.9904485E-01
        2   -1    0    0  501    0  0.00000000000E+00  0.00000000000E+00  0.70241341125E+03  0.70241341125E+03  0.25500000920E-02 0.  1.
       -2   -1    0    0    0  501  0.00000000000E+00  0.00000000000E+00 -0.12831946512E+03  0.12831946515E+03  0.25500000920E-02 0. -1.
    10030    2    1    2    0    0  0.00000000000E+00  0.00000000000E+00  0.57409394612E+03  0.83073287640E+03  0.60044421303E+03 0.  0.
        3    1    3    3  502    0  0.20093567851E+03 -0.22304504073E+03  0.29121274307E+03  0.41824527376E+03  0.10100000352E+00 0.  1.
       -3    1    3    3    0  502 -0.20093567851E+03  0.22304504073E+03  0.28288120305E+03  0.41248760264E+03  0.10100000352E+00 0. -1.
</event>
<event>
 5   0  0.5785798E-03  0.5997626E+03  0.7818609E-02  0.9905899E-01
        1   -1    0    0  501    0  0.00000000000E+00  0.00000000000E+00  0.88871627709E+02  0.88871627852E+02  0.50400001928E-02 0.  1.
       -1   -1    0    0    0  501  0.00000000000E+00  0.00000000000E+00 -0.10118953630E+04  0.10118953630E+04  0.50400001928E-02 0. -1.
    10030    2    1    2    0    0  0.00000000000E+00  0.00000000000E+00 -0.92302373527E+03  0.11007669908E+04  0.59976257991E+03 0.  0.
        1    1    3    3  502    0 -0.28915131523E+03 -0.34837563898E+01 -0.31574202988E+03  0.42815143246E+03  0.50400001928E-02 0.  1.
       -1    1    3    3    0  502  0.28915131523E+03  0.34837563898E+01 -0.60728170538E+03  0.67261555838E+03  0.50400001928E-02 0. -1.
</event>
<event>
 5   0  0.9866317E-03  0.5980564E+03  0.7818609E-02  0.9909447E-01
        2   -1    0    0  501    0  0.00000000000E+00  0.00000000000E+00  0.21749086771E+03  0.21749086773E+03  0.25500000920E-02 0. -1.
       -2   -1    0    0    0  501  0.00000000000E+00  0.00000000000E+00 -0.41113393869E+03  0.41113393870E+03  0.25500000920E-02 0.  1.
    10030    2    1    2    0    0  0.00000000000E+00  0.00000000000E+00 -0.19364307098E+03  0.62862480642E+03  0.59805644241E+03 0.  0.
        1    1    3    3  502    0 -0.84718841129E+02  0.24986144958E+03  0.51119940260E+02  0.26874016140E+03  0.50400001928E-02 0. -1.
       -1    1    3    3    0  502  0.84718841129E+02 -0.24986144958E+03 -0.24476301124E+03  0.35988464503E+03  0.50400001928E-02 0.  1.
</event>
<event>
 5   0  0.9866317E-03  0.5998965E+03  0.7818609E-02  0.9905621E-01
       -2   -1    0    0    0  501  0.00000000000E+00  0.00000000000E+00  0.89006794254E+02  0.89006794291E+02  0.25500000920E-02 0.  1.
        2   -1    0    0  501    0  0.00000000000E+00  0.00000000000E+00 -0.10108099486E+04  0.10108099486E+04  0.25500000920E-02 0. -1.
    10030    2    1    2    0    0  0.00000000000E+00  0.00000000000E+00 -0.92180315433E+03  0.10998167429E+04  0.59989650156E+03 0.  0.
        1    1    3    3  502    0  0.23320870756E+03  0.18375519453E+03 -0.38275980552E+03  0.48441443160E+03  0.50400001928E-02 0. -1.
       -1    1    3    3    0  502 -0.23320870756E+03 -0.18375519453E+03 -0.53904334881E+03  0.61540231128E+03  0.50400001928E-02 0.  1.
</event>
<event>
 5   0  0.9571790E-03  0.5996731E+03  0.7818609E-02  0.9906085E-01
        2   -1    0    0  501    0  0.00000000000E+00  0.00000000000E+00  0.13783259403E+04  0.13783259403E+04  0.25500000920E-02 0. -1.
       -2   -1    0    0    0  501  0.00000000000E+00  0.00000000000E+00 -0.65225466359E+02  0.65225466409E+02  0.25500000920E-02 0.  1.
    10030    2    1    2    0    0  0.00000000000E+00  0.00000000000E+00  0.13131004739E+04  0.14435514067E+04  0.59967308523E+03 0.  0.
        5    1    3    3  502    0 -0.12488380363E+03 -0.16326603343E+03  0.13119952335E+03  0.24389991186E+03  0.46999998093E+01 0.  1.
       -5    1    3    3    0  502  0.12488380363E+03  0.16326603343E+03  0.11819009506E+04  0.11996514948E+04  0.46999998093E+01 0. -1.
</event>
<event>
 5   0  0.9428629E-03  0.6008127E+03  0.7818609E-02  0.9903721E-01
        2   -1    0    0  501    0  0.00000000000E+00  0.00000000000E+00  0.75999024447E+03  0.75999024447E+03  0.25500000920E-02 0.  1.
       -2   -1    0    0    0  501  0.00000000000E+00  0.00000000000E+00 -0.11874359864E+03  0.11874359866E+03  0.25500000920E-02 0. -1.
    10030    2    1    2    0    0  0.00000000000E+00  0.00000000000E+00  0.64124664583E+03  0.87873384314E+03  0.60081270483E+03 0.  0.
        3    1    3    3  502    0 -0.27730966998E+03  0.99979066962E+02  0.40524439123E+03  0.50111824326E+03  0.10100000352E+00 0.  1.
       -3    1    3    3    0  502  0.27730966998E+03 -0.99979066962E+02  0.23600225460E+03  0.37761559988E+03  0.10100000352E+00 0. -1.
</event>
<event>
 5   0  0.5503975E-03  0.5922826E+03  0.7818609E-02  0.9921548E-01
       -1   -1    0    0    0  501  0.00000000000E+00  0.00000000000E+00  0.44292033398E+03  0.44292033401E+03  0.50400001928E-02 0.  1.
        1   -1    0    0  501    0  0.00000000000E+00  0.00000000000E+00 -0.19800322985E+03  0.19800322991E+03  0.50400001928E-02 0. -1.
    10030    2    1    2    0    0  0.00000000000E+00  0.00000000000E+00  0.24491710414E+03  0.64092356392E+03  0.59228255663E+03 0.  0.
        4    1    3    3  502    0  0.13520236778E+03  0.52948496536E+02 -0.15683616878E+03  0.21373446207E+03  0.12699999809E+01 0. -1.
       -4    1    3    3    0  502 -0.13520236778E+03 -0.52948496536E+02  0.40175327292E+03  0.42718910185E+03  0.12699999809E+01 0.  1.
</event>
<event>
 5   0  0.5785798E-03  0.6006823E+03  0.7818609E-02  0.9903992E-01
        1   -1    0    0  501    0  0.00000000000E+00  0.00000000000E+00  0.40333332194E+03  0.40333332197E+03  0.50400001928E-02 0. -1.
       -1   -1    0    0    0  501  0.00000000000E+00  0.00000000000E+00 -0.22364827540E+03  0.22364827546E+03  0.50400001928E-02 0.  1.
    10030    2    1    2    0    0  0.00000000000E+00  0.00000000000E+00  0.17968504654E+03  0.62698159743E+03  0.60068228505E+03 0.  0.
        1    1    3    3  502    0 -0.12222186416E+02 -0.28387890598E+03 -0.11722314182E+02  0.28438359267E+03  0.50400001928E-02 0. -1.
       -1    1    3    3    0  502  0.12222186416E+02  0.28387890598E+03  0.19140736072E+03  0.34259800476E+03  0.50400001928E-02 0.  1.
</event>
<event>
 5   0  0.5785798E-03  0.6024573E+03  0.7818609E-02  0.9900321E-01
       -1   -1    0    0    0  501  0.00000000000E+00  0.00000000000E+00  0.72579983646E+02  0.72579983821E+02  0.50400001928E-02 0. -1.
        1   -1    0    0  501    0  0.00000000000E+00  0.00000000000E+00 -0.12501891858E+04  0.12501891858E+04  0.50400001928E-02 0.  1.
    10030    2    1    2    0    0  0.00000000000E+00  0.00000000000E+00 -0.11776092022E+04  0.13227691696E+04  0.60245733719E+03 0.  0.
        1    1    3    3  502    0 -0.15901458551E+03 -0.12030125877E+03 -0.10845521504E+04  0.11027290683E+04  0.50400001928E-02 0.  1.
       -1    1    3    3    0  502  0.15901458551E+03  0.12030125877E+03 -0.93057051787E+02  0.22004010129E+03  0.50400001928E-02 0. -1.
</event>
<event>
 5   0  0.9571790E-03  0.5997108E+03  0.7818609E-02  0.9906006E-01
        2   -1    0    0  501    0  0.00000000000E+00  0.00000000000E+00  0.52022761148E+03  0.52022761149E+03  0.25500000920E-02 0. -1.
       -2   -1    0    0    0  501  0.00000000000E+00  0.00000000000E+00 -0.17283449313E+03  0.17283449315E+03  0.25500000920E-02 0.  1.
    10030    2    1    2    0    0  0.00000000000E+00  0.00000000000E+00  0.34739311835E+03  0.69306210464E+03  0.59971084883E+03 0.  0.
        5    1    3    3  502    0 -0.65266656379E+02 -0.27933335016E+03  0.27447338741E+03  0.39704481780E+03  0.46999998093E+01 0.  1.
       -5    1    3    3    0  502  0.65266656379E+02  0.27933335016E+03  0.72919730934E+02  0.29601728683E+03  0.46999998093E+01 0. -1.
</event>
<event>
 5   0  0.9866317E-03  0.6000829E+03  0.7818609E-02  0.9905234E-01
        2   -1    0    0  501    0  0.00000000000E+00  0.00000000000E+00  0.10262820209E+04  0.10262820209E+04  0.25500000920E-02 0.  1.
       -2   -1    0    0    0  501  0.00000000000E+00  0.00000000000E+00 -0.87719432950E+02  0.87719432987E+02  0.25500000920E-02 0. -1.
    10030    2    1    2    0    0  0.00000000000E+00  0.00000000000E+00  0.93856258795E+03  0.11140014539E+04  0.60008291741E+03 0.  0.
        1    1    3    3  502    0 -0.25546491478E+03  0.15128822669E+03  0.38890856321E+03  0.48928552072E+03  0.50400001928E-02 0. -1.
       -1    1    3    3    0  502  0.25546491478E+03 -0.15128822669E+03  0.54965402474E+03  0.62471593317E+03  0.50400001928E-02 0.  1.
</event>
<event>
 5   0  0.5491236E-03  0.5991236E+03  0.7818609E-02  0.9907226E-01
       -1   -1    0    0    0  501  0.00000000000E+00  0.00000000000E+00  0.55938011807E+03  0.55938011810E+03  0.50400001928E-02 0.  1.
        1   -1    0    0  501    0  0.00000000000E+00  0.00000000000E+00 -0.16042272652E+03  0.16042272660E+03  0.50400001928E-02 0. -1.
    10030    2    1    2    0    0  0.00000000000E+00  0.00000000000E+00  0.39895739156E+03  0.71980284469E+03  0.59912363912E+03 0.  0.
        3    1    3    3  502    0  0.24866355349E+03 -0.12407731357E+03  0.33384805839E+03  0.43437688574E+03  0.10100000352E+00 0.  1.
       -3    1    3    3    0  502 -0.24866355349E+03  0.12407731357E+03  0.65109333165E+02  0.28542595895E+03  0.10100000352E+00 0. -1.
</event>
<event>
 5   0  0.5491236E-03  0.6006070E+03  0.7818609E-02  0.9904148E-01
       -1   -1    0    0    0  501  0.00000000000E+00  0.00000000000E+00  0.12000635144E+03  0.12000635154E+03  0.50400001928E-02 0. -1.
        1   -1    0    0  501    0  0.00000000000E+00  0.00000000000E+00 -0.75147839455E+03  0.75147839457E+03  0.50400001928E-02 0.  1.
    10030    2    1    2    0    0  0.00000000000E+00  0.00000000000E+00 -0.63147204312E+03  0.87148474611E+03  0.60060696089E+03 0.  0.
        3    1    3    3  502    0  0.13410441796E+03  0.26864738223E+03 -0.30823005576E+03  0.43030360023E+03  0.10100000352E+00 0. -1.
       -3    1    3    3    0  502 -0.13410441796E+03 -0.26864738223E+03 -0.32324198735E+03  0.44118114588E+03  0.10100000352E+00 0.  1.
</event>
<event>
 5   0  0.9866317E-03  0.5920241E+03  0.7818609E-02  0.9922093E-01
        2   -1    0    0  501    0  0.00000000000E+00  0.00000000000E+00  0.15751550350E+03  0.15751550352E+03  0.25500000920E-02 0. -1.
       -2   -1    0    0    0  501  0.00000000000E+00  0.00000000000E+00 -0.55628256165E+03  0.55628256166E+03  0.25500000920E-02 0.  1.
    10030    2    1    2    0    0  0.00000000000E+00  0.00000000000E+00 -0.39876705815E+03  0.71379806518E+03  0.59202407990E+03 0.  0.
        1    1    3    3  502    0  0.80794132079E+02  0.21532754143E+03 -0.42407426781E+03  0.48242370021E+03  0.50400001928E-02 0.  1.
       -1    1    3    3    0  502 -0.80794132079E+02 -0.21532754143E+03  0.25307209661E+02  0.23137436497E+03  0.50400001928E-02 0. -1.
</event>
<event>
 5   0  0.3794375E-03  0.6001144E+03  0.7818609E-02  0.9905169E-01
        3   -1    0    0  501    0  0.00000000000E+00  0.00000000000E+00  0.67896721731E+03  0.67896722482E+03  0.10100000352E+00 0. -1.
       -3   -1    0    0    0  501  0.00000000000E+00  0.00000000000E+00 -0.13260477416E+03  0.13260481262E+03  0.10100000352E+00 0.  1.
    10030    2    1    2    0    0  0.00000000000E+00  0.00000000000E+00  0.54636244315E+03  0.81157203745E+03  0.60011436633E+03 0.  0.
        5    1    3    3  502    0 -0.19774503170E+03  0.12181122877E+03  0.53002736354E+03  0.57869868594E+03  0.46999998093E+01 0. -1.
       -5    1    3    3    0  502  0.19774503170E+03 -0.12181122877E+03  0.16335079615E+02  0.23287335150E+03  0.46999998093E+01 0.  1.
</event>
<event>
 5   0  0.5785798E-03  0.6007003E+03  0.7818609E-02  0.9903954E-01
       -1   -1    0    0    0  501  0.00000000000E+00  0.00000000000E+00  0.98464438948E+02  0.98464439077E+02  0.50400001928E-02 0. -1.
        1   -1    0    0  501    0  0.00000000000E+00  0.00000000000E+00 -0.91617039175E+03  0.91617039176E+03  0.50400001928E-02 0.  1.
    10030    2    1    2    0    0  0.00000000000E+00  0.00000000000E+00 -0.81770595280E+03  0.10146348308E+04  0.60070027027E+03 0.  0.
        1    1    3    3  502    0 -0.12859280072E+03 -0.11845372849E+03 -0.82135965647E+03  0.83976132293E+03  0.50400001928E-02 0.  1.
       -1    1    3    3    0  502  0.12859280072E+03  0.11845372849E+03  0.36537036710E+01  0.17487350791E+03  0.50400001928E-02 0. -1.
</event>
<event>
 5   0  0.5653633E-03  0.6002586E+03  0.7818609E-02  0.9904870E-01
       -1   -1    0    0    0  501  0.00000000000E+00  0.00000000000E+00  0.52198913394E+03  0.52198913396E+03  0.50400001928E-02 0. -1.
        1   -1    0    0  501    0  0.00000000000E+00  0.00000000000E+00 -0.17256601397E+03  0.17256601404E+03  0.50400001928E-02 0.  1.
    10030    2    1    2    0    0  0.00000000000E+00  0.00000000000E+00  0.34942311997E+03  0.69455514800E+03  0.60025855833E+03 0.  0.
        2    1    3    3  502    0 -0.58815379284E+02  0.11029396508E+03 -0.14101502817E+03  0.18843897089E+03  0.25500000920E-02 0.  1.
       -2    1    3    3    0  502  0.58815379284E+02 -0.11029396508E+03  0.49043814814E+03  0.50611617711E+03  0.25500000920E-02 0. -1.
</event>
<event>
 5   0  0.5503975E-03  0.6002230E+03  0.7818609E-02  0.9904944E-01
        1   -1    0    0  501    0  0.00000000000E+00  0.00000000000E+00  0.69206704988E+03  0.69206704990E+03  0.50400001928E-02 0. -1.
       -1   -1    0    0    0  501  0.00000000000E+00  0.00000000000E+00 -0.13014187164E+03  0.13014187174E+03  0.50400001928E-02 0.  1.
    10030    2    1    2    0    0  0.00000000000E+00  0.00000000000E+00  0.56192517825E+03  0.82220892164E+03  0.60022296263E+03 0.  0.
        4    1    3    3  502    0 -0.21525821817E+02  0.41226835116E+02  0.68709685921E+03  0.68867025475E+03  0.12699999809E+01 0. -1.
       -4    1    3    3    0  502  0.21525821817E+02 -0.41226835116E+02 -0.12517168097E+03  0.13353866689E+03  0.12699999809E+01 0.  1.
</event>
<event>
 5   0  0.5653633E-03  0.6008260E+03  0.7818609E-02  0.9903694E-01
       -1   -1    0    0    0  501  0.00000000000E+00  0.00000000000E+00  0.40281861442E+03  0.40281861445E+03  0.50400001928E-02 0. -1.
        1   -1    0    0  501    0  0.00000000000E+00  0.00000000000E+00 -0.22404122317E+03  0.22404122323E+03  0.50400001928E-02 0.  1.
    10030    2    1    2    0    0  0.00000000000E+00  0.00000000000E+00  0.17877739125E+03  0.62685983768E+03  0.60082601514E+03 0.  0.
        2    1    3    3  502    0 -0.20318284382E+03 -0.99202039042E+02  0.29575627454E+03  0.37228495338E+03  0.25500000920E-02 0. -1.
       -2    1    3    3    0  502  0.20318284382E+03  0.99202039042E+02 -0.11697888330E+03  0.25457488430E+03  0.25500000920E-02 0.  1.
</event>
<event>
 5   0  0.5785798E-03  0.5995976E+03  0.7818609E-02  0.9906241E-01
       -1   -1    0    0    0  501  0.00000000000E+00  0.00000000000E+00  0.25131158578E+03  0.25131158583E+03  0.50400001928E-02 0.  1.
        1   -1    0    0  501    0  0.00000000000E+00  0.00000000000E+00 -0.35764099875E+03  0.35764099878E+03  0.50400001928E-02 0. -1.
    10030    2    1    2    0    0  0.00000000000E+00  0.00000000000E+00 -0.10632941297E+03  0.60895258462E+03  0.59959762028E+03 0.  0.
        1    1    3    3  502    0 -0.20508895686E+03  0.17909734034E+03  0.74259923110E+02  0.28222663543E+03  0.50400001928E-02 0.  1.
       -1    1    3    3    0  502  0.20508895686E+03 -0.17909734034E+03 -0.18058933608E+03  0.32672594919E+03  0.50400001928E-02 0. -1.
</event>
<event>
 5   0  0.5491236E-03  0.6002652E+03  0.7818609E-02  0.9904856E-01
       -1   -1    0    0    0  501  0.00000000000E+00  0.00000000000E+00  0.16929081312E+03  0.16929081320E+03  0.50400001928E-02 0.  1.
        1   -1    0    0  501    0  0.00000000000E+00  0.00000000000E+00 -0.53209961135E+03  0.53209961137E+03  0.50400001928E-02 0. -1.
    10030    2    1    2    0    0  0.00000000000E+00  0.00000000000E+00 -0.36280879822E+03  0.70139042457E+03  0.60026519440E+03 0.  0.
        3    1    3    3  502    0  0.69462074921E+02 -0.27688097843E+03 -0.28971012344E+03  0.40671860283E+03  0.10100000352E+00 0. -1.
       -3    1    3    3    0  502 -0.69462074921E+02  0.27688097843E+03 -0.73098674784E+02  0.29467182173E+03  0.10100000352E+00 0.  1.
</event>
<event>
 5   0  0.5503975E-03  0.6041926E+03  0.7818609E-02  0.9896746E-01
        1   -1    0    0  501    0  0.00000000000E+00  0.00000000000E+00  0.14893912574E+03  0.14893912583E+03  0.50400001928E-02 0.  1.
       -1   -1    0    0    0  501  0.00000000000E+00  0.00000000000E+00 -0.61274813655E+03  0.61274813657E+03  0.50400001928E-02 0. -1.
    10030    2    1    2    0    0  0.00000000000E+00  0.00000000000E+00 -0.46380901080E+03  0.76168726239E+03  0.60419259114E+03 0.  0.
        4    1    3    3  502    0 -0.25209128879E+03  0.15266009883E+03 -0.31557950293E+03  0.43179527467E+03  0.12699999809E+01 0.  1.
       -4    1    3    3    0  502  0.25209128879E+03 -0.15266009883E+03 -0.14822950787E+03  0.32989198772E+03  0.12699999809E+01 0. -1.
</event>
<event>
 5   0  0.9571790E-03  0.6001856E+03  0.7818609E-02  0.9905021E-01
       -2   -1    0    0    0  501  0.00000000000E+00  0.00000000000E+00  0.26206032358E+03  0.26206032359E+03  0.25500000920E-02 0. -1.
        2   -1    0    0  501    0  0.00000000000E+00  0.00000000000E+00 -0.34364482830E+03  0.34364482831E+03  0.25500000920E-02 0.  1.
    10030    2    1    2    0    0  0.00000000000E+00  0.00000000000E+00 -0.81584504725E+02  0.60570515190E+03  0.60018555433E+03 0.  0.
        5    1    3    3  502    0 -0.11135755310E+02 -0.28927716267E+03  0.38853129004E+02  0.29212486632E+03  0.46999998093E+01 0. -1.
       -5    1    3    3    0  502  0.11135755310E+02  0.28927716267E+03 -0.12043763373E+03  0.31358028558E+03  0.46999998093E+01 0.  1.
</event>
<event>
 5   0  0.5653633E-03  0.5995399E+03  0.7818609E-02  0.9906361E-01
       -1   -1    0    0    0  501  0.00000000000E+00  0.00000000000E+00  0.12675812404E+03  0.12675812414E+03  0.50400001928E-02 0. -1.
        1   -1    0    0  501    0  0.00000000000E+00  0.00000000000E+00 -0.70892513270E+03  0.70892513272E+03  0.50400001928E-02 0.  1.
    10030    2    1    2    0    0  0.00000000000E+00  0.00000000000E+00 -0.58216700866E+03  0.83568325686E+03  0.59953989010E+03 0.  0.
        2    1    3    3  502    0  0.84651591861E+02 -0.19511208308E+03  0.33752186805E+01  0.21271109297E+03  0.25500000920E-02 0. -1.
       -2    1    3    3    0  502 -0.84651591861E+02  0.19511208308E+03 -0.58554222734E+03  0.62297216388E+03  0.25500000920E-02 0.  1.
</event>
<event>
 5   0  0.5491236E-03  0.6010297E+03  0.7818609E-02  0.9903272E-01
        1   -1    0    0  501    0  0.00000000000E+00  0.00000000000E+00  0.24447619663E+03  0.24447619668E+03  0.50400001928E-02 0.  1.
       -1   -1    0    0    0  501  0.00000000000E+00  0.00000000000E+00 -0.36939864361E+03  0.36939864364E+03  0.50400001928E-02 0. -1.
    10030    2    1    2    0    0  0.00000000000E+00  0.00000000000E+00 -0.12492244698E+03  0.61387484033E+03  0.60102970129E+03 0.  0.
        3    1    3    3  502    0 -0.14255809578E+02 -0.29080490050E+03 -0.13847247827E+03  0.32240557641E+03  0.10100000352E+00 0. -1.
       -3    1    3    3    0  502  0.14255809578E+02  0.29080490050E+03  0.13550031297E+02  0.29146926392E+03  0.10100000352E+00 0.  1.
</event>
<event>
 5   0  0.3794375E-03  0.5974029E+03  0.7818609E-02  0.9910809E-01
       -4   -1    0    0    0  501  0.00000000000E+00  0.00000000000E+00  0.10301990717E+03  0.10302773497E+03  0.12699999809E+01 0. -1.
        4   -1    0    0  501    0  0.00000000000E+00  0.00000000000E+00 -0.86602979818E+03  0.86603072938E+03  0.12699999809E+01 0.  1.
    10030    2    1    2    0    0  0.00000000000E+00  0.00000000000E+00 -0.76300989101E+03  0.96905846435E+03  0.59740289048E+03 0.  0.
        5    1    3    3  502    0 -0.26020955566E+03  0.55611206085E+02 -0.16147695533E+03  0.31128526499E+03  0.46999998093E+01 0. -1.
       -5    1    3    3    0  502  0.26020955566E+03 -0.55611206085E+02 -0.60153293568E+03  0.65777319936E+03  0.46999998093E+01 0.  1.
</event>
<event>
 5   0  0.9866317E-03  0.5982920E+03  0.7818609E-02  0.9908956E-01
       -2   -1    0    0    0  501  0.00000000000E+00  0.00000000000E+00  0.28079961996E+03  0.28079961997E+03  0.25500000920E-02 0. -1.
        2   -1    0    0  501    0  0.00000000000E+00  0.00000000000E+00 -0.31869108546E+03  0.31869108547E+03  0.25500000920E-02 0.  1.
    10030    2    1    2    0    0  0.00000000000E+00  0.00000000000E+00 -0.37891465504E+02  0.59949070544E+03  0.59829202130E+03 0.  0.
        1    1    3    3  502    0  0.17895407301E+02 -0.11565713278E+03  0.25690843176E+03  0.28230968864E+03  0.50400001928E-02 0. -1.
       -1    1    3    3    0  502 -0.17895407301E+02  0.11565713278E+03 -0.29479989726E+03  0.31718101680E+03  0.50400001928E-02 0.  1.
</event>
<event>
 5   0  0.3794375E-03  0.6001119E+03  0.7818609E-02  0.9905174E-01
       -3   -1    0    0    0  501  0.00000000000E+00  0.00000000000E+00  0.39899582556E+03  0.39899583834E+03  0.10100000352E+00 0. -1.
        3   -1    0    0  501    0  0.00000000000E+00  0.00000000000E+00 -0.22565037872E+03  0.22565040133E+03  0.10100000352E+00 0.  1.
    10030    2    1    2    0    0  0.00000000000E+00  0.00000000000E+00  0.17334544683E+03  0.62464623967E+03  0.60011189023E+03 0.  0.
        4    1    3    3  502    0 -0.12170135535E+03 -0.75690246995E+02 -0.18771737850E+03  0.23617718026E+03  0.12699999809E+01 0.  1.
       -4    1    3    3    0  502  0.12170135535E+03  0.75690246995E+02  0.36106282533E+03  0.38846905941E+03  0.12699999809E+01 0. -1.
</event>
<event>
 5   0  0.5785798E-03  0.5982704E+03  0.7818609E-02  0.9909001E-01
        1   -1    0    0  501    0  0.00000000000E+00  0.00000000000E+00  0.22270908564E+03  0.22270908570E+03  0.50400001928E-02 0.  1.
       -1   -1    0    0    0  501  0.00000000000E+00  0.00000000000E+00 -0.40178814372E+03  0.40178814375E+03  0.50400001928E-02 0. -1.
    10030    2    1    2    0    0  0.00000000000E+00  0.00000000000E+00 -0.17907905808E+03  0.62449722945E+03  0.59827040755E+03 0.  0.
        1    1    3    3  502    0  0.18338028977E+02  0.23148292700E+03 -0.28638319760E+03  0.36869494802E+03  0.50400001928E-02 0. -1.
       -1    1    3    3    0  502 -0.18338028977E+02 -0.23148292700E+03  0.10730413952E+03  0.25580228143E+03  0.50400001928E-02 0.  1.
</event>
<event>
 5   0  0.9530666E-03  0.6000488E+03  0.7818609E-02  0.9905305E-01
        2   -1    0    0  501    0  0.00000000000E+00  0.00000000000E+00  0.82966830994E+03  0.82966830994E+03  0.25500000920E-02 0. -1.
       -2   -1    0    0    0  501  0.00000000000E+00  0.00000000000E+00 -0.10849472277E+03  0.10849472280E+03  0.25500000920E-02 0.  1.
    10030    2    1    2    0    0  0.00000000000E+00  0.00000000000E+00  0.72117358717E+03  0.93816303274E+03  0.60004877566E+03 0.  0.
        2    1    3    3  502    0  0.14584171879E+03 -0.50825708671E+02 -0.41569320148E+02  0.15994082651E+03  0.25500000920E-02 0.  1.
       -2    1    3    3    0  502 -0.14584171879E+03  0.50825708671E+02  0.76274290732E+03  0.77822220623E+03  0.25500000920E-02 0. -1.
</event>
<event>
 5   0  0.5574736E-03  0.6065336E+03  0.7818609E-02  0.9891943E-01
        1   -1    0    0  501    0  0.00000000000E+00  0.00000000000E+00  0.13209634408E+04  0.13209634408E+04  0.50400001928E-02 0. -1.
       -1   -1    0    0    0  501  0.00000000000E+00  0.00000000000E+00 -0.69623992663E+02  0.69623992845E+02  0.50400001928E-02 0.  1.
    10030    2    1    2    0    0  0.00000000000E+00  0.00000000000E+00  0.12513394481E+04  0.13905874337E+04  0.60653359031E+03 0.  0.
        5    1    3    3  502    0 -0.56437412484E+02 -0.22913528940E+03  0.10622461863E+04  0.10881531200E+04  0.46999998093E+01 0. -1.
       -5    1    3    3    0  502  0.56437412484E+02  0.22913528940E+03  0.18909326185E+03  0.30243431361E+03  0.46999998093E+01 0.  1.
</event>
<event>
 5   0  0.5503975E-03  0.5999045E+03  0.7818609E-02  0.9905604E-01
       -1   -1    0    0    0  501  0.00000000000E+00  0.00000000000E+00  0.28713384703E+03  0.28713384707E+03  0.50400001928E-02 0.  1.
        1   -1    0    0  501    0  0.00000000000E+00  0.00000000000E+00 -0.31334291842E+03  0.31334291847E+03  0.50400001928E-02 0. -1.
    10030    2    1    2    0    0  0.00000000000E+00  0.00000000000E+00 -0.26209071395E+02  0.60047676554E+03  0.59990451784E+03 0.  0.
        4    1    3    3  502    0  0.20742542702E+03 -0.41020447774E+01  0.20372992003E+03  0.29077418689E+03  0.12699999809E+01 0.  1.
       -4    1    3    3    0  502 -0.20742542702E+03  0.41020447774E+01 -0.22993899142E+03  0.30970257865E+03  0.12699999809E+01 0. -1.
</event>
<event>
 5   0  0.5491236E-03  0.5998134E+03  0.7818609E-02  0.9905793E-01
       -1   -1    0    0    0  501  0.00000000000E+00  0.00000000000E+00  0.18418968071E+03  0.18418968078E+03  0.50400001928E-02 0.  1.
        1   -1    0    0  501    0  0.00000000000E+00  0.00000000000E+00 -0.48832285335E+03  0.48832285338E+03  0.50400001928E-02 0. -1.
    10030    2    1    2    0    0  0.00000000000E+00  0.00000000000E+00 -0.30413317265E+03  0.67251253416E+03  0.59981340590E+03 0.  0.
        3    1    3    3  502    0 -0.21366034836E+03  0.12992789135E+03  0.33566218189E+02  0.25230676292E+03  0.10100000352E+00 0.  1.
       -3    1    3    3    0  502  0.21366034836E+03 -0.12992789135E+03 -0.33769939083E+03  0.42020577124E+03  0.10100000352E+00 0. -1.
</event>
<event>
 5   0  0.5574736E-03  0.6006170E+03  0.7818609E-02  0.9904127E-01
        1   -1    0    0  501    0  0.00000000000E+00  0.00000000000E+00  0.12686517844E+03  0.12686517854E+03  0.50400001928E-02 0.  1.
       -1   -1    0    0    0  501  0.00000000000E+00  0.00000000000E+00 -0.71087424698E+03  0.71087424700E+03  0.50400001928E-02 0. -1.
    10030    2    1    2    0    0  0.00000000000E+00  0.00000000000E+00 -0.58400906854E+03  0.83773942554E+03  0.60061697693E+03 0.  0.
        5    1    3    3  502    0 -0.17348506893E+03  0.92768003940E+02 -0.60841203903E+03  0.63944528376E+03  0.46999998093E+01 0. -1.
       -5    1    3    3    0  502  0.17348506893E+03 -0.92768003940E+02  0.24402970491E+02  0.19829414178E+03  0.46999998093E+01 0.  1.
</event>
<event>
 5   0  0.9428629E-03  0.5998423E+03  0.7818609E-02  0.9905733E-01
       -2   -1    0    0    0  501  0.00000000000E+00  0.00000000000E+00  0.20761731777E+03  0.20761731778E+03  0.25500000920E-02 0. -1.
        2   -1    0    0  501    0  0.00000000000E+00  0.00000000000E+00 -0.43326200581E+03  0.43326200582E+03  0.25500000920E-02 0.  1.
    10030    2    1    2    0    0  0.00000000000E+00  0.00000000000E+00 -0.22564468804E+03  0.64087932360E+03  0.59984229775E+03 0.  0.
        3    1    3    3  502    0 -0.26266488441E+03 -0.13494230142E+03 -0.16885466517E+03  0.34016786204E+03  0.10100000352E+00 0.  1.
       -3    1    3    3    0  502  0.26266488441E+03  0.13494230142E+03 -0.56790022873E+02  0.30071146156E+03  0.10100000352E+00 0. -1.
</event>
<event>
 5   0  0.9681801E-03  0.5966830E+03  0.7818609E-02  0.9912312E-01
        2   -1    0    0  501    0  0.00000000000E+00  0.00000000000E+00  0.11690524021E+04  0.11690524021E+04  0.25500000920E-02 0. -1.
       -2   -1    0    0    0  501  0.00000000000E+00  0.00000000000E+00 -0.76136589151E+02  0.76136589194E+02  0.25500000920E-02 0.  1.
    10030    2    1    2    0    0  0.00000000000E+00  0.00000000000E+00  0.10929158130E+04  0.12451889913E+04  0.59668303970E+03 0.  0.
        4    1    3    3  502    0 -0.21092466977E+03  0.16408513253E+02  0.98542949151E+03  0.10078845922E+04  0.12699999809E+01 0. -1.
       -4    1    3    3    0  502  0.21092466977E+03 -0.16408513253E+02  0.10748632146E+03  0.23730439909E+03  0.12699999809E+01 0.  1.
</event>
<event>
 5   0  0.5503975E-03  0.5999481E+03  0.7818609E-02  0.9905514E-01
        1   -1    0    0  501    0  0.00000000000E+00  0.00000000000E+00  0.41813011775E+03  0.41813011778E+03  0.50400001928E-02 0.  1.
       -1   -1    0    0    0  501  0.00000000000E+00  0.00000000000E+00 -0.21520673173E+03  0.21520673178E+03  0.50400001928E-02 0. -1.
    10030    2    1    2    0    0  0.00000000000E+00  0.00000000000E+00  0.20292338602E+03  0.63333684956E+03  0.59994805143E+03 0.  0.
        4    1    3    3  502    0  0.86736571134E+02 -0.16780228442E+03  0.34745816472E+03  0.39548657191E+03  0.12699999809E+01 0.  1.
       -4    1    3    3    0  502 -0.86736571134E+02  0.16780228442E+03 -0.14453477870E+03  0.23785027766E+03  0.12699999809E+01 0. -1.
</event>
<event>
 5   0  0.5491236E-03  0.5996076E+03  0.7818609E-02  0.9906220E-01
        1   -1    0    0  501    0  0.00000000000E+00  0.00000000000E+00  0.46066313175E+03  0.46066313177E+03  0.50400001928E-02 0. -1.
       -1   -1    0    0    0  501  0.00000000000E+00  0.00000000000E+00 -0.19511508691E+03  0.19511508697E+03  0.50400001928E-02 0.  1.
    10030    2    1    2    0    0  0.00000000000E+00  0.00000000000E+00  0.26554804484E+03  0.65577821875E+03  0.59960762843E+03 0.  0.
        3    1    3    3  502    0  0.75761303100E+02 -0.25263758821E+03 -0.23115667279E+02  0.26476380096E+03  0.10100000352E+00 0.  1.
       -3    1    3    3    0  502 -0.75761303100E+02  0.25263758821E+03  0.28866371212E+03  0.39101441779E+03  0.10100000352E+00 0. -1.
</event>
<event>
 5   0  0.9428629E-03  0.5992263E+03  0.7818609E-02  0.9907013E-01
       -2   -1    0    0    0  501  0.00000000000E+00  0.00000000000E+00  0.82005551109E+02  0.82005551149E+02  0.25500000920E-02 0. -1.
        2   -1    0    0  501    0  0.00000000000E+00  0.00000000000E+00 -0.10946581147E+04  0.10946581147E+04  0.25500000920E-02 0.  1.
    10030    2    1    2    0    0  0.00000000000E+00  0.00000000000E+00 -0.10126525636E+04  0.11766636658E+04  0.59922630782E+03 0.  0.
        3    1    3    3  502    0 -0.12085242958E+03  0.99198648846E+02 -0.44549692054E+01  0.15641463684E+03  0.10100000352E+00 0. -1.
       -3    1    3    3    0  502  0.12085242958E+03 -0.99198648846E+02 -0.10081975944E+04  0.10202490290E+04  0.10100000352E+00 0.  1.
</event>
<event>
 5   0  0.5503975E-03  0.6001863E+03  0.7818609E-02  0.9905020E-01
        1   -1    0    0  501    0  0.00000000000E+00  0.00000000000E+00  0.15696381907E+03  0.15696381915E+03  0.50400001928E-02 0.  1.
       -1   -1    0    0    0  501  0.00000000000E+00  0.00000000000E+00 -0.57373675823E+03  0.57373675825E+03  0.50400001928E-02 0. -1.
    10030    2    1    2    0    0  0.00000000000E+00  0.00000000000E+00 -0.41677293916E+03  0.73070057741E+03  0.60018634690E+03 0.  0.
        4    1    3    3  502    0 -0.12157089567E+03 -0.17862971812E+02  0.12492922381E+03  0.17523553377E+03  0.12699999809E+01 0.  1.
       -4    1    3    3    0  502  0.12157089567E+03  0.17862971812E+02 -0.54170216297E+03  0.55546504363E+03  0.12699999809E+01 0. -1.
</event>
<event>
 5   0  0.9428629E-03  0.6010993E+03  0.7818609E-02  0.9903128E-01
       -2   -1    0    0    0  501  0.00000000000E+00  0.00000000000E+00  0.14675550660E+03  0.14675550662E+03  0.25500000920E-02 0.  1.
        2   -1    0    0  501    0  0.00000000000E+00  0.00000000000E+00 -0.61551417507E+03  0.61551417508E+03  0.25500000920E-02 0. -1.
    10030    2    1    2    0    0  0.00000000000E+00  0.00000000000E+00 -0.46875866847E+03  0.76226968170E+03  0.60109930824E+03 0.  0.
        3    1    3    3  502    0 -0.23783547331E+03 -0.77228880450E+02 -0.44581847203E+03  0.51115959597E+03  0.10100000352E+00 0. -1.
       -3    1    3    3    0  502  0.23783547331E+03  0.77228880450E+02 -0.22940196441E+02  0.25111008573E+03  0.10100000352E+00 0.  1.
</event>
<event>
 5   0  0.5574736E-03  0.6010619E+03  0.7818609E-02  0.9903205E-01
       -1   -1    0    0    0  501  0.00000000000E+00  0.00000000000E+00  0.46051253820E+03  0.46051253822E+03  0.50400001928E-02 0. -1.
        1   -1    0    0  501    0  0.00000000000E+00  0.00000000000E+00 -0.19612682484E+03  0.19612682490E+03  0.50400001928E-02 0.  1.
    10030    2    1    2    0    0  0.00000000000E+00  0.00000000000E+00  0.26438571336E+03  0.65663936313E+03  0.60106193340E+03 0.  0.
        5    1    3    3  502    0  0.25208059208E+03  0.86231162186E+02 -0.19641494996E+02  0.26718592134E+03  0.46999998093E+01 0.  1.
       -5    1    3    3    0  502 -0.25208059208E+03 -0.86231162186E+02  0.28402720835E+03  0.38945344179E+03  0.46999998093E+01 0. -1.
</event>
<event>
 5   0  0.5653633E-03  0.6008449E+03  0.7818609E-02  0.9903655E-01
        1   -1    0    0  501    0  0.00000000000E+00  0.00000000000E+00  0.90682793178E+03  0.90682793179E+03  0.50400001928E-02 0. -1.
       -1   -1    0    0    0  501  0.00000000000E+00  0.00000000000E+00 -0.99526755206E+02  0.99526755333E+02  0.50400001928E-02 0.  1.
    10030    2    1    2    0    0  0.00000000000E+00  0.00000000000E+00  0.80730117657E+03  0.10063546871E+04  0.60084487732E+03 0.  0.
        2    1    3    3  502    0 -0.17497843901E+03 -0.24310462982E+03  0.36486205716E+03  0.47206105105E+03  0.25500000920E-02 0.  1.
       -2    1    3    3    0  502  0.17497843901E+03  0.24310462982E+03  0.44243911941E+03  0.53429363608E+03  0.25500000920E-02 0. -1.
</event>
<event>
 5   0  0.9571790E-03  0.6051561E+03  0.7818609E-02  0.9894766E-01
       -2   -1    0    0    0  501  0.00000000000E+00  0.00000000000E+00  0.71583062332E+02  0.71583062377E+02  0.25500000920E-02 0.  1.
        2   -1    0    0  501    0  0.00000000000E+00  0.00000000000E+00 -0.12789825847E+04  0.12789825847E+04  0.25500000920E-02 0. -1.
    10030    2    1    2    0    0  0.00000000000E+00  0.00000000000E+00 -0.12073995224E+04  0.13505656471E+04  0.60515614553E+03 0.  0.
        5    1    3    3  502    0 -0.10165773348E+03 -0.22233476725E+03 -0.20594234816E+03  0.31968951229E+03  0.46999998093E+01 0.  1.
       -5    1    3    3    0  502  0.10165773348E+03  0.22233476725E+03 -0.10014571743E+04  0.10308761348E+04  0.46999998093E+01 0. -1.
</event>
<event>
 5   0  0.5785798E-03  0.5987485E+03  0.7818609E-02  0.9908006E-01
        1   -1    0    0  501    0  0.00000000000E+00  0.00000000000E+00  0.61139132394E+03  0.61139132396E+03  0.50400001928E-02 0.  1.
       -1   -1    0    0    0  501  0.00000000000E+00  0.00000000000E+00 -0.14659178147E+03  0.14659178156E+03  0.50400001928E-02 0. -1.
    10030    2    1    2    0    0  0.00000000000E+00  0.00000000000E+00  0.46479954246E+03  0.75798310552E+03  0.59874850611E+03 0.  0.
        1    1    3    3  502    0  0.18299266479E+03 -0.23545417701E+03  0.19890698802E+03  0.35845358800E+03  0.50400001928E-02 0. -1.
       -1    1    3    3    0  502 -0.18299266479E+03  0.23545417701E+03  0.26589255444E+03  0.39952951752E+03  0.50400001928E-02 0.  1.
</event>
<event>
 5   0  0.5785798E-03  0.6006505E+03  0.7818609E-02  0.9904057E-01
       -1   -1    0    0    0  501  0.00000000000E+00  0.00000000000E+00  0.30157926142E+03  0.30157926146E+03  0.50400001928E-02 0. -1.
        1   -1    0    0  501    0  0.00000000000E+00  0.00000000000E+00 -0.29907643670E+03  0.29907643674E+03  0.50400001928E-02 0.  1.
    10030    2    1    2    0    0  0.00000000000E+00  0.00000000000E+00  0.25028247244E+01  0.60065569820E+03  0.60065048377E+03 0.  0.
        1    1    3    3  502    0 -0.12756711768E+03  0.23272420670E+03  0.14182761270E+03  0.30091360495E+03  0.50400001928E-02 0. -1.
       -1    1    3    3    0  502  0.12756711768E+03 -0.23272420670E+03 -0.13932478797E+03  0.29974209325E+03  0.50400001928E-02 0.  1.
</event>
<event>
 5   0  0.9571790E-03  0.5999213E+03  0.7818609E-02  0.9905569E-01
        2   -1    0    0  501    0  0.00000000000E+00  0.00000000000E+00  0.19698872446E+03  0.19698872447E+03  0.25500000920E-02 0.  1.
       -2   -1    0    0    0  501  0.00000000000E+00  0.00000000000E+00 -0.45675916019E+03  0.45675916019E+03  0.25500000920E-02 0. -1.
    10030    2    1    2    0    0  0.00000000000E+00  0.00000000000E+00 -0.25977043573E+03  0.65374788467E+03  0.59992134270E+03 0.  0.
        5    1    3    3  502    0  0.22316627394E+03  0.93977723047E+02  0.62965881573E+02  0.25024346244E+03  0.46999998093E+01 0.  1.
       -5    1    3    3    0  502 -0.22316627394E+03 -0.93977723047E+02 -0.32273631730E+03  0.40350442223E+03  0.46999998093E+01 0. -1.
</event>
<event>
 5   0  0.5503975E-03  0.6003488E+03  0.7818609E-02  0.9904683E-01
        1   -1    0    0  501    0  0.00000000000E+00  0.00000000000E+00  0.15649508516E+03  0.15649508524E+03  0.50400001928E-02 0.  1.
       -1   -1    0    0    0  501  0.00000000000E+00  0.00000000000E+00 -0.57576682627E+03  0.57576682630E+03  0.50400001928E-02 0. -1.
    10030    2    1    2    0    0  0.00000000000E+00  0.00000000000E+00 -0.41927174112E+03  0.73226191153E+03  0.60034882709E+03 0.  0.
        4    1    3    3  502    0 -0.82193723068E+02  0.27589038508E+03 -0.10591060167E+03  0.30674090229E+03  0.12699999809E+01 0. -1.
       -4    1    3    3    0  502  0.82193723068E+02 -0.27589038508E+03 -0.31336113944E+03  0.42552100924E+03  0.12699999809E+01 0.  1.
</event>
<event>
 5   0  0.5785798E-03  0.6005182E+03  0.7818609E-02  0.9904332E-01
       -1   -1    0    0    0  501  0.00000000000E+00  0.00000000000E+00  0.53535787316E+02  0.53535787553E+02  0.50400001928E-02 0.  1.
        1   -1    0    0  501    0  0.00000000000E+00  0.00000000000E+00 -0.16840234833E+04  0.16840234833E+04  0.50400001928E-02 0. -1.
    10030    2    1    2    0    0  0.00000000000E+00  0.00000000000E+00 -0.16304876960E+04  0.17375592709E+04  0.60051818707E+03 0.  0.
        1    1    3    3  502    0  0.16463380166E+03  0.21206031416E+03 -0.42616951169E+03  0.50368077014E+03  0.50400001928E-02 0.  1.
       -1    1    3    3    0  502 -0.16463380166E+03 -0.21206031416E+03 -0.12043181843E+04  0.12338785007E+04  0.50400001928E-02 0. -1.
</event>
<event>
 5   0  0.9571790E-03  0.5980167E+03  0.7818609E-02  0.9909529E-01
       -2   -1    0    0    0  501  0.00000000000E+00  0.00000000000E+00  0.92706087735E+03  0.92706087736E+03  0.25500000920E-02 0. -1.
        2   -1    0    0  501    0  0.00000000000E+00  0.00000000000E+00 -0.96440245867E+02  0.96440245901E+02  0.25500000920E-02 0.  1.
    10030    2    1    2    0    0  0.00000000000E+00  0.00000000000E+00  0.83062063149E+03  0.10235011233E+04  0.59801665182E+03 0.  0.
        5    1    3    3  502    0  0.24232887081E+03  0.16712681378E+03  0.50472226202E+03  0.58431267768E+03  0.46999998093E+01 0.  1.
       -5    1    3    3    0  502 -0.24232887081E+03 -0.16712681378E+03  0.32589836946E+03  0.43918844558E+03  0.46999998093E+01 0. -1.
</event>
<event>
 5   0  0.5574736E-03  0.6003598E+03  0.7818609E-02  0.9904660E-01
       -1   -1    0    0    0  501  0.00000000000E+00  0.00000000000E+00  0.89612845433E+02  0.89612845575E+02  0.50400001928E-02 0.  1.
        1   -1    0    0  501    0  0.00000000000E+00  0.00000000000E+00 -0.10055252284E+04  0.10055252284E+04  0.50400001928E-02 0. -1.
    10030    2    1    2    0    0  0.00000000000E+00  0.00000000000E+00 -0.91591238298E+03  0.10951380740E+04  0.60035981530E+03 0.  0.
        5    1    3    3  502    0 -0.21128751955E+03 -0.20147514808E+03 -0.58500876097E+03  0.65382871734E+03  0.46999998093E+01 0. -1.
       -5    1    3    3    0  502  0.21128751955E+03  0.20147514808E+03 -0.33090362201E+03  0.44130935666E+03  0.46999998093E+01 0.  1.
</event>
<event>
 5   0  0.9428629E-03  0.5986249E+03  0.7818609E-02  0.9908263E-01
        2   -1    0    0  501    0  0.00000000000E+00  0.00000000000E+00  0.21185845483E+04  0.21185845483E+04  0.25500000920E-02 0.  1.
       -2   -1    0    0    0  501  0.00000000000E+00  0.00000000000E+00 -0.42286696699E+02  0.42286696776E+02  0.25500000920E-02 0. -1.
    10030    2    1    2    0    0  0.00000000000E+00  0.00000000000E+00  0.20762978516E+04  0.21608712451E+04  0.59862489861E+03 0.  0.
        3    1    3    3  502    0 -0.46466944999E+02 -0.29484684340E+03  0.95791114051E+03  0.10033382288E+04  0.10100000352E+00 0.  1.
       -3    1    3    3    0  502  0.46466944999E+02  0.29484684340E+03  0.11183867111E+04  0.11575330163E+04  0.10100000352E+00 0. -1.
</event>
<event>
 5   0  0.5653633E-03  0.5982004E+03  0.7818609E-02  0.9909147E-01
       -1   -1    0    0    0  501  0.00000000000E+00  0.00000000000E+00  0.81205989645E+02  0.81205989801E+02  0.50400001928E-02 0.  1.
        1   -1    0    0  501    0  0.00000000000E+00  0.00000000000E+00 -0.11016542890E+04  0.11016542890E+04  0.50400001928E-02 0. -1.
    10030    2    1    2    0    0  0.00000000000E+00  0.00000000000E+00 -0.10204482993E+04  0.11828602788E+04  0.59820039078E+03 0.  0.
        2    1    3    3  502    0 -0.81804818825E+01  0.21206791193E+02  0.79495724593E+02  0.82681427852E+02  0.25500000920E-02 0.  1.
       -2    1    3    3    0  502  0.81804818825E+01 -0.21206791193E+02 -0.10999440239E+04  0.11001788509E+04  0.25500000920E-02 0. -1.
</event>
<event>
 5   0  0.5503975E-03  0.5919377E+03  0.7818609E-02  0.9922275E-01
        1   -1    0    0  501    0  0.00000000000E+00  0.00000000000E+00  0.23234428971E+03  0.23234428976E+03  0.50400001928E-02 0. -1.
       -1   -1    0    0    0  501  0.00000000000E+00  0.00000000000E+00 -0.37701618873E+03  0.37701618877E+03  0.50400001928E-02 0.  1.
    10030    2    1    2    0    0  0.00000000000E+00  0.00000000000E+00 -0.14467189903E+03  0.60936047853E+03  0.59193769472E+03 0.  0.
        4    1    3    3  502    0  0.24418481432E+03  0.15028970406E+03  0.31905687612E+01  0.28674903892E+03  0.12699999809E+01 0. -1.
       -4    1    3    3    0  502 -0.24418481432E+03 -0.15028970406E+03 -0.14786246779E+03  0.32261143962E+03  0.12699999809E+01 0.  1.
</event>
<event>
 5   0  0.5785798E-03  0.5990280E+03  0.7818609E-02  0.9907425E-01
        1   -1    0    0  501    0  0.00000000000E+00  0.00000000000E+00  0.53488480573E+03  0.53488480576E+03  0.50400001928E-02 0.  1.
       -1   -1    0    0    0  501  0.00000000000E+00  0.00000000000E+00 -0.16771578017E+03  0.16771578025E+03  0.50400001928E-02 0. -1.
    10030    2    1    2    0    0  0.00000000000E+00  0.00000000000E+00  0.36716902556E+03  0.70260058601E+03  0.59902795438E+03 0.  0.
        1    1    3    3  502    0  0.24106448586E+03  0.30828595517E+02  0.38891302723E+03  0.45860204035E+03  0.50400001928E-02 0.  1.
       -1    1    3    3    0  502 -0.24106448586E+03 -0.30828595517E+02 -0.21744001663E+02  0.24399854565E+03  0.50400001928E-02 0. -1.
</event>
<event>
 5   0  0.5503975E-03  0.6011001E+03  0.7818609E-02  0.9903126E-01
       -1   -1    0    0    0  501  0.00000000000E+00  0.00000000000E+00  0.55677645116E+02  0.55677645345E+02  0.50400001928E-02 0.  1.
        1   -1    0    0  501    0  0.00000000000E+00  0.00000000000E+00 -0.16223808426E+04  0.16223808426E+04  0.50400001928E-02 0. -1.
    10030    2    1    2    0    0  0.00000000000E+00  0.00000000000E+00 -0.15667031975E+04  0.16780584880E+04  0.60110014139E+03 0.  0.
        4    1    3    3  502    0  0.28127991745E+03 -0.76441853453E+02 -0.57883649783E+03  0.64808568341E+03  0.12699999809E+01 0.  1.
       -4    1    3    3    0  502 -0.28127991745E+03  0.76441853453E+02 -0.98786669966E+03  0.10299728045E+04  0.12699999809E+01 0. -1.
</event>
<event>
 5   0  0.9530666E-03  0.6010315E+03  0.7818609E-02  0.9903268E-01
        2   -1    0    0  501    0  0.00000000000E+00  0.00000000000E+00  0.13825142538E+04  0.13825142538E+04  0.25500000920E-02 0.  1.
       -2   -1    0    0    0  501  0.00000000000E+00  0.00000000000E+00 -0.65322820528E+02  0.65322820578E+02  0.25500000920E-02 0. -1.
    10030    2    1    2    0    0  0.00000000000E+00  0.00000000000E+00  0.13171914333E+04  0.14478370744E+04  0.60103154832E+03 0.  0.
        2    1    3    3  502    0  0.28690100097E+03 -0.88161387641E+02  0.69473882471E+03  0.75680027034E+03  0.25500000920E-02 0.  1.
       -2    1    3    3    0  502 -0.28690100097E+03  0.88161387641E+02  0.62245260859E+03  0.69103680407E+03  0.25500000920E-02 0. -1.
</event>
<event>
 5   0  0.9866317E-03  0.5994245E+03  0.7818609E-02  0.9906601E-01
       -2   -1    0    0    0  501  0.00000000000E+00  0.00000000000E+00  0.18539438924E+03  0.18539438926E+03  0.25500000920E-02 0.  1.
        2   -1    0    0  501    0  0.00000000000E+00  0.00000000000E+00 -0.48452075362E+03  0.48452075362E+03  0.25500000920E-02 0. -1.
    10030    2    1    2    0    0  0.00000000000E+00  0.00000000000E+00 -0.29912636437E+03  0.66991514288E+03  0.59942448799E+03 0.  0.
        1    1    3    3  502    0 -0.27784057928E+03 -0.11238497634E+03 -0.15100257391E+03  0.33560027973E+03  0.50400001928E-02 0.  1.
       -1    1    3    3    0  502  0.27784057928E+03  0.11238497634E+03 -0.14812379046E+03  0.33431486315E+03  0.50400001928E-02 0. -1.
</event>
<event>
 5   0  0.9428629E-03  0.6011459E+03  0.7818609E-02  0.9903031E-01
       -2   -1    0    0    0  501  0.00000000000E+00  0.00000000000E+00  0.32458348143E+03  0.32458348144E+03  0.25500000920E-02 0.  1.
        2   -1    0    0  501    0  0.00000000000E+00  0.00000000000E+00 -0.27833857837E+03  0.27833857838E+03  0.25500000920E-02 0. -1.
    10030    2    1    2    0    0  0.00000000000E+00  0.00000000000E+00  0.46244903065E+02  0.60292205982E+03  0.60114592168E+03 0.  0.
        3    1    3    3  502    0  0.10358884474E+03 -0.62372730039E+02 -0.25286887147E+03  0.28029213789E+03  0.10100000352E+00 0. -1.
       -3    1    3    3    0  502 -0.10358884474E+03  0.62372730039E+02  0.29911377453E+03  0.32262992193E+03  0.10100000352E+00 0.  1.
</event>
<event>
 5   0  0.9866317E-03  0.6163705E+03  0.7818609E-02  0.9872013E-01
        2   -1    0    0  501    0  0.00000000000E+00  0.00000000000E+00  0.53862470319E+03  0.53862470320E+03  0.25500000920E-02 0. -1.
       -2   -1    0    0    0  501  0.00000000000E+00  0.00000000000E+00 -0.17633455318E+03  0.17633455320E+03  0.25500000920E-02 0.  1.
    10030    2    1    2    0    0  0.00000000000E+00  0.00000000000E+00  0.36229015001E+03  0.71495925640E+03  0.61637049371E+03 0.  0.
        1    1    3    3  502    0 -0.21573669228E+03  0.19764789290E+03  0.68856496964E+02  0.30057981829E+03  0.50400001928E-02 0.  1.
       -1    1    3    3    0  502  0.21573669228E+03 -0.19764789290E+03  0.29343365304E+03  0.41437943811E+03  0.50400001928E-02 0. -1.
</event>
<event>
 5   0  0.9681801E-03  0.5983597E+03  0.7818609E-02  0.9908815E-01
       -2   -1    0    0    0  501  0.00000000000E+00  0.00000000000E+00  0.16239057328E+03  0.16239057330E+03  0.25500000920E-02 0.  1.
        2   -1    0    0  501    0  0.00000000000E+00  0.00000000000E+00 -0.55119315829E+03  0.55119315830E+03  0.25500000920E-02 0. -1.
    10030    2    1    2    0    0  0.00000000000E+00  0.00000000000E+00 -0.38880258502E+03  0.71358373159E+03  0.59835966766E+03 0.  0.
        4    1    3    3  502    0  0.11844108701E+03 -0.25968251730E+03 -0.30135835298E+03  0.41506839279E+03  0.12699999809E+01 0. -1.
       -4    1    3    3    0  502 -0.11844108701E+03  0.25968251730E+03 -0.87444232032E+02  0.29851533880E+03  0.12699999809E+01 0.  1.
</event>
<event>
 5   0  0.5491236E-03  0.5996240E+03  0.7818609E-02  0.9906186E-01
       -1   -1    0    0    0  501  0.00000000000E+00  0.00000000000E+00  0.20828006733E+03  0.20828006739E+03  0.50400001928E-02 0.  1.
        1   -1    0    0  501    0  0.00000000000E+00  0.00000000000E+00 -0.43156911043E+03  0.43156911046E+03  0.50400001928E-02 0. -1.
    10030    2    1    2    0    0  0.00000000000E+00  0.00000000000E+00 -0.22328904310E+03  0.63984917785E+03  0.59962402689E+03 0.  0.
        3    1    3    3  502    0  0.26033833032E+03 -0.14859865550E+03 -0.10583635366E+03  0.31789770463E+03  0.10100000352E+00 0. -1.
       -3    1    3    3    0  502 -0.26033833032E+03  0.14859865550E+03 -0.11745268944E+03  0.32195147322E+03  0.10100000352E+00 0.  1.
</event>
<event>
 5   0  0.5785798E-03  0.6047450E+03  0.7818609E-02  0.9895610E-01
       -1   -1    0    0    0  501  0.00000000000E+00  0.00000000000E+00  0.16868481717E+03  0.16868481724E+03  0.50400001928E-02 0.  1.
        1   -1    0    0  501    0  0.00000000000E+00  0.00000000000E+00 -0.54201164069E+03  0.54201164071E+03  0.50400001928E-02 0. -1.
    10030    2    1    2    0    0  0.00000000000E+00  0.00000000000E+00 -0.37332682352E+03  0.71069645796E+03  0.60474501915E+03 0.  0.
        1    1    3    3  502    0  0.13762013588E+03 -0.30188926439E+02 -0.50107824773E+03  0.52050944607E+03  0.50400001928E-02 0. -1.
       -1    1    3    3    0  502 -0.13762013588E+03  0.30188926439E+02  0.12775142420E+03  0.19018701189E+03  0.50400001928E-02 0.  1.
</event>
<event>
 5   0  0.5574736E-03  0.6066309E+03  0.7818609E-02  0.9891744E-01
        1   -1    0    0  501    0  0.00000000000E+00  0.00000000000E+00  0.14253129910E+03  0.14253129919E+03  0.50400001928E-02 0.  1.
       -1   -1    0    0    0  501  0.00000000000E+00  0.00000000000E+00 -0.64547409498E+03  0.64547409500E+03  0.50400001928E-02 0. -1.
    10030    2    1    2    0    0  0.00000000000E+00  0.00000000000E+00 -0.50294279589E+03  0.78800539419E+03  0.60663089712E+03 0.  0.
        5    1    3    3  502    0 -0.50145672001E+02 -0.13379044421E+03 -0.59896839612E+03  0.61579192990E+03  0.46999998093E+01 0. -1.
       -5    1    3    3    0  502  0.50145672001E+02  0.13379044421E+03  0.96025600238E+02  0.17221346428E+03  0.46999998093E+01 0.  1.
</event>
<event>
 5   0  0.5503975E-03  0.5997459E+03  0.7818609E-02  0.9905933E-01
       -1   -1    0    0    0  501  0.00000000000E+00  0.00000000000E+00  0.36697664167E+03  0.36697664170E+03  0.50400001928E-02 0. -1.
        1   -1    0    0  501    0  0.00000000000E+00  0.00000000000E+00 -0.24503949574E+03  0.24503949579E+03  0.50400001928E-02 0.  1.
    10030    2    1    2    0    0  0.00000000000E+00  0.00000000000E+00  0.12193714593E+03  0.61201613749E+03  0.59974585034E+03 0.  0.
        4    1    3    3  502    0  0.27256504699E+03 -0.13169827902E+02 -0.65901255826E+02  0.28073072085E+03  0.12699999809E+01 0.  1.
       -4    1    3    3    0  502 -0.27256504699E+03  0.13169827902E+02  0.18783840175E+03  0.33128541664E+03  0.12699999809E+01 0. -1.
</event>
<event>
 5   0  0.5503975E-03  0.5983347E+03  0.7818609E-02  0.9908867E-01
        1   -1    0    0  501    0  0.00000000000E+00  0.00000000000E+00  0.11879173444E+04  0.11879173444E+04  0.50400001928E-02 0.  1.
       -1   -1    0    0    0  501  0.00000000000E+00  0.00000000000E+00 -0.75342869965E+02  0.75342870134E+02  0.50400001928E-02 0. -1.
    10030    2    1    2    0    0  0.00000000000E+00  0.00000000000E+00  0.11125744745E+04  0.12632602146E+04  0.59833469605E+03 0.  0.
        4    1    3    3  502    0 -0.32042152782E+02 -0.87628629887E+02  0.11564074035E+04  0.11601660106E+04  0.12699999809E+01 0.  1.
       -4    1    3    3    0  502  0.32042152782E+02  0.87628629887E+02 -0.43832929032E+02  0.10309420400E+03  0.12699999809E+01 0. -1.
</event>
<event>
 5   0  0.5491236E-03  0.6001187E+03  0.7818609E-02  0.9905160E-01
        1   -1    0    0  501    0  0.00000000000E+00  0.00000000000E+00  0.12811010137E+03  0.12811010147E+03  0.50400001928E-02 0.  1.
       -1   -1    0    0    0  501  0.00000000000E+00  0.00000000000E+00 -0.70279862293E+03  0.70279862294E+03  0.50400001928E-02 0. -1.
    10030    2    1    2    0    0  0.00000000000E+00  0.00000000000E+00 -0.57468852156E+03  0.83090872441E+03  0.60011866451E+03 0.  0.
        3    1    3    3  502    0  0.23835372365E+02  0.26767483550E+03 -0.47216104035E+03  0.54328077525E+03  0.10100000352E+00 0. -1.
       -3    1    3    3    0  502 -0.23835372365E+02 -0.26767483550E+03 -0.10252748121E+03  0.28762794916E+03  0.10100000352E+00 0.  1.
</event>
<event>
 5   0  0.9681801E-03  0.5996773E+03  0.7818609E-02  0.9906076E-01
       -2   -1    0    0    0  501  0.00000000000E+00  0.00000000000E+00  0.57719866268E+02  0.57719866324E+02  0.25500000920E-02 0.  1.
        2   -1    0    0  501    0  0.00000000000E+00  0.00000000000E+00 -0.15575785964E+04  0.15575785964E+04  0.25500000920E-02 0. -1.
    10030    2    1    2    0    0  0.00000000000E+00  0.00000000000E+00 -0.14998587302E+04  0.16152984627E+04  0.59967734102E+03 0.  0.
        4    1    3    3  502    0 -0.30490807900E+02  0.35471253522E+02 -0.15476831921E+04  0.15483903821E+04  0.12699999809E+01 0. -1.
       -4    1    3    3    0  502  0.30490807900E+02 -0.35471253522E+02  0.47824461991E+02  0.66908080660E+02  0.12699999809E+01 0.  1.
</event>
<event>
 5   0  0.5653633E-03  0.6016242E+03  0.7818609E-02  0.9902042E-01
        1   -1    0    0  501    0  0.00000000000E+00  0.00000000000E+00  0.70984647718E+03  0.70984647720E+03  0.50400001928E-02 0.  1.
       -1   -1    0    0    0  501  0.00000000000E+00  0.00000000000E+00 -0.12747533274E+03  0.12747533284E+03  0.50400001928E-02 0. -1.
    10030    2    1    2    0    0  0.00000000000E+00  0.00000000000E+00  0.58237114444E+03  0.83732181004E+03  0.60162418808E+03 0.  0.
        2    1    3    3  502    0  0.48542604697E+02  0.23943503804E+03  0.46921636232E+02  0.24877130434E+03  0.25500000920E-02 0. -1.
       -2    1    3    3    0  502 -0.48542604697E+02 -0.23943503804E+03  0.53544950821E+03  0.58855050570E+03  0.25500000920E-02 0.  1.
</event>
<event>
 5   0  0.5491236E-03  0.5993858E+03  0.7818609E-02  0.9906681E-01
       -1   -1    0    0    0  501  0.00000000000E+00  0.00000000000E+00  0.10287647421E+03  0.10287647434E+03  0.50400001928E-02 0.  1.
        1   -1    0    0  501    0  0.00000000000E+00  0.00000000000E+00 -0.87304538732E+03  0.87304538733E+03  0.50400001928E-02 0. -1.
    10030    2    1    2    0    0  0.00000000000E+00  0.00000000000E+00 -0.77016891310E+03  0.97592186167E+03  0.59938579009E+03 0.  0.
        3    1    3    3  502    0  0.76378071044E+02  0.74788961690E+02 -0.84094885317E+03  0.84771574386E+03  0.10100000352E+00 0. -1.
       -3    1    3    3    0  502 -0.76378071044E+02 -0.74788961690E+02  0.70779940068E+02  0.12820611781E+03  0.10100000352E+00 0.  1.
</event>
<event>
 5   0  0.9571790E-03  0.5990429E+03  0.7818609E-02  0.9907394E-01
       -2   -1    0    0    0  501  0.00000000000E+00  0.00000000000E+00  0.28130617669E+03  0.28130617670E+03  0.25500000920E-02 0.  1.
        2   -1    0    0  501    0  0.00000000000E+00  0.00000000000E+00 -0.31891617315E+03  0.31891617316E+03  0.25500000920E-02 0. -1.
    10030    2    1    2    0    0  0.00000000000E+00  0.00000000000E+00 -0.37609996459E+02  0.60022234986E+03  0.59904286778E+03 0.  0.
        5    1    3    3  502    0 -0.22258838530E+03  0.55100299562E+02  0.17421221215E+03  0.28801669594E+03  0.46999998093E+01 0.  1.
       -5    1    3    3    0  502  0.22258838530E+03 -0.55100299562E+02 -0.21182220861E+03  0.31220565392E+03  0.46999998093E+01 0. -1.
</event>
<event>
 5   0  0.5653633E-03  0.5998613E+03  0.7818609E-02  0.9905694E-01
        1   -1    0    0  501    0  0.00000000000E+00  0.00000000000E+00  0.82532073591E+03  0.82532073593E+03  0.50400001928E-02 0. -1.
       -1   -1    0    0    0  501  0.00000000000E+00  0.00000000000E+00 -0.10899808602E+03  0.10899808614E+03  0.50400001928E-02 0.  1.
    10030    2    1    2    0    0  0.00000000000E+00  0.00000000000E+00  0.71632264989E+03  0.93431882207E+03  0.59986125273E+03 0.  0.
        2    1    3    3  502    0  0.20731603559E+02 -0.29568550449E+03  0.42951489557E+03  0.52186469748E+03  0.25500000920E-02 0.  1.
       -2    1    3    3    0  502 -0.20731603559E+02  0.29568550449E+03  0.28680775431E+03  0.41245412459E+03  0.25500000920E-02 0. -1.
</event>
<event>
 5   0  0.5491236E-03  0.6012947E+03  0.7818609E-02  0.9902724E-01
        1   -1    0    0  501    0  0.00000000000E+00  0.00000000000E+00  0.12694744651E+04  0.12694744651E+04  0.50400001928E-02 0.  1.
       -1   -1    0    0    0  501  0.00000000000E+00  0.00000000000E+00 -0.71201774150E+02  0.71201774329E+02  0.50400001928E-02 0. -1.
    10030    2    1    2    0    0  0.00000000000E+00  0.00000000000E+00  0.11982726909E+04  0.13406762394E+04  0.60129471735E+03 0.  0.
        3    1    3    3  502    0  0.28301074982E+03 -0.92681006788E+02  0.50709826213E+03  0.58807611003E+03  0.10100000352E+00 0. -1.
       -3    1    3    3    0  502 -0.28301074982E+03  0.92681006788E+02  0.69117442881E+03  0.75260012940E+03  0.10100000352E+00 0.  1.
</event>
<event>
 5   0  0.5574736E-03  0.6075590E+03  0.7818609E-02  0.9889846E-01
        1   -1    0    0  501    0  0.00000000000E+00  0.00000000000E+00  0.70347061210E+03  0.70347061211E+03  0.50400001928E-02 0. -1.
       -1   -1    0    0    0  501  0.00000000000E+00  0.00000000000E+00 -0.13118101804E+03  0.13118101813E+03  0.50400001928E-02 0.  1.
    10030    2    1    2    0    0  0.00000000000E+00  0.00000000000E+00  0.57228959406E+03  0.83465163025E+03  0.60755902133E+03 0.  0.
        5    1    3    3  502    0  0.22588018137E+02 -0.22814429465E+03  0.12421805281E+02  0.22964413554E+03  0.46999998093E+01 0.  1.
       -5    1    3    3    0  502 -0.22588018137E+02  0.22814429465E+03  0.55986778878E+03  0.60500749471E+03  0.46999998093E+01 0. -1.
</event>
<event>
 5   0  0.3794375E-03  0.5999186E+03  0.7818609E-02  0.9905575E-01
       -3   -1    0    0    0  501  0.00000000000E+00  0.00000000000E+00  0.22375313209E+03  0.22375315488E+03  0.10100000352E+00 0.  1.
        3   -1    0    0  501    0  0.00000000000E+00  0.00000000000E+00 -0.40211988764E+03  0.40211990033E+03  0.10100000352E+00 0. -1.
    10030    2    1    2    0    0  0.00000000000E+00  0.00000000000E+00 -0.17836675555E+03  0.62587305521E+03  0.59991864594E+03 0.  0.
        5    1    3    3  502    0  0.19951258975E+03 -0.19633670609E+03  0.23180137908E+02  0.28091419405E+03  0.46999998093E+01 0. -1.
       -5    1    3    3    0  502 -0.19951258975E+03  0.19633670609E+03 -0.20154689346E+03  0.34495886116E+03  0.46999998093E+01 0.  1.
</event>
<event>
 5   0  0.9530666E-03  0.6020638E+03  0.7818609E-02  0.9901134E-01
       -2   -1    0    0    0  501  0.00000000000E+00  0.00000000000E+00  0.10561388742E+03  0.10561388745E+03  0.25500000920E-02 0.  1.
        2   -1    0    0  501    0  0.00000000000E+00  0.00000000000E+00 -0.85803297992E+03  0.85803297992E+03  0.25500000920E-02 0. -1.
    10030    2    1    2    0    0  0.00000000000E+00  0.00000000000E+00 -0.75241909250E+03  0.96364686737E+03  0.60206377920E+03 0.  0.
        2    1    3    3  502    0 -0.27749905812E+02 -0.29144455258E+03 -0.26405274208E+03  0.39425097984E+03  0.25500000920E-02 0. -1.
       -2    1    3    3    0  502  0.27749905812E+02  0.29144455258E+03 -0.48836635042E+03  0.56939588752E+03  0.25500000920E-02 0.  1.
</event>
<event>
 5   0  0.9530666E-03  0.6076873E+03  0.7818609E-02  0.9889584E-01
       -2   -1    0    0    0  501  0.00000000000E+00  0.00000000000E+00  0.41043874379E+03  0.41043874380E+03  0.25500000920E-02 0. -1.
        2   -1    0    0  501    0  0.00000000000E+00  0.00000000000E+00 -0.22493237704E+03  0.22493237706E+03  0.25500000920E-02 0.  1.
    10030    2    1    2    0    0  0.00000000000E+00  0.00000000000E+00  0.18550636675E+03  0.63537112086E+03  0.60768729551E+03 0.  0.
        2    1    3    3  502    0 -0.10880591675E+02  0.48636623624E+02  0.40613591715E+03  0.40918246741E+03  0.25500000920E-02 0. -1.
       -2    1    3    3    0  502  0.10880591675E+02 -0.48636623624E+02 -0.22062955040E+03  0.22618865345E+03  0.25500000920E-02 0.  1.
</event>
<event>
 5   0  0.9571790E-03  0.6014523E+03  0.7818609E-02  0.9902398E-01
       -2   -1    0    0    0  501  0.00000000000E+00  0.00000000000E+00  0.21448295094E+03  0.21448295095E+03  0.25500000920E-02 0. -1.
        2   -1    0    0  501    0  0.00000000000E+00  0.00000000000E+00 -0.42164757904E+03  0.42164757904E+03  0.25500000920E-02 0.  1.
    10030    2    1    2    0    0  0.00000000000E+00  0.00000000000E+00 -0.20716462810E+03  0.63613052999E+03  0.60145229907E+03 0.  0.
        5    1    3    3  502    0  0.12049556068E+03 -0.22614615280E+03 -0.26998402282E+03  0.37225626274E+03  0.46999998093E+01 0.  1.
       -5    1    3    3    0  502 -0.12049556068E+03  0.22614615280E+03  0.62819394718E+02  0.26387426726E+03  0.46999998093E+01 0. -1.
</event>
<event>
 5   0  0.9681801E-03  0.5996015E+03  0.7818609E-02  0.9906233E-01
       -2   -1    0    0    0  501  0.00000000000E+00  0.00000000000E+00  0.64394486665E+02  0.64394486716E+02  0.25500000920E-02 0. -1.
        2   -1    0    0  501    0  0.00000000000E+00  0.00000000000E+00 -0.13957794030E+04  0.13957794030E+04  0.25500000920E-02 0.  1.
    10030    2    1    2    0    0  0.00000000000E+00  0.00000000000E+00 -0.13313849164E+04  0.14601738897E+04  0.59960152833E+03 0.  0.
        4    1    3    3  502    0 -0.12864145784E+03  0.95014484173E+02 -0.48165666228E+02  0.16702670799E+03  0.12699999809E+01 0. -1.
       -4    1    3    3    0  502  0.12864145784E+03 -0.95014484173E+02 -0.12832192501E+04  0.12931471818E+04  0.12699999809E+01 0.  1.
</event>
<event>
 5   0  0.5785798E-03  0.5999951E+03  0.7818609E-02  0.9905416E-01
       -1   -1    0    0    0  501  0.00000000000E+00  0.00000000000E+00  0.30400749187E+03  0.30400749191E+03  0.50400001928E-02 0.  1.
        1   -1    0    0  501    0  0.00000000000E+00  0.00000000000E+00 -0.29604046666E+03  0.29604046670E+03  0.50400001928E-02 0. -1.
    10030    2    1    2    0    0  0.00000000000E+00  0.00000000000E+00  0.79670252137E+01  0.60004795862E+03  0.59999506594E+03 0.  0.
        1    1    3    3  502    0  0.23153156787E+03 -0.29267019677E+02  0.19250767520E+03  0.30252707383E+03  0.50400001928E-02 0.  1.
       -1    1    3    3    0  502 -0.23153156787E+03  0.29267019677E+02 -0.18454064999E+03  0.29752088479E+03  0.50400001928E-02 0. -1.
</event>
<event>
 5   0  0.9681801E-03  0.5893497E+03  0.7818609E-02  0.9927752E-01
        2   -1    0    0  501    0  0.00000000000E+00  0.00000000000E+00  0.40660538622E+03  0.40660538623E+03  0.25500000920E-02 0. -1.
       -2   -1    0    0    0  501  0.00000000000E+00  0.00000000000E+00 -0.21355663072E+03  0.21355663073E+03  0.25500000920E-02 0.  1.
    10030    2    1    2    0    0  0.00000000000E+00  0.00000000000E+00  0.19304875550E+03  0.62016201696E+03  0.58934973087E+03 0.  0.
        4    1    3    3  502    0 -0.37796312778E+02  0.88914885228E+02 -0.19641328139E+03  0.21889314306E+03  0.12699999809E+01 0.  1.
       -4    1    3    3    0  502  0.37796312778E+02 -0.88914885228E+02  0.38946203689E+03  0.40126887389E+03  0.12699999809E+01 0. -1.
</event>
<event>
 5   0  0.5503975E-03  0.6013052E+03  0.7818609E-02  0.9902702E-01
       -1   -1    0    0    0  501  0.00000000000E+00  0.00000000000E+00  0.81566665985E+03  0.81566665986E+03  0.50400001928E-02 0.  1.
        1   -1    0    0  501    0  0.00000000000E+00  0.00000000000E+00 -0.11081977523E+03  0.11081977534E+03  0.50400001928E-02 0. -1.
    10030    2    1    2    0    0  0.00000000000E+00  0.00000000000E+00  0.70484688462E+03  0.92648643521E+03  0.60130523352E+03 0.  0.
        4    1    3    3  502    0  0.18476764212E+03 -0.31063240192E+02  0.71471077163E+03  0.73886203479E+03  0.12699999809E+01 0.  1.
       -4    1    3    3    0  502 -0.18476764212E+03  0.31063240192E+02 -0.98638870089E+01  0.18762440042E+03  0.12699999809E+01 0. -1.
</event>
<event>
 5   0  0.9866317E-03  0.5996284E+03  0.7818609E-02  0.9906177E-01
       -2   -1    0    0    0  501  0.00000000000E+00  0.00000000000E+00  0.25538733532E+03  0.25538733534E+03  0.25500000920E-02 0.  1.
        2   -1    0    0  501    0  0.00000000000E+00  0.00000000000E+00 -0.35196945203E+03  0.35196945204E+03  0.25500000920E-02 0. -1.
    10030    2    1    2    0    0  0.00000000000E+00  0.00000000000E+00 -0.96582116708E+02  0.60735678738E+03  0.59962835315E+03 0.  0.
        1    1    3    3  502    0 -0.73844427464E+02  0.29056640889E+03 -0.50913444074E+02  0.30409540650E+03  0.50400001928E-02 0. -1.
       -1    1    3    3    0  502  0.73844427464E+02 -0.29056640889E+03 -0.45668672634E+02  0.30326138087E+03  0.50400001928E-02 0.  1.
</event>
<event>
 5   0  0.5491236E-03  0.5989473E+03  0.7818609E-02  0.9907592E-01
       -1   -1    0    0    0  501  0.00000000000E+00  0.00000000000E+00  0.25797434678E+03  0.25797434683E+03  0.50400001928E-02 0.  1.
        1   -1    0    0  501    0  0.00000000000E+00  0.00000000000E+00 -0.34764877028E+03  0.34764877032E+03  0.50400001928E-02 0. -1.
    10030    2    1    2    0    0  0.00000000000E+00  0.00000000000E+00 -0.89674423500E+02  0.60562311715E+03  0.59894729134E+03 0.  0.
        3    1    3    3  502    0  0.12825279728E+03 -0.10114754290E+03  0.20896816948E+03  0.26523067601E+03  0.10100000352E+00 0.  1.
       -3    1    3    3    0  502 -0.12825279728E+03  0.10114754290E+03 -0.29864259298E+03  0.34039244114E+03  0.10100000352E+00 0. -1.
</event>
<event>
 5   0  0.9428629E-03  0.5991971E+03  0.7818609E-02  0.9907073E-01
        2   -1    0    0  501    0  0.00000000000E+00  0.00000000000E+00  0.56201820370E+03  0.56201820371E+03  0.25500000920E-02 0. -1.
       -2   -1    0    0    0  501  0.00000000000E+00  0.00000000000E+00 -0.15970886688E+03  0.15970886690E+03  0.25500000920E-02 0.  1.
    10030    2    1    2    0    0  0.00000000000E+00  0.00000000000E+00  0.40230933682E+03  0.72172707061E+03  0.59919709776E+03 0.  0.
        3    1    3    3  502    0 -0.43431716499E+01 -0.62764461493E+02 -0.15166238516E+03  0.16419418394E+03  0.10100000352E+00 0.  1.
       -3    1    3    3    0  502  0.43431716499E+01  0.62764461493E+02  0.55397172198E+03  0.55753288667E+03  0.10100000352E+00 0. -1.
</event>
<event>
 5   0  0.5574736E-03  0.6021709E+03  0.7818609E-02  0.9900912E-01
        1   -1    0    0  501    0  0.00000000000E+00  0.00000000000E+00  0.88432159785E+03  0.88432159786E+03  0.50400001928E-02 0. -1.
       -1   -1    0    0    0  501  0.00000000000E+00  0.00000000000E+00 -0.10251071675E+03  0.10251071688E+03  0.50400001928E-02 0.  1.
    10030    2    1    2    0    0  0.00000000000E+00  0.00000000000E+00  0.78181088109E+03  0.98683231474E+03  0.60217087576E+03 0.  0.
        5    1    3    3  502    0  0.12474894490E+03 -0.12477062493E+03  0.79065072516E+03  0.81011151534E+03  0.46999998093E+01 0. -1.
       -5    1    3    3    0  502 -0.12474894490E+03  0.12477062493E+03 -0.88398440654E+01  0.17672079940E+03  0.46999998093E+01 0.  1.
</event>
<event>
 5   0  0.9866317E-03  0.5996552E+03  0.7818609E-02  0.9906122E-01
        2   -1    0    0  501    0  0.00000000000E+00  0.00000000000E+00  0.11608246560E+04  0.11608246560E+04  0.25500000920E-02 0.  1.
       -2   -1    0    0    0  501  0.00000000000E+00  0.00000000000E+00 -0.77442008988E+02  0.77442009030E+02  0.25500000920E-02 0. -1.
    10030    2    1    2    0    0  0.00000000000E+00  0.00000000000E+00  0.10833826470E+04  0.12382666650E+04  0.59965521251E+03 0.  0.
        1    1    3    3  502    0  0.27180617613E+03 -0.12604223416E+03  0.51802505932E+03  0.59842727568E+03  0.50400001928E-02 0. -1.
       -1    1    3    3    0  502 -0.27180617613E+03  0.12604223416E+03  0.56535758770E+03  0.63983938936E+03  0.50400001928E-02 0.  1.
</event>
<event>
 5   0  0.9428629E-03  0.5990798E+03  0.7818609E-02  0.9907317E-01
        2   -1    0    0  501    0  0.00000000000E+00  0.00000000000E+00  0.63804855297E+03  0.63804855298E+03  0.25500000920E-02 0. -1.
       -2   -1    0    0    0  501  0.00000000000E+00  0.00000000000E+00 -0.14062277169E+03  0.14062277171E+03  0.25500000920E-02 0.  1.
    10030    2    1    2    0    0  0.00000000000E+00  0.00000000000E+00  0.49742578128E+03  0.77867132469E+03  0.59907981439E+03 0.  0.
        3    1    3    3  502    0  0.27772636265E+03 -0.95754536167E+02  0.17266435788E+03  0.34075483033E+03  0.10100000352E+00 0.  1.
       -3    1    3    3    0  502 -0.27772636265E+03  0.95754536167E+02  0.32476142340E+03  0.43791649436E+03  0.10100000352E+00 0. -1.
</event>
<event>
 5   0  0.5574736E-03  0.6005178E+03  0.7818609E-02  0.9904332E-01
        1   -1    0    0  501    0  0.00000000000E+00  0.00000000000E+00  0.25649075095E+03  0.25649075100E+03  0.50400001928E-02 0. -1.
       -1   -1    0    0    0  501  0.00000000000E+00  0.00000000000E+00 -0.35149571077E+03  0.35149571081E+03  0.50400001928E-02 0.  1.
    10030    2    1    2    0    0  0.00000000000E+00  0.00000000000E+00 -0.95004959822E+02  0.60798646180E+03  0.60051777271E+03 0.  0.
        5    1    3    3  502    0  0.21458330409E+03 -0.87132421015E+02 -0.24091574157E+03  0.33421630379E+03  0.46999998093E+01 0.  1.
       -5    1    3    3    0  502 -0.21458330409E+03  0.87132421015E+02  0.14591078175E+03  0.27377015801E+03  0.46999998093E+01 0. -1.
</event>
<event>
 5   0  0.5503975E-03  0.6001211E+03  0.7818609E-02  0.9905155E-01
        1   -1    0    0  501    0  0.00000000000E+00  0.00000000000E+00  0.27401044475E+03  0.27401044480E+03  0.50400001928E-02 0.  1.
       -1   -1    0    0    0  501  0.00000000000E+00  0.00000000000E+00 -0.32858724349E+03  0.32858724353E+03  0.50400001928E-02 0. -1.
    10030    2    1    2    0    0  0.00000000000E+00  0.00000000000E+00 -0.54576798739E+02  0.60259768833E+03  0.60012111030E+03 0.  0.
        4    1    3    3  502    0  0.19821326202E+03  0.11349226503E+03 -0.22268263073E+03  0.31899554604E+03  0.12699999809E+01 0. -1.
       -4    1    3    3    0  502 -0.19821326202E+03 -0.11349226503E+03  0.16810583199E+03  0.28360214229E+03  0.12699999809E+01 0.  1.
</event>
<event>
 5   0  0.5653633E-03  0.6001447E+03  0.7818609E-02  0.9905106E-01
        1   -1    0    0  501    0  0.00000000000E+00  0.00000000000E+00  0.61866413340E+03  0.61866413342E+03  0.50400001928E-02 0.  1.
       -1   -1    0    0    0  501  0.00000000000E+00  0.00000000000E+00 -0.14554489715E+03  0.14554489724E+03  0.50400001928E-02 0. -1.
    10030    2    1    2    0    0  0.00000000000E+00  0.00000000000E+00  0.47311923624E+03  0.76420903065E+03  0.60014467492E+03 0.  0.
        2    1    3    3  502    0 -0.71082109729E+02 -0.68241809571E+02  0.59747496969E+03  0.60554599355E+03  0.25500000920E-02 0.  1.
       -2    1    3    3    0  502  0.71082109729E+02  0.68241809571E+02 -0.12435573344E+03  0.15866303711E+03  0.25500000920E-02 0. -1.
</event>
<event>
 5   0  0.9681801E-03  0.6003970E+03  0.7818609E-02  0.9904583E-01
        2   -1    0    0  501    0  0.00000000000E+00  0.00000000000E+00  0.48486249784E+03  0.48486249785E+03  0.25500000920E-02 0. -1.
       -2   -1    0    0    0  501  0.00000000000E+00  0.00000000000E+00 -0.18586532935E+03  0.18586532937E+03  0.25500000920E-02 0.  1.
    10030    2    1    2    0    0  0.00000000000E+00  0.00000000000E+00  0.29899716849E+03  0.67072782722E+03  0.60039696155E+03 0.  0.
        4    1    3    3  502    0  0.20478575206E+03 -0.12560048915E+03  0.35059887490E+03  0.42501043646E+03  0.12699999809E+01 0. -1.
       -4    1    3    3    0  502 -0.20478575206E+03  0.12560048915E+03 -0.51601706401E+02  0.24571739076E+03  0.12699999809E+01 0.  1.
</event>
<event>
 5   0  0.9866317E-03  0.6015023E+03  0.7818609E-02  0.9902294E-01
       -2   -1    0    0    0  501  0.00000000000E+00  0.00000000000E+00  0.42821425857E+03  0.42821425858E+03  0.25500000920E-02 0.  1.
        2   -1    0    0  501    0  0.00000000000E+00  0.00000000000E+00 -0.21122894832E+03  0.21122894833E+03  0.25500000920E-02 0. -1.
    10030    2    1    2    0    0  0.00000000000E+00  0.00000000000E+00  0.21698531025E+03  0.63944320692E+03  0.60150227764E+03 0.  0.
        1    1    3    3  502    0 -0.42585515336E+02  0.11492060838E+03 -0.18347824105E+03  0.22064572806E+03  0.50400001928E-02 0. -1.
       -1    1    3    3    0  502  0.42585515336E+02 -0.11492060838E+03  0.40046355130E+03  0.41879747886E+03  0.50400001928E-02 0.  1.
</event>
<event>
 5   0  0.5785798E-03  0.6002272E+03  0.7818609E-02  0.9904935E-01
       -1   -1    0    0    0  501  0.00000000000E+00  0.00000000000E+00  0.25701979015E+03  0.25701979020E+03  0.50400001928E-02 0.  1.
        1   -1    0    0  501    0  0.00000000000E+00  0.00000000000E+00 -0.35043287394E+03  0.35043287397E+03  0.50400001928E-02 0. -1.
    10030    2    1    2    0    0  0.00000000000E+00  0.00000000000E+00 -0.93413083783E+02  0.60745266418E+03  0.60022723613E+03 0.  0.
        1    1    3    3  502    0  0.25955873823E+03 -0.33585172950E+02  0.10192692007E+03  0.28086971979E+03  0.50400001928E-02 0.  1.
       -1    1    3    3    0  502 -0.25955873823E+03  0.33585172950E+02 -0.19534000386E+03  0.32658294439E+03  0.50400001928E-02 0. -1.
</event>
<event>
 5   0  0.9571790E-03  0.6002636E+03  0.7818609E-02  0.9904859E-01
       -2   -1    0    0    0  501  0.00000000000E+00  0.00000000000E+00  0.12493328177E+03  0.12493328179E+03  0.25500000920E-02 0. -1.
        2   -1    0    0  501    0  0.00000000000E+00  0.00000000000E+00 -0.72101760824E+03  0.72101760824E+03  0.25500000920E-02 0.  1.
    10030    2    1    2    0    0  0.00000000000E+00  0.00000000000E+00 -0.59608432647E+03  0.84595089004E+03  0.60026359550E+03 0.  0.
        5    1    3    3  502    0 -0.21061346696E+03  0.12019630755E+03 -0.48903682387E+02  0.24742442273E+03  0.46999998093E+01 0. -1.
       -5    1    3    3    0  502  0.21061346696E+03 -0.12019630755E+03 -0.54718064408E+03  0.59852646731E+03  0.46999998093E+01 0.  1.
</event>
<event>
 5   0  0.5503975E-03  0.6004638E+03  0.7818609E-02  0.9904444E-01
       -1   -1    0    0    0  501  0.00000000000E+00  0.00000000000E+00  0.34402643774E+02  0.34402644143E+02  0.50400001928E-02 0. -1.
        1   -1    0    0  501    0  0.00000000000E+00  0.00000000000E+00 -0.26201236320E+04  0.26201236320E+04  0.50400001928E-02 0.  1.
    10030    2    1    2    0    0  0.00000000000E+00  0.00000000000E+00 -0.25857209882E+04  0.26545262761E+04  0.60046375561E+03 0.  0.
        4    1    3    3  502    0 -0.26579239900E+03  0.89385731162E+02 -0.81873870076E+03  0.86543057568E+03  0.12699999809E+01 0.  1.
       -4    1    3    3    0  502  0.26579239900E+03 -0.89385731162E+02 -0.17669822874E+04  0.17890957004E+04  0.12699999809E+01 0. -1.
</event>
<event>
 5   0  0.5491236E-03  0.6006061E+03  0.7818609E-02  0.9904149E-01
        1   -1    0    0  501    0  0.00000000000E+00  0.00000000000E+00  0.95818663718E+03  0.95818663719E+03  0.50400001928E-02 0. -1.
       -1   -1    0    0    0  501  0.00000000000E+00  0.00000000000E+00 -0.94117296273E+02  0.94117296408E+02  0.50400001928E-02 0.  1.
    10030    2    1    2    0    0  0.00000000000E+00  0.00000000000E+00  0.86406934091E+03  0.10523039336E+04  0.60060614614E+03 0.  0.
        3    1    3    3  502    0 -0.10918967293E+03  0.27956600116E+03  0.41430567862E+03  0.51159431117E+03  0.10100000352E+00 0.  1.
       -3    1    3    3    0  502  0.10918967293E+03 -0.27956600116E+03  0.44976366229E+03  0.54070962243E+03  0.10100000352E+00 0. -1.
</event>
<event>
 5   0  0.3794375E-03  0.5985227E+03  0.7818609E-02  0.9908476E-01
       -3   -1    0    0    0  501  0.00000000000E+00  0.00000000000E+00  0.23666288738E+03  0.23666290893E+03  0.10100000352E+00 0. -1.
        3   -1    0    0  501    0  0.00000000000E+00  0.00000000000E+00 -0.37841736576E+03  0.37841737924E+03  0.10100000352E+00 0.  1.
    10030    2    1    2    0    0  0.00000000000E+00  0.00000000000E+00 -0.14175447837E+03  0.61508028817E+03  0.59852270530E+03 0.  0.
        2    1    3    3  502    0  0.82944397737E+02  0.27231264507E+03  0.23999074562E+02  0.28567447447E+03  0.25500000920E-02 0. -1.
       -2    1    3    3    0  502 -0.82944397737E+02 -0.27231264507E+03 -0.16575355294E+03  0.32940581370E+03  0.25500000920E-02 0.  1.
</event>
<event>
 5   0  0.5653633E-03  0.5904204E+03  0.7818609E-02  0.9925482E-01
        1   -1    0    0  501    0  0.00000000000E+00  0.00000000000E+00  0.45184125913E+03  0.45184125916E+03  0.50400001928E-02 0. -1.
       -1   -1    0    0    0  501  0.00000000000E+00  0.00000000000E+00 -0.19287540777E+03  0.19287540784E+03  0.50400001928E-02 0.  1.
    10030    2    1    2    0    0  0.00000000000E+00  0.00000000000E+00  0.25896585136E+03  0.64471666700E+03  0.59042041677E+03 0.  0.
        2    1    3    3  502    0 -0.17211886386E+03 -0.20227116811E+03  0.27021704026E+03  0.37888755271E+03  0.25500000920E-02 0. -1.
       -2    1    3    3    0  502  0.17211886386E+03  0.20227116811E+03 -0.11251188902E+02  0.26582911429E+03  0.25500000920E-02 0.  1.
</event>
<event>
 5   0  0.3794375E-03  0.6002433E+03  0.7818609E-02  0.9904901E-01
        3   -1    0    0  501    0  0.00000000000E+00  0.00000000000E+00  0.14792530799E+03  0.14792534247E+03  0.10100000352E+00 0. -1.
       -3   -1    0    0    0  501  0.00000000000E+00  0.00000000000E+00 -0.60890854757E+03  0.60890855595E+03  0.10100000352E+00 0.  1.
    10030    2    1    2    0    0  0.00000000000E+00  0.00000000000E+00 -0.46098323959E+03  0.75683389842E+03  0.60024328619E+03 0.  0.
        4    1    3    3  502    0  0.10163487914E+03 -0.27612593748E+03 -0.15593748136E+03  0.33300644589E+03  0.12699999809E+01 0. -1.
       -4    1    3    3    0  502 -0.10163487914E+03  0.27612593748E+03 -0.30504575823E+03  0.42382745253E+03  0.12699999809E+01 0.  1.
</event>
<event>
 5   0  0.9681801E-03  0.6000161E+03  0.7818609E-02  0.9905373E-01
        2   -1    0    0  501    0  0.00000000000E+00  0.00000000000E+00  0.38897209285E+03  0.38897209286E+03  0.25500000920E-02 0.  1.
       -2   -1    0    0    0  501  0.00000000000E+00  0.00000000000E+00 -0.23139152308E+03  0.23139152309E+03  0.25500000920E-02 0. -1.
    10030    2    1    2    0    0  0.00000000000E+00  0.00000000000E+00  0.15758056977E+03  0.62036361595E+03  0.60001614980E+03 0.  0.
        4    1    3    3  502    0  0.14828692467E+03 -0.26075046221E+03  0.73787121399E+02  0.30891093823E+03  0.12699999809E+01 0. -1.
       -4    1    3    3    0  502 -0.14828692467E+03  0.26075046221E+03  0.83793448370E+02  0.31145267772E+03  0.12699999809E+01 0.  1.
</event>
<event>
 5   0  0.5785798E-03  0.5996299E+03  0.7818609E-02  0.9906174E-01
        1   -1    0    0  501    0  0.00000000000E+00  0.00000000000E+00  0.38628167825E+03  0.38628167828E+03  0.50400001928E-02 0. -1.
       -1   -1    0    0    0  501  0.00000000000E+00  0.00000000000E+00 -0.23270323004E+03  0.23270323009E+03  0.50400001928E-02 0.  1.
    10030    2    1    2    0    0  0.00000000000E+00  0.00000000000E+00  0.15357844821E+03  0.61898490837E+03  0.59962986670E+03 0.  0.
        1    1    3    3  502    0 -0.77876869265E+02 -0.28914286359E+03  0.92120969155E+02  0.31329646553E+03  0.50400001928E-02 0.  1.
       -1    1    3    3    0  502  0.77876869265E+02  0.28914286359E+03  0.61457479054E+02  0.30568844284E+03  0.50400001928E-02 0. -1.
</event>
<event>
 5   0  0.5491236E-03  0.6000074E+03  0.7818609E-02  0.9905391E-01
        1   -1    0    0  501    0  0.00000000000E+00  0.00000000000E+00  0.10394552294E+03  0.10394552306E+03  0.50400001928E-02 0. -1.
       -1   -1    0    0    0  501  0.00000000000E+00  0.00000000000E+00 -0.86585956642E+03  0.86585956643E+03  0.50400001928E-02 0.  1.
    10030    2    1    2    0    0  0.00000000000E+00  0.00000000000E+00 -0.76191404347E+03  0.96980508950E+03  0.60000741826E+03 0.  0.
        3    1    3    3  502    0 -0.12689311262E+03 -0.24308438982E+02  0.56673727032E+02  0.14108396001E+03  0.10100000352E+00 0. -1.
       -3    1    3    3    0  502  0.12689311262E+03  0.24308438982E+02 -0.81858777051E+03  0.82872112949E+03  0.10100000352E+00 0.  1.
</event>
<event>
 5   0  0.9530666E-03  0.6001124E+03  0.7818609E-02  0.9905173E-01
       -2   -1    0    0    0  501  0.00000000000E+00  0.00000000000E+00  0.59214122596E+02  0.59214122651E+02  0.25500000920E-02 0. -1.
        2   -1    0    0  501    0  0.00000000000E+00  0.00000000000E+00 -0.15204769480E+04  0.15204769480E+04  0.25500000920E-02 0.  1.
    10030    2    1    2    0    0  0.00000000000E+00  0.00000000000E+00 -0.14612628254E+04  0.15796910706E+04  0.60011235097E+03 0.  0.
        2    1    3    3  502    0 -0.22812680963E+03 -0.14096117330E+03 -0.10849879440E+04  0.11176362254E+04  0.25500000920E-02 0.  1.
       -2    1    3    3    0  502  0.22812680963E+03  0.14096117330E+03 -0.37627488134E+03  0.46205484521E+03  0.25500000920E-02 0. -1.
</event>
<event>
 5   0  0.9681801E-03  0.5994576E+03  0.7818609E-02  0.9906532E-01
        2   -1    0    0  501    0  0.00000000000E+00  0.00000000000E+00  0.33802115736E+03  0.33802115737E+03  0.25500000920E-02 0.  1.
       -2   -1    0    0    0  501  0.00000000000E+00  0.00000000000E+00 -0.26577436182E+03  0.26577436183E+03  0.25500000920E-02 0. -1.
    10030    2    1    2    0    0  0.00000000000E+00  0.00000000000E+00  0.72246795541E+02  0.60379551919E+03  0.59945761279E+03 0.  0.
        4    1    3    3  502    0 -0.84555113882E+02 -0.22833315390E+03  0.21217422309E+03  0.32296301692E+03  0.12699999809E+01 0.  1.
       -4    1    3    3    0  502  0.84555113882E+02  0.22833315390E+03 -0.13992742755E+03  0.28083250228E+03  0.12699999809E+01 0. -1.
</event>
<event>
 5   0  0.5574736E-03  0.6003104E+03  0.7818609E-02  0.9904762E-01
        1   -1    0    0  501    0  0.00000000000E+00  0.00000000000E+00  0.10032783787E+04  0.10032783787E+04  0.50400001928E-02 0.  1.
       -1   -1    0    0    0  501  0.00000000000E+00  0.00000000000E+00 -0.89798741495E+02  0.89798741636E+02  0.50400001928E-02 0. -1.
    10030    2    1    2    0    0  0.00000000000E+00  0.00000000000E+00  0.91347963720E+03  0.10930771203E+04  0.60031037259E+03 0.  0.
        5    1    3    3  502    0  0.13654696122E+03  0.25373053883E+03  0.30388802967E+03  0.41880100708E+03  0.46999998093E+01 0. -1.
       -5    1    3    3    0  502 -0.13654696122E+03 -0.25373053883E+03  0.60959160752E+03  0.67427611326E+03  0.46999998093E+01 0.  1.
</event>
<event>
 5   0  0.9681801E-03  0.6010069E+03  0.7818609E-02  0.9903319E-01
       -2   -1    0    0    0  501  0.00000000000E+00  0.00000000000E+00  0.15081438246E+03  0.15081438248E+03  0.25500000920E-02 0.  1.
        2   -1    0    0  501    0  0.00000000000E+00  0.00000000000E+00 -0.59876474629E+03  0.59876474630E+03  0.25500000920E-02 0. -1.
    10030    2    1    2    0    0  0.00000000000E+00  0.00000000000E+00 -0.44795036383E+03  0.74957912878E+03  0.60100693993E+03 0.  0.
        4    1    3    3  502    0  0.11371504497E+03 -0.65922750407E+02 -0.56100646935E+03  0.57620030548E+03  0.12699999809E+01 0. -1.
       -4    1    3    3    0  502 -0.11371504497E+03  0.65922750407E+02  0.11305610552E+03  0.17337882330E+03  0.12699999809E+01 0.  1.
</event>
<event>
 5   0  0.5653633E-03  0.6000207E+03  0.7818609E-02  0.9905363E-01
       -1   -1    0    0    0  501  0.00000000000E+00  0.00000000000E+00  0.12574304906E+03  0.12574304916E+03  0.50400001928E-02 0.  1.
        1   -1    0    0  501    0  0.00000000000E+00  0.00000000000E+00 -0.71579469014E+03  0.71579469016E+03  0.50400001928E-02 0. -1.
    10030    2    1    2    0    0  0.00000000000E+00  0.00000000000E+00 -0.59005164109E+03  0.84153773932E+03  0.60002068926E+03 0.  0.
        2    1    3    3  502    0 -0.22240455447E+03  0.17556891545E+03 -0.15676621804E+03  0.32382692453E+03  0.25500000920E-02 0.  1.
       -2    1    3    3    0  502  0.22240455447E+03 -0.17556891545E+03 -0.43328542304E+03  0.51771081479E+03  0.25500000920E-02 0. -1.
</event>
<event>
 5   0  0.9571790E-03  0.6001138E+03  0.7818609E-02  0.9905170E-01
        2   -1    0    0  501    0  0.00000000000E+00  0.00000000000E+00  0.10289164649E+04  0.10289164649E+04  0.25500000920E-02 0. -1.
       -2   -1    0    0    0  501  0.00000000000E+00  0.00000000000E+00 -0.87503839105E+02  0.87503839142E+02  0.25500000920E-02 0.  1.
    10030    2    1    2    0    0  0.00000000000E+00  0.00000000000E+00  0.94141262584E+03  0.11164203041E+04  0.60011379195E+03 0.  0.
        5    1    3    3  502    0  0.25927506098E+03  0.33568931912E+02  0.74451018701E+03  0.78909311174E+03  0.46999998093E+01 0. -1.
       -5    1    3    3    0  502 -0.25927506098E+03 -0.33568931912E+02  0.19690243883E+03  0.32732719235E+03  0.46999998093E+01 0.  1.
</event>
<event>
 5   0  0.5653633E-03  0.6023964E+03  0.7818609E-02  0.9900447E-01
        1   -1    0    0  501    0  0.00000000000E+00  0.00000000000E+00  0.17481821422E+04  0.17481821422E+04  0.50400001928E-02 0. -1.
       -1   -1    0    0    0  501  0.00000000000E+00  0.00000000000E+00 -0.51894109715E+02  0.51894109960E+02  0.50400001928E-02 0.  1.
    10030    2    1    2    0    0  0.00000000000E+00  0.00000000000E+00  0.16962880325E+04  0.18000762522E+04  0.60239640144E+03 0.  0.
        2    1    3    3  502    0  0.96855415291E+02  0.12820731162E+03  0.86874435021E+02  0.18266158241E+03  0.25500000920E-02 0.  1.
       -2    1    3    3    0  502 -0.96855415291E+02 -0.12820731162E+03  0.16094135975E+04  0.16174146698E+04  0.25500000920E-02 0. -1.
</event>
<event>
 5   0  0.9428629E-03  0.6001188E+03  0.7818609E-02  0.9905160E-01
       -2   -1    0    0    0  501  0.00000000000E+00  0.00000000000E+00  0.11200765225E+04  0.11200765225E+04  0.25500000920E-02 0.  1.
        2   -1    0    0  501    0  0.00000000000E+00  0.00000000000E+00 -0.80383486750E+02  0.80383486790E+02  0.25500000920E-02 0. -1.
    10030    2    1    2    0    0  0.00000000000E+00  0.00000000000E+00  0.10396930358E+04  0.12004600093E+04  0.60011884267E+03 0.  0.
        3    1    3    3  502    0 -0.15037053541E+03 -0.25966013627E+03  0.52180835538E+03  0.60192911064E+03  0.10100000352E+00 0. -1.
       -3    1    3    3    0  502  0.15037053541E+03  0.25966013627E+03  0.51788468039E+03  0.59853089868E+03  0.10100000352E+00 0.  1.
</event>
<event>
 5   0  0.3794375E-03  0.6021916E+03  0.7818609E-02  0.9900870E-01
        4   -1    0    0  501    0  0.00000000000E+00  0.00000000000E+00  0.13465815641E+04  0.13465821630E+04  0.12699999809E+01 0. -1.
       -4   -1    0    0    0  501  0.00000000000E+00  0.00000000000E+00 -0.67318461517E+02  0.67330440077E+02  0.12699999809E+01 0.  1.
    10030    2    1    2    0    0  0.00000000000E+00  0.00000000000E+00  0.12792631026E+04  0.14139126030E+04  0.60219163351E+03 0.  0.
        1    1    3    3  502    0  0.11467082843E+03 -0.13292932987E+03  0.12139864387E+04  0.12266143156E+04  0.50400001928E-02 0. -1.
       -1    1    3    3    0  502 -0.11467082843E+03  0.13292932987E+03  0.65276663810E+02  0.18729828748E+03  0.50400001928E-02 0.  1.
</event>
<event>
 5   0  0.9530666E-03  0.5992022E+03  0.7818609E-02  0.9907063E-01
       -2   -1    0    0    0  501  0.00000000000E+00  0.00000000000E+00  0.59177593577E+02  0.59177593632E+02  0.25500000920E-02 0. -1.
        2   -1    0    0  501    0  0.00000000000E+00  0.00000000000E+00 -0.15168043896E+04  0.15168043896E+04  0.25500000920E-02 0.  1.
    10030    2    1    2    0    0  0.00000000000E+00  0.00000000000E+00 -0.14576267960E+04  0.15759819832E+04  0.59920224882E+03 0.  0.
        2    1    3    3  502    0  0.21116033612E+03  0.10933014062E+03 -0.24944265351E+03  0.34462066769E+03  0.25500000920E-02 0. -1.
       -2    1    3    3    0  502 -0.21116033612E+03 -0.10933014062E+03 -0.12081841425E+04  0.12313613155E+04  0.25500000920E-02 0.  1.
</event>
<event>
 5   0  0.5574736E-03  0.5977067E+03  0.7818609E-02  0.9910175E-01
        1   -1    0    0  501    0  0.00000000000E+00  0.00000000000E+00  0.11647913800E+03  0.11647913811E+03  0.50400001928E-02 0.  1.
       -1   -1    0    0    0  501  0.00000000000E+00  0.00000000000E+00 -0.76677528718E+03  0.76677528719E+03  0.50400001928E-02 0. -1.
    10030    2    1    2    0    0  0.00000000000E+00  0.00000000000E+00 -0.65029614917E+03  0.88325442531E+03  0.59770669914E+03 0.  0.
        5    1    3    3  502    0  0.82996232576E+02  0.17406268804E+03 -0.66246456082E+03  0.68997650564E+03  0.46999998093E+01 0.  1.
       -5    1    3    3    0  502 -0.82996232576E+02 -0.17406268804E+03  0.12168411651E+02  0.19327791967E+03  0.46999998093E+01 0. -1.
</event>
<event>
 5   0  0.9681801E-03  0.6004028E+03  0.7818609E-02  0.9904571E-01
       -2   -1    0    0    0  501  0.00000000000E+00  0.00000000000E+00  0.45539964131E+03  0.45539964132E+03  0.25500000920E-02 0.  1.
        2   -1    0    0  501    0  0.00000000000E+00  0.00000000000E+00 -0.19789408443E+03  0.19789408444E+03  0.25500000920E-02 0. -1.
    10030    2    1    2    0    0  0.00000000000E+00  0.00000000000E+00  0.25750555688E+03  0.65329372576E+03  0.60040284834E+03 0.  0.
        4    1    3    3  502    0  0.29468112738E+03  0.35546055327E+02  0.17764183647E+03  0.34591722109E+03  0.12699999809E+01 0. -1.
       -4    1    3    3    0  502 -0.29468112738E+03 -0.35546055327E+02  0.79863720410E+02  0.30737650467E+03  0.12699999809E+01 0.  1.
</event>
<event>
 5   0  0.9571790E-03  0.6028168E+03  0.7818609E-02  0.9899579E-01
        2   -1    0    0  501    0  0.00000000000E+00  0.00000000000E+00  0.49622931877E+03  0.49622931877E+03  0.25500000920E-02 0. -1.
       -2   -1    0    0    0  501  0.00000000000E+00  0.00000000000E+00 -0.18307469841E+03  0.18307469843E+03  0.25500000920E-02 0.  1.
    10030    2    1    2    0    0  0.00000000000E+00  0.00000000000E+00  0.31315462035E+03  0.67930401721E+03  0.60281683084E+03 0.  0.
        5    1    3    3  502    0  0.29960825706E+03 -0.16682562458E+02  0.12507438440E+03  0.32512936997E+03  0.46999998093E+01 0.  1.
       -5    1    3    3    0  502 -0.29960825706E+03  0.16682562458E+02  0.18808023595E+03  0.35417464723E+03  0.46999998093E+01 0. -1.
</event>
<event>
 5   0  0.5503975E-03  0.5992049E+03  0.7818609E-02  0.9907057E-01
        1   -1    0    0  501    0  0.00000000000E+00  0.00000000000E+00  0.46873249588E+03  0.46873249590E+03  0.50400001928E-02 0. -1.
       -1   -1    0    0    0  501  0.00000000000E+00  0.00000000000E+00 -0.19149859287E+03  0.19149859294E+03  0.50400001928E-02 0.  1.
    10030    2    1    2    0    0  0.00000000000E+00  0.00000000000E+00  0.27723390300E+03  0.66023108884E+03  0.59920485120E+03 0.  0.
        4    1    3    3  502    0 -0.19277211031E+03  0.14143090891E+03  0.33754875349E+03  0.41364787246E+03  0.12699999809E+01 0. -1.
       -4    1    3    3    0  502  0.19277211031E+03 -0.14143090891E+03 -0.60314850485E+02  0.24658321638E+03  0.12699999809E+01 0.  1.
</event>
<event>
 5   0  0.3794375E-03  0.5999271E+03  0.7818609E-02  0.9905557E-01
       -4   -1    0    0    0  501  0.00000000000E+00  0.00000000000E+00  0.54246081761E+03  0.54246230426E+03  0.12699999809E+01 0.  1.
        4   -1    0    0  501    0  0.00000000000E+00  0.00000000000E+00 -0.16586611570E+03  0.16587097768E+03  0.12699999809E+01 0. -1.
    10030    2    1    2    0    0  0.00000000000E+00  0.00000000000E+00  0.37659470191E+03  0.70833328194E+03  0.59992705289E+03 0.  0.
        3    1    3    3  502    0 -0.96167188748E+02  0.28351729307E+03  0.16627412259E+03  0.34245770207E+03  0.10100000352E+00 0.  1.
       -3    1    3    3    0  502  0.96167188748E+02 -0.28351729307E+03  0.21032057932E+03  0.36587557987E+03  0.10100000352E+00 0. -1.
</event>
<event>
 5   0  0.9571790E-03  0.5981344E+03  0.7818609E-02  0.9909284E-01
       -2   -1    0    0    0  501  0.00000000000E+00  0.00000000000E+00  0.66880622245E+02  0.66880622294E+02  0.25500000920E-02 0.  1.
        2   -1    0    0  501    0  0.00000000000E+00  0.00000000000E+00 -0.13373261174E+04  0.13373261174E+04  0.25500000920E-02 0. -1.
    10030    2    1    2    0    0  0.00000000000E+00  0.00000000000E+00 -0.12704454951E+04  0.14042067397E+04  0.59813444278E+03 0.  0.
        5    1    3    3  502    0 -0.72399141005E+02  0.93001314193E+02 -0.12804116720E+04  0.12858332007E+04  0.46999998093E+01 0. -1.
       -5    1    3    3    0  502  0.72399141005E+02 -0.93001314193E+02  0.99661768882E+01  0.11837353902E+03  0.46999998093E+01 0.  1.
</event>
<event>
 5   0  0.5491236E-03  0.6010316E+03  0.7818609E-02  0.9903268E-01
        1   -1    0    0  501    0  0.00000000000E+00  0.00000000000E+00  0.93053698159E+03  0.93053698160E+03  0.50400001928E-02 0. -1.
       -1   -1    0    0    0  501  0.00000000000E+00  0.00000000000E+00 -0.97051220365E+02  0.97051220496E+02  0.50400001928E-02 0.  1.
    10030    2    1    2    0    0  0.00000000000E+00  0.00000000000E+00  0.83348576122E+03  0.10275882021E+04  0.60103161225E+03 0.  0.
        3    1    3    3  502    0 -0.95915303305E+02  0.17691037515E+02 -0.69238319874E+02  0.11961050688E+03  0.10100000352E+00 0.  1.
       -3    1    3    3    0  502  0.95915303305E+02 -0.17691037515E+02  0.90272408110E+03  0.90797769522E+03  0.10100000352E+00 0. -1.
</event>
<event>
 5   0  0.9866317E-03  0.6011466E+03  0.7818609E-02  0.9903030E-01
       -2   -1    0    0    0  501  0.00000000000E+00  0.00000000000E+00  0.10125411731E+03  0.10125411734E+03  0.25500000920E-02 0. -1.
        2   -1    0    0  501    0  0.00000000000E+00  0.00000000000E+00 -0.89225315050E+03  0.89225315051E+03  0.25500000920E-02 0.  1.
    10030    2    1    2    0    0  0.00000000000E+00  0.00000000000E+00 -0.79099903320E+03  0.99350726785E+03  0.60114658840E+03 0.  0.
        1    1    3    3  502    0 -0.13957957928E+03 -0.53911812587E+01 -0.83535277085E+03  0.84695086964E+03  0.50400001928E-02 0.  1.
       -1    1    3    3    0  502  0.13957957928E+03  0.53911812587E+01  0.44353737652E+02  0.14655639821E+03  0.50400001928E-02 0. -1.
</event>
<event>
 5   0  0.5785798E-03  0.6003100E+03  0.7818609E-02  0.9904763E-01
        1   -1    0    0  501    0  0.00000000000E+00  0.00000000000E+00  0.52082968227E+03  0.52082968230E+03  0.50400001928E-02 0. -1.
       -1   -1    0    0    0  501  0.00000000000E+00  0.00000000000E+00 -0.17297980327E+03  0.17297980334E+03  0.50400001928E-02 0.  1.
    10030    2    1    2    0    0  0.00000000000E+00  0.00000000000E+00  0.34784987900E+03  0.69380948564E+03  0.60030997330E+03 0.  0.
        1    1    3    3  502    0  0.12165114744E+02 -0.63716605980E+02  0.51263172017E+03  0.51671953364E+03  0.50400001928E-02 0. -1.
       -1    1    3    3    0  502 -0.12165114744E+02  0.63716605980E+02 -0.16478184117E+03  0.17708995200E+03  0.50400001928E-02 0.  1.
</event>
<event>
 5   0  0.9866317E-03  0.5991574E+03  0.7818609E-02  0.9907156E-01
        2   -1    0    0  501    0  0.00000000000E+00  0.00000000000E+00  0.11105168042E+04  0.11105168042E+04  0.25500000920E-02 0.  1.
       -2   -1    0    0    0  501  0.00000000000E+00  0.00000000000E+00 -0.80815880272E+02  0.80815880312E+02  0.25500000920E-02 0. -1.
    10030    2    1    2    0    0  0.00000000000E+00  0.00000000000E+00  0.10297009239E+04  0.11913326845E+04  0.59915738538E+03 0.  0.
        1    1    3    3  502    0  0.46399957441E+02 -0.14527760257E+03  0.21466248064E+01  0.15252260778E+03  0.50400001928E-02 0. -1.
       -1    1    3    3    0  502 -0.46399957441E+02  0.14527760257E+03  0.10275542991E+04  0.10388100767E+04  0.50400001928E-02 0.  1.
</event>
<event>
 5   0  0.9866317E-03  0.6000548E+03  0.7818609E-02  0.9905292E-01
       -2   -1    0    0    0  501  0.00000000000E+00  0.00000000000E+00  0.39115225035E+03  0.39115225035E+03  0.25500000920E-02 0. -1.
        2   -1    0    0  501    0  0.00000000000E+00  0.00000000000E+00 -0.23013149738E+03  0.23013149739E+03  0.25500000920E-02 0.  1.
    10030    2    1    2    0    0  0.00000000000E+00  0.00000000000E+00  0.16102075297E+03  0.62128374775E+03  0.60005484110E+03 0.  0.
        1    1    3    3  502    0 -0.21703099828E+03 -0.92018899613E+02 -0.11165349147E+03  0.26083794640E+03  0.50400001928E-02 0.  1.
       -1    1    3    3    0  502  0.21703099828E+03  0.92018899613E+02  0.27267424444E+03  0.36044580134E+03  0.50400001928E-02 0. -1.
</event>
<event>
 5   0  0.9571790E-03  0.6002772E+03  0.7818609E-02  0.9904831E-01
       -2   -1    0    0    0  501  0.00000000000E+00  0.00000000000E+00  0.68020942786E+02  0.68020942834E+02  0.25500000920E-02 0. -1.
        2   -1    0    0  501    0  0.00000000000E+00  0.00000000000E+00 -0.13243449170E+04  0.13243449170E+04  0.25500000920E-02 0.  1.
    10030    2    1    2    0    0  0.00000000000E+00  0.00000000000E+00 -0.12563239742E+04  0.13923658598E+04  0.60027723549E+03 0.  0.
        5    1    3    3  502    0  0.92289244466E+02 -0.14893977994E+02 -0.12896247846E+04  0.12930171346E+04  0.46999998093E+01 0.  1.
       -5    1    3    3    0  502 -0.92289244466E+02  0.14893977994E+02  0.33300810453E+02  0.99348725204E+02  0.46999998093E+01 0. -1.
</event>
<event>
 5   0  0.9428629E-03  0.6008381E+03  0.7818609E-02  0.9903669E-01
        2   -1    0    0  501    0  0.00000000000E+00  0.00000000000E+00  0.30658674305E+03  0.30658674306E+03  0.25500000920E-02 0. -1.
       -2   -1    0    0    0  501  0.00000000000E+00  0.00000000000E+00 -0.29437545127E+03  0.29437545128E+03  0.25500000920E-02 0.  1.
    10030    2    1    2    0    0  0.00000000000E+00  0.00000000000E+00  0.12211291777E+02  0.60096219434E+03  0.60083811745E+03 0.  0.
        3    1    3    3  502    0 -0.17856119600E+03 -0.23966817562E+03 -0.24341821838E+02  0.29986241780E+03  0.10100000352E+00 0.  1.
       -3    1    3    3    0  502  0.17856119600E+03  0.23966817562E+03  0.36553113615E+02  0.30109977654E+03  0.10100000352E+00 0. -1.
</event>
<event>
 5   0  0.5653633E-03  0.5993188E+03  0.7818609E-02  0.9906820E-01
       -1   -1    0    0    0  501  0.00000000000E+00  0.00000000000E+00  0.71190027077E+02  0.71190027255E+02  0.50400001928E-02 0.  1.
        1   -1    0    0  501    0  0.00000000000E+00  0.00000000000E+00 -0.12613531400E+04  0.12613531400E+04  0.50400001928E-02 0. -1.
    10030    2    1    2    0    0  0.00000000000E+00  0.00000000000E+00 -0.11901631130E+04  0.13325431673E+04  0.59931882773E+03 0.  0.
        2    1    3    3  502    0 -0.27533168139E+02  0.29572704854E+03 -0.68355063275E+03  0.74528788406E+03  0.25500000920E-02 0. -1.
       -2    1    3    3    0  502  0.27533168139E+02 -0.29572704854E+03 -0.50661248020E+03  0.58725528323E+03  0.25500000920E-02 0.  1.
</event>
<event>
 5   0  0.5491236E-03  0.6000101E+03  0.7818609E-02  0.9905385E-01
       -1   -1    0    0    0  501  0.00000000000E+00  0.00000000000E+00  0.74343379070E+02  0.74343379241E+02  0.50400001928E-02 0.  1.
        1   -1    0    0  501    0  0.00000000000E+00  0.00000000000E+00 -0.12106394831E+04  0.12106394831E+04  0.50400001928E-02 0. -1.
    10030    2    1    2    0    0  0.00000000000E+00  0.00000000000E+00 -0.11362961040E+04  0.12849828623E+04  0.60001010032E+03 0.  0.
        3    1    3    3  502    0 -0.19409525211E+03 -0.15418498819E+03 -0.20624238146E+03  0.32246225762E+03  0.10100000352E+00 0.  1.
       -3    1    3    3    0  502  0.19409525211E+03  0.15418498819E+03 -0.93005372252E+03  0.96252060469E+03  0.10100000352E+00 0. -1.
</event>
<event>
 5   0  0.5574736E-03  0.6000432E+03  0.7818609E-02  0.9905316E-01
       -1   -1    0    0    0  501  0.00000000000E+00  0.00000000000E+00  0.84593357380E+03  0.84593357382E+03  0.50400001928E-02 0. -1.
        1   -1    0    0  501    0  0.00000000000E+00  0.00000000000E+00 -0.10640666253E+03  0.10640666265E+03  0.50400001928E-02 0.  1.
    10030    2    1    2    0    0  0.00000000000E+00  0.00000000000E+00  0.73952691127E+03  0.95234023647E+03  0.60004322636E+03 0.  0.
        5    1    3    3  502    0  0.19643475063E+03  0.15982840694E+03  0.62498462695E+03  0.67435866187E+03  0.46999998093E+01 0. -1.
       -5    1    3    3    0  502 -0.19643475063E+03 -0.15982840694E+03  0.11454228432E+03  0.27798157460E+03  0.46999998093E+01 0.  1.
</event>
<event>
 5   0  0.3794375E-03  0.6021830E+03  0.7818609E-02  0.9900887E-01
       -3   -1    0    0    0  501  0.00000000000E+00  0.00000000000E+00  0.41693931419E+02  0.41694053751E+02  0.10100000352E+00 0.  1.
        3   -1    0    0  501    0  0.00000000000E+00  0.00000000000E+00 -0.21743199720E+04  0.21743199744E+04  0.10100000352E+00 0. -1.
    10030    2    1    2    0    0  0.00000000000E+00  0.00000000000E+00 -0.21326260406E+04  0.22160140281E+04  0.60218298196E+03 0.  0.
        4    1    3    3  502    0 -0.17367479470E+03  0.23023989333E+03 -0.13846064217E+04  0.14143231239E+04  0.12699999809E+01 0. -1.
       -4    1    3    3    0  502  0.17367479470E+03 -0.23023989333E+03 -0.74801961889E+03  0.80169090424E+03  0.12699999809E+01 0.  1.
</event>
<event>
 5   0  0.5653633E-03  0.6004742E+03  0.7818609E-02  0.9904423E-01
        1   -1    0    0  501    0  0.00000000000E+00  0.00000000000E+00  0.18410177740E+03  0.18410177747E+03  0.50400001928E-02 0. -1.
       -1   -1    0    0    0  501  0.00000000000E+00  0.00000000000E+00 -0.48963304733E+03  0.48963304736E+03  0.50400001928E-02 0.  1.
    10030    2    1    2    0    0  0.00000000000E+00  0.00000000000E+00 -0.30553126993E+03  0.67373482483E+03  0.60047419369E+03 0.  0.
        2    1    3    3  502    0 -0.19898037632E+03 -0.75370297878E+02  0.84899318784E+02  0.22908899209E+03  0.25500000920E-02 0.  1.
       -2    1    3    3    0  502  0.19898037632E+03  0.75370297878E+02 -0.39043058871E+03  0.44464583274E+03  0.25500000920E-02 0. -1.
</event>
<event>
 5   0  0.5785798E-03  0.6003935E+03  0.7818609E-02  0.9904590E-01
       -1   -1    0    0    0  501  0.00000000000E+00  0.00000000000E+00  0.10832596307E+03  0.10832596319E+03  0.50400001928E-02 0. -1.
        1   -1    0    0  501    0  0.00000000000E+00  0.00000000000E+00 -0.83191583466E+03  0.83191583467E+03  0.50400001928E-02 0.  1.
    10030    2    1    2    0    0  0.00000000000E+00  0.00000000000E+00 -0.72358987159E+03  0.94024179786E+03  0.60039348445E+03 0.  0.
        1    1    3    3  502    0 -0.23039099577E+03 -0.17975480954E+03 -0.46945716727E+03  0.55297543744E+03  0.50400001928E-02 0.  1.
       -1    1    3    3    0  502  0.23039099577E+03  0.17975480954E+03 -0.25413270432E+03  0.38726636042E+03  0.50400001928E-02 0. -1.
</event>
<event>
 5   0  0.9866317E-03  0.5991804E+03  0.7818609E-02  0.9907108E-01
       -2   -1    0    0    0  501  0.00000000000E+00  0.00000000000E+00  0.81502025675E+02  0.81502025714E+02  0.25500000920E-02 0. -1.
        2   -1    0    0  501    0  0.00000000000E+00  0.00000000000E+00 -0.11012521077E+04  0.11012521077E+04  0.25500000920E-02 0.  1.
    10030    2    1    2    0    0  0.00000000000E+00  0.00000000000E+00 -0.10197500820E+04  0.11827541334E+04  0.59918036544E+03 0.  0.
        1    1    3    3  502    0 -0.10014337945E+03 -0.51815822592E+02 -0.10577696354E+04  0.10637622749E+04  0.50400001928E-02 0.  1.
       -1    1    3    3    0  502  0.10014337945E+03  0.51815822592E+02  0.38019553406E+02  0.11899185848E+03  0.50400001928E-02 0. -1.
</event>
<event>
 5   0  0.5491236E-03  0.5977340E+03  0.7818609E-02  0.9910118E-01
        1   -1    0    0  501    0  0.00000000000E+00  0.00000000000E+00  0.68207474012E+03  0.68207474014E+03  0.50400001928E-02 0.  1.
       -1   -1    0    0    0  501  0.00000000000E+00  0.00000000000E+00 -0.13095556829E+03  0.13095556839E+03  0.50400001928E-02 0. -1.
    10030    2    1    2    0    0  0.00000000000E+00  0.00000000000E+00  0.55111917182E+03  0.81303030853E+03  0.59773400525E+03 0.  0.
        3    1    3    3  502    0  0.99175287205E+02 -0.21277459487E+03  0.52714908204E+03  0.57705712950E+03  0.10100000352E+00 0.  1.
       -3    1    3    3    0  502 -0.99175287205E+02  0.21277459487E+03  0.23970089783E+02  0.23597317902E+03  0.10100000352E+00 0. -1.
</event>
<event>
 5   0  0.9530666E-03  0.5997812E+03  0.7818609E-02  0.9905860E-01
       -2   -1    0    0    0  501  0.00000000000E+00  0.00000000000E+00  0.37605261412E+02  0.37605261498E+02  0.25500000920E-02 0. -1.
        2   -1    0    0  501    0  0.00000000000E+00  0.00000000000E+00 -0.23915369304E+04  0.23915369304E+04  0.25500000920E-02 0.  1.
    10030    2    1    2    0    0  0.00000000000E+00  0.00000000000E+00 -0.23539316690E+04  0.24291421919E+04  0.59978119861E+03 0.  0.
        2    1    3    3  502    0  0.94896116874E+02 -0.13020790702E+03 -0.15257605888E+03  0.22189823297E+03  0.25500000920E-02 0. -1.
       -2    1    3    3    0  502 -0.94896116874E+02  0.13020790702E+03 -0.22013556101E+04  0.22072439590E+04  0.25500000920E-02 0.  1.
</event>
<event>
 5   0  0.5574736E-03  0.6013114E+03  0.7818609E-02  0.9902689E-01
       -1   -1    0    0    0  501  0.00000000000E+00  0.00000000000E+00  0.72820368312E+02  0.72820368486E+02  0.50400001928E-02 0. -1.
        1   -1    0    0  501    0  0.00000000000E+00  0.00000000000E+00 -0.12413264095E+04  0.12413264095E+04  0.50400001928E-02 0.  1.
    10030    2    1    2    0    0  0.00000000000E+00  0.00000000000E+00 -0.11685060412E+04  0.13141467780E+04  0.60131138840E+03 0.  0.
        5    1    3    3  502    0  0.23715290145E+03 -0.88861616851E+02 -0.23027554033E+03  0.34232557615E+03  0.46999998093E+01 0. -1.
       -5    1    3    3    0  502 -0.23715290145E+03  0.88861616851E+02 -0.93823050084E+03  0.97182120183E+03  0.46999998093E+01 0.  1.
</event>
<event>
 5   0  0.9681801E-03  0.5994834E+03  0.7818609E-02  0.9906478E-01
       -2   -1    0    0    0  501  0.00000000000E+00  0.00000000000E+00  0.39522654767E+02  0.39522654849E+02  0.25500000920E-02 0. -1.
        2   -1    0    0  501    0  0.00000000000E+00  0.00000000000E+00 -0.22732556774E+04  0.22732556774E+04  0.25500000920E-02 0.  1.
    10030    2    1    2    0    0  0.00000000000E+00  0.00000000000E+00 -0.22337330226E+04  0.23127783322E+04  0.59948344241E+03 0.  0.
        4    1    3    3  502    0 -0.49242152229E+02 -0.20658753638E+03 -0.30083637218E+03  0.36824901286E+03  0.12699999809E+01 0. -1.
       -4    1    3    3    0  502  0.49242152229E+02  0.20658753638E+03 -0.19328966504E+04  0.19445293193E+04  0.12699999809E+01 0.  1.
</event>
<event>
 5   0  0.9866317E-03  0.6001748E+03  0.7818609E-02  0.9905044E-01
        2   -1    0    0  501    0  0.00000000000E+00  0.00000000000E+00  0.55135177855E+03  0.55135177856E+03  0.25500000920E-02 0.  1.
       -2   -1    0    0    0  501  0.00000000000E+00  0.00000000000E+00 -0.16333027145E+03  0.16333027147E+03  0.25500000920E-02 0. -1.
    10030    2    1    2    0    0  0.00000000000E+00  0.00000000000E+00  0.38802150710E+03  0.71468205002E+03  0.60017476009E+03 0.  0.
        1    1    3    3  502    0  0.93724491565E+02 -0.23751192389E+03  0.62724559730E+01  0.25541248607E+03  0.50400001928E-02 0.  1.
       -1    1    3    3    0  502 -0.93724491565E+02  0.23751192389E+03  0.38174905113E+03  0.45926956395E+03  0.50400001928E-02 0. -1.
</event>
<event>
 5   0  0.9428629E-03  0.6002378E+03  0.7818609E-02  0.9904913E-01
       -2   -1    0    0    0  501  0.00000000000E+00  0.00000000000E+00  0.56912559950E+02  0.56912560007E+02  0.25500000920E-02 0. -1.
        2   -1    0    0  501    0  0.00000000000E+00  0.00000000000E+00 -0.15826268156E+04  0.15826268156E+04  0.25500000920E-02 0.  1.
    10030    2    1    2    0    0  0.00000000000E+00  0.00000000000E+00 -0.15257142556E+04  0.16395393756E+04  0.60023776478E+03 0.  0.
        3    1    3    3  502    0  0.26640687727E+03  0.16705962437E+02 -0.38813964217E+03  0.47106698618E+03  0.10100000352E+00 0.  1.
       -3    1    3    3    0  502 -0.26640687727E+03 -0.16705962437E+02 -0.11375746135E+04  0.11684723894E+04  0.10100000352E+00 0. -1.
</event>
<event>
 5   0  0.5503975E-03  0.6079478E+03  0.7818609E-02  0.9889053E-01
        1   -1    0    0  501    0  0.00000000000E+00  0.00000000000E+00  0.34426100136E+03  0.34426100140E+03  0.50400001928E-02 0. -1.
       -1   -1    0    0    0  501  0.00000000000E+00  0.00000000000E+00 -0.26840137548E+03  0.26840137553E+03  0.50400001928E-02 0.  1.
    10030    2    1    2    0    0  0.00000000000E+00  0.00000000000E+00  0.75859625878E+02  0.61266237693E+03  0.60794778169E+03 0.  0.
        4    1    3    3  502    0 -0.15845086077E+03  0.19768508942E+03  0.20719797750E+03  0.32728990916E+03  0.12699999809E+01 0. -1.
       -4    1    3    3    0  502  0.15845086077E+03 -0.19768508942E+03 -0.13133835162E+03  0.28537246777E+03  0.12699999809E+01 0.  1.
</event>
<event>
 5   0  0.9681801E-03  0.6017891E+03  0.7818609E-02  0.9901701E-01
       -2   -1    0    0    0  501  0.00000000000E+00  0.00000000000E+00  0.21465010078E+03  0.21465010080E+03  0.25500000920E-02 0.  1.
        2   -1    0    0  501    0  0.00000000000E+00  0.00000000000E+00 -0.42179126216E+03  0.42179126216E+03  0.25500000920E-02 0. -1.
    10030    2    1    2    0    0  0.00000000000E+00  0.00000000000E+00 -0.20714116137E+03  0.63644136296E+03  0.60178912233E+03 0.  0.
        4    1    3    3  502    0  0.87970640155E+02  0.19596295704E+03 -0.32640592565E+03  0.39074640787E+03  0.12699999809E+01 0. -1.
       -4    1    3    3    0  502 -0.87970640155E+02 -0.19596295704E+03  0.11926476428E+03  0.24569495510E+03  0.12699999809E+01 0.  1.
</event>
<event>
 5   0  0.9681801E-03  0.6003588E+03  0.7818609E-02  0.9904662E-01
       -2   -1    0    0    0  501  0.00000000000E+00  0.00000000000E+00  0.42349763176E+02  0.42349763253E+02  0.25500000920E-02 0. -1.
        2   -1    0    0  501    0  0.00000000000E+00  0.00000000000E+00 -0.21277016900E+04  0.21277016900E+04  0.25500000920E-02 0.  1.
    10030    2    1    2    0    0  0.00000000000E+00  0.00000000000E+00 -0.20853519268E+04  0.21700514532E+04  0.60035876862E+03 0.  0.
        4    1    3    3  502    0 -0.37985854620E+02  0.28358207291E+02  0.28725277184E+02  0.55442470374E+02  0.12699999809E+01 0. -1.
       -4    1    3    3    0  502  0.37985854620E+02 -0.28358207291E+02 -0.21140772040E+04  0.21146089828E+04  0.12699999809E+01 0.  1.
</event>
<event>
 5   0  0.3794375E-03  0.6004097E+03  0.7818609E-02  0.9904557E-01
        4   -1    0    0  501    0  0.00000000000E+00  0.00000000000E+00  0.31323515117E+03  0.31323772574E+03  0.12699999809E+01 0. -1.
       -4   -1    0    0    0  501  0.00000000000E+00  0.00000000000E+00 -0.28771139139E+03  0.28771419436E+03  0.12699999809E+01 0.  1.
    10030    2    1    2    0    0  0.00000000000E+00  0.00000000000E+00  0.25523759781E+02  0.60095192010E+03  0.60040965012E+03 0.  0.
        3    1    3    3  502    0 -0.83729092932E+02  0.28331357671E+03 -0.40632181499E+02  0.29820819594E+03  0.10100000352E+00 0.  1.
       -3    1    3    3    0  502  0.83729092932E+02 -0.28331357671E+03  0.66155941280E+02  0.30274372416E+03  0.10100000352E+00 0. -1.
</event>
<event>
 5   0  0.9866317E-03  0.6005921E+03  0.7818609E-02  0.9904178E-01
        2   -1    0    0  501    0  0.00000000000E+00  0.00000000000E+00  0.10476778012E+04  0.10476778012E+04  0.25500000920E-02 0.  1.
       -2   -1    0    0    0  501  0.00000000000E+00  0.00000000000E+00 -0.86073895360E+02  0.86073895398E+02  0.25500000920E-02 0. -1.
    10030    2    1    2    0    0  0.00000000000E+00  0.00000000000E+00  0.96160390586E+03  0.11337516966E+04  0.60059207273E+03 0.  0.
        1    1    3    3  502    0 -0.21171692185E+02  0.25337554871E+03  0.78242624464E+03  0.82270179140E+03  0.50400001928E-02 0.  1.
       -1    1    3    3    0  502  0.21171692185E+02 -0.25337554871E+03  0.17917766121E+03  0.31104990522E+03  0.50400001928E-02 0. -1.
</event>
<event>
 5   0  0.5491236E-03  0.6005874E+03  0.7818609E-02  0.9904188E-01
        1   -1    0    0  501    0  0.00000000000E+00  0.00000000000E+00  0.54842733782E+03  0.54842733784E+03  0.50400001928E-02 0. -1.
       -1   -1    0    0    0  501  0.00000000000E+00  0.00000000000E+00 -0.16442707030E+03  0.16442707037E+03  0.50400001928E-02 0.  1.
    10030    2    1    2    0    0  0.00000000000E+00  0.00000000000E+00  0.38400026752E+03  0.71285440821E+03  0.60058738070E+03 0.  0.
        3    1    3    3  502    0 -0.28773715564E+02  0.25192875807E+03  0.10548256494E+01  0.25356882440E+03  0.10100000352E+00 0.  1.
       -3    1    3    3    0  502  0.28773715564E+02 -0.25192875807E+03  0.38294544187E+03  0.45928558382E+03  0.10100000352E+00 0. -1.
</event>
<event>
 5   0  0.5574736E-03  0.5997550E+03  0.7818609E-02  0.9905915E-01
        1   -1    0    0  501    0  0.00000000000E+00  0.00000000000E+00  0.31607515413E+03  0.31607515417E+03  0.50400001928E-02 0. -1.
       -1   -1    0    0    0  501  0.00000000000E+00  0.00000000000E+00 -0.28450988140E+03  0.28450988145E+03  0.50400001928E-02 0.  1.
    10030    2    1    2    0    0  0.00000000000E+00  0.00000000000E+00  0.31565272722E+02  0.60058503561E+03  0.59975496543E+03 0.  0.
        5    1    3    3  502    0  0.12891696909E+03  0.25427591433E+03 -0.77236124353E+02  0.29540368046E+03  0.46999998093E+01 0.  1.
       -5    1    3    3    0  502 -0.12891696909E+03 -0.25427591433E+03  0.10880139707E+03  0.30518135515E+03  0.46999998093E+01 0. -1.
</event>
<event>
 5   0  0.5491236E-03  0.6008064E+03  0.7818609E-02  0.9903734E-01
       -1   -1    0    0    0  501  0.00000000000E+00  0.00000000000E+00  0.29933536312E+03  0.29933536316E+03  0.50400001928E-02 0. -1.
        1   -1    0    0  501    0  0.00000000000E+00  0.00000000000E+00 -0.30147482683E+03  0.30147482688E+03  0.50400001928E-02 0.  1.
    10030    2    1    2    0    0  0.00000000000E+00  0.00000000000E+00 -0.21394637119E+01  0.60081019004E+03  0.60080638075E+03 0.  0.
        3    1    3    3  502    0  0.24917360093E+03  0.16777285032E+03  0.15482764944E+01  0.30039577239E+03  0.10100000352E+00 0.  1.
       -3    1    3    3    0  502 -0.24917360093E+03 -0.16777285032E+03 -0.36877402063E+01  0.30041441766E+03  0.10100000352E+00 0. -1.
</event>
<event>
 5   0  0.5653633E-03  0.5979010E+03  0.7818609E-02  0.9909771E-01
        1   -1    0    0  501    0  0.00000000000E+00  0.00000000000E+00  0.11260981065E+04  0.11260981065E+04  0.50400001928E-02 0.  1.
       -1   -1    0    0    0  501  0.00000000000E+00  0.00000000000E+00 -0.79363766764E+02  0.79363766924E+02  0.50400001928E-02 0. -1.
    10030    2    1    2    0    0  0.00000000000E+00  0.00000000000E+00  0.10467343397E+04  0.12054618734E+04  0.59790095360E+03 0.  0.
        2    1    3    3  502    0 -0.41350723396E+02 -0.15174478153E+03  0.10791251373E+02  0.15764774708E+03  0.25500000920E-02 0. -1.
       -2    1    3    3    0  502  0.41350723396E+02  0.15174478153E+03  0.10359430884E+04  0.10478141263E+04  0.25500000920E-02 0.  1.
</event>
<event>
 5   0  0.9428629E-03  0.6010792E+03  0.7818609E-02  0.9903170E-01
        2   -1    0    0  501    0  0.00000000000E+00  0.00000000000E+00  0.17516585193E+04  0.17516585193E+04  0.25500000920E-02 0.  1.
       -2   -1    0    0    0  501  0.00000000000E+00  0.00000000000E+00 -0.51564874576E+02  0.51564874639E+02  0.25500000920E-02 0. -1.
    10030    2    1    2    0    0  0.00000000000E+00  0.00000000000E+00  0.17000936447E+04  0.18032233940E+04  0.60107920246E+03 0.  0.
        3    1    3    3  502    0 -0.39119793485E+02 -0.20381684562E+02  0.17418942839E+04  0.17424527189E+04  0.10100000352E+00 0.  1.
       -3    1    3    3    0  502  0.39119793485E+02  0.20381684562E+02 -0.41800639146E+02  0.60770675016E+02  0.10100000352E+00 0. -1.
</event>
<event>
 5   0  0.9571790E-03  0.6003136E+03  0.7818609E-02  0.9904756E-01
        2   -1    0    0  501    0  0.00000000000E+00  0.00000000000E+00  0.12867912143E+04  0.12867912143E+04  0.25500000920E-02 0.  1.
       -2   -1    0    0    0  501  0.00000000000E+00  0.00000000000E+00 -0.70014547138E+02  0.70014547185E+02  0.25500000920E-02 0. -1.
    10030    2    1    2    0    0  0.00000000000E+00  0.00000000000E+00  0.12167766671E+04  0.13568057615E+04  0.60031359859E+03 0.  0.
        5    1    3    3  502    0 -0.44259986008E+02 -0.17787348825E+03  0.11454994222E+04  0.11600814370E+04  0.46999998093E+01 0.  1.
       -5    1    3    3    0  502  0.44259986008E+02  0.17787348825E+03  0.71277244890E+02  0.19672432443E+03  0.46999998093E+01 0. -1.
</event>
<event>
 5   0  0.9530666E-03  0.6007188E+03  0.7818609E-02  0.9903916E-01
       -2   -1    0    0    0  501  0.00000000000E+00  0.00000000000E+00  0.18650957893E+03  0.18650957894E+03  0.25500000920E-02 0.  1.
        2   -1    0    0  501    0  0.00000000000E+00  0.00000000000E+00 -0.48370575365E+03  0.48370575365E+03  0.25500000920E-02 0. -1.
    10030    2    1    2    0    0  0.00000000000E+00  0.00000000000E+00 -0.29719617472E+03  0.67021533260E+03  0.60071875764E+03 0.  0.
        2    1    3    3  502    0  0.66696796888E+02  0.32013886939E+02 -0.47338128839E+03  0.47912753613E+03  0.25500000920E-02 0. -1.
       -2    1    3    3    0  502 -0.66696796888E+02 -0.32013886939E+02  0.17618511367E+03  0.19108779647E+03  0.25500000920E-02 0.  1.
</event>
<event>
 5   0  0.5653633E-03  0.5988441E+03  0.7818609E-02  0.9907807E-01
       -1   -1    0    0    0  501  0.00000000000E+00  0.00000000000E+00  0.12538486639E+03  0.12538486649E+03  0.50400001928E-02 0.  1.
        1   -1    0    0  501    0  0.00000000000E+00  0.00000000000E+00 -0.71502691187E+03  0.71502691188E+03  0.50400001928E-02 0. -1.
    10030    2    1    2    0    0  0.00000000000E+00  0.00000000000E+00 -0.58964204547E+03  0.84041177838E+03  0.59884406605E+03 0.  0.
        2    1    3    3  502    0  0.24588996332E+02  0.31247623206E+02  0.12166323849E+03  0.12799600112E+03  0.25500000920E-02 0.  1.
       -2    1    3    3    0  502 -0.24588996332E+02 -0.31247623206E+02 -0.71130528396E+03  0.71241577726E+03  0.25500000920E-02 0. -1.
</event>
<event>
 5   0  0.9866317E-03  0.5986841E+03  0.7818609E-02  0.9908140E-01
        2   -1    0    0  501    0  0.00000000000E+00  0.00000000000E+00  0.11897933423E+04  0.11897933423E+04  0.25500000920E-02 0. -1.
       -2   -1    0    0    0  501  0.00000000000E+00  0.00000000000E+00 -0.75311944345E+02  0.75311944388E+02  0.25500000920E-02 0.  1.
    10030    2    1    2    0    0  0.00000000000E+00  0.00000000000E+00  0.11144813980E+04  0.12651052867E+04  0.59868405693E+03 0.  0.
        1    1    3    3  502    0 -0.24524266700E+03  0.59169949803E+02  0.21676481874E+03  0.33261394341E+03  0.50400001928E-02 0.  1.
       -1    1    3    3    0  502  0.24524266700E+03 -0.59169949803E+02  0.89771657922E+03  0.93249134329E+03  0.50400001928E-02 0. -1.
</event>
<event>
 5   0  0.5574736E-03  0.5987472E+03  0.7818609E-02  0.9908009E-01
       -1   -1    0    0    0  501  0.00000000000E+00  0.00000000000E+00  0.13470701146E+03  0.13470701155E+03  0.50400001928E-02 0. -1.
        1   -1    0    0  501    0  0.00000000000E+00  0.00000000000E+00 -0.66532947222E+03  0.66532947224E+03  0.50400001928E-02 0.  1.
    10030    2    1    2    0    0  0.00000000000E+00  0.00000000000E+00 -0.53062246076E+03  0.80003648379E+03  0.59874717497E+03 0.  0.
        5    1    3    3  502    0 -0.12598309187E+03  0.25491370268E+03 -0.14032465066E+03  0.31712116428E+03  0.46999998093E+01 0. -1.
       -5    1    3    3    0  502  0.12598309187E+03 -0.25491370268E+03 -0.39029781010E+03  0.48291531951E+03  0.46999998093E+01 0.  1.
</event>
<event>
 5   0  0.3794375E-03  0.6001075E+03  0.7818609E-02  0.9905183E-01
       -4   -1    0    0    0  501  0.00000000000E+00  0.00000000000E+00  0.15127082488E+03  0.15127615596E+03  0.12699999809E+01 0.  1.
        4   -1    0    0  501    0  0.00000000000E+00  0.00000000000E+00 -0.59515620708E+03  0.59515756210E+03  0.12699999809E+01 0. -1.
    10030    2    1    2    0    0  0.00000000000E+00  0.00000000000E+00 -0.44388538220E+03  0.74643371806E+03  0.60010754280E+03 0.  0.
        1    1    3    3  502    0 -0.19218010994E+03 -0.78698025216E+02 -0.49132863853E+03  0.53341391517E+03  0.50400001928E-02 0. -1.
       -1    1    3    3    0  502  0.19218010994E+03  0.78698025216E+02  0.47443256331E+02  0.21301980290E+03  0.50400001928E-02 0.  1.
</event>
<event>
 5   0  0.5785798E-03  0.5994849E+03  0.7818609E-02  0.9906475E-01
       -1   -1    0    0    0  501  0.00000000000E+00  0.00000000000E+00  0.69116154351E+03  0.69116154352E+03  0.50400001928E-02 0.  1.
        1   -1    0    0  501    0  0.00000000000E+00  0.00000000000E+00 -0.12999209133E+03  0.12999209142E+03  0.50400001928E-02 0. -1.
    10030    2    1    2    0    0  0.00000000000E+00  0.00000000000E+00  0.56116945218E+03  0.82115363495E+03  0.59948489400E+03 0.  0.
        1    1    3    3  502    0  0.11322576982E+03 -0.27748573425E+03  0.28771893489E+03  0.41545227546E+03  0.50400001928E-02 0.  1.
       -1    1    3    3    0  502 -0.11322576982E+03  0.27748573425E+03  0.27345051729E+03  0.40570135949E+03  0.50400001928E-02 0. -1.
</event>
<event>
 5   0  0.3794375E-03  0.5993719E+03  0.7818609E-02  0.9906710E-01
       -3   -1    0    0    0  501  0.00000000000E+00  0.00000000000E+00  0.23844060496E+04  0.23844060517E+04  0.10100000352E+00 0. -1.
        3   -1    0    0  501    0  0.00000000000E+00  0.00000000000E+00 -0.37666195916E+02  0.37666331329E+02  0.10100000352E+00 0.  1.
    10030    2    1    2    0    0  0.00000000000E+00  0.00000000000E+00  0.23467398537E+04  0.24220723831E+04  0.59937191121E+03 0.  0.
        1    1    3    3  502    0  0.28106784193E+02 -0.28303777836E+03  0.15548406234E+04  0.15806421921E+04  0.50400001928E-02 0. -1.
       -1    1    3    3    0  502 -0.28106784193E+02  0.28303777836E+03  0.79189923028E+03  0.84143019094E+03  0.50400001928E-02 0.  1.
</event>
<event>
 5   0  0.5491236E-03  0.6003736E+03  0.7818609E-02  0.9904631E-01
        1   -1    0    0  501    0  0.00000000000E+00  0.00000000000E+00  0.92417317747E+03  0.92417317748E+03  0.50400001928E-02 0. -1.
       -1   -1    0    0    0  501  0.00000000000E+00  0.00000000000E+00 -0.97505661294E+02  0.97505661424E+02  0.50400001928E-02 0.  1.
    10030    2    1    2    0    0  0.00000000000E+00  0.00000000000E+00  0.82666751618E+03  0.10216788389E+04  0.60037360666E+03 0.  0.
        3    1    3    3  502    0 -0.10794385085E+03  0.27499851084E+03  0.50395913147E+03  0.58416681889E+03  0.10100000352E+00 0. -1.
       -3    1    3    3    0  502  0.10794385085E+03 -0.27499851084E+03  0.32270838470E+03  0.43751202002E+03  0.10100000352E+00 0.  1.
</event>
<event>
 5   0  0.5653633E-03  0.6000779E+03  0.7818609E-02  0.9905244E-01
        1   -1    0    0  501    0  0.00000000000E+00  0.00000000000E+00  0.13432881931E+04  0.13432881932E+04  0.50400001928E-02 0.  1.
       -1   -1    0    0    0  501  0.00000000000E+00  0.00000000000E+00 -0.67017176058E+02  0.67017176247E+02  0.50400001928E-02 0. -1.
    10030    2    1    2    0    0  0.00000000000E+00  0.00000000000E+00  0.12762710171E+04  0.14103053694E+04  0.60007793319E+03 0.  0.
        2    1    3    3  502    0 -0.52976745150E+01 -0.89023759508E+02 -0.35147955017E+02  0.95857570700E+02  0.25500000920E-02 0. -1.
       -2    1    3    3    0  502  0.52976745150E+01  0.89023759508E+02  0.13114189721E+04  0.13144477987E+04  0.25500000920E-02 0.  1.
</event>
<event>
 5   0  0.5491236E-03  0.6003075E+03  0.7818609E-02  0.9904768E-01
       -1   -1    0    0    0  501  0.00000000000E+00  0.00000000000E+00  0.43232473801E+03  0.43232473803E+03  0.50400001928E-02 0. -1.
        1   -1    0    0  501    0  0.00000000000E+00  0.00000000000E+00 -0.20839025066E+03  0.20839025072E+03  0.50400001928E-02 0.  1.
    10030    2    1    2    0    0  0.00000000000E+00  0.00000000000E+00  0.22393448735E+03  0.64071498875E+03  0.60030745639E+03 0.  0.
        3    1    3    3  502    0 -0.33912647584E+02 -0.77730385675E+02 -0.19533721133E+03  0.21295238166E+03  0.10100000352E+00 0.  1.
       -3    1    3    3    0  502  0.33912647584E+02  0.77730385675E+02  0.41927169867E+03  0.42776260710E+03  0.10100000352E+00 0. -1.
</event>
<event>
 5   0  0.5503975E-03  0.6010921E+03  0.7818609E-02  0.9903143E-01
       -1   -1    0    0    0  501  0.00000000000E+00  0.00000000000E+00  0.92595666095E+02  0.92595666232E+02  0.50400001928E-02 0.  1.
        1   -1    0    0  501    0  0.00000000000E+00  0.00000000000E+00 -0.97550919043E+03  0.97550919044E+03  0.50400001928E-02 0. -1.
    10030    2    1    2    0    0  0.00000000000E+00  0.00000000000E+00 -0.88291352434E+03  0.10681048567E+04  0.60109208396E+03 0.  0.
        4    1    3    3  502    0 -0.12406810844E+03 -0.71259957985E+02 -0.91110530225E+03  0.92227184811E+03  0.12699999809E+01 0. -1.
       -4    1    3    3    0  502  0.12406810844E+03  0.71259957985E+02  0.28191777909E+02  0.14583300856E+03  0.12699999809E+01 0.  1.
</event>
<event>
 5   0  0.5653633E-03  0.5997234E+03  0.7818609E-02  0.9905980E-01
        1   -1    0    0  501    0  0.00000000000E+00  0.00000000000E+00  0.21715973526E+03  0.21715973532E+03  0.50400001928E-02 0. -1.
       -1   -1    0    0    0  501  0.00000000000E+00  0.00000000000E+00 -0.41405946968E+03  0.41405946971E+03  0.50400001928E-02 0.  1.
    10030    2    1    2    0    0  0.00000000000E+00  0.00000000000E+00 -0.19689973441E+03  0.63121920503E+03  0.59972341907E+03 0.  0.
        2    1    3    3  502    0 -0.15918768234E+03 -0.88885219153E+02  0.15211940546E+03  0.23744812890E+03  0.25500000920E-02 0. -1.
       -2    1    3    3    0  502  0.15918768234E+03  0.88885219153E+02 -0.34901913987E+03  0.39377107613E+03  0.25500000920E-02 0.  1.
</event>
<event>
 5   0  0.9530666E-03  0.5987295E+03  0.7818609E-02  0.9908046E-01
        2   -1    0    0  501    0  0.00000000000E+00  0.00000000000E+00  0.83080496772E+03  0.83080496772E+03  0.25500000920E-02 0. -1.
       -2   -1    0    0    0  501  0.00000000000E+00  0.00000000000E+00 -0.10787037094E+03  0.10787037097E+03  0.25500000920E-02 0.  1.
    10030    2    1    2    0    0  0.00000000000E+00  0.00000000000E+00  0.72293459678E+03  0.93867533869E+03  0.59872945496E+03 0.  0.
        2    1    3    3  502    0 -0.20020668817E+03 -0.15102331374E+03  0.61778105815E+03  0.66674147546E+03  0.25500000920E-02 0.  1.
       -2    1    3    3    0  502  0.20020668817E+03  0.15102331374E+03  0.10515353863E+03  0.27193386323E+03  0.25500000920E-02 0. -1.
</event>
<event>
 5   0  0.5653633E-03  0.5985794E+03  0.7818609E-02  0.9908358E-01
       -1   -1    0    0    0  501  0.00000000000E+00  0.00000000000E+00  0.16466269104E+03  0.16466269112E+03  0.50400001928E-02 0.  1.
        1   -1    0    0  501    0  0.00000000000E+00  0.00000000000E+00 -0.54398682970E+03  0.54398682973E+03  0.50400001928E-02 0. -1.
    10030    2    1    2    0    0  0.00000000000E+00  0.00000000000E+00 -0.37932413866E+03  0.70864952084E+03  0.59857943601E+03 0.  0.
        2    1    3    3  502    0  0.18453897714E+03 -0.13641608324E+03 -0.41711095166E+03  0.47607302785E+03  0.25500000920E-02 0.  1.
       -2    1    3    3    0  502 -0.18453897714E+03  0.13641608324E+03  0.37786812990E+02  0.23257649299E+03  0.25500000920E-02 0. -1.
</event>
<event>
 5   0  0.5574736E-03  0.5997790E+03  0.7818609E-02  0.9905865E-01
       -1   -1    0    0    0  501  0.00000000000E+00  0.00000000000E+00  0.11717678439E+03  0.11717678450E+03  0.50400001928E-02 0.  1.
        1   -1    0    0  501    0  0.00000000000E+00  0.00000000000E+00 -0.76750443992E+03  0.76750443993E+03  0.50400001928E-02 0. -1.
    10030    2    1    2    0    0  0.00000000000E+00  0.00000000000E+00 -0.65032765553E+03  0.88468122443E+03  0.59977896704E+03 0.  0.
        5    1    3    3  502    0  0.18863977923E+03 -0.29583992070E+01  0.18605432511E+02  0.18963641673E+03  0.46999998093E+01 0.  1.
       -5    1    3    3    0  502 -0.18863977923E+03  0.29583992070E+01 -0.66893308804E+03  0.69504480770E+03  0.46999998093E+01 0. -1.
</event>
<event>
 5   0  0.5574736E-03  0.6110291E+03  0.7818609E-02  0.9882785E-01
       -1   -1    0    0    0  501  0.00000000000E+00  0.00000000000E+00  0.26543224280E+03  0.26543224285E+03  0.50400001928E-02 0. -1.
        1   -1    0    0  501    0  0.00000000000E+00  0.00000000000E+00 -0.35164961358E+03  0.35164961361E+03  0.50400001928E-02 0.  1.
    10030    2    1    2    0    0  0.00000000000E+00  0.00000000000E+00 -0.86217370772E+02  0.61708185647E+03  0.61102911760E+03 0.  0.
        5    1    3    3  502    0  0.24472737820E+03 -0.14437529053E+03 -0.15638636549E+03  0.32436784592E+03  0.46999998093E+01 0.  1.
       -5    1    3    3    0  502 -0.24472737820E+03  0.14437529053E+03  0.70168994716E+02  0.29271401055E+03  0.46999998093E+01 0. -1.
</event>
<event>
 5   0  0.9428629E-03  0.6106035E+03  0.7818609E-02  0.9883648E-01
        2   -1    0    0  501    0  0.00000000000E+00  0.00000000000E+00  0.10370888620E+04  0.10370888620E+04  0.25500000920E-02 0. -1.
       -2   -1    0    0    0  501  0.00000000000E+00  0.00000000000E+00 -0.89875777635E+02  0.89875777671E+02  0.25500000920E-02 0.  1.
    10030    2    1    2    0    0  0.00000000000E+00  0.00000000000E+00  0.94721308436E+03  0.11269646397E+04  0.61060353085E+03 0.  0.
        3    1    3    3  502    0 -0.27864194562E+03 -0.32758011785E+02  0.25140035791E+03  0.37671815905E+03  0.10100000352E+00 0.  1.
       -3    1    3    3    0  502  0.27864194562E+03  0.32758011785E+02  0.69581272645E+03  0.75024648062E+03  0.10100000352E+00 0. -1.
</event>
<event>
 5   0  0.9428629E-03  0.5992394E+03  0.7818609E-02  0.9906985E-01
        2   -1    0    0  501    0  0.00000000000E+00  0.00000000000E+00  0.69195914494E+03  0.69195914495E+03  0.25500000920E-02 0. -1.
       -2   -1    0    0    0  501  0.00000000000E+00  0.00000000000E+00 -0.12973595032E+03  0.12973595034E+03  0.25500000920E-02 0.  1.
    10030    2    1    2    0    0  0.00000000000E+00  0.00000000000E+00  0.56222319462E+03  0.82169509529E+03  0.59923944217E+03 0.  0.
        3    1    3    3  502    0  0.82548926445E+02 -0.67814198373E+02 -0.10273209064E+03  0.14821262904E+03  0.10100000352E+00 0.  1.
       -3    1    3    3    0  502 -0.82548926445E+02  0.67814198373E+02  0.66495528526E+03  0.67348246625E+03  0.10100000352E+00 0. -1.
</event>
<event>
 5   0  0.9681801E-03  0.6000135E+03  0.7818609E-02  0.9905378E-01
        2   -1    0    0  501    0  0.00000000000E+00  0.00000000000E+00  0.30435700917E+03  0.30435700918E+03  0.25500000920E-02 0.  1.
       -2   -1    0    0    0  501  0.00000000000E+00  0.00000000000E+00 -0.29571864993E+03  0.29571864994E+03  0.25500000920E-02 0. -1.
    10030    2    1    2    0    0  0.00000000000E+00  0.00000000000E+00  0.86383592460E+01  0.60007565912E+03  0.60001347936E+03 0.  0.
        4    1    3    3  502    0  0.22084318996E+02  0.22417967255E+03 -0.19383814511E+03  0.29718526567E+03  0.12699999809E+01 0.  1.
       -4    1    3    3    0  502 -0.22084318996E+02 -0.22417967255E+03  0.20247650436E+03  0.30289039345E+03  0.12699999809E+01 0. -1.
</event>
<event>
 5   0  0.9428629E-03  0.5979957E+03  0.7818609E-02  0.9909573E-01
        2   -1    0    0  501    0  0.00000000000E+00  0.00000000000E+00  0.11527945625E+04  0.11527945625E+04  0.25500000920E-02 0.  1.
       -2   -1    0    0    0  501  0.00000000000E+00  0.00000000000E+00 -0.77550434545E+02  0.77550434586E+02  0.25500000920E-02 0. -1.
    10030    2    1    2    0    0  0.00000000000E+00  0.00000000000E+00  0.10752441279E+04  0.12303449970E+04  0.59799571666E+03 0.  0.
        3    1    3    3  502    0 -0.28329363262E+02 -0.13787251561E+03  0.10803685597E+04  0.10894987923E+04  0.10100000352E+00 0.  1.
       -3    1    3    3    0  502  0.28329363262E+02  0.13787251561E+03 -0.51244318248E+01  0.14084620473E+03  0.10100000352E+00 0. -1.
</event>
<event>
 5   0  0.9866317E-03  0.5997933E+03  0.7818609E-02  0.9905835E-01
       -2   -1    0    0    0  501  0.00000000000E+00  0.00000000000E+00  0.22175442659E+03  0.22175442660E+03  0.25500000920E-02 0. -1.
        2   -1    0    0  501    0  0.00000000000E+00  0.00000000000E+00 -0.40557475534E+03  0.40557475535E+03  0.25500000920E-02 0.  1.
    10030    2    1    2    0    0  0.00000000000E+00  0.00000000000E+00 -0.18382032875E+03  0.62732918195E+03  0.59979328878E+03 0.  0.
        1    1    3    3  502    0  0.16697407167E+03  0.15492429559E+03  0.11212552440E+03  0.25387794552E+03  0.50400001928E-02 0. -1.
       -1    1    3    3    0  502 -0.16697407167E+03 -0.15492429559E+03 -0.29594585315E+03  0.37345123643E+03  0.50400001928E-02 0.  1.
</event>
<event>
 5   0  0.9571790E-03  0.5988247E+03  0.7818609E-02  0.9907848E-01
        2   -1    0    0  501    0  0.00000000000E+00  0.00000000000E+00  0.12821085290E+04  0.12821085290E+04  0.25500000920E-02 0.  1.
       -2   -1    0    0    0  501  0.00000000000E+00  0.00000000000E+00 -0.69922117701E+02  0.69922117747E+02  0.25500000920E-02 0. -1.
    10030    2    1    2    0    0  0.00000000000E+00  0.00000000000E+00  0.12121864113E+04  0.13520306468E+04  0.59882466050E+03 0.  0.
        5    1    3    3  502    0  0.21167883423E+03  0.29086619941E+02  0.10795424782E+04  0.11004944400E+04  0.46999998093E+01 0.  1.
       -5    1    3    3    0  502 -0.21167883423E+03 -0.29086619941E+02  0.13264393319E+03  0.25153620680E+03  0.46999998093E+01 0. -1.
</event>
<event>
 5   0  0.9571790E-03  0.5984440E+03  0.7818609E-02  0.9908640E-01
       -2   -1    0    0    0  501  0.00000000000E+00  0.00000000000E+00  0.12155542604E+03  0.12155542607E+03  0.25500000920E-02 0. -1.
        2   -1    0    0  501    0  0.00000000000E+00  0.00000000000E+00 -0.73656767019E+03  0.73656767020E+03  0.25500000920E-02 0.  1.
    10030    2    1    2    0    0  0.00000000000E+00  0.00000000000E+00 -0.61501224415E+03  0.85812309627E+03  0.59844397223E+03 0.  0.
        5    1    3    3  502    0 -0.15837501679E+03  0.63615270581E+02 -0.65986109938E+03  0.68159248020E+03  0.46999998093E+01 0.  1.
       -5    1    3    3    0  502  0.15837501679E+03 -0.63615270581E+02  0.44848855229E+02  0.17653061607E+03  0.46999998093E+01 0. -1.
</event>
<event>
 5   0  0.5491236E-03  0.5988344E+03  0.7818609E-02  0.9907827E-01
        1   -1    0    0  501    0  0.00000000000E+00  0.00000000000E+00  0.35074812215E+03  0.35074812218E+03  0.50400001928E-02 0. -1.
       -1   -1    0    0    0  501  0.00000000000E+00  0.00000000000E+00 -0.25559843699E+03  0.25559843704E+03  0.50400001928E-02 0.  1.
    10030    2    1    2    0    0  0.00000000000E+00  0.00000000000E+00  0.95149685158E+02  0.60634655922E+03  0.59883444064E+03 0.  0.
        3    1    3    3  502    0 -0.29381798615E+03 -0.23385446901E+02  0.10091176064E+03  0.31154306564E+03  0.10100000352E+00 0. -1.
       -3    1    3    3    0  502  0.29381798615E+03  0.23385446901E+02 -0.57620754774E+01  0.29480349358E+03  0.10100000352E+00 0.  1.
</event>
<event>
 5   0  0.3794375E-03  0.5998519E+03  0.7818609E-02  0.9905713E-01
        3   -1    0    0  501    0  0.00000000000E+00  0.00000000000E+00  0.82694214512E+03  0.82694215128E+03  0.10100000352E+00 0.  1.
       -3   -1    0    0    0  501  0.00000000000E+00  0.00000000000E+00 -0.10878094865E+03  0.10878099554E+03  0.10100000352E+00 0. -1.
    10030    2    1    2    0    0  0.00000000000E+00  0.00000000000E+00  0.71816119647E+03  0.93572314682E+03  0.59985190121E+03 0.  0.
        4    1    3    3  502    0  0.18898699569E+03  0.22819650859E+03  0.43165028140E+03  0.52355831519E+03  0.12699999809E+01 0. -1.
       -4    1    3    3    0  502 -0.18898699569E+03 -0.22819650859E+03  0.28651091507E+03  0.41216483163E+03  0.12699999809E+01 0.  1.
</event>
<event>
 5   0  0.5785798E-03  0.6005638E+03  0.7818609E-02  0.9904237E-01
       -1   -1    0    0    0  501  0.00000000000E+00  0.00000000000E+00  0.21188779109E+03  0.21188779115E+03  0.50400001928E-02 0. -1.
        1   -1    0    0  501    0  0.00000000000E+00  0.00000000000E+00 -0.42555172160E+03  0.42555172163E+03  0.50400001928E-02 0.  1.
    10030    2    1    2    0    0  0.00000000000E+00  0.00000000000E+00 -0.21366393050E+03  0.63743951278E+03  0.60056378283E+03 0.  0.
        1    1    3    3  502    0 -0.25062407440E+03 -0.26429564928E+02 -0.28013085816E+03  0.37680797004E+03  0.50400001928E-02 0.  1.
       -1    1    3    3    0  502  0.25062407440E+03  0.26429564928E+02  0.66466927653E+02  0.26063154273E+03  0.50400001928E-02 0. -1.
</event>
<event>
 5   0  0.5491236E-03  0.6004631E+03  0.7818609E-02  0.9904446E-01
        1   -1    0    0  501    0  0.00000000000E+00  0.00000000000E+00  0.74842761336E+03  0.74842761337E+03  0.50400001928E-02 0. -1.
       -1   -1    0    0    0  501  0.00000000000E+00  0.00000000000E+00 -0.12043780163E+03  0.12043780174E+03  0.50400001928E-02 0.  1.
    10030    2    1    2    0    0  0.00000000000E+00  0.00000000000E+00  0.62798981172E+03  0.86886541511E+03  0.60046307626E+03 0.  0.
        3    1    3    3  502    0  0.26183721792E+02  0.29359633031E+03  0.39654418170E+03  0.49409684344E+03  0.10100000352E+00 0. -1.
       -3    1    3    3    0  502 -0.26183721792E+02 -0.29359633031E+03  0.23144563002E+03  0.37476857167E+03  0.10100000352E+00 0.  1.
</event>
<event>
 5   0  0.5503975E-03  0.5991035E+03  0.7818609E-02  0.9907268E-01
       -1   -1    0    0    0  501  0.00000000000E+00  0.00000000000E+00  0.22766286468E+03  0.22766286474E+03  0.50400001928E-02 0. -1.
        1   -1    0    0  501    0  0.00000000000E+00  0.00000000000E+00 -0.39414097673E+03  0.39414097677E+03  0.50400001928E-02 0.  1.
    10030    2    1    2    0    0  0.00000000000E+00  0.00000000000E+00 -0.16647811205E+03  0.62180384150E+03  0.59910354323E+03 0.  0.
        4    1    3    3  502    0 -0.28901360933E+03 -0.78705126159E+02 -0.80636512117E+02  0.31020513092E+03  0.12699999809E+01 0.  1.
       -4    1    3    3    0  502  0.28901360933E+03  0.78705126159E+02 -0.85841599934E+02  0.31159871059E+03  0.12699999809E+01 0. -1.
</event>
<event>
 5   0  0.5503975E-03  0.6003480E+03  0.7818609E-02  0.9904684E-01
       -1   -1    0    0    0  501  0.00000000000E+00  0.00000000000E+00  0.26759034693E+03  0.26759034698E+03  0.50400001928E-02 0.  1.
        1   -1    0    0  501    0  0.00000000000E+00  0.00000000000E+00 -0.33672525687E+03  0.33672525690E+03  0.50400001928E-02 0. -1.
    10030    2    1    2    0    0  0.00000000000E+00  0.00000000000E+00 -0.69134909938E+02  0.60431560388E+03  0.60034799352E+03 0.  0.
        4    1    3    3  502    0  0.58057189646E+02  0.17466793822E+03 -0.27324901657E+03  0.32946344846E+03  0.12699999809E+01 0. -1.
       -4    1    3    3    0  502 -0.58057189646E+02 -0.17466793822E+03  0.20411410663E+03  0.27485215542E+03  0.12699999809E+01 0.  1.
</event>
<event>
 5   0  0.9681801E-03  0.6030065E+03  0.7818609E-02  0.9899188E-01
       -2   -1    0    0    0  501  0.00000000000E+00  0.00000000000E+00  0.23355680174E+03  0.23355680176E+03  0.25500000920E-02 0.  1.
        2   -1    0    0  501    0  0.00000000000E+00  0.00000000000E+00 -0.38921664789E+03  0.38921664790E+03  0.25500000920E-02 0. -1.
    10030    2    1    2    0    0  0.00000000000E+00  0.00000000000E+00 -0.15565984615E+03  0.62277344966E+03  0.60300645261E+03 0.  0.
        4    1    3    3  502    0  0.19373651037E+03  0.59856708817E+02 -0.30827180059E+03  0.36898479235E+03  0.12699999809E+01 0. -1.
       -4    1    3    3    0  502 -0.19373651037E+03 -0.59856708817E+02  0.15261195444E+03  0.25378865731E+03  0.12699999809E+01 0.  1.
</event>
<event>
 5   0  0.9571790E-03  0.5996176E+03  0.7818609E-02  0.9906200E-01
        2   -1    0    0  501    0  0.00000000000E+00  0.00000000000E+00  0.23588983902E+03  0.23588983904E+03  0.25500000920E-02 0.  1.
       -2   -1    0    0    0  501  0.00000000000E+00  0.00000000000E+00 -0.38104787500E+03  0.38104787501E+03  0.25500000920E-02 0. -1.
    10030    2    1    2    0    0  0.00000000000E+00  0.00000000000E+00 -0.14515803597E+03  0.61693771404E+03  0.59961761782E+03 0.  0.
        5    1    3    3  502    0  0.80426456344E+02  0.18950474375E+02  0.22390367844E+03  0.23871003870E+03  0.46999998093E+01 0.  1.
       -5    1    3    3    0  502 -0.80426456344E+02 -0.18950474375E+02 -0.36906171441E+03  0.37822767535E+03  0.46999998093E+01 0. -1.
</event>
<event>
 5   0  0.5503975E-03  0.6002923E+03  0.7818609E-02  0.9904800E-01
        1   -1    0    0  501    0  0.00000000000E+00  0.00000000000E+00  0.13937418591E+03  0.13937418600E+03  0.50400001928E-02 0. -1.
       -1   -1    0    0    0  501  0.00000000000E+00  0.00000000000E+00 -0.64637304324E+03  0.64637304326E+03  0.50400001928E-02 0.  1.
    10030    2    1    2    0    0  0.00000000000E+00  0.00000000000E+00 -0.50699885733E+03  0.78574722925E+03  0.60029231792E+03 0.  0.
        4    1    3    3  502    0 -0.20920638565E+03 -0.19133076141E+03 -0.38249044614E+03  0.47610432297E+03  0.12699999809E+01 0.  1.
       -4    1    3    3    0  502  0.20920638565E+03  0.19133076141E+03 -0.12450841118E+03  0.30964290629E+03  0.12699999809E+01 0. -1.
</event>
<event>
 5   0  0.9428629E-03  0.6005306E+03  0.7818609E-02  0.9904306E-01
       -2   -1    0    0    0  501  0.00000000000E+00  0.00000000000E+00  0.94736985997E+02  0.94736986031E+02  0.25500000920E-02 0.  1.
        2   -1    0    0  501    0  0.00000000000E+00  0.00000000000E+00 -0.95167965127E+03  0.95167965128E+03  0.25500000920E-02 0. -1.
    10030    2    1    2    0    0  0.00000000000E+00  0.00000000000E+00 -0.85694266528E+03  0.10464166373E+04  0.60053063807E+03 0.  0.
        3    1    3    3  502    0  0.20502845952E+02  0.23212352226E+03 -0.75843020094E+03  0.79342175177E+03  0.10100000352E+00 0. -1.
       -3    1    3    3    0  502 -0.20502845952E+02 -0.23212352226E+03 -0.98512464331E+02  0.25299488554E+03  0.10100000352E+00 0.  1.
</event>
<event>
 5   0  0.9866317E-03  0.6031833E+03  0.7818609E-02  0.9898824E-01
       -2   -1    0    0    0  501  0.00000000000E+00  0.00000000000E+00  0.10277350245E+03  0.10277350248E+03  0.25500000920E-02 0. -1.
        2   -1    0    0  501    0  0.00000000000E+00  0.00000000000E+00 -0.88502889967E+03  0.88502889968E+03  0.25500000920E-02 0.  1.
    10030    2    1    2    0    0  0.00000000000E+00  0.00000000000E+00 -0.78225539722E+03  0.98780240216E+03  0.60318328826E+03 0.  0.
        1    1    3    3  502    0 -0.27162432549E+02 -0.29211388161E+03 -0.27661865769E+03  0.40321979041E+03  0.50400001928E-02 0. -1.
       -1    1    3    3    0  502  0.27162432549E+02  0.29211388161E+03 -0.50563673953E+03  0.58458261175E+03  0.50400001928E-02 0.  1.
</event>
<event>
 5   0  0.3794375E-03  0.6004863E+03  0.7818609E-02  0.9904398E-01
       -3   -1    0    0    0  501  0.00000000000E+00  0.00000000000E+00  0.10538555131E+04  0.10538555180E+04  0.10100000352E+00 0.  1.
        3   -1    0    0  501    0  0.00000000000E+00  0.00000000000E+00 -0.85539161042E+02  0.85539220670E+02  0.10100000352E+00 0. -1.
    10030    2    1    2    0    0  0.00000000000E+00  0.00000000000E+00  0.96831635208E+03  0.11393947386E+04  0.60048631351E+03 0.  0.
        3    1    3    3  502    0 -0.27256110506E+03  0.12591963048E+03  0.48264776605E+03  0.56841374509E+03  0.10100000352E+00 0. -1.
       -3    1    3    3    0  502  0.27256110506E+03 -0.12591963048E+03  0.48566858603E+03  0.57098099354E+03  0.10100000352E+00 0.  1.
</event>
<event>
 5   0  0.9530666E-03  0.5991668E+03  0.7818609E-02  0.9907136E-01
        2   -1    0    0  501    0  0.00000000000E+00  0.00000000000E+00  0.19622923577E+03  0.19622923579E+03  0.25500000920E-02 0.  1.
       -2   -1    0    0    0  501  0.00000000000E+00  0.00000000000E+00 -0.45737434111E+03  0.45737434112E+03  0.25500000920E-02 0. -1.
    10030    2    1    2    0    0  0.00000000000E+00  0.00000000000E+00 -0.26114510534E+03  0.65360357691E+03  0.59916681291E+03 0.  0.
        2    1    3    3  502    0 -0.63405313726E+02  0.28068509087E+03 -0.39658757426E+02  0.29047748810E+03  0.25500000920E-02 0.  1.
       -2    1    3    3    0  502  0.63405313726E+02 -0.28068509087E+03 -0.22148634792E+03  0.36312608880E+03  0.25500000920E-02 0. -1.
</event>
<event>
 5   0  0.3794375E-03  0.6001549E+03  0.7818609E-02  0.9905085E-01
       -4   -1    0    0    0  501  0.00000000000E+00  0.00000000000E+00  0.39024921059E+03  0.39025127708E+03  0.12699999809E+01 0. -1.
        4   -1    0    0  501    0  0.00000000000E+00  0.00000000000E+00 -0.23073651428E+03  0.23074000936E+03  0.12699999809E+01 0.  1.
    10030    2    1    2    0    0  0.00000000000E+00  0.00000000000E+00  0.15951269631E+03  0.62099128645E+03  0.60015487798E+03 0.  0.
        3    1    3    3  502    0 -0.26076857083E+03 -0.13065933256E+03  0.67786171453E+01  0.29175001040E+03  0.10100000352E+00 0. -1.
       -3    1    3    3    0  502  0.26076857083E+03  0.13065933256E+03  0.15273407916E+03  0.32924127605E+03  0.10100000352E+00 0.  1.
</event>
<event>
 5   0  0.5503975E-03  0.5997321E+03  0.7818609E-02  0.9905962E-01
        1   -1    0    0  501    0  0.00000000000E+00  0.00000000000E+00  0.28266980623E+03  0.28266980627E+03  0.50400001928E-02 0.  1.
       -1   -1    0    0    0  501  0.00000000000E+00  0.00000000000E+00 -0.31810844611E+03  0.31810844615E+03  0.50400001928E-02 0. -1.
    10030    2    1    2    0    0  0.00000000000E+00  0.00000000000E+00 -0.35438639888E+02  0.60077825242E+03  0.59973211636E+03 0.  0.
        4    1    3    3  502    0  0.10722655481E+02  0.16128172897E+03 -0.27072922052E+03  0.31531364573E+03  0.12699999809E+01 0. -1.
       -4    1    3    3    0  502 -0.10722655481E+02 -0.16128172897E+03  0.23529058063E+03  0.28546460669E+03  0.12699999809E+01 0.  1.
</event>
<event>
 5   0  0.9571790E-03  0.6006288E+03  0.7818609E-02  0.9904102E-01
       -2   -1    0    0    0  501  0.00000000000E+00  0.00000000000E+00  0.84386046543E+02  0.84386046581E+02  0.25500000920E-02 0. -1.
        2   -1    0    0  501    0  0.00000000000E+00  0.00000000000E+00 -0.10687635160E+04  0.10687635160E+04  0.25500000920E-02 0.  1.
    10030    2    1    2    0    0  0.00000000000E+00  0.00000000000E+00 -0.98437746946E+03  0.11531495626E+04  0.60062876331E+03 0.  0.
        5    1    3    3  502    0 -0.13195356533E+02 -0.13806982364E+03  0.19130556826E+02  0.14009090562E+03  0.46999998093E+01 0.  1.
       -5    1    3    3    0  502  0.13195356533E+02  0.13806982364E+03 -0.10035080263E+04  0.10130586570E+04  0.46999998093E+01 0. -1.
</event>
<event>
 5   0  0.3794375E-03  0.6005084E+03  0.7818609E-02  0.9904352E-01
        4   -1    0    0  501    0  0.00000000000E+00  0.00000000000E+00  0.17293320384E+03  0.17293786714E+03  0.12699999809E+01 0. -1.
       -4   -1    0    0    0  501  0.00000000000E+00  0.00000000000E+00 -0.52130207168E+03  0.52130361867E+03  0.12699999809E+01 0.  1.
    10030    2    1    2    0    0  0.00000000000E+00  0.00000000000E+00 -0.34836886784E+03  0.69424148581E+03  0.60050842836E+03 0.  0.
        1    1    3    3  502    0 -0.19187813292E+03 -0.79452075273E+02  0.76510428830E+02  0.22132260595E+03  0.50400001928E-02 0. -1.
       -1    1    3    3    0  502  0.19187813292E+03  0.79452075273E+02 -0.42487929667E+03  0.47291887986E+03  0.50400001928E-02 0.  1.
</event>
<event>
 5   0  0.5574736E-03  0.5951891E+03  0.7818609E-02  0.9915438E-01
       -1   -1    0    0    0  501  0.00000000000E+00  0.00000000000E+00  0.73872078338E+02  0.73872078510E+02  0.50400001928E-02 0. -1.
        1   -1    0    0  501    0  0.00000000000E+00  0.00000000000E+00 -0.11988631671E+04  0.11988631671E+04  0.50400001928E-02 0.  1.
    10030    2    1    2    0    0  0.00000000000E+00  0.00000000000E+00 -0.11249910888E+04  0.12727352456E+04  0.59518909235E+03 0.  0.
        5    1    3    3  502    0  0.16302946728E+03 -0.20392159076E+03 -0.86774983121E+03  0.90618678093E+03  0.46999998093E+01 0.  1.
       -5    1    3    3    0  502 -0.16302946728E+03  0.20392159076E+03 -0.25724125755E+03  0.36654846468E+03  0.46999998093E+01 0. -1.
</event>
<event>
 5   0  0.5503975E-03  0.6025049E+03  0.7818609E-02  0.9900223E-01
       -1   -1    0    0    0  501  0.00000000000E+00  0.00000000000E+00  0.35118691602E+02  0.35118691964E+02  0.50400001928E-02 0.  1.
        1   -1    0    0  501    0  0.00000000000E+00  0.00000000000E+00 -0.25841803489E+04  0.25841803489E+04  0.50400001928E-02 0. -1.
    10030    2    1    2    0    0  0.00000000000E+00  0.00000000000E+00 -0.25490616573E+04  0.26192990408E+04  0.60250488196E+03 0.  0.
        4    1    3    3  502    0  0.24557233278E+03 -0.41680681189E+02 -0.53793579772E+03  0.59280653268E+03  0.12699999809E+01 0.  1.
       -4    1    3    3    0  502 -0.24557233278E+03  0.41680681189E+02 -0.20111258596E+04  0.20264925082E+04  0.12699999809E+01 0. -1.
</event>
<event>
 5   0  0.5491236E-03  0.5991983E+03  0.7818609E-02  0.9907071E-01
       -1   -1    0    0    0  501  0.00000000000E+00  0.00000000000E+00  0.81502398611E+02  0.81502398767E+02  0.50400001928E-02 0.  1.
        1   -1    0    0  501    0  0.00000000000E+00  0.00000000000E+00 -0.11013130829E+04  0.11013130830E+04  0.50400001928E-02 0. -1.
    10030    2    1    2    0    0  0.00000000000E+00  0.00000000000E+00 -0.10198106843E+04  0.11828154817E+04  0.59919832437E+03 0.  0.
        3    1    3    3  502    0  0.53763503769E+02  0.97611566478E+02 -0.10588791522E+04  0.10647270080E+04  0.10100000352E+00 0. -1.
       -3    1    3    3    0  502 -0.53763503769E+02 -0.97611566478E+02  0.39068467908E+02  0.11808847375E+03  0.10100000352E+00 0.  1.
</event>
<event>
 5   0  0.3794375E-03  0.5990654E+03  0.7818609E-02  0.9907347E-01
       -3   -1    0    0    0  501  0.00000000000E+00  0.00000000000E+00  0.47200796031E+03  0.47200797111E+03  0.10100000352E+00 0.  1.
        3   -1    0    0  501    0  0.00000000000E+00  0.00000000000E+00 -0.19008119779E+03  0.19008122462E+03  0.10100000352E+00 0. -1.
    10030    2    1    2    0    0  0.00000000000E+00  0.00000000000E+00  0.28192676252E+03  0.66208919574E+03  0.59906544191E+03 0.  0.
        1    1    3    3  502    0  0.26797138759E+03  0.12740207847E+03  0.95664912026E+02  0.31175588139E+03  0.50400001928E-02 0. -1.
       -1    1    3    3    0  502 -0.26797138759E+03 -0.12740207847E+03  0.18626185049E+03  0.35033331434E+03  0.50400001928E-02 0.  1.
</event>
<event>
 5   0  0.3794375E-03  0.6009393E+03  0.7818609E-02  0.9903459E-01
       -3   -1    0    0    0  501  0.00000000000E+00  0.00000000000E+00  0.72216911147E+03  0.72216911854E+03  0.10100000352E+00 0.  1.
        3   -1    0    0  501    0  0.00000000000E+00  0.00000000000E+00 -0.12501504337E+03  0.12501508417E+03  0.10100000352E+00 0. -1.
    10030    2    1    2    0    0  0.00000000000E+00  0.00000000000E+00  0.59715406810E+03  0.84718420271E+03  0.60093934158E+03 0.  0.
        2    1    3    3  502    0  0.16723301913E+03  0.24772467665E+03  0.25517945968E+03  0.39300248696E+03  0.25500000920E-02 0. -1.
       -2    1    3    3    0  502 -0.16723301913E+03 -0.24772467665E+03  0.34197460842E+03  0.45418171575E+03  0.25500000920E-02 0.  1.
</event>
<event>
 5   0  0.5574736E-03  0.5997667E+03  0.7818609E-02  0.9905890E-01
       -1   -1    0    0    0  501  0.00000000000E+00  0.00000000000E+00  0.11786506987E+03  0.11786506998E+03  0.50400001928E-02 0.  1.
        1   -1    0    0  501    0  0.00000000000E+00  0.00000000000E+00 -0.76299131353E+03  0.76299131354E+03  0.50400001928E-02 0. -1.
    10030    2    1    2    0    0  0.00000000000E+00  0.00000000000E+00 -0.64512624366E+03  0.88085638352E+03  0.59976670309E+03 0.  0.
        5    1    3    3  502    0 -0.72778981794E+02  0.29076967908E+03 -0.33432602611E+03  0.44904316964E+03  0.46999998093E+01 0.  1.
       -5    1    3    3    0  502  0.72778981794E+02 -0.29076967908E+03 -0.31080021754E+03  0.43181321389E+03  0.46999998093E+01 0. -1.
</event>
<event>
 5   0  0.5503975E-03  0.6004033E+03  0.7818609E-02  0.9904570E-01
        1   -1    0    0  501    0  0.00000000000E+00  0.00000000000E+00  0.27616462848E+03  0.27616462853E+03  0.50400001928E-02 0.  1.
       -1   -1    0    0    0  501  0.00000000000E+00  0.00000000000E+00 -0.32633087319E+03  0.32633087323E+03  0.50400001928E-02 0. -1.
    10030    2    1    2    0    0  0.00000000000E+00  0.00000000000E+00 -0.50166244708E+02  0.60249550175E+03  0.60040334570E+03 0.  0.
        4    1    3    3  502    0 -0.13570969735E+03 -0.22175478111E+03  0.12553027498E+03  0.28870706215E+03  0.12699999809E+01 0.  1.
       -4    1    3    3    0  502  0.13570969735E+03  0.22175478111E+03 -0.17569651969E+03  0.31378843960E+03  0.12699999809E+01 0. -1.
</event>
<event>
 5   0  0.5574736E-03  0.5985888E+03  0.7818609E-02  0.9908338E-01
        1   -1    0    0  501    0  0.00000000000E+00  0.00000000000E+00  0.83716400345E+03  0.83716400346E+03  0.50400001928E-02 0. -1.
       -1   -1    0    0    0  501  0.00000000000E+00  0.00000000000E+00 -0.10700069593E+03  0.10700069605E+03  0.50400001928E-02 0.  1.
    10030    2    1    2    0    0  0.00000000000E+00  0.00000000000E+00  0.73016330752E+03  0.94416469951E+03  0.59858877716E+03 0.  0.
        5    1    3    3  502    0  0.10621044254E+03  0.36541417277E+01  0.80633902065E+03  0.81332571401E+03  0.46999998093E+01 0. -1.
       -5    1    3    3    0  502 -0.10621044254E+03 -0.36541417277E+01 -0.76175713127E+02  0.13083898550E+03  0.46999998093E+01 0.  1.
</event>
<event>
 5   0  0.9866317E-03  0.5993285E+03  0.7818609E-02  0.9906800E-01
       -2   -1    0    0    0  501  0.00000000000E+00  0.00000000000E+00  0.49871270456E+02  0.49871270522E+02  0.25500000920E-02 0. -1.
        2   -1    0    0  501    0  0.00000000000E+00  0.00000000000E+00 -0.18006090280E+04  0.18006090280E+04  0.25500000920E-02 0.  1.
    10030    2    1    2    0    0  0.00000000000E+00  0.00000000000E+00 -0.17507377576E+04  0.18504802986E+04  0.59932849052E+03 0.  0.
        1    1    3    3  502    0 -0.20717558144E+03 -0.21138821975E+03 -0.73081300531E+03  0.78847596650E+03  0.50400001928E-02 0. -1.
       -1    1    3    3    0  502  0.20717558144E+03  0.21138821975E+03 -0.10199247523E+04  0.10620043321E+04  0.50400001928E-02 0.  1.
</event>
<event>
 5   0  0.5785798E-03  0.5999295E+03  0.7818609E-02  0.9905552E-01
        1   -1    0    0  501    0  0.00000000000E+00  0.00000000000E+00  0.12386559903E+04  0.12386559903E+04  0.50400001928E-02 0. -1.
       -1   -1    0    0    0  501  0.00000000000E+00  0.00000000000E+00 -0.72642333240E+02  0.72642333414E+02  0.50400001928E-02 0.  1.
    10030    2    1    2    0    0  0.00000000000E+00  0.00000000000E+00  0.11660136570E+04  0.13112983237E+04  0.59992953365E+03 0.  0.
        1    1    3    3  502    0  0.88314576608E+02  0.22918419880E+03  0.95940101298E+03  0.99034093379E+03  0.50400001928E-02 0. -1.
       -1    1    3    3    0  502 -0.88314576608E+02 -0.22918419880E+03  0.20661264405E+03  0.32095738990E+03  0.50400001928E-02 0.  1.
</event>
<event>
 5   0  0.9681801E-03  0.6002999E+03  0.7818609E-02  0.9904784E-01
       -2   -1    0    0    0  501  0.00000000000E+00  0.00000000000E+00  0.22386673131E+03  0.22386673132E+03  0.25500000920E-02 0. -1.
        2   -1    0    0  501    0  0.00000000000E+00  0.00000000000E+00 -0.40242694375E+03  0.40242694376E+03  0.25500000920E-02 0.  1.
    10030    2    1    2    0    0  0.00000000000E+00  0.00000000000E+00 -0.17856021244E+03  0.62629367508E+03  0.60029994002E+03 0.  0.
        4    1    3    3  502    0  0.37602143598E+02 -0.25714309065E+03 -0.24595568480E+03  0.35781601705E+03  0.12699999809E+01 0.  1.
       -4    1    3    3    0  502 -0.37602143598E+02  0.25714309065E+03  0.67395472357E+02  0.26847765804E+03  0.12699999809E+01 0. -1.
</event>
<event>
 5   0  0.9571790E-03  0.6008389E+03  0.7818609E-02  0.9903667E-01
       -2   -1    0    0    0  501  0.00000000000E+00  0.00000000000E+00  0.19548482054E+03  0.19548482056E+03  0.25500000920E-02 0.  1.
        2   -1    0    0  501    0  0.00000000000E+00  0.00000000000E+00 -0.46168207644E+03  0.46168207645E+03  0.25500000920E-02 0. -1.
    10030    2    1    2    0    0  0.00000000000E+00  0.00000000000E+00 -0.26619725590E+03  0.65716689701E+03  0.60083887314E+03 0.  0.
        5    1    3    3  502    0 -0.33431989137E+02  0.29850975348E+03 -0.13091741523E+03  0.32769990911E+03  0.46999998093E+01 0.  1.
       -5    1    3    3    0  502  0.33431989137E+02 -0.29850975348E+03 -0.13527984067E+03  0.32946698790E+03  0.46999998093E+01 0. -1.
</event>
<event>
 5   0  0.3794375E-03  0.6023085E+03  0.7818609E-02  0.9900628E-01
       -4   -1    0    0    0  501  0.00000000000E+00  0.00000000000E+00  0.14910201378E+03  0.14910742239E+03  0.12699999809E+01 0. -1.
        4   -1    0    0  501    0  0.00000000000E+00  0.00000000000E+00 -0.60825017449E+03  0.60825150034E+03  0.12699999809E+01 0.  1.
    10030    2    1    2    0    0  0.00000000000E+00  0.00000000000E+00 -0.45914816071E+03  0.75735892274E+03  0.60230847940E+03 0.  0.
        5    1    3    3  502    0  0.28649337368E+03 -0.91393606225E+02 -0.21007213519E+03  0.36685642478E+03  0.46999998093E+01 0. -1.
       -5    1    3    3    0  502 -0.28649337368E+03  0.91393606225E+02 -0.24907602552E+03  0.39050249796E+03  0.46999998093E+01 0.  1.
</event>
<event>
 5   0  0.5785798E-03  0.6006331E+03  0.7818609E-02  0.9904093E-01
        1   -1    0    0  501    0  0.00000000000E+00  0.00000000000E+00  0.12417306412E+04  0.12417306412E+04  0.50400001928E-02 0. -1.
       -1   -1    0    0    0  501  0.00000000000E+00  0.00000000000E+00 -0.72632526996E+02  0.72632527171E+02  0.50400001928E-02 0.  1.
    10030    2    1    2    0    0  0.00000000000E+00  0.00000000000E+00  0.11690981142E+04  0.13143631684E+04  0.60063311411E+03 0.  0.
        1    1    3    3  502    0  0.89141340422E+01  0.79594645344E+02  0.12179285732E+04  0.12205592074E+04  0.50400001928E-02 0. -1.
       -1    1    3    3    0  502 -0.89141340422E+01 -0.79594645344E+02 -0.48830458959E+02  0.93803961007E+02  0.50400001928E-02 0.  1.
</event>
<event>
 5   0  0.9530666E-03  0.6013015E+03  0.7818609E-02  0.9902709E-01
       -2   -1    0    0    0  501  0.00000000000E+00  0.00000000000E+00  0.25652095176E+03  0.25652095177E+03  0.25500000920E-02 0.  1.
        2   -1    0    0  501    0  0.00000000000E+00  0.00000000000E+00 -0.35237232221E+03  0.35237232222E+03  0.25500000920E-02 0. -1.
    10030    2    1    2    0    0  0.00000000000E+00  0.00000000000E+00 -0.95851370447E+02  0.60889327399E+03  0.60130153325E+03 0.  0.
        2    1    3    3  502    0 -0.28746902816E+03  0.79999627687E+02 -0.10685001576E+02  0.29858424581E+03  0.25500000920E-02 0.  1.
       -2    1    3    3    0  502  0.28746902816E+03 -0.79999627687E+02 -0.85166368871E+02  0.31030902818E+03  0.25500000920E-02 0. -1.
</event>
<event>
 5   0  0.5491236E-03  0.6091319E+03  0.7818609E-02  0.9886639E-01
        1   -1    0    0  501    0  0.00000000000E+00  0.00000000000E+00  0.10286140470E+04  0.10286140471E+04  0.50400001928E-02 0. -1.
       -1   -1    0    0    0  501  0.00000000000E+00  0.00000000000E+00 -0.90180013970E+02  0.90180014111E+02  0.50400001928E-02 0.  1.
    10030    2    1    2    0    0  0.00000000000E+00  0.00000000000E+00  0.93843403307E+03  0.11187940612E+04  0.60913193716E+03 0.  0.
        3    1    3    3  502    0  0.14905111455E+03 -0.18069125542E+03  0.11167350283E+03  0.25949286304E+03  0.10100000352E+00 0.  1.
       -3    1    3    3    0  502 -0.14905111455E+03  0.18069125542E+03  0.82676053023E+03  0.85930119812E+03  0.10100000352E+00 0. -1.
</event>
<event>
 5   0  0.5491236E-03  0.6008481E+03  0.7818609E-02  0.9903648E-01
       -1   -1    0    0    0  501  0.00000000000E+00  0.00000000000E+00  0.67523642399E+03  0.67523642401E+03  0.50400001928E-02 0.  1.
        1   -1    0    0  501    0  0.00000000000E+00  0.00000000000E+00 -0.13366369560E+03  0.13366369570E+03  0.50400001928E-02 0. -1.
    10030    2    1    2    0    0  0.00000000000E+00  0.00000000000E+00  0.54157272839E+03  0.80890011971E+03  0.60084805361E+03 0.  0.
        3    1    3    3  502    0 -0.29682485229E+03  0.31461324744E+02  0.22493865563E+03  0.37375421989E+03  0.10100000352E+00 0. -1.
       -3    1    3    3    0  502  0.29682485229E+03 -0.31461324744E+02  0.31663407276E+03  0.43514589981E+03  0.10100000352E+00 0.  1.
</event>
<event>
 5   0  0.9530666E-03  0.5990839E+03  0.7818609E-02  0.9907308E-01
        2   -1    0    0  501    0  0.00000000000E+00  0.00000000000E+00  0.65013903749E+03  0.65013903750E+03  0.25500000920E-02 0. -1.
       -2   -1    0    0    0  501  0.00000000000E+00  0.00000000000E+00 -0.13800952601E+03  0.13800952603E+03  0.25500000920E-02 0.  1.
    10030    2    1    2    0    0  0.00000000000E+00  0.00000000000E+00  0.51212951149E+03  0.78814856353E+03  0.59908390202E+03 0.  0.
        2    1    3    3  502    0  0.17026316152E+03  0.19336452322E+03  0.55050594129E+02  0.26345768338E+03  0.25500000920E-02 0.  1.
       -2    1    3    3    0  502 -0.17026316152E+03 -0.19336452322E+03  0.45707891736E+03  0.52469088015E+03  0.25500000920E-02 0. -1.
</event>
<event>
 5   0  0.5491236E-03  0.6004830E+03  0.7818609E-02  0.9904404E-01
        1   -1    0    0  501    0  0.00000000000E+00  0.00000000000E+00  0.46615318705E+03  0.46615318708E+03  0.50400001928E-02 0.  1.
       -1   -1    0    0    0  501  0.00000000000E+00  0.00000000000E+00 -0.19338056813E+03  0.19338056820E+03  0.50400001928E-02 0. -1.
    10030    2    1    2    0    0  0.00000000000E+00  0.00000000000E+00  0.27277261892E+03  0.65953375528E+03  0.60048303283E+03 0.  0.
        3    1    3    3  502    0  0.29753906199E+03 -0.33017773236E+02  0.16155938959E+03  0.34017806120E+03  0.10100000352E+00 0.  1.
       -3    1    3    3    0  502 -0.29753906199E+03  0.33017773236E+02  0.11121322933E+03  0.31935569408E+03  0.10100000352E+00 0. -1.
</event>
<event>
 5   0  0.9428629E-03  0.6018649E+03  0.7818609E-02  0.9901544E-01
       -2   -1    0    0    0  501  0.00000000000E+00  0.00000000000E+00  0.10125853713E+03  0.10125853716E+03  0.25500000920E-02 0.  1.
        2   -1    0    0  501    0  0.00000000000E+00  0.00000000000E+00 -0.89434775303E+03  0.89434775303E+03  0.25500000920E-02 0. -1.
    10030    2    1    2    0    0  0.00000000000E+00  0.00000000000E+00 -0.79308921590E+03  0.99560629019E+03  0.60186491898E+03 0.  0.
        3    1    3    3  502    0 -0.10174699524E+03  0.14267066386E+03 -0.80124296234E+03  0.82018148252E+03  0.10100000352E+00 0. -1.
       -3    1    3    3    0  502  0.10174699524E+03 -0.14267066386E+03  0.81537464342E+01  0.17542480768E+03  0.10100000352E+00 0.  1.
</event>
<event>
 5   0  0.9428629E-03  0.6011747E+03  0.7818609E-02  0.9902972E-01
       -2   -1    0    0    0  501  0.00000000000E+00  0.00000000000E+00  0.81325877574E+02  0.81325877614E+02  0.25500000920E-02 0.  1.
        2   -1    0    0  501    0  0.00000000000E+00  0.00000000000E+00 -0.11109965250E+04  0.11109965250E+04  0.25500000920E-02 0. -1.
    10030    2    1    2    0    0  0.00000000000E+00  0.00000000000E+00 -0.10296706474E+04  0.11923224026E+04  0.60117474133E+03 0.  0.
        3    1    3    3  502    0  0.10035093031E+03 -0.24873299271E+03 -0.78397091397E+03  0.82858241294E+03  0.10100000352E+00 0. -1.
       -3    1    3    3    0  502 -0.10035093031E+03  0.24873299271E+03 -0.24569973347E+03  0.36373998969E+03  0.10100000352E+00 0.  1.
</event>
<event>
 5   0  0.9530666E-03  0.5974950E+03  0.7818609E-02  0.9910617E-01
        2   -1    0    0  501    0  0.00000000000E+00  0.00000000000E+00  0.44865001947E+03  0.44865001947E+03  0.25500000920E-02 0. -1.
       -2   -1    0    0    0  501  0.00000000000E+00  0.00000000000E+00 -0.19893028061E+03  0.19893028062E+03  0.25500000920E-02 0.  1.
    10030    2    1    2    0    0  0.00000000000E+00  0.00000000000E+00  0.24971973886E+03  0.64758030010E+03  0.59749501847E+03 0.  0.
        2    1    3    3  502    0 -0.76929470234E+02 -0.21722740652E+03 -0.81192947723E+02  0.24433211885E+03  0.25500000920E-02 0.  1.
       -2    1    3    3    0  502  0.76929470234E+02  0.21722740652E+03  0.33091268658E+03  0.40324818125E+03  0.25500000920E-02 0. -1.
</event>
<event>
 5   0  0.5503975E-03  0.5996095E+03  0.7818609E-02  0.9906217E-01
       -1   -1    0    0    0  501  0.00000000000E+00  0.00000000000E+00  0.69862174552E+03  0.69862174554E+03  0.50400001928E-02 0. -1.
        1   -1    0    0  501    0  0.00000000000E+00  0.00000000000E+00 -0.12865744133E+03  0.12865744143E+03  0.50400001928E-02 0.  1.
    10030    2    1    2    0    0  0.00000000000E+00  0.00000000000E+00  0.56996430419E+03  0.82727918696E+03  0.59960949386E+03 0.  0.
        4    1    3    3  502    0  0.12614821375E+03 -0.26853427110E+03  0.22552304181E+03  0.37267449856E+03  0.12699999809E+01 0.  1.
       -4    1    3    3    0  502 -0.12614821375E+03  0.26853427110E+03  0.34444126239E+03  0.45460468841E+03  0.12699999809E+01 0. -1.
</event>
<event>
 5   0  0.9866317E-03  0.6012654E+03  0.7818609E-02  0.9902784E-01
        2   -1    0    0  501    0  0.00000000000E+00  0.00000000000E+00  0.21429320301E+04  0.21429320301E+04  0.25500000920E-02 0.  1.
       -2   -1    0    0    0  501  0.00000000000E+00  0.00000000000E+00 -0.42175873620E+02  0.42175873697E+02  0.25500000920E-02 0. -1.
    10030    2    1    2    0    0  0.00000000000E+00  0.00000000000E+00  0.21007561565E+04  0.21851079038E+04  0.60126543411E+03 0.  0.
        1    1    3    3  502    0  0.69291857527E+02  0.15644840639E+03  0.19487090472E+04  0.19562066394E+04  0.50400001928E-02 0.  1.
       -1    1    3    3    0  502 -0.69291857527E+02 -0.15644840639E+03  0.15204710931E+03  0.22890126442E+03  0.50400001928E-02 0. -1.
</event>
<event>
 5   0  0.9530666E-03  0.6002287E+03  0.7818609E-02  0.9904932E-01
        2   -1    0    0  501    0  0.00000000000E+00  0.00000000000E+00  0.33636975383E+03  0.33636975384E+03  0.25500000920E-02 0.  1.
       -2   -1    0    0    0  501  0.00000000000E+00  0.00000000000E+00 -0.26776670784E+03  0.26776670785E+03  0.25500000920E-02 0. -1.
    10030    2    1    2    0    0  0.00000000000E+00  0.00000000000E+00  0.68603045995E+02  0.60413646169E+03  0.60022869510E+03 0.  0.
        2    1    3    3  502    0  0.98252035886E+02 -0.24222953309E+03 -0.11410335866E+03  0.28521603342E+03  0.25500000920E-02 0. -1.
       -2    1    3    3    0  502 -0.98252035886E+02  0.24222953309E+03  0.18270640465E+03  0.31892042827E+03  0.25500000920E-02 0.  1.
</event>
<event>
 5   0  0.9866317E-03  0.6019348E+03  0.7818609E-02  0.9901400E-01
       -2   -1    0    0    0  501  0.00000000000E+00  0.00000000000E+00  0.15368907243E+03  0.15368907245E+03  0.25500000920E-02 0. -1.
        2   -1    0    0  501    0  0.00000000000E+00  0.00000000000E+00 -0.58938069139E+03  0.58938069139E+03  0.25500000920E-02 0.  1.
    10030    2    1    2    0    0  0.00000000000E+00  0.00000000000E+00 -0.43569161896E+03  0.74306976385E+03  0.60193478643E+03 0.  0.
        1    1    3    3  502    0  0.10838354352E+02  0.23063052808E+03 -0.45617652117E+03  0.51127774144E+03  0.50400001928E-02 0. -1.
       -1    1    3    3    0  502 -0.10838354352E+02 -0.23063052808E+03  0.20484902209E+02  0.23179202240E+03  0.50400001928E-02 0.  1.
</event>
<event>
 5   0  0.9428629E-03  0.5971041E+03  0.7818609E-02  0.9911432E-01
        2   -1    0    0  501    0  0.00000000000E+00  0.00000000000E+00  0.11419056140E+04  0.11419056140E+04  0.25500000920E-02 0. -1.
       -2   -1    0    0    0  501  0.00000000000E+00  0.00000000000E+00 -0.78056653229E+02  0.78056653270E+02  0.25500000920E-02 0.  1.
    10030    2    1    2    0    0  0.00000000000E+00  0.00000000000E+00  0.10638489607E+04  0.12199622672E+04  0.59710411339E+03 0.  0.
        3    1    3    3  502    0  0.28996653747E+03  0.46602789161E+02  0.42226125978E+03  0.51435104211E+03  0.10100000352E+00 0.  1.
       -3    1    3    3    0  502 -0.28996653747E+03 -0.46602789161E+02  0.64158770096E+03  0.70561122513E+03  0.10100000352E+00 0. -1.
</event>
<event>
 5   0  0.3794375E-03  0.6004534E+03  0.7818609E-02  0.9904466E-01
        4   -1    0    0  501    0  0.00000000000E+00  0.00000000000E+00  0.13322121860E+03  0.13322727192E+03  0.12699999809E+01 0.  1.
       -4   -1    0    0    0  501  0.00000000000E+00  0.00000000000E+00 -0.67656744969E+03  0.67656864166E+03  0.12699999809E+01 0. -1.
    10030    2    1    2    0    0  0.00000000000E+00  0.00000000000E+00 -0.54334623109E+03  0.80979591358E+03  0.60045340770E+03 0.  0.
        5    1    3    3  502    0  0.18177174685E+02 -0.20171466416E+03 -0.57049601429E+03  0.60539822244E+03  0.46999998093E+01 0. -1.
       -5    1    3    3    0  502 -0.18177174685E+02  0.20171466416E+03  0.27149783202E+02  0.20439769114E+03  0.46999998093E+01 0.  1.
</event>
<event>
 5   0  0.9428629E-03  0.6001132E+03  0.7818609E-02  0.9905171E-01
        2   -1    0    0  501    0  0.00000000000E+00  0.00000000000E+00  0.11954236103E+04  0.11954236103E+04  0.25500000920E-02 0.  1.
       -2   -1    0    0    0  501  0.00000000000E+00  0.00000000000E+00 -0.75315532085E+02  0.75315532128E+02  0.25500000920E-02 0. -1.
    10030    2    1    2    0    0  0.00000000000E+00  0.00000000000E+00  0.11201080782E+04  0.12707391425E+04  0.60011320701E+03 0.  0.
        3    1    3    3  502    0 -0.26519301707E+03 -0.29056444877E+02  0.26923620988E+03  0.37902474880E+03  0.10100000352E+00 0.  1.
       -3    1    3    3    0  502  0.26519301707E+03  0.29056444877E+02  0.85087186836E+03  0.89171439365E+03  0.10100000352E+00 0. -1.
</event>
<event>
 5   0  0.9681801E-03  0.5995537E+03  0.7818609E-02  0.9906332E-01
       -2   -1    0    0    0  501  0.00000000000E+00  0.00000000000E+00  0.37442956178E+02  0.37442956265E+02  0.25500000920E-02 0.  1.
        2   -1    0    0  501    0  0.00000000000E+00  0.00000000000E+00 -0.24000816676E+04  0.24000816676E+04  0.25500000920E-02 0. -1.
    10030    2    1    2    0    0  0.00000000000E+00  0.00000000000E+00 -0.23626387114E+04  0.24375246239E+04  0.59955367670E+03 0.  0.
        4    1    3    3  502    0 -0.21031702237E+03  0.15197504045E+03 -0.57101209330E+03  0.62720497958E+03  0.12699999809E+01 0.  1.
       -4    1    3    3    0  502  0.21031702237E+03 -0.15197504045E+03 -0.17916266181E+04  0.18103196443E+04  0.12699999809E+01 0. -1.
</event>
<event>
 5   0  0.5785798E-03  0.6003783E+03  0.7818609E-02  0.9904622E-01
        1   -1    0    0  501    0  0.00000000000E+00  0.00000000000E+00  0.20544929469E+04  0.20544929470E+04  0.50400001928E-02 0.  1.
       -1   -1    0    0    0  501  0.00000000000E+00  0.00000000000E+00 -0.43861684664E+02  0.43861684954E+02  0.50400001928E-02 0. -1.
    10030    2    1    2    0    0  0.00000000000E+00  0.00000000000E+00  0.20106312623E+04  0.20983546319E+04  0.60037828773E+03 0.  0.
        1    1    3    3  502    0 -0.36585312627E+02 -0.24773724080E+03  0.15838637235E+04  0.16035387492E+04  0.50400001928E-02 0. -1.
       -1    1    3    3    0  502  0.36585312627E+02  0.24773724080E+03  0.42676753877E+03  0.49481588268E+03  0.50400001928E-02 0.  1.
</event>
<event>
 5   0  0.5653633E-03  0.5980467E+03  0.7818609E-02  0.9909467E-01
       -1   -1    0    0    0  501  0.00000000000E+00  0.00000000000E+00  0.66389137876E+02  0.66389138067E+02  0.50400001928E-02 0.  1.
        1   -1    0    0  501    0  0.00000000000E+00  0.00000000000E+00 -0.13468312634E+04  0.13468312634E+04  0.50400001928E-02 0. -1.
    10030    2    1    2    0    0  0.00000000000E+00  0.00000000000E+00 -0.12804421255E+04  0.14132204015E+04  0.59804670915E+03 0.  0.
        2    1    3    3  502    0  0.99350189686E+02  0.21987951541E+03 -0.10576040332E+04  0.10847782043E+04  0.25500000920E-02 0. -1.
       -2    1    3    3    0  502 -0.99350189686E+02 -0.21987951541E+03 -0.22283809232E+03  0.32844219717E+03  0.25500000920E-02 0.  1.
</event>
<event>
 5   0  0.5574736E-03  0.6130956E+03  0.7818609E-02  0.9878603E-01
       -1   -1    0    0    0  501  0.00000000000E+00  0.00000000000E+00  0.22809300688E+03  0.22809300694E+03  0.50400001928E-02 0. -1.
        1   -1    0    0  501    0  0.00000000000E+00  0.00000000000E+00 -0.41198791396E+03  0.41198791399E+03  0.50400001928E-02 0.  1.
    10030    2    1    2    0    0  0.00000000000E+00  0.00000000000E+00 -0.18389490708E+03  0.64008092093E+03  0.61309562752E+03 0.  0.
        5    1    3    3  502    0  0.16402763450E+03 -0.15671358894E+03 -0.30713929148E+03  0.38186496069E+03  0.46999998093E+01 0.  1.
       -5    1    3    3    0  502 -0.16402763450E+03  0.15671358894E+03  0.12324438440E+03  0.25821596024E+03  0.46999998093E+01 0. -1.
</event>
<event>
 5   0  0.5574736E-03  0.6022581E+03  0.7818609E-02  0.9900732E-01
        1   -1    0    0  501    0  0.00000000000E+00  0.00000000000E+00  0.96425956667E+03  0.96425956668E+03  0.50400001928E-02 0. -1.
       -1   -1    0    0    0  501  0.00000000000E+00  0.00000000000E+00 -0.94039711539E+02  0.94039711674E+02  0.50400001928E-02 0.  1.
    10030    2    1    2    0    0  0.00000000000E+00  0.00000000000E+00  0.87021985513E+03  0.10582992784E+04  0.60225805624E+03 0.  0.
        5    1    3    3  502    0  0.22988073516E+02 -0.29386990294E+03  0.54298414144E+03  0.61785260316E+03  0.46999998093E+01 0. -1.
       -5    1    3    3    0  502 -0.22988073516E+02  0.29386990294E+03  0.32723571369E+03  0.44044667520E+03  0.46999998093E+01 0.  1.
</event>
<event>
 5   0  0.5785798E-03  0.5950567E+03  0.7818609E-02  0.9915715E-01
       -1   -1    0    0    0  501  0.00000000000E+00  0.00000000000E+00  0.62594171902E+03  0.62594171904E+03  0.50400001928E-02 0. -1.
        1   -1    0    0  501    0  0.00000000000E+00  0.00000000000E+00 -0.14142387889E+03  0.14142387898E+03  0.50400001928E-02 0.  1.
    10030    2    1    2    0    0  0.00000000000E+00  0.00000000000E+00  0.48451784013E+03  0.76736559802E+03  0.59505665581E+03 0.  0.
        1    1    3    3  502    0  0.24495527997E+03  0.83252428447E+02  0.43173778423E+03  0.50332054437E+03  0.50400001928E-02 0. -1.
       -1    1    3    3    0  502 -0.24495527997E+03 -0.83252428447E+02  0.52780055897E+02  0.26404505365E+03  0.50400001928E-02 0.  1.
</event>
<event>
 5   0  0.9681801E-03  0.6002685E+03  0.7818609E-02  0.9904849E-01
       -2   -1    0    0    0  501  0.00000000000E+00  0.00000000000E+00  0.14338164579E+03  0.14338164582E+03  0.25500000920E-02 0.  1.
        2   -1    0    0  501    0  0.00000000000E+00  0.00000000000E+00 -0.62825734482E+03  0.62825734482E+03  0.25500000920E-02 0. -1.
    10030    2    1    2    0    0  0.00000000000E+00  0.00000000000E+00 -0.48487569902E+03  0.77163899064E+03  0.60026851356E+03 0.  0.
        4    1    3    3  502    0 -0.83187961324E+02 -0.35612951819E+02 -0.61030008264E+03  0.61697351889E+03  0.12699999809E+01 0. -1.
       -4    1    3    3    0  502  0.83187961324E+02  0.35612951819E+02  0.12542438361E+03  0.15466547175E+03  0.12699999809E+01 0.  1.
</event>
<event>
 5   0  0.5785798E-03  0.5998045E+03  0.7818609E-02  0.9905812E-01
        1   -1    0    0  501    0  0.00000000000E+00  0.00000000000E+00  0.31635687835E+03  0.31635687839E+03  0.50400001928E-02 0.  1.
       -1   -1    0    0    0  501  0.00000000000E+00  0.00000000000E+00 -0.28430344012E+03  0.28430344016E+03  0.50400001928E-02 0. -1.
    10030    2    1    2    0    0  0.00000000000E+00  0.00000000000E+00  0.32053438227E+02  0.60066031855E+03  0.59980446429E+03 0.  0.
        1    1    3    3  502    0  0.44865907911E+02  0.29402115704E+03  0.54551838503E+02  0.30238600098E+03  0.50400001928E-02 0. -1.
       -1    1    3    3    0  502 -0.44865907911E+02 -0.29402115704E+03 -0.22498400277E+02  0.29827431757E+03  0.50400001928E-02 0.  1.
</event>
<event>
 5   0  0.9571790E-03  0.6013366E+03  0.7818609E-02  0.9902637E-01
        2   -1    0    0  501    0  0.00000000000E+00  0.00000000000E+00  0.16277389166E+03  0.16277389168E+03  0.25500000920E-02 0.  1.
       -2   -1    0    0    0  501  0.00000000000E+00  0.00000000000E+00 -0.55538036776E+03  0.55538036777E+03  0.25500000920E-02 0. -1.
    10030    2    1    2    0    0  0.00000000000E+00  0.00000000000E+00 -0.39260647610E+03  0.71815425944E+03  0.60133659067E+03 0.  0.
        5    1    3    3  502    0 -0.15406488974E+03  0.29407719902E+01 -0.50458676446E+03  0.52761210303E+03  0.46999998093E+01 0. -1.
       -5    1    3    3    0  502  0.15406488974E+03 -0.29407719902E+01  0.11198028836E+03  0.19054215641E+03  0.46999998093E+01 0.  1.
</event>
<event>
 5   0  0.9571790E-03  0.5996833E+03  0.7818609E-02  0.9906063E-01
       -2   -1    0    0    0  501  0.00000000000E+00  0.00000000000E+00  0.82472215292E+02  0.82472215331E+02  0.25500000920E-02 0. -1.
        2   -1    0    0  501    0  0.00000000000E+00  0.00000000000E+00 -0.10901249535E+04  0.10901249535E+04  0.25500000920E-02 0.  1.
    10030    2    1    2    0    0  0.00000000000E+00  0.00000000000E+00 -0.10076527382E+04  0.11725971688E+04  0.59968331604E+03 0.  0.
        5    1    3    3  502    0  0.17204657611E+03 -0.11585243996E+03 -0.92711167873E+03  0.95004208698E+03  0.46999998093E+01 0.  1.
       -5    1    3    3    0  502 -0.17204657611E+03  0.11585243996E+03 -0.80541059458E+02  0.22255508184E+03  0.46999998093E+01 0. -1.
</event>
<event>
 5   0  0.9571790E-03  0.6000665E+03  0.7818609E-02  0.9905268E-01
        2   -1    0    0  501    0  0.00000000000E+00  0.00000000000E+00  0.35413615703E+03  0.35413615703E+03  0.25500000920E-02 0.  1.
       -2   -1    0    0    0  501  0.00000000000E+00  0.00000000000E+00 -0.25419586623E+03  0.25419586624E+03  0.25500000920E-02 0. -1.
    10030    2    1    2    0    0  0.00000000000E+00  0.00000000000E+00  0.99940290797E+02  0.60833202328E+03  0.60006648700E+03 0.  0.
        5    1    3    3  502    0  0.65797949648E+02  0.29021688862E+03  0.11464803715E+02  0.29784013219E+03  0.46999998093E+01 0. -1.
       -5    1    3    3    0  502 -0.65797949648E+02 -0.29021688862E+03  0.88475487082E+02  0.31049189109E+03  0.46999998093E+01 0.  1.
</event>
<event>
 5   0  0.3794375E-03  0.6006291E+03  0.7818609E-02  0.9904102E-01
        3   -1    0    0  501    0  0.00000000000E+00  0.00000000000E+00  0.71784019503E+02  0.71784090556E+02  0.10100000352E+00 0. -1.
       -3   -1    0    0    0  501  0.00000000000E+00  0.00000000000E+00 -0.12563907947E+04  0.12563907988E+04  0.10100000352E+00 0.  1.
    10030    2    1    2    0    0  0.00000000000E+00  0.00000000000E+00 -0.11846067752E+04  0.13281748893E+04  0.60062910749E+03 0.  0.
        5    1    3    3  502    0 -0.54852971985E+02  0.29484263237E+03 -0.62552562720E+03  0.69371855005E+03  0.46999998093E+01 0. -1.
       -5    1    3    3    0  502  0.54852971985E+02 -0.29484263237E+03 -0.55908114801E+03  0.63445633928E+03  0.46999998093E+01 0.  1.
</event>
<event>
 5   0  0.9530666E-03  0.6001357E+03  0.7818609E-02  0.9905125E-01
       -2   -1    0    0    0  501  0.00000000000E+00  0.00000000000E+00  0.62834822051E+02  0.62834822103E+02  0.25500000920E-02 0.  1.
        2   -1    0    0  501    0  0.00000000000E+00  0.00000000000E+00 -0.14329747647E+04  0.14329747647E+04  0.25500000920E-02 0. -1.
    10030    2    1    2    0    0  0.00000000000E+00  0.00000000000E+00 -0.13701399426E+04  0.14958095868E+04  0.60013569926E+03 0.  0.
        2    1    3    3  502    0 -0.23886878746E+03 -0.76371144325E+02 -0.10957567185E+04  0.11240879127E+04  0.25500000920E-02 0. -1.
       -2    1    3    3    0  502  0.23886878746E+03  0.76371144325E+02 -0.27438322416E+03  0.37172167413E+03  0.25500000920E-02 0.  1.
</event>
<event>
 5   0  0.5503975E-03  0.6025683E+03  0.7818609E-02  0.9900092E-01
       -1   -1    0    0    0  501  0.00000000000E+00  0.00000000000E+00  0.16237184562E+03  0.16237184570E+03  0.50400001928E-02 0. -1.
        1   -1    0    0  501    0  0.00000000000E+00  0.00000000000E+00 -0.55903866482E+03  0.55903866484E+03  0.50400001928E-02 0.  1.
    10030    2    1    2    0    0  0.00000000000E+00  0.00000000000E+00 -0.39666681919E+03  0.72141051054E+03  0.60256830258E+03 0.  0.
        4    1    3    3  502    0 -0.16661934545E+03 -0.56890427755E+02 -0.49103499616E+03  0.52164691833E+03  0.12699999809E+01 0.  1.
       -4    1    3    3    0  502  0.16661934545E+03  0.56890427755E+02  0.94368176965E+02  0.19976359221E+03  0.12699999809E+01 0. -1.
</event>
<event>
 5   0  0.9866317E-03  0.6017857E+03  0.7818609E-02  0.9901708E-01
        2   -1    0    0  501    0  0.00000000000E+00  0.00000000000E+00  0.66744328201E+02  0.66744328250E+02  0.25500000920E-02 0. -1.
       -2   -1    0    0    0  501  0.00000000000E+00  0.00000000000E+00 -0.13564674645E+04  0.13564674645E+04  0.25500000920E-02 0.  1.
    10030    2    1    2    0    0  0.00000000000E+00  0.00000000000E+00 -0.12897231363E+04  0.14232117927E+04  0.60178570830E+03 0.  0.
        1    1    3    3  502    0  0.16225033816E+03  0.11907535974E+03 -0.11738586975E+04  0.11909862951E+04  0.50400001928E-02 0.  1.
       -1    1    3    3    0  502 -0.16225033816E+03 -0.11907535974E+03 -0.11586443881E+03  0.23222549761E+03  0.50400001928E-02 0. -1.
</event>
<event>
 5   0  0.9571790E-03  0.5994414E+03  0.7818609E-02  0.9906566E-01
       -2   -1    0    0    0  501  0.00000000000E+00  0.00000000000E+00  0.55905582839E+02  0.55905582897E+02  0.25500000920E-02 0. -1.
        2   -1    0    0  501    0  0.00000000000E+00  0.00000000000E+00 -0.16068610007E+04  0.16068610007E+04  0.25500000920E-02 0.  1.
    10030    2    1    2    0    0  0.00000000000E+00  0.00000000000E+00 -0.15509554179E+04  0.16627665836E+04  0.59944140944E+03 0.  0.
        5    1    3    3  502    0 -0.45852154786E+00 -0.21898192624E+03 -0.20797335075E+03  0.30204022726E+03  0.46999998093E+01 0. -1.
       -5    1    3    3    0  502  0.45852154786E+00  0.21898192624E+03 -0.13429820671E+04  0.13607263564E+04  0.46999998093E+01 0.  1.
</event>
<event>
 5   0  0.9681801E-03  0.6002913E+03  0.7818609E-02  0.9904802E-01
        2   -1    0    0  501    0  0.00000000000E+00  0.00000000000E+00  0.20117198944E+04  0.20117198944E+04  0.25500000920E-02 0.  1.
       -2   -1    0    0    0  501  0.00000000000E+00  0.00000000000E+00 -0.44781290146E+02  0.44781290218E+02  0.25500000920E-02 0. -1.
    10030    2    1    2    0    0  0.00000000000E+00  0.00000000000E+00  0.19669386042E+04  0.20565011846E+04  0.60029130381E+03 0.  0.
        4    1    3    3  502    0  0.29655488571E+03  0.23219402590E+02  0.84635618783E+03  0.89710888440E+03  0.12699999809E+01 0. -1.
       -4    1    3    3    0  502 -0.29655488571E+03 -0.23219402590E+02  0.11205824164E+04  0.11593923002E+04  0.12699999809E+01 0.  1.
</event>
<event>
 5   0  0.9571790E-03  0.6004373E+03  0.7818609E-02  0.9904499E-01
        2   -1    0    0  501    0  0.00000000000E+00  0.00000000000E+00  0.16755186368E+03  0.16755186369E+03  0.25500000920E-02 0. -1.
       -2   -1    0    0    0  501  0.00000000000E+00  0.00000000000E+00 -0.53793039113E+03  0.53793039113E+03  0.25500000920E-02 0.  1.
    10030    2    1    2    0    0  0.00000000000E+00  0.00000000000E+00 -0.37037852745E+03  0.70548225483E+03  0.60043730587E+03 0.  0.
        5    1    3    3  502    0 -0.20037125285E+03 -0.11366946749E+03 -0.41131631779E+03  0.47145794095E+03  0.46999998093E+01 0.  1.
       -5    1    3    3    0  502  0.20037125285E+03  0.11366946749E+03  0.40937790343E+02  0.23402431387E+03  0.46999998093E+01 0. -1.
</event>
<event>
 5   0  0.9571790E-03  0.5991361E+03  0.7818609E-02  0.9907200E-01
       -2   -1    0    0    0  501  0.00000000000E+00  0.00000000000E+00  0.18225404523E+03  0.18225404525E+03  0.25500000920E-02 0. -1.
        2   -1    0    0  501    0  0.00000000000E+00  0.00000000000E+00 -0.49239513298E+03  0.49239513299E+03  0.25500000920E-02 0.  1.
    10030    2    1    2    0    0  0.00000000000E+00  0.00000000000E+00 -0.31014108775E+03  0.67464917823E+03  0.59913606082E+03 0.  0.
        5    1    3    3  502    0 -0.15297338938E+03 -0.10756624845E+03 -0.41854281609E+03  0.45844469084E+03  0.46999998093E+01 0.  1.
       -5    1    3    3    0  502  0.15297338938E+03  0.10756624845E+03  0.10840172834E+03  0.21620448739E+03  0.46999998093E+01 0. -1.
</event>
<event>
 5   0  0.5503975E-03  0.6002573E+03  0.7818609E-02  0.9904872E-01
        1   -1    0    0  501    0  0.00000000000E+00  0.00000000000E+00  0.42869865234E+03  0.42869865237E+03  0.50400001928E-02 0.  1.
       -1   -1    0    0    0  501  0.00000000000E+00  0.00000000000E+00 -0.21011776261E+03  0.21011776267E+03  0.50400001928E-02 0. -1.
    10030    2    1    2    0    0  0.00000000000E+00  0.00000000000E+00  0.21858088974E+03  0.63881641504E+03  0.60025728381E+03 0.  0.
        4    1    3    3  502    0  0.19240872431E+03  0.21277848328E+03  0.20315951766E+03  0.35152695864E+03  0.12699999809E+01 0. -1.
       -4    1    3    3    0  502 -0.19240872431E+03 -0.21277848328E+03  0.15421372083E+02  0.28728945640E+03  0.12699999809E+01 0.  1.
</event>
<event>
 5   0  0.5491236E-03  0.6071398E+03  0.7818609E-02  0.9890703E-01
       -1   -1    0    0    0  501  0.00000000000E+00  0.00000000000E+00  0.24690192443E+03  0.24690192448E+03  0.50400001928E-02 0.  1.
        1   -1    0    0  501    0  0.00000000000E+00  0.00000000000E+00 -0.37324408332E+03  0.37324408335E+03  0.50400001928E-02 0. -1.
    10030    2    1    2    0    0  0.00000000000E+00  0.00000000000E+00 -0.12634215889E+03  0.62014600784E+03  0.60713979438E+03 0.  0.
        3    1    3    3  502    0  0.20051452832E+03 -0.10607057459E+03  0.14288707679E+03  0.26809283798E+03  0.10100000352E+00 0.  1.
       -3    1    3    3    0  502 -0.20051452832E+03  0.10607057459E+03 -0.26922923568E+03  0.35205316986E+03  0.10100000352E+00 0. -1.
</event>
<event>
 5   0  0.5574736E-03  0.5999455E+03  0.7818609E-02  0.9905519E-01
       -1   -1    0    0    0  501  0.00000000000E+00  0.00000000000E+00  0.54237429595E+02  0.54237429829E+02  0.50400001928E-02 0.  1.
        1   -1    0    0  501    0  0.00000000000E+00  0.00000000000E+00 -0.16590690242E+04  0.16590690242E+04  0.50400001928E-02 0. -1.
    10030    2    1    2    0    0  0.00000000000E+00  0.00000000000E+00 -0.16048315946E+04  0.17133064540E+04  0.59994546285E+03 0.  0.
        5    1    3    3  502    0  0.23517736169E+03  0.16858386393E+03 -0.10278704815E+04  0.10678336609E+04  0.46999998093E+01 0.  1.
       -5    1    3    3    0  502 -0.23517736169E+03 -0.16858386393E+03 -0.57696111307E+03  0.64547279309E+03  0.46999998093E+01 0. -1.
</event>
<event>
 5   0  0.9866317E-03  0.5998834E+03  0.7818609E-02  0.9905648E-01
        2   -1    0    0  501    0  0.00000000000E+00  0.00000000000E+00  0.73837555392E+03  0.73837555393E+03  0.25500000920E-02 0. -1.
       -2   -1    0    0    0  501  0.00000000000E+00  0.00000000000E+00 -0.12184182891E+03  0.12184182894E+03  0.25500000920E-02 0.  1.
    10030    2    1    2    0    0  0.00000000000E+00  0.00000000000E+00  0.61653372502E+03  0.86021738286E+03  0.59988341509E+03 0.  0.
        1    1    3    3  502    0 -0.94323534809E+02  0.16897997922E+03 -0.20341303863E+02  0.19458913449E+03  0.50400001928E-02 0.  1.
       -1    1    3    3    0  502  0.94323534809E+02 -0.16897997922E+03  0.63687502888E+03  0.66562824837E+03  0.50400001928E-02 0. -1.
</event>
<event>
 5   0  0.9571790E-03  0.6008923E+03  0.7818609E-02  0.9903557E-01
       -2   -1    0    0    0  501  0.00000000000E+00  0.00000000000E+00  0.80485137518E+02  0.80485137559E+02  0.25500000920E-02 0. -1.
        2   -1    0    0  501    0  0.00000000000E+00  0.00000000000E+00 -0.11215472701E+04  0.11215472701E+04  0.25500000920E-02 0.  1.
    10030    2    1    2    0    0  0.00000000000E+00  0.00000000000E+00 -0.10410621326E+04  0.12020324077E+04  0.60089229083E+03 0.  0.
        5    1    3    3  502    0  0.11528270398E+03 -0.25488506353E+03 -0.73956753914E+03  0.79072038825E+03  0.46999998093E+01 0.  1.
       -5    1    3    3    0  502 -0.11528270398E+03  0.25488506353E+03 -0.30149459346E+03  0.41131201943E+03  0.46999998093E+01 0. -1.
</event>
<event>
 5   0  0.5574736E-03  0.5999418E+03  0.7818609E-02  0.9905527E-01
        1   -1    0    0  501    0  0.00000000000E+00  0.00000000000E+00  0.12594440091E+04  0.12594440091E+04  0.50400001928E-02 0.  1.
       -1   -1    0    0    0  501  0.00000000000E+00  0.00000000000E+00 -0.71446239737E+02  0.71446239915E+02  0.50400001928E-02 0. -1.
    10030    2    1    2    0    0  0.00000000000E+00  0.00000000000E+00  0.11879977694E+04  0.13308902490E+04  0.59994179296E+03 0.  0.
        5    1    3    3  502    0 -0.15443440776E+03 -0.25398294835E+03  0.50517766417E+03  0.58616029098E+03  0.46999998093E+01 0. -1.
       -5    1    3    3    0  502  0.15443440776E+03  0.25398294835E+03  0.68282010520E+03  0.74472995805E+03  0.46999998093E+01 0.  1.
</event>
<event>
 5   0  0.5785798E-03  0.6023622E+03  0.7818609E-02  0.9900517E-01
        1   -1    0    0  501    0  0.00000000000E+00  0.00000000000E+00  0.52966852536E+03  0.52966852538E+03  0.50400001928E-02 0.  1.
       -1   -1    0    0    0  501  0.00000000000E+00  0.00000000000E+00 -0.17125818134E+03  0.17125818141E+03  0.50400001928E-02 0. -1.
    10030    2    1    2    0    0  0.00000000000E+00  0.00000000000E+00  0.35841034402E+03  0.70092670680E+03  0.60236224450E+03 0.  0.
        1    1    3    3  502    0  0.35461255240E+02  0.75914416921E+02  0.51583339982E+03  0.52259410226E+03  0.50400001928E-02 0.  1.
       -1    1    3    3    0  502 -0.35461255240E+02 -0.75914416921E+02 -0.15742305580E+03  0.17833260454E+03  0.50400001928E-02 0. -1.
</event>
<event>
 5   0  0.3794375E-03  0.5994141E+03  0.7818609E-02  0.9906622E-01
       -3   -1    0    0    0  501  0.00000000000E+00  0.00000000000E+00  0.18067811114E+03  0.18067813937E+03  0.10100000352E+00 0. -1.
        3   -1    0    0  501    0  0.00000000000E+00  0.00000000000E+00 -0.49715095235E+03  0.49715096261E+03  0.10100000352E+00 0.  1.
    10030    2    1    2    0    0  0.00000000000E+00  0.00000000000E+00 -0.31647284122E+03  0.67782910198E+03  0.59941407413E+03 0.  0.
        5    1    3    3  502    0 -0.16767248221E+03 -0.12296875314E+03  0.85787090045E+02  0.22498197785E+03  0.46999998093E+01 0. -1.
       -5    1    3    3    0  502  0.16767248221E+03  0.12296875314E+03 -0.40225993126E+03  0.45284712413E+03  0.46999998093E+01 0.  1.
</event>
<event>
 5   0  0.9681801E-03  0.6001029E+03  0.7818609E-02  0.9905193E-01
       -2   -1    0    0    0  501  0.00000000000E+00  0.00000000000E+00  0.71214580579E+02  0.71214580625E+02  0.25500000920E-02 0. -1.
        2   -1    0    0  501    0  0.00000000000E+00  0.00000000000E+00 -0.12642196532E+04  0.12642196532E+04  0.25500000920E-02 0.  1.
    10030    2    1    2    0    0  0.00000000000E+00  0.00000000000E+00 -0.11930050727E+04  0.13354342339E+04  0.60010289917E+03 0.  0.
        4    1    3    3  502    0 -0.16401109039E+03  0.15831359744E+01 -0.37382890150E+02  0.16822971635E+03  0.12699999809E+01 0. -1.
       -4    1    3    3    0  502  0.16401109039E+03 -0.15831359744E+01 -0.11556221825E+04  0.11672045175E+04  0.12699999809E+01 0.  1.
</event>
<event>
 5   0  0.5503975E-03  0.5993692E+03  0.7818609E-02  0.9906716E-01
        1   -1    0    0  501    0  0.00000000000E+00  0.00000000000E+00  0.61245860094E+03  0.61245860096E+03  0.50400001928E-02 0. -1.
       -1   -1    0    0    0  501  0.00000000000E+00  0.00000000000E+00 -0.14663988227E+03  0.14663988236E+03  0.50400001928E-02 0.  1.
    10030    2    1    2    0    0  0.00000000000E+00  0.00000000000E+00  0.46581871866E+03  0.75909848332E+03  0.59936919233E+03 0.  0.
        4    1    3    3  502    0  0.21332900523E+03 -0.15384860478E+03  0.50998135434E+02  0.26791991412E+03  0.12699999809E+01 0.  1.
       -4    1    3    3    0  502 -0.21332900523E+03  0.15384860478E+03  0.41482058323E+03  0.49117856920E+03  0.12699999809E+01 0. -1.
</event>
<event>
 5   0  0.9681801E-03  0.5996701E+03  0.7818609E-02  0.9906091E-01
       -2   -1    0    0    0  501  0.00000000000E+00  0.00000000000E+00  0.22205947247E+03  0.22205947248E+03  0.25500000920E-02 0. -1.
        2   -1    0    0  501    0  0.00000000000E+00  0.00000000000E+00 -0.40485131039E+03  0.40485131040E+03  0.25500000920E-02 0.  1.
    10030    2    1    2    0    0  0.00000000000E+00  0.00000000000E+00 -0.18279183792E+03  0.62691078288E+03  0.59967013739E+03 0.  0.
        4    1    3    3  502    0 -0.18081077997E+03  0.23526973464E+03 -0.46368879822E+02  0.30032660906E+03  0.12699999809E+01 0.  1.
       -4    1    3    3    0  502  0.18081077997E+03 -0.23526973464E+03 -0.13642295810E+03  0.32658417382E+03  0.12699999809E+01 0. -1.
</event>
<event>
 5   0  0.9866317E-03  0.6026292E+03  0.7818609E-02  0.9899966E-01
        2   -1    0    0  501    0  0.00000000000E+00  0.00000000000E+00  0.20836692517E+04  0.20836692517E+04  0.25500000920E-02 0.  1.
       -2   -1    0    0    0  501  0.00000000000E+00  0.00000000000E+00 -0.43572402877E+02  0.43572402952E+02  0.25500000920E-02 0. -1.
    10030    2    1    2    0    0  0.00000000000E+00  0.00000000000E+00  0.20400968488E+04  0.21272416546E+04  0.60262916019E+03 0.  0.
        1    1    3    3  502    0 -0.28278073021E+02 -0.35361220275E+02 -0.31495463666E+02  0.55154596998E+02  0.50400001928E-02 0. -1.
       -1    1    3    3    0  502  0.28278073021E+02  0.35361220275E+02  0.20715923125E+04  0.20720870576E+04  0.50400001928E-02 0.  1.
</event>
<event>
 5   0  0.3794375E-03  0.6002646E+03  0.7818609E-02  0.9904857E-01
        4   -1    0    0  501    0  0.00000000000E+00  0.00000000000E+00  0.38229213594E+03  0.38229424544E+03  0.12699999809E+01 0. -1.
       -4   -1    0    0    0  501  0.00000000000E+00  0.00000000000E+00 -0.23562529422E+03  0.23562871679E+03  0.12699999809E+01 0.  1.
    10030    2    1    2    0    0  0.00000000000E+00  0.00000000000E+00  0.14666684171E+03  0.61792296224E+03  0.60026462898E+03 0.  0.
        4    1    3    3  502    0 -0.52119668837E+02  0.29035058675E+03  0.16408674538E+02  0.29545013218E+03  0.12699999809E+01 0. -1.
       -4    1    3    3    0  502  0.52119668837E+02 -0.29035058675E+03  0.13025816718E+03  0.32247283005E+03  0.12699999809E+01 0.  1.
</event>
<event>
 5   0  0.5785798E-03  0.6006309E+03  0.7818609E-02  0.9904098E-01
       -1   -1    0    0    0  501  0.00000000000E+00  0.00000000000E+00  0.13507520680E+03  0.13507520689E+03  0.50400001928E-02 0. -1.
        1   -1    0    0  501    0  0.00000000000E+00  0.00000000000E+00 -0.66769747793E+03  0.66769747795E+03  0.50400001928E-02 0.  1.
    10030    2    1    2    0    0  0.00000000000E+00  0.00000000000E+00 -0.53262227113E+03  0.80277268484E+03  0.60063091814E+03 0.  0.
        1    1    3    3  502    0 -0.62799344121E+02  0.29344226812E+03 -0.28196945607E+03  0.41177529858E+03  0.50400001928E-02 0.  1.
       -1    1    3    3    0  502  0.62799344121E+02 -0.29344226812E+03 -0.25065281506E+03  0.39099738626E+03  0.50400001928E-02 0. -1.
</event>
<event>
 5   0  0.5574736E-03  0.6005822E+03  0.7818609E-02  0.9904199E-01
       -1   -1    0    0    0  501  0.00000000000E+00  0.00000000000E+00  0.28482599961E+03  0.28482599966E+03  0.50400001928E-02 0.  1.
        1   -1    0    0  501    0  0.00000000000E+00  0.00000000000E+00 -0.31659585309E+03  0.31659585313E+03  0.50400001928E-02 0. -1.
    10030    2    1    2    0    0  0.00000000000E+00  0.00000000000E+00 -0.31769853477E+02  0.60142185278E+03  0.60058215209E+03 0.  0.
        5    1    3    3  502    0  0.20055128982E+03 -0.12530408284E+02  0.20752969104E+03  0.28890914427E+03  0.46999998093E+01 0.  1.
       -5    1    3    3    0  502 -0.20055128982E+03  0.12530408284E+02 -0.23929954452E+03  0.31251270852E+03  0.46999998093E+01 0. -1.
</event>
<event>
 5   0  0.9681801E-03  0.5996798E+03  0.7818609E-02  0.9906071E-01
       -2   -1    0    0    0  501  0.00000000000E+00  0.00000000000E+00  0.97008388033E+02  0.97008388067E+02  0.25500000920E-02 0. -1.
        2   -1    0    0  501    0  0.00000000000E+00  0.00000000000E+00 -0.92676498918E+03  0.92676498918E+03  0.25500000920E-02 0.  1.
    10030    2    1    2    0    0  0.00000000000E+00  0.00000000000E+00 -0.82975660114E+03  0.10237733772E+04  0.59967984026E+03 0.  0.
        4    1    3    3  502    0 -0.84361808562E+02  0.20255640341E+02  0.75106395525E+02  0.11475970224E+03  0.12699999809E+01 0. -1.
       -4    1    3    3    0  502  0.84361808562E+02 -0.20255640341E+02 -0.90486299667E+03  0.90901367501E+03  0.12699999809E+01 0.  1.
</event>
<event>
 5   0  0.3794375E-03  0.5985550E+03  0.7818609E-02  0.9908409E-01
        3   -1    0    0  501    0  0.00000000000E+00  0.00000000000E+00  0.19269563394E+03  0.19269566041E+03  0.10100000352E+00 0.  1.
       -3   -1    0    0    0  501  0.00000000000E+00  0.00000000000E+00 -0.46481071337E+03  0.46481072434E+03  0.10100000352E+00 0. -1.
    10030    2    1    2    0    0  0.00000000000E+00  0.00000000000E+00 -0.27211507943E+03  0.65750638475E+03  0.59855495114E+03 0.  0.
        1    1    3    3  502    0 -0.27550972066E+03 -0.48902483478E+02 -0.25267320885E+03  0.37701566222E+03  0.50400001928E-02 0. -1.
       -1    1    3    3    0  502  0.27550972066E+03  0.48902483478E+02 -0.19441870585E+02  0.28049072253E+03  0.50400001928E-02 0.  1.
</event>
<event>
 5   0  0.5503975E-03  0.6009502E+03  0.7818609E-02  0.9903437E-01
       -1   -1    0    0    0  501  0.00000000000E+00  0.00000000000E+00  0.32901783697E+03  0.32901783701E+03  0.50400001928E-02 0.  1.
        1   -1    0    0  501    0  0.00000000000E+00  0.00000000000E+00 -0.27440849765E+03  0.27440849769E+03  0.50400001928E-02 0. -1.
    10030    2    1    2    0    0  0.00000000000E+00  0.00000000000E+00  0.54609339325E+02  0.60342633470E+03  0.60095021547E+03 0.  0.
        4    1    3    3  502    0  0.16755558418E+03  0.87320555300E+02 -0.20729000129E+03  0.28048263886E+03  0.12699999809E+01 0. -1.
       -4    1    3    3    0  502 -0.16755558418E+03 -0.87320555300E+02  0.26189934061E+03  0.32294369584E+03  0.12699999809E+01 0.  1.
</event>
<event>
 5   0  0.9681801E-03  0.5993578E+03  0.7818609E-02  0.9906739E-01
        2   -1    0    0  501    0  0.00000000000E+00  0.00000000000E+00  0.34495043091E+03  0.34495043092E+03  0.25500000920E-02 0.  1.
       -2   -1    0    0    0  501  0.00000000000E+00  0.00000000000E+00 -0.26034880534E+03  0.26034880536E+03  0.25500000920E-02 0. -1.
    10030    2    1    2    0    0  0.00000000000E+00  0.00000000000E+00  0.84601625565E+02  0.60529923627E+03  0.59935776493E+03 0.  0.
        4    1    3    3  502    0  0.29021757170E+03  0.46536921613E+02  0.10130857079E+03  0.31089703024E+03  0.12699999809E+01 0.  1.
       -4    1    3    3    0  502 -0.29021757170E+03 -0.46536921613E+02 -0.16706945226E+02  0.29440220603E+03  0.12699999809E+01 0. -1.
</event>
<event>
 5   0  0.3794375E-03  0.6017381E+03  0.7818609E-02  0.9901807E-01
        4   -1    0    0  501    0  0.00000000000E+00  0.00000000000E+00  0.15050338132E+03  0.15050873957E+03  0.12699999809E+01 0. -1.
       -4   -1    0    0    0  501  0.00000000000E+00  0.00000000000E+00 -0.60144610677E+03  0.60144744762E+03  0.12699999809E+01 0.  1.
    10030    2    1    2    0    0  0.00000000000E+00  0.00000000000E+00 -0.45094272545E+03  0.75195618719E+03  0.60173812063E+03 0.  0.
        5    1    3    3  502    0 -0.14886098579E+02  0.21317385577E+03  0.39132145450E+02  0.21729726993E+03  0.46999998093E+01 0. -1.
       -5    1    3    3    0  502  0.14886098579E+02 -0.21317385577E+03 -0.49007487090E+03  0.53465891726E+03  0.46999998093E+01 0.  1.
</event>
<event>
 5   0  0.9866317E-03  0.5996031E+03  0.7818609E-02  0.9906230E-01
        2   -1    0    0  501    0  0.00000000000E+00  0.00000000000E+00  0.26509997903E+04  0.26509997903E+04  0.25500000920E-02 0. -1.
       -2   -1    0    0    0  501  0.00000000000E+00  0.00000000000E+00 -0.33904557327E+02  0.33904557422E+02  0.25500000920E-02 0.  1.
    10030    2    1    2    0    0  0.00000000000E+00  0.00000000000E+00  0.26170952329E+04  0.26849043477E+04  0.59960311704E+03 0.  0.
        1    1    3    3  502    0  0.26603411468E+03  0.87288257148E+02  0.17884791601E+04  0.18102627146E+04  0.50400001928E-02 0. -1.
       -1    1    3    3    0  502 -0.26603411468E+03 -0.87288257148E+02  0.82861607286E+03  0.87464163304E+03  0.50400001928E-02 0.  1.
</event>
<event>
 5   0  0.5785798E-03  0.6016234E+03  0.7818609E-02  0.9902044E-01
        1   -1    0    0  501    0  0.00000000000E+00  0.00000000000E+00  0.33367299443E+03  0.33367299447E+03  0.50400001928E-02 0.  1.
       -1   -1    0    0    0  501  0.00000000000E+00  0.00000000000E+00 -0.27118668709E+03  0.27118668714E+03  0.50400001928E-02 0. -1.
    10030    2    1    2    0    0  0.00000000000E+00  0.00000000000E+00  0.62486307341E+02  0.60485968161E+03  0.60162338371E+03 0.  0.
        1    1    3    3  502    0  0.35641936071E+02 -0.61796461196E+01  0.33147832339E+03  0.33344626934E+03  0.50400001928E-02 0.  1.
       -1    1    3    3    0  502 -0.35641936071E+02  0.61796461196E+01 -0.26899201605E+03  0.27141341227E+03  0.50400001928E-02 0. -1.
</event>
<event>
 5   0  0.5503975E-03  0.6001489E+03  0.7818609E-02  0.9905097E-01
       -1   -1    0    0    0  501  0.00000000000E+00  0.00000000000E+00  0.15343824770E+03  0.15343824779E+03  0.50400001928E-02 0.  1.
        1   -1    0    0  501    0  0.00000000000E+00  0.00000000000E+00 -0.58684634049E+03  0.58684634052E+03  0.50400001928E-02 0. -1.
    10030    2    1    2    0    0  0.00000000000E+00  0.00000000000E+00 -0.43340809279E+03  0.74028458830E+03  0.60014889551E+03 0.  0.
        4    1    3    3  502    0  0.47040979958E+02 -0.18240661858E+02  0.14816538825E+03  0.15652530376E+03  0.12699999809E+01 0.  1.
       -4    1    3    3    0  502 -0.47040979958E+02  0.18240661858E+02 -0.58157348104E+03  0.58375928455E+03  0.12699999809E+01 0. -1.
</event>
<event>
 5   0  0.5491236E-03  0.6029389E+03  0.7818609E-02  0.9899327E-01
       -1   -1    0    0    0  501  0.00000000000E+00  0.00000000000E+00  0.67874110581E+03  0.67874110583E+03  0.50400001928E-02 0.  1.
        1   -1    0    0  501    0  0.00000000000E+00  0.00000000000E+00 -0.13390058951E+03  0.13390058961E+03  0.50400001928E-02 0. -1.
    10030    2    1    2    0    0  0.00000000000E+00  0.00000000000E+00  0.54484051629E+03  0.81264169543E+03  0.60293891644E+03 0.  0.
        3    1    3    3  502    0 -0.17188232799E+03 -0.24724522745E+03  0.29195579005E+03  0.41941856267E+03  0.10100000352E+00 0.  1.
       -3    1    3    3    0  502  0.17188232799E+03  0.24724522745E+03  0.25288472624E+03  0.39322313276E+03  0.10100000352E+00 0. -1.
</event>
<event>
 5   0  0.9428629E-03  0.5999804E+03  0.7818609E-02  0.9905447E-01
        2   -1    0    0  501    0  0.00000000000E+00  0.00000000000E+00  0.19623248183E+04  0.19623248183E+04  0.25500000920E-02 0. -1.
       -2   -1    0    0    0  501  0.00000000000E+00  0.00000000000E+00 -0.45860964952E+02  0.45860965023E+02  0.25500000920E-02 0.  1.
    10030    2    1    2    0    0  0.00000000000E+00  0.00000000000E+00  0.19164638534E+04  0.20081857834E+04  0.59998036565E+03 0.  0.
        3    1    3    3  502    0  0.15404950058E+03  0.13594280048E+03  0.22658617237E+03  0.30586434467E+03  0.10100000352E+00 0.  1.
       -3    1    3    3    0  502 -0.15404950058E+03 -0.13594280048E+03  0.16898776810E+04  0.17023214387E+04  0.10100000352E+00 0. -1.
</event>
<event>
 5   0  0.9530666E-03  0.5993499E+03  0.7818609E-02  0.9906756E-01
        2   -1    0    0  501    0  0.00000000000E+00  0.00000000000E+00  0.32664582364E+03  0.32664582365E+03  0.25500000920E-02 0. -1.
       -2   -1    0    0    0  501  0.00000000000E+00  0.00000000000E+00 -0.27493106441E+03  0.27493106442E+03  0.25500000920E-02 0.  1.
    10030    2    1    2    0    0  0.00000000000E+00  0.00000000000E+00  0.51714759231E+02  0.60157688807E+03  0.59934992779E+03 0.  0.
        2    1    3    3  502    0  0.39214727867E+02  0.26242466815E+03 -0.11394612931E+03  0.28877018843E+03  0.25500000920E-02 0.  1.
       -2    1    3    3    0  502 -0.39214727867E+02 -0.26242466815E+03  0.16566088854E+03  0.31280669963E+03  0.25500000920E-02 0. -1.
</event>
<event>
 5   0  0.5653633E-03  0.6047383E+03  0.7818609E-02  0.9895624E-01
       -1   -1    0    0    0  501  0.00000000000E+00  0.00000000000E+00  0.25641532091E+03  0.25641532096E+03  0.50400001928E-02 0. -1.
        1   -1    0    0  501    0  0.00000000000E+00  0.00000000000E+00 -0.35655861245E+03  0.35655861249E+03  0.50400001928E-02 0.  1.
    10030    2    1    2    0    0  0.00000000000E+00  0.00000000000E+00 -0.10014329154E+03  0.61297393345E+03  0.60473826095E+03 0.  0.
        2    1    3    3  502    0 -0.12751664147E+03 -0.19332521032E+03  0.14697736983E+03  0.27429450969E+03  0.25500000920E-02 0. -1.
       -2    1    3    3    0  502  0.12751664147E+03  0.19332521032E+03 -0.24712066138E+03  0.33867942376E+03  0.25500000920E-02 0.  1.
</event>
<event>
 5   0  0.9866317E-03  0.6010879E+03  0.7818609E-02  0.9903152E-01
       -2   -1    0    0    0  501  0.00000000000E+00  0.00000000000E+00  0.68153133781E+02  0.68153133828E+02  0.25500000920E-02 0.  1.
        2   -1    0    0  501    0  0.00000000000E+00  0.00000000000E+00 -0.13253485471E+04  0.13253485471E+04  0.25500000920E-02 0. -1.
    10030    2    1    2    0    0  0.00000000000E+00  0.00000000000E+00 -0.12571954133E+04  0.13935016810E+04  0.60108787002E+03 0.  0.
        1    1    3    3  502    0 -0.97083023176E+02 -0.73593009629E+02 -0.12655422543E+04  0.12713922455E+04  0.50400001928E-02 0. -1.
       -1    1    3    3    0  502  0.97083023176E+02  0.73593009629E+02  0.83468409341E+01  0.12210943548E+03  0.50400001928E-02 0.  1.
</event>
<event>
 5   0  0.3794375E-03  0.5998226E+03  0.7818609E-02  0.9905774E-01
       -4   -1    0    0    0  501  0.00000000000E+00  0.00000000000E+00  0.18956643404E+03  0.18957068817E+03  0.12699999809E+01 0. -1.
        4   -1    0    0  501    0  0.00000000000E+00  0.00000000000E+00 -0.47447638702E+03  0.47447808668E+03  0.12699999809E+01 0.  1.
    10030    2    1    2    0    0  0.00000000000E+00  0.00000000000E+00 -0.28490995298E+03  0.66404877486E+03  0.59982255216E+03 0.  0.
        2    1    3    3  502    0 -0.22178871412E+03  0.11770291402E+03  0.39127537553E+02  0.25411645732E+03  0.25500000920E-02 0. -1.
       -2    1    3    3    0  502  0.22178871412E+03 -0.11770291402E+03 -0.32403749053E+03  0.40993231753E+03  0.25500000920E-02 0.  1.
</event>
<event>
 5   0  0.5503975E-03  0.5991288E+03  0.7818609E-02  0.9907215E-01
        1   -1    0    0  501    0  0.00000000000E+00  0.00000000000E+00  0.38752185795E+03  0.38752185798E+03  0.50400001928E-02 0.  1.
       -1   -1    0    0    0  501  0.00000000000E+00  0.00000000000E+00 -0.23157099326E+03  0.23157099331E+03  0.50400001928E-02 0. -1.
    10030    2    1    2    0    0  0.00000000000E+00  0.00000000000E+00  0.15595086469E+03  0.61909285129E+03  0.59912877274E+03 0.  0.
        4    1    3    3  502    0  0.15204349871E+03 -0.23021605831E+03 -0.42620575049E+02  0.27916802345E+03  0.12699999809E+01 0. -1.
       -4    1    3    3    0  502 -0.15204349871E+03  0.23021605831E+03  0.19857143974E+03  0.33992482784E+03  0.12699999809E+01 0.  1.
</event>
<event>
 5   0  0.9866317E-03  0.5993936E+03  0.7818609E-02  0.9906665E-01
        2   -1    0    0  501    0  0.00000000000E+00  0.00000000000E+00  0.38357783515E+03  0.38357783516E+03  0.25500000920E-02 0. -1.
       -2   -1    0    0    0  501  0.00000000000E+00  0.00000000000E+00 -0.23415891986E+03  0.23415891988E+03  0.25500000920E-02 0.  1.
    10030    2    1    2    0    0  0.00000000000E+00  0.00000000000E+00  0.14941891529E+03  0.61773675503E+03  0.59939359879E+03 0.  0.
        1    1    3    3  502    0  0.17264029580E+02  0.76941091548E+02  0.37269485522E+03  0.38094544678E+03  0.50400001928E-02 0. -1.
       -1    1    3    3    0  502 -0.17264029580E+02 -0.76941091548E+02 -0.22327593994E+03  0.23679130826E+03  0.50400001928E-02 0.  1.
</event>
<event>
 5   0  0.5785798E-03  0.5998410E+03  0.7818609E-02  0.9905736E-01
       -1   -1    0    0    0  501  0.00000000000E+00  0.00000000000E+00  0.23570253015E+03  0.23570253020E+03  0.50400001928E-02 0. -1.
        1   -1    0    0  501    0  0.00000000000E+00  0.00000000000E+00 -0.38163491547E+03  0.38163491550E+03  0.50400001928E-02 0.  1.
    10030    2    1    2    0    0  0.00000000000E+00  0.00000000000E+00 -0.14593238532E+03  0.61733744570E+03  0.59984102959E+03 0.  0.
        1    1    3    3  502    0 -0.18936884701E+03 -0.11115294711E+03 -0.28322098728E+03  0.35837084916E+03  0.50400001928E-02 0.  1.
       -1    1    3    3    0  502  0.18936884701E+03  0.11115294711E+03  0.13728860196E+03  0.25896659654E+03  0.50400001928E-02 0. -1.
</event>
<event>
 5   0  0.9866317E-03  0.6001418E+03  0.7818609E-02  0.9905112E-01
       -2   -1    0    0    0  501  0.00000000000E+00  0.00000000000E+00  0.29307678459E+03  0.29307678460E+03  0.25500000920E-02 0. -1.
        2   -1    0    0  501    0  0.00000000000E+00  0.00000000000E+00 -0.30723193713E+03  0.30723193714E+03  0.25500000920E-02 0.  1.
    10030    2    1    2    0    0  0.00000000000E+00  0.00000000000E+00 -0.14155152544E+02  0.60030872174E+03  0.60014181079E+03 0.  0.
        1    1    3    3  502    0  0.29522301043E+03 -0.40606048920E+02  0.28104227863E+02  0.29932478138E+03  0.50400001928E-02 0. -1.
       -1    1    3    3    0  502 -0.29522301043E+03  0.40606048920E+02 -0.42259380407E+02  0.30098394036E+03  0.50400001928E-02 0.  1.
</event>
<event>
 5   0  0.5503975E-03  0.5994771E+03  0.7818609E-02  0.9906492E-01
       -1   -1    0    0    0  501  0.00000000000E+00  0.00000000000E+00  0.37051185164E+03  0.37051185167E+03  0.50400001928E-02 0.  1.
        1   -1    0    0  501    0  0.00000000000E+00  0.00000000000E+00 -0.24248399384E+03  0.24248399389E+03  0.50400001928E-02 0. -1.
    10030    2    1    2    0    0  0.00000000000E+00  0.00000000000E+00  0.12802785780E+03  0.61299584556E+03  0.59947708405E+03 0.  0.
        4    1    3    3  502    0  0.15744042516E+03 -0.24424825441E+03  0.13913408182E+03  0.32218721713E+03  0.12699999809E+01 0. -1.
       -4    1    3    3    0  502 -0.15744042516E+03  0.24424825441E+03 -0.11106224020E+02  0.29080862843E+03  0.12699999809E+01 0.  1.
</event>
<event>
 5   0  0.9530666E-03  0.5995505E+03  0.7818609E-02  0.9906339E-01
        2   -1    0    0  501    0  0.00000000000E+00  0.00000000000E+00  0.16627006910E+04  0.16627006910E+04  0.25500000920E-02 0.  1.
       -2   -1    0    0    0  501  0.00000000000E+00  0.00000000000E+00 -0.54047728905E+02  0.54047728965E+02  0.25500000920E-02 0. -1.
    10030    2    1    2    0    0  0.00000000000E+00  0.00000000000E+00  0.16086529621E+04  0.17167484200E+04  0.59955048578E+03 0.  0.
        2    1    3    3  502    0  0.22184302927E+03  0.18113156570E+03  0.10578980032E+04  0.10959795431E+04  0.25500000920E-02 0.  1.
       -2    1    3    3    0  502 -0.22184302927E+03 -0.18113156570E+03  0.55075495892E+03  0.62076887689E+03  0.25500000920E-02 0. -1.
</event>
<event>
 5   0  0.9530666E-03  0.6148646E+03  0.7818609E-02  0.9875038E-01
       -2   -1    0    0    0  501  0.00000000000E+00  0.00000000000E+00  0.85302023813E+02  0.85302023851E+02  0.25500000920E-02 0.  1.
        2   -1    0    0  501    0  0.00000000000E+00  0.00000000000E+00 -0.11079996197E+04  0.11079996197E+04  0.25500000920E-02 0. -1.
    10030    2    1    2    0    0  0.00000000000E+00  0.00000000000E+00 -0.10226975959E+04  0.11933016436E+04  0.61486457036E+03 0.  0.
        2    1    3    3  502    0 -0.13791496607E+03  0.97520813071E+02 -0.10098765159E+04  0.10239049879E+04  0.25500000920E-02 0. -1.
       -2    1    3    3    0  502  0.13791496607E+03 -0.97520813071E+02 -0.12821079977E+02  0.16939665566E+03  0.25500000920E-02 0.  1.
</event>
<event>
 5   0  0.5503975E-03  0.5993358E+03  0.7818609E-02  0.9906785E-01
       -1   -1    0    0    0  501  0.00000000000E+00  0.00000000000E+00  0.10545662531E+03  0.10545662543E+03  0.50400001928E-02 0. -1.
        1   -1    0    0  501    0  0.00000000000E+00  0.00000000000E+00 -0.85154309016E+03  0.85154309018E+03  0.50400001928E-02 0.  1.
    10030    2    1    2    0    0  0.00000000000E+00  0.00000000000E+00 -0.74608646486E+03  0.95699971561E+03  0.59933583459E+03 0.  0.
        4    1    3    3  502    0 -0.98865045224E+02 -0.28213017736E+03 -0.40605863041E+03  0.50423898935E+03  0.12699999809E+01 0. -1.
       -4    1    3    3    0  502  0.98865045224E+02  0.28213017736E+03 -0.34002783445E+03  0.45276072626E+03  0.12699999809E+01 0.  1.
</event>
<event>
 5   0  0.5574736E-03  0.5993894E+03  0.7818609E-02  0.9906674E-01
        1   -1    0    0  501    0  0.00000000000E+00  0.00000000000E+00  0.83513694666E+03  0.83513694668E+03  0.50400001928E-02 0.  1.
       -1   -1    0    0    0  501  0.00000000000E+00  0.00000000000E+00 -0.10754754145E+03  0.10754754157E+03  0.50400001928E-02 0. -1.
    10030    2    1    2    0    0  0.00000000000E+00  0.00000000000E+00  0.72758940521E+03  0.94268448825E+03  0.59938944085E+03 0.  0.
        5    1    3    3  502    0  0.15214709415E+03  0.16698436857E+03  0.67343832695E+03  0.71033357502E+03  0.46999998093E+01 0.  1.
       -5    1    3    3    0  502 -0.15214709415E+03 -0.16698436857E+03  0.54151078267E+02  0.23235091323E+03  0.46999998093E+01 0. -1.
</event>
<event>
 5   0  0.3794375E-03  0.6000410E+03  0.7818609E-02  0.9905321E-01
       -4   -1    0    0    0  501  0.00000000000E+00  0.00000000000E+00  0.54100570795E+03  0.54100719860E+03  0.12699999809E+01 0.  1.
        4   -1    0    0  501    0  0.00000000000E+00  0.00000000000E+00 -0.16637540813E+03  0.16638025523E+03  0.12699999809E+01 0. -1.
    10030    2    1    2    0    0  0.00000000000E+00  0.00000000000E+00  0.37463029982E+03  0.70738745382E+03  0.60004095550E+03 0.  0.
        5    1    3    3  502    0 -0.26741298758E+03 -0.10796736453E+03  0.28469773720E+03  0.40526725663E+03  0.46999998093E+01 0. -1.
       -5    1    3    3    0  502  0.26741298758E+03  0.10796736453E+03  0.89932562621E+02  0.30212019719E+03  0.46999998093E+01 0.  1.
</event>
<event>
 5   0  0.9428629E-03  0.5993188E+03  0.7818609E-02  0.9906820E-01
        2   -1    0    0  501    0  0.00000000000E+00  0.00000000000E+00  0.18305895498E+04  0.18305895498E+04  0.25500000920E-02 0. -1.
       -2   -1    0    0    0  501  0.00000000000E+00  0.00000000000E+00 -0.49052919141E+02  0.49052919207E+02  0.25500000920E-02 0.  1.
    10030    2    1    2    0    0  0.00000000000E+00  0.00000000000E+00  0.17815366307E+04  0.18796424690E+04  0.59931881743E+03 0.  0.
        3    1    3    3  502    0 -0.20590763906E+03  0.19860064404E+03  0.11705074598E+04  0.12049597069E+04  0.10100000352E+00 0.  1.
       -3    1    3    3    0  502  0.20590763906E+03 -0.19860064404E+03  0.61102917093E+03  0.67468276217E+03  0.10100000352E+00 0. -1.
</event>
<event>
 5   0  0.5653633E-03  0.6008079E+03  0.7818609E-02  0.9903731E-01
       -1   -1    0    0    0  501  0.00000000000E+00  0.00000000000E+00  0.31392270948E+03  0.31392270952E+03  0.50400001928E-02 0.  1.
        1   -1    0    0  501    0  0.00000000000E+00  0.00000000000E+00 -0.28746740861E+03  0.28746740865E+03  0.50400001928E-02 0. -1.
    10030    2    1    2    0    0  0.00000000000E+00  0.00000000000E+00  0.26455300873E+02  0.60139011817E+03  0.60080794876E+03 0.  0.
        2    1    3    3  502    0  0.14742755420E+03  0.21214506545E+03  0.16668026017E+03  0.30744547756E+03  0.25500000920E-02 0.  1.
       -2    1    3    3    0  502 -0.14742755420E+03 -0.21214506545E+03 -0.14022495929E+03  0.29394464062E+03  0.25500000920E-02 0. -1.
</event>
<event>
 5   0  0.5785798E-03  0.6001915E+03  0.7818609E-02  0.9905009E-01
       -1   -1    0    0    0  501  0.00000000000E+00  0.00000000000E+00  0.86333040493E+02  0.86333040640E+02  0.50400001928E-02 0. -1.
        1   -1    0    0  501    0  0.00000000000E+00  0.00000000000E+00 -0.10431402668E+04  0.10431402668E+04  0.50400001928E-02 0.  1.
    10030    2    1    2    0    0  0.00000000000E+00  0.00000000000E+00 -0.95680722628E+03  0.11294733074E+04  0.60019153936E+03 0.  0.
        1    1    3    3  502    0  0.14010825704E+03 -0.25222879623E+03 -0.63367409855E+03  0.69627045933E+03  0.50400001928E-02 0. -1.
       -1    1    3    3    0  502 -0.14010825704E+03  0.25222879623E+03 -0.32313312773E+03  0.43320284809E+03  0.50400001928E-02 0.  1.
</event>
<event>
 5   0  0.9866317E-03  0.5989493E+03  0.7818609E-02  0.9907588E-01
       -2   -1    0    0    0  501  0.00000000000E+00  0.00000000000E+00  0.16959249124E+03  0.16959249126E+03  0.25500000920E-02 0.  1.
        2   -1    0    0  501    0  0.00000000000E+00  0.00000000000E+00 -0.52882682394E+03  0.52882682395E+03  0.25500000920E-02 0. -1.
    10030    2    1    2    0    0  0.00000000000E+00  0.00000000000E+00 -0.35923433270E+03  0.69841931521E+03  0.59894927503E+03 0.  0.
        1    1    3    3  502    0 -0.11301081111E+03  0.26618776411E+03 -0.27037407513E+03  0.39589078004E+03  0.50400001928E-02 0. -1.
       -1    1    3    3    0  502  0.11301081111E+03 -0.26618776411E+03 -0.88860257573E+02  0.30252853517E+03  0.50400001928E-02 0.  1.
</event>
<event>
 5   0  0.5574736E-03  0.6014012E+03  0.7818609E-02  0.9902503E-01
       -1   -1    0    0    0  501  0.00000000000E+00  0.00000000000E+00  0.33581359135E+03  0.33581359139E+03  0.50400001928E-02 0.  1.
        1   -1    0    0  501    0  0.00000000000E+00  0.00000000000E+00 -0.26925902281E+03  0.26925902286E+03  0.50400001928E-02 0. -1.
    10030    2    1    2    0    0  0.00000000000E+00  0.00000000000E+00  0.66554568539E+02  0.60507261424E+03  0.60140116221E+03 0.  0.
        5    1    3    3  502    0  0.92109327589E+02  0.28593685783E+03  0.45792459306E+02  0.30391290566E+03  0.46999998093E+01 0.  1.
       -5    1    3    3    0  502 -0.92109327589E+02 -0.28593685783E+03  0.20762109233E+02  0.30115970858E+03  0.46999998093E+01 0. -1.
</event>
<event>
 5   0  0.5574736E-03  0.5990512E+03  0.7818609E-02  0.9907376E-01
        1   -1    0    0  501    0  0.00000000000E+00  0.00000000000E+00  0.13365519043E+04  0.13365519043E+04  0.50400001928E-02 0.  1.
       -1   -1    0    0    0  501  0.00000000000E+00  0.00000000000E+00 -0.67124664421E+02  0.67124664610E+02  0.50400001928E-02 0. -1.
    10030    2    1    2    0    0  0.00000000000E+00  0.00000000000E+00  0.12694272398E+04  0.14036765689E+04  0.59905124387E+03 0.  0.
        5    1    3    3  502    0 -0.17504094202E+03  0.83173138189E+02  0.99689180402E+02  0.21798423105E+03  0.46999998093E+01 0. -1.
       -5    1    3    3    0  502  0.17504094202E+03 -0.83173138189E+02  0.11697380594E+04  0.11856923378E+04  0.46999998093E+01 0.  1.
</event>
<event>
 5   0  0.9530666E-03  0.5877631E+03  0.7818609E-02  0.9931124E-01
        2   -1    0    0  501    0  0.00000000000E+00  0.00000000000E+00  0.46050276647E+03  0.46050276647E+03  0.25500000920E-02 0. -1.
       -2   -1    0    0    0  501  0.00000000000E+00  0.00000000000E+00 -0.18754799854E+03  0.18754799856E+03  0.25500000920E-02 0.  1.
    10030    2    1    2    0    0  0.00000000000E+00  0.00000000000E+00  0.27295476792E+03  0.64805076503E+03  0.58776312298E+03 0.  0.
        2    1    3    3  502    0 -0.76045260526E+02  0.25321177375E+02  0.44821922095E+03  0.45532901698E+03  0.25500000920E-02 0. -1.
       -2    1    3    3    0  502  0.76045260526E+02 -0.25321177375E+02 -0.17526445303E+03  0.19272174805E+03  0.25500000920E-02 0.  1.
</event>
<event>
 5   0  0.9530666E-03  0.5996957E+03  0.7818609E-02  0.9906038E-01
        2   -1    0    0  501    0  0.00000000000E+00  0.00000000000E+00  0.12092400498E+03  0.12092400501E+03  0.25500000920E-02 0.  1.
       -2   -1    0    0    0  501  0.00000000000E+00  0.00000000000E+00 -0.74351427567E+03  0.74351427567E+03  0.25500000920E-02 0. -1.
    10030    2    1    2    0    0  0.00000000000E+00  0.00000000000E+00 -0.62259027068E+03  0.86443828068E+03  0.59969566945E+03 0.  0.
        2    1    3    3  502    0  0.25212409622E+03 -0.12920723646E+03 -0.45287905818E+03  0.53419145556E+03  0.25500000920E-02 0.  1.
       -2    1    3    3    0  502 -0.25212409622E+03  0.12920723646E+03 -0.16971121251E+03  0.33024682512E+03  0.25500000920E-02 0. -1.
</event>
<event>
 5   0  0.5785798E-03  0.5970799E+03  0.7818609E-02  0.9911483E-01
       -1   -1    0    0    0  501  0.00000000000E+00  0.00000000000E+00  0.35994559031E+03  0.35994559034E+03  0.50400001928E-02 0. -1.
        1   -1    0    0  501    0  0.00000000000E+00  0.00000000000E+00 -0.24760992204E+03  0.24760992209E+03  0.50400001928E-02 0.  1.
    10030    2    1    2    0    0  0.00000000000E+00  0.00000000000E+00  0.11233566827E+03  0.60755551244E+03  0.59707989275E+03 0.  0.
        1    1    3    3  502    0  0.13190778891E+03 -0.18480455026E+03  0.25340809866E+03  0.34024704416E+03  0.50400001928E-02 0. -1.
       -1    1    3    3    0  502 -0.13190778891E+03  0.18480455026E+03 -0.14107243039E+03  0.26730846828E+03  0.50400001928E-02 0.  1.
</event>
<event>
 5   0  0.9571790E-03  0.6002500E+03  0.7818609E-02  0.9904887E-01
       -2   -1    0    0    0  501  0.00000000000E+00  0.00000000000E+00  0.15546411054E+03  0.15546411057E+03  0.25500000920E-02 0. -1.
        2   -1    0    0  501    0  0.00000000000E+00  0.00000000000E+00 -0.57939435027E+03  0.57939435028E+03  0.25500000920E-02 0.  1.
    10030    2    1    2    0    0  0.00000000000E+00  0.00000000000E+00 -0.42393023973E+03  0.73485846084E+03  0.60025003900E+03 0.  0.
        5    1    3    3  502    0  0.22405667718E+03  0.16505975647E+02 -0.45552426130E+03  0.50793531522E+03  0.46999998093E+01 0.  1.
       -5    1    3    3    0  502 -0.22405667718E+03 -0.16505975647E+02  0.31594021568E+02  0.22692314562E+03  0.46999998093E+01 0. -1.
</event>
<event>
 5   0  0.5503975E-03  0.6005385E+03  0.7818609E-02  0.9904289E-01
        1   -1    0    0  501    0  0.00000000000E+00  0.00000000000E+00  0.53154144833E+03  0.53154144835E+03  0.50400001928E-02 0.  1.
       -1   -1    0    0    0  501  0.00000000000E+00  0.00000000000E+00 -0.16962294595E+03  0.16962294602E+03  0.50400001928E-02 0. -1.
    10030    2    1    2    0    0  0.00000000000E+00  0.00000000000E+00  0.36191850238E+03  0.70116439437E+03  0.60053851298E+03 0.  0.
        4    1    3    3  502    0 -0.16262700510E+03 -0.21689029779E+03  0.33171043112E+03  0.42839510627E+03  0.12699999809E+01 0.  1.
       -4    1    3    3    0  502  0.16262700510E+03  0.21689029779E+03  0.30208071259E+02  0.27276928810E+03  0.12699999809E+01 0. -1.
</event>
<event>
 5   0  0.9530666E-03  0.6026065E+03  0.7818609E-02  0.9900013E-01
       -2   -1    0    0    0  501  0.00000000000E+00  0.00000000000E+00  0.34122582100E+03  0.34122582100E+03  0.25500000920E-02 0. -1.
        2   -1    0    0  501    0  0.00000000000E+00  0.00000000000E+00 -0.26605156258E+03  0.26605156259E+03  0.25500000920E-02 0.  1.
    10030    2    1    2    0    0  0.00000000000E+00  0.00000000000E+00  0.75174258413E+02  0.60727738360E+03  0.60260654784E+03 0.  0.
        2    1    3    3  502    0  0.24165100379E+03 -0.97055923640E+02  0.19031579254E+03  0.32254481990E+03  0.25500000920E-02 0. -1.
       -2    1    3    3    0  502 -0.24165100379E+03  0.97055923640E+02 -0.11514153413E+03  0.28473256370E+03  0.25500000920E-02 0.  1.
</event>
<event>
 5   0  0.5491236E-03  0.5996570E+03  0.7818609E-02  0.9906118E-01
        1   -1    0    0  501    0  0.00000000000E+00  0.00000000000E+00  0.93971555989E+03  0.93971555990E+03  0.50400001928E-02 0.  1.
       -1   -1    0    0    0  501  0.00000000000E+00  0.00000000000E+00 -0.95664198524E+02  0.95664198656E+02  0.50400001928E-02 0. -1.
    10030    2    1    2    0    0  0.00000000000E+00  0.00000000000E+00  0.84405136136E+03  0.10353797586E+04  0.59965702181E+03 0.  0.
        3    1    3    3  502    0  0.24320272990E+03  0.17103120398E+03  0.48885022552E+03  0.57216587959E+03  0.10100000352E+00 0.  1.
       -3    1    3    3    0  502 -0.24320272990E+03 -0.17103120398E+03  0.35520113584E+03  0.46321387897E+03  0.10100000352E+00 0. -1.
</event>
<event>
 5   0  0.5574736E-03  0.5996274E+03  0.7818609E-02  0.9906179E-01
        1   -1    0    0  501    0  0.00000000000E+00  0.00000000000E+00  0.14600687535E+04  0.14600687535E+04  0.50400001928E-02 0.  1.
       -1   -1    0    0    0  501  0.00000000000E+00  0.00000000000E+00 -0.61564390504E+02  0.61564390711E+02  0.50400001928E-02 0. -1.
    10030    2    1    2    0    0  0.00000000000E+00  0.00000000000E+00  0.13985043630E+04  0.15216331442E+04  0.59962736117E+03 0.  0.
        5    1    3    3  502    0 -0.97730621549E+02  0.26513560668E+03  0.95324345033E+03  0.99425516339E+03  0.46999998093E+01 0.  1.
       -5    1    3    3    0  502  0.97730621549E+02 -0.26513560668E+03  0.44526091263E+03  0.52737798080E+03  0.46999998093E+01 0. -1.
</event>
<event>
 5   0  0.5653633E-03  0.6009811E+03  0.7818609E-02  0.9903373E-01
        1   -1    0    0  501    0  0.00000000000E+00  0.00000000000E+00  0.95474869893E+03  0.95474869895E+03  0.50400001928E-02 0. -1.
       -1   -1    0    0    0  501  0.00000000000E+00  0.00000000000E+00 -0.94574167404E+02  0.94574167538E+02  0.50400001928E-02 0.  1.
    10030    2    1    2    0    0  0.00000000000E+00  0.00000000000E+00  0.86017453153E+03  0.10493228665E+04  0.60098107577E+03 0.  0.
        2    1    3    3  502    0 -0.12996712436E+03 -0.48922826591E+02 -0.35184906285E+02  0.14325806788E+03  0.25500000920E-02 0.  1.
       -2    1    3    3    0  502  0.12996712436E+03  0.48922826591E+02  0.89535943781E+03  0.90606479860E+03  0.25500000920E-02 0. -1.
</event>
<event>
 5   0  0.5574736E-03  0.5997269E+03  0.7818609E-02  0.9905973E-01
        1   -1    0    0  501    0  0.00000000000E+00  0.00000000000E+00  0.10368418803E+03  0.10368418815E+03  0.50400001928E-02 0. -1.
       -1   -1    0    0    0  501  0.00000000000E+00  0.00000000000E+00 -0.86723042714E+03  0.86723042715E+03  0.50400001928E-02 0.  1.
    10030    2    1    2    0    0  0.00000000000E+00  0.00000000000E+00 -0.76354623911E+03  0.97091461530E+03  0.59972688030E+03 0.  0.
        5    1    3    3  502    0 -0.19419004717E+03  0.19988357552E+03 -0.20271665303E+03  0.34464380104E+03  0.46999998093E+01 0. -1.
       -5    1    3    3    0  502  0.19419004717E+03 -0.19988357552E+03 -0.56082958608E+03  0.62627081427E+03  0.46999998093E+01 0.  1.
</event>
<event>
 5   0  0.9530666E-03  0.5989375E+03  0.7818609E-02  0.9907613E-01
        2   -1    0    0  501    0  0.00000000000E+00  0.00000000000E+00  0.90696067452E+03  0.90696067452E+03  0.25500000920E-02 0. -1.
       -2   -1    0    0    0  501  0.00000000000E+00  0.00000000000E+00 -0.98881374234E+02  0.98881374267E+02  0.25500000920E-02 0.  1.
    10030    2    1    2    0    0  0.00000000000E+00  0.00000000000E+00  0.80807930029E+03  0.10058420488E+04  0.59893745213E+03 0.  0.
        2    1    3    3  502    0 -0.28133047467E+02  0.29791781897E+03  0.38452540943E+03  0.48724355893E+03  0.25500000920E-02 0. -1.
       -2    1    3    3    0  502  0.28133047467E+02 -0.29791781897E+03  0.42355389086E+03  0.51859848986E+03  0.25500000920E-02 0.  1.
</event>
<event>
 5   0  0.9530666E-03  0.6002797E+03  0.7818609E-02  0.9904826E-01
        2   -1    0    0  501    0  0.00000000000E+00  0.00000000000E+00  0.98369511920E+03  0.98369511920E+03  0.25500000920E-02 0. -1.
       -2   -1    0    0    0  501  0.00000000000E+00  0.00000000000E+00 -0.91577087782E+02  0.91577087818E+02  0.25500000920E-02 0.  1.
    10030    2    1    2    0    0  0.00000000000E+00  0.00000000000E+00  0.89211803142E+03  0.10752722070E+04  0.60027971581E+03 0.  0.
        2    1    3    3  502    0  0.29520281430E+03 -0.47089324024E+02  0.49418523018E+03  0.57756484289E+03  0.25500000920E-02 0. -1.
       -2    1    3    3    0  502 -0.29520281430E+03  0.47089324024E+02  0.39793280124E+03  0.49770736413E+03  0.25500000920E-02 0.  1.
</event>
<event>
 5   0  0.5653633E-03  0.6002142E+03  0.7818609E-02  0.9904962E-01
        1   -1    0    0  501    0  0.00000000000E+00  0.00000000000E+00  0.48394480743E+03  0.48394480746E+03  0.50400001928E-02 0. -1.
       -1   -1    0    0    0  501  0.00000000000E+00  0.00000000000E+00 -0.18610444451E+03  0.18610444458E+03  0.50400001928E-02 0.  1.
    10030    2    1    2    0    0  0.00000000000E+00  0.00000000000E+00  0.29784036292E+03  0.67004925204E+03  0.60021422706E+03 0.  0.
        2    1    3    3  502    0  0.53799082500E+02 -0.28793689612E+03  0.76037970380E+02  0.30262810571E+03  0.25500000920E-02 0.  1.
       -2    1    3    3    0  502 -0.53799082500E+02  0.28793689612E+03  0.22180239254E+03  0.36742114632E+03  0.25500000920E-02 0. -1.
</event>
<event>
 5   0  0.9681801E-03  0.5967204E+03  0.7818609E-02  0.9912234E-01
       -2   -1    0    0    0  501  0.00000000000E+00  0.00000000000E+00  0.22612360947E+03  0.22612360949E+03  0.25500000920E-02 0. -1.
        2   -1    0    0  501    0  0.00000000000E+00  0.00000000000E+00 -0.39367317068E+03  0.39367317069E+03  0.25500000920E-02 0.  1.
    10030    2    1    2    0    0  0.00000000000E+00  0.00000000000E+00 -0.16754956121E+03  0.61979678018E+03  0.59672036437E+03 0.  0.
        4    1    3    3  502    0 -0.13036467392E+03  0.20907329971E+03  0.90989605665E+02  0.26265436241E+03  0.12699999809E+01 0. -1.
       -4    1    3    3    0  502  0.13036467392E+03 -0.20907329971E+03 -0.25853916688E+03  0.35714241776E+03  0.12699999809E+01 0.  1.
</event>
<event>
 5   0  0.5574736E-03  0.6004441E+03  0.7818609E-02  0.9904485E-01
        1   -1    0    0  501    0  0.00000000000E+00  0.00000000000E+00  0.49750089650E+03  0.49750089653E+03  0.50400001928E-02 0. -1.
       -1   -1    0    0    0  501  0.00000000000E+00  0.00000000000E+00 -0.18117208421E+03  0.18117208428E+03  0.50400001928E-02 0.  1.
    10030    2    1    2    0    0  0.00000000000E+00  0.00000000000E+00  0.31632881229E+03  0.67867298081E+03  0.60044408349E+03 0.  0.
        5    1    3    3  502    0 -0.17028104385E+03  0.24457490491E+03  0.11743230794E+03  0.32035129928E+03  0.46999998093E+01 0.  1.
       -5    1    3    3    0  502  0.17028104385E+03 -0.24457490491E+03  0.19889650435E+03  0.35832168152E+03  0.46999998093E+01 0. -1.
</event>
<event>
 5   0  0.5574736E-03  0.5971047E+03  0.7818609E-02  0.9911431E-01
        1   -1    0    0  501    0  0.00000000000E+00  0.00000000000E+00  0.23071341505E+03  0.23071341511E+03  0.50400001928E-02 0.  1.
       -1   -1    0    0    0  501  0.00000000000E+00  0.00000000000E+00 -0.38633865070E+03  0.38633865073E+03  0.50400001928E-02 0. -1.
    10030    2    1    2    0    0  0.00000000000E+00  0.00000000000E+00 -0.15562523565E+03  0.61705206584E+03  0.59710471275E+03 0.  0.
        5    1    3    3  502    0  0.18783416796E+03  0.27378110520E+02  0.16027539002E+03  0.24847842207E+03  0.46999998093E+01 0.  1.
       -5    1    3    3    0  502 -0.18783416796E+03 -0.27378110520E+02 -0.31590062567E+03  0.36857364377E+03  0.46999998093E+01 0. -1.
</event>
<event>
 5   0  0.5491236E-03  0.5995703E+03  0.7818609E-02  0.9906298E-01
       -1   -1    0    0    0  501  0.00000000000E+00  0.00000000000E+00  0.17953529026E+03  0.17953529033E+03  0.50400001928E-02 0. -1.
        1   -1    0    0  501    0  0.00000000000E+00  0.00000000000E+00 -0.50057649640E+03  0.50057649643E+03  0.50400001928E-02 0.  1.
    10030    2    1    2    0    0  0.00000000000E+00  0.00000000000E+00 -0.32104120614E+03  0.68011178676E+03  0.59957033486E+03 0.  0.
        3    1    3    3  502    0 -0.16827832564E+03 -0.10984505809E+03 -0.41286192945E+03  0.45917155254E+03  0.10100000352E+00 0.  1.
       -3    1    3    3    0  502  0.16827832564E+03  0.10984505809E+03  0.91820723311E+02  0.22094023422E+03  0.10100000352E+00 0. -1.
</event>
<event>
 5   0  0.9530666E-03  0.5998553E+03  0.7818609E-02  0.9905706E-01
        2   -1    0    0  501    0  0.00000000000E+00  0.00000000000E+00  0.48147794690E+03  0.48147794691E+03  0.25500000920E-02 0.  1.
       -2   -1    0    0    0  501  0.00000000000E+00  0.00000000000E+00 -0.18683428814E+03  0.18683428816E+03  0.25500000920E-02 0. -1.
    10030    2    1    2    0    0  0.00000000000E+00  0.00000000000E+00  0.29464365876E+03  0.66831223507E+03  0.59985528079E+03 0.  0.
        2    1    3    3  502    0  0.29742382999E+03 -0.34298387820E+02  0.12741437789E+03  0.32537937512E+03  0.25500000920E-02 0.  1.
       -2    1    3    3    0  502 -0.29742382999E+03  0.34298387820E+02  0.16722928086E+03  0.34293285995E+03  0.25500000920E-02 0. -1.
</event>
<event>
 5   0  0.5503975E-03  0.5994891E+03  0.7818609E-02  0.9906467E-01
        1   -1    0    0  501    0  0.00000000000E+00  0.00000000000E+00  0.74747003750E+03  0.74747003752E+03  0.50400001928E-02 0.  1.
       -1   -1    0    0    0  501  0.00000000000E+00  0.00000000000E+00 -0.12020119056E+03  0.12020119066E+03  0.50400001928E-02 0. -1.
    10030    2    1    2    0    0  0.00000000000E+00  0.00000000000E+00  0.62726884694E+03  0.86767122818E+03  0.59948907736E+03 0.  0.
        4    1    3    3  502    0 -0.12951417446E+03 -0.15896161144E+02  0.70420091792E+03  0.71618932903E+03  0.12699999809E+01 0.  1.
       -4    1    3    3    0  502  0.12951417446E+03  0.15896161144E+02 -0.76932070973E+02  0.15148189915E+03  0.12699999809E+01 0. -1.
</event>
<event>
 5   0  0.9530666E-03  0.6000384E+03  0.7818609E-02  0.9905326E-01
       -2   -1    0    0    0  501  0.00000000000E+00  0.00000000000E+00  0.79084618731E+02  0.79084618772E+02  0.25500000920E-02 0. -1.
        2   -1    0    0  501    0  0.00000000000E+00  0.00000000000E+00 -0.11381672839E+04  0.11381672839E+04  0.25500000920E-02 0.  1.
    10030    2    1    2    0    0  0.00000000000E+00  0.00000000000E+00 -0.10590826652E+04  0.12172519027E+04  0.60003841787E+03 0.  0.
        2    1    3    3  502    0  0.19801500888E+03 -0.64249191518E+01 -0.72491551656E+02  0.21096504070E+03  0.25500000920E-02 0.  1.
       -2    1    3    3    0  502 -0.19801500888E+03  0.64249191518E+01 -0.98659111355E+03  0.10062868620E+04  0.25500000920E-02 0. -1.
</event>
<event>
 5   0  0.9530666E-03  0.5994865E+03  0.7818609E-02  0.9906472E-01
        2   -1    0    0  501    0  0.00000000000E+00  0.00000000000E+00  0.75031579129E+03  0.75031579129E+03  0.25500000920E-02 0. -1.
       -2   -1    0    0    0  501  0.00000000000E+00  0.00000000000E+00 -0.11974425072E+03  0.11974425075E+03  0.25500000920E-02 0.  1.
    10030    2    1    2    0    0  0.00000000000E+00  0.00000000000E+00  0.63057154056E+03  0.87006004204E+03  0.59948645438E+03 0.  0.
        2    1    3    3  502    0  0.19441688550E+03 -0.16383237157E+03  0.84860186581E+02  0.26803026436E+03  0.25500000920E-02 0.  1.
       -2    1    3    3    0  502 -0.19441688550E+03  0.16383237157E+03  0.54571135398E+03  0.60202977768E+03  0.25500000920E-02 0. -1.
</event>
<event>
 5   0  0.5491236E-03  0.6008672E+03  0.7818609E-02  0.9903608E-01
       -1   -1    0    0    0  501  0.00000000000E+00  0.00000000000E+00  0.33967066143E+03  0.33967066147E+03  0.50400001928E-02 0. -1.
        1   -1    0    0  501    0  0.00000000000E+00  0.00000000000E+00 -0.26572902673E+03  0.26572902678E+03  0.50400001928E-02 0.  1.
    10030    2    1    2    0    0  0.00000000000E+00  0.00000000000E+00  0.73941634700E+02  0.60539968825E+03  0.60086722093E+03 0.  0.
        3    1    3    3  502    0  0.28202236258E+03  0.89531790750E+02  0.89399764223E+02  0.30910335261E+03  0.10100000352E+00 0.  1.
       -3    1    3    3    0  502 -0.28202236258E+03 -0.89531790750E+02 -0.15458129523E+02  0.29629633565E+03  0.10100000352E+00 0. -1.
</event>
<event>
 5   0  0.5785798E-03  0.6098121E+03  0.7818609E-02  0.9885256E-01
        1   -1    0    0  501    0  0.00000000000E+00  0.00000000000E+00  0.28675898683E+03  0.28675898688E+03  0.50400001928E-02 0.  1.
       -1   -1    0    0    0  501  0.00000000000E+00  0.00000000000E+00 -0.32420151952E+03  0.32420151956E+03  0.50400001928E-02 0. -1.
    10030    2    1    2    0    0  0.00000000000E+00  0.00000000000E+00 -0.37442532685E+02  0.61096050644E+03  0.60981209989E+03 0.  0.
        1    1    3    3  502    0  0.20771174661E+03  0.19435056136E+03 -0.12870682134E+03  0.31222068520E+03  0.50400001928E-02 0.  1.
       -1    1    3    3    0  502 -0.20771174661E+03 -0.19435056136E+03  0.91264288657E+02  0.29873982124E+03  0.50400001928E-02 0. -1.
</event>
<event>
 5   0  0.5491236E-03  0.5995307E+03  0.7818609E-02  0.9906380E-01
       -1   -1    0    0    0  501  0.00000000000E+00  0.00000000000E+00  0.54315084187E+02  0.54315084421E+02  0.50400001928E-02 0.  1.
        1   -1    0    0  501    0  0.00000000000E+00  0.00000000000E+00 -0.16544070987E+04  0.16544070987E+04  0.50400001928E-02 0. -1.
    10030    2    1    2    0    0  0.00000000000E+00  0.00000000000E+00 -0.16000920145E+04  0.17087221831E+04  0.59953068662E+03 0.  0.
        3    1    3    3  502    0 -0.17206316119E+03  0.93809979901E+02 -0.14465426371E+04  0.14597573959E+04  0.10100000352E+00 0. -1.
       -3    1    3    3    0  502  0.17206316119E+03 -0.93809979901E+02 -0.15354937740E+03  0.24896478721E+03  0.10100000352E+00 0.  1.
</event>
<event>
 5   0  0.5574736E-03  0.5999609E+03  0.7818609E-02  0.9905487E-01
       -1   -1    0    0    0  501  0.00000000000E+00  0.00000000000E+00  0.54470423729E+03  0.54470423731E+03  0.50400001928E-02 0. -1.
        1   -1    0    0  501    0  0.00000000000E+00  0.00000000000E+00 -0.16520572155E+03  0.16520572163E+03  0.50400001928E-02 0.  1.
    10030    2    1    2    0    0  0.00000000000E+00  0.00000000000E+00  0.37949851574E+03  0.70990995894E+03  0.59996085402E+03 0.  0.
        5    1    3    3  502    0 -0.71367412019E+02 -0.24230908299E+03 -0.16288747060E+01  0.25264944573E+03  0.46999998093E+01 0. -1.
       -5    1    3    3    0  502  0.71367412019E+02  0.24230908299E+03  0.38112739044E+03  0.45726051321E+03  0.46999998093E+01 0.  1.
</event>
<event>
 5   0  0.5503975E-03  0.5952673E+03  0.7818609E-02  0.9915274E-01
        1   -1    0    0  501    0  0.00000000000E+00  0.00000000000E+00  0.34775229343E+03  0.34775229346E+03  0.50400001928E-02 0. -1.
       -1   -1    0    0    0  501  0.00000000000E+00  0.00000000000E+00 -0.25473817246E+03  0.25473817251E+03  0.50400001928E-02 0.  1.
    10030    2    1    2    0    0  0.00000000000E+00  0.00000000000E+00  0.93014120963E+02  0.60249046597E+03  0.59526728021E+03 0.  0.
        4    1    3    3  502    0 -0.41699937395E+02  0.14595531673E+03  0.30562597199E+03  0.34124871709E+03  0.12699999809E+01 0. -1.
       -4    1    3    3    0  502  0.41699937395E+02 -0.14595531673E+03 -0.21261185103E+03  0.26124174888E+03  0.12699999809E+01 0.  1.
</event>
<event>
 5   0  0.5503975E-03  0.5997666E+03  0.7818609E-02  0.9905890E-01
       -1   -1    0    0    0  501  0.00000000000E+00  0.00000000000E+00  0.64209028332E+02  0.64209028530E+02  0.50400001928E-02 0.  1.
        1   -1    0    0  501    0  0.00000000000E+00  0.00000000000E+00 -0.14005819414E+04  0.14005819414E+04  0.50400001928E-02 0. -1.
    10030    2    1    2    0    0  0.00000000000E+00  0.00000000000E+00 -0.13363729131E+04  0.14647909699E+04  0.59976664032E+03 0.  0.
        4    1    3    3  502    0 -0.93273815896E+02  0.23454358226E+03 -0.27273733933E+03  0.37161534666E+03  0.12699999809E+01 0.  1.
       -4    1    3    3    0  502  0.93273815896E+02 -0.23454358226E+03 -0.10636355737E+04  0.10931756233E+04  0.12699999809E+01 0. -1.
</event>
<event>
 5   0  0.9866317E-03  0.6001482E+03  0.7818609E-02  0.9905099E-01
       -2   -1    0    0    0  501  0.00000000000E+00  0.00000000000E+00  0.76095703818E+02  0.76095703861E+02  0.25500000920E-02 0.  1.
        2   -1    0    0  501    0  0.00000000000E+00  0.00000000000E+00 -0.11833054887E+04  0.11833054887E+04  0.25500000920E-02 0. -1.
    10030    2    1    2    0    0  0.00000000000E+00  0.00000000000E+00 -0.11072097848E+04  0.12594011925E+04  0.60014819510E+03 0.  0.
        1    1    3    3  502    0  0.26917580040E+03  0.11351596412E+03 -0.69751526130E+03  0.75622022282E+03  0.50400001928E-02 0.  1.
       -1    1    3    3    0  502 -0.26917580040E+03 -0.11351596412E+03 -0.40969452355E+03  0.50318096971E+03  0.50400001928E-02 0. -1.
</event>
<event>
 5   0  0.9428629E-03  0.6017715E+03  0.7818609E-02  0.9901738E-01
        2   -1    0    0  501    0  0.00000000000E+00  0.00000000000E+00  0.24436408801E+03  0.24436408803E+03  0.25500000920E-02 0. -1.
       -2   -1    0    0    0  501  0.00000000000E+00  0.00000000000E+00 -0.37048095201E+03  0.37048095202E+03  0.25500000920E-02 0.  1.
    10030    2    1    2    0    0  0.00000000000E+00  0.00000000000E+00 -0.12611686400E+03  0.61484504005E+03  0.60177151801E+03 0.  0.
        3    1    3    3  502    0  0.17670489336E+03 -0.24351173109E+03 -0.59884950684E+02  0.30677157631E+03  0.10100000352E+00 0.  1.
       -3    1    3    3    0  502 -0.17670489336E+03  0.24351173109E+03 -0.66231913318E+02  0.30807346373E+03  0.10100000352E+00 0. -1.
</event>
<event>
 5   0  0.5574736E-03  0.6008984E+03  0.7818609E-02  0.9903544E-01
        1   -1    0    0  501    0  0.00000000000E+00  0.00000000000E+00  0.69154678840E+03  0.69154678842E+03  0.50400001928E-02 0. -1.
       -1   -1    0    0    0  501  0.00000000000E+00  0.00000000000E+00 -0.13053305326E+03  0.13053305336E+03  0.50400001928E-02 0.  1.
    10030    2    1    2    0    0  0.00000000000E+00  0.00000000000E+00  0.56101373514E+03  0.82207984178E+03  0.60089837348E+03 0.  0.
        5    1    3    3  502    0 -0.19136278829E+02  0.18372239076E+03  0.60462315648E+03  0.63222730515E+03  0.46999998093E+01 0. -1.
       -5    1    3    3    0  502  0.19136278829E+02 -0.18372239076E+03 -0.43609421342E+02  0.18985253662E+03  0.46999998093E+01 0.  1.
</event>
<event>
 5   0  0.9530666E-03  0.6069805E+03  0.7818609E-02  0.9891029E-01
        2   -1    0    0  501    0  0.00000000000E+00  0.00000000000E+00  0.17188641509E+04  0.17188641509E+04  0.25500000920E-02 0. -1.
       -2   -1    0    0    0  501  0.00000000000E+00  0.00000000000E+00 -0.53585582121E+02  0.53585582182E+02  0.25500000920E-02 0.  1.
    10030    2    1    2    0    0  0.00000000000E+00  0.00000000000E+00  0.16652785688E+04  0.17724497331E+04  0.60698051425E+03 0.  0.
        2    1    3    3  502    0  0.14052314931E+03 -0.14619090953E+03  0.14920140296E+04  0.15057305211E+04  0.25500000920E-02 0. -1.
       -2    1    3    3    0  502 -0.14052314931E+03  0.14619090953E+03  0.17326453920E+03  0.26671921204E+03  0.25500000920E-02 0.  1.
</event>
<event>
 5   0  0.9681801E-03  0.5989536E+03  0.7818609E-02  0.9907579E-01
       -2   -1    0    0    0  501  0.00000000000E+00  0.00000000000E+00  0.47342487418E+02  0.47342487487E+02  0.25500000920E-02 0. -1.
        2   -1    0    0  501    0  0.00000000000E+00  0.00000000000E+00 -0.18944155704E+04  0.18944155704E+04  0.25500000920E-02 0.  1.
    10030    2    1    2    0    0  0.00000000000E+00  0.00000000000E+00 -0.18470730830E+04  0.19417580579E+04  0.59895357208E+03 0.  0.
        4    1    3    3  502    0  0.27051161830E+03 -0.17346965465E+02 -0.51081511176E+03  0.57828292742E+03  0.12699999809E+01 0. -1.
       -4    1    3    3    0  502 -0.27051161830E+03  0.17346965465E+02 -0.13362579713E+04  0.13634751305E+04  0.12699999809E+01 0.  1.
</event>
<event>
 5   0  0.5503975E-03  0.5997863E+03  0.7818609E-02  0.9905849E-01
       -1   -1    0    0    0  501  0.00000000000E+00  0.00000000000E+00  0.22057947656E+03  0.22057947662E+03  0.50400001928E-02 0. -1.
        1   -1    0    0  501    0  0.00000000000E+00  0.00000000000E+00 -0.40772564773E+03  0.40772564777E+03  0.50400001928E-02 0.  1.
    10030    2    1    2    0    0  0.00000000000E+00  0.00000000000E+00 -0.18714617117E+03  0.62830512438E+03  0.59978632857E+03 0.  0.
        4    1    3    3  502    0  0.52303284825E+02 -0.29459453410E+03 -0.11485466616E+03  0.32049146692E+03  0.12699999809E+01 0. -1.
       -4    1    3    3    0  502 -0.52303284825E+02  0.29459453410E+03 -0.72291505011E+02  0.30781365747E+03  0.12699999809E+01 0.  1.
</event>
<event>
 5   0  0.9571790E-03  0.5993198E+03  0.7818609E-02  0.9906818E-01
        2   -1    0    0  501    0  0.00000000000E+00  0.00000000000E+00  0.80416634231E+03  0.80416634232E+03  0.25500000920E-02 0. -1.
       -2   -1    0    0    0  501  0.00000000000E+00  0.00000000000E+00 -0.11166354677E+03  0.11166354680E+03  0.25500000920E-02 0.  1.
    10030    2    1    2    0    0  0.00000000000E+00  0.00000000000E+00  0.69250279554E+03  0.91582988911E+03  0.59931983445E+03 0.  0.
        5    1    3    3  502    0  0.29686219928E+03 -0.18522811451E+02  0.40142707521E+03  0.49963591406E+03  0.46999998093E+01 0.  1.
       -5    1    3    3    0  502 -0.29686219928E+03  0.18522811451E+02  0.29107572033E+03  0.41619397505E+03  0.46999998093E+01 0. -1.
</event>
<event>
 5   0  0.9428629E-03  0.6004860E+03  0.7818609E-02  0.9904398E-01
        2   -1    0    0  501    0  0.00000000000E+00  0.00000000000E+00  0.10730340171E+04  0.10730340171E+04  0.25500000920E-02 0.  1.
       -2   -1    0    0    0  501  0.00000000000E+00  0.00000000000E+00 -0.84010257497E+02  0.84010257536E+02  0.25500000920E-02 0. -1.
    10030    2    1    2    0    0  0.00000000000E+00  0.00000000000E+00  0.98902375964E+03  0.11570442747E+04  0.60048601685E+03 0.  0.
        3    1    3    3  502    0  0.26121491195E+03  0.83196863551E+02  0.73042984478E+03  0.78018120759E+03  0.10100000352E+00 0.  1.
       -3    1    3    3    0  502 -0.26121491195E+03 -0.83196863551E+02  0.25859391486E+03  0.37686306708E+03  0.10100000352E+00 0. -1.
</event>
<event>
 5   0  0.5503975E-03  0.5994387E+03  0.7818609E-02  0.9906571E-01
        1   -1    0    0  501    0  0.00000000000E+00  0.00000000000E+00  0.98485644237E+03  0.98485644238E+03  0.50400001928E-02 0. -1.
       -1   -1    0    0    0  501  0.00000000000E+00  0.00000000000E+00 -0.91212983840E+02  0.91212983979E+02  0.50400001928E-02 0.  1.
    10030    2    1    2    0    0  0.00000000000E+00  0.00000000000E+00  0.89364345853E+03  0.10760694264E+04  0.59943872028E+03 0.  0.
        4    1    3    3  502    0  0.15593525466E+03 -0.25580236340E+03  0.43082299832E+03  0.52474824587E+03  0.12699999809E+01 0. -1.
       -4    1    3    3    0  502 -0.15593525466E+03  0.25580236340E+03  0.46282046021E+03  0.55132118049E+03  0.12699999809E+01 0.  1.
</event>
<event>
 5   0  0.3794375E-03  0.6009039E+03  0.7818609E-02  0.9903533E-01
       -3   -1    0    0    0  501  0.00000000000E+00  0.00000000000E+00  0.65205225620E+02  0.65205303842E+02  0.10100000352E+00 0. -1.
        3   -1    0    0  501    0  0.00000000000E+00  0.00000000000E+00 -0.13844183943E+04  0.13844183980E+04  0.10100000352E+00 0.  1.
    10030    2    1    2    0    0  0.00000000000E+00  0.00000000000E+00 -0.13192131687E+04  0.14496237018E+04  0.60090389621E+03 0.  0.
        4    1    3    3  502    0  0.15125485467E+03  0.73538959166E+02 -0.12602119216E+04  0.12713857440E+04  0.12699999809E+01 0.  1.
       -4    1    3    3    0  502 -0.15125485467E+03 -0.73538959166E+02 -0.59001247040E+02  0.17823795788E+03  0.12699999809E+01 0. -1.
</event>
<event>
 5   0  0.5785798E-03  0.6002545E+03  0.7818609E-02  0.9904878E-01
        1   -1    0    0  501    0  0.00000000000E+00  0.00000000000E+00  0.32576980901E+03  0.32576980905E+03  0.50400001928E-02 0.  1.
       -1   -1    0    0    0  501  0.00000000000E+00  0.00000000000E+00 -0.27650313648E+03  0.27650313652E+03  0.50400001928E-02 0. -1.
    10030    2    1    2    0    0  0.00000000000E+00  0.00000000000E+00  0.49266672531E+02  0.60227294557E+03  0.60025452597E+03 0.  0.
        1    1    3    3  502    0  0.57376867046E+02  0.21103521576E+03  0.23086867275E+03  0.31800677862E+03  0.50400001928E-02 0.  1.
       -1    1    3    3    0  502 -0.57376867046E+02 -0.21103521576E+03 -0.18160200022E+03  0.28426616695E+03  0.50400001928E-02 0. -1.
</event>
<event>
 5   0  0.9681801E-03  0.5986227E+03  0.7818609E-02  0.9908268E-01
        2   -1    0    0  501    0  0.00000000000E+00  0.00000000000E+00  0.91899664438E+03  0.91899664438E+03  0.25500000920E-02 0.  1.
       -2   -1    0    0    0  501  0.00000000000E+00  0.00000000000E+00 -0.97483808907E+02  0.97483808941E+02  0.25500000920E-02 0. -1.
    10030    2    1    2    0    0  0.00000000000E+00  0.00000000000E+00  0.82151283547E+03  0.10164804533E+04  0.59862273023E+03 0.  0.
        4    1    3    3  502    0 -0.19975168942E+03  0.22256217699E+03  0.43162358703E+03  0.52510493602E+03  0.12699999809E+01 0. -1.
       -4    1    3    3    0  502  0.19975168942E+03 -0.22256217699E+03  0.38988924844E+03  0.49137551730E+03  0.12699999809E+01 0.  1.
</event>
<event>
 5   0  0.9428629E-03  0.5988994E+03  0.7818609E-02  0.9907692E-01
        2   -1    0    0  501    0  0.00000000000E+00  0.00000000000E+00  0.10236241148E+04  0.10236241148E+04  0.25500000920E-02 0.  1.
       -2   -1    0    0    0  501  0.00000000000E+00  0.00000000000E+00 -0.87600636371E+02  0.87600636408E+02  0.25500000920E-02 0. -1.
    10030    2    1    2    0    0  0.00000000000E+00  0.00000000000E+00  0.93602347842E+03  0.11112247512E+04  0.59889940352E+03 0.  0.
        3    1    3    3  502    0 -0.10053820199E+01 -0.26685052826E+03  0.72010583802E+03  0.76796005325E+03  0.10100000352E+00 0.  1.
       -3    1    3    3    0  502  0.10053820199E+01  0.26685052826E+03  0.21591764040E+03  0.34326469796E+03  0.10100000352E+00 0. -1.
</event>
<event>
 5   0  0.9530666E-03  0.5981392E+03  0.7818609E-02  0.9909274E-01
        2   -1    0    0  501    0  0.00000000000E+00  0.00000000000E+00  0.10170406071E+04  0.10170406071E+04  0.25500000920E-02 0. -1.
       -2   -1    0    0    0  501  0.00000000000E+00  0.00000000000E+00 -0.87944018032E+02  0.87944018069E+02  0.25500000920E-02 0.  1.
    10030    2    1    2    0    0  0.00000000000E+00  0.00000000000E+00  0.92909658911E+03  0.11049846252E+04  0.59813923970E+03 0.  0.
        2    1    3    3  502    0 -0.17734666875E+03  0.22412776451E+03  0.30183763622E+03  0.41568143377E+03  0.25500000920E-02 0. -1.
       -2    1    3    3    0  502  0.17734666875E+03 -0.22412776451E+03  0.62725895289E+03  0.68930319144E+03  0.25500000920E-02 0.  1.
</event>
<event>
 5   0  0.9530666E-03  0.5963085E+03  0.7818609E-02  0.9913095E-01
       -2   -1    0    0    0  501  0.00000000000E+00  0.00000000000E+00  0.89257050783E+02  0.89257050819E+02  0.25500000920E-02 0. -1.
        2   -1    0    0  501    0  0.00000000000E+00  0.00000000000E+00 -0.99595429573E+03  0.99595429573E+03  0.25500000920E-02 0.  1.
    10030    2    1    2    0    0  0.00000000000E+00  0.00000000000E+00 -0.90669724494E+03  0.10852113465E+04  0.59630845432E+03 0.  0.
        2    1    3    3  502    0 -0.72955902288E+02  0.10775838184E+03  0.34846566217E+02  0.13471716936E+03  0.25500000920E-02 0. -1.
       -2    1    3    3    0  502  0.72955902288E+02 -0.10775838184E+03 -0.94154381116E+03  0.95049417719E+03  0.25500000920E-02 0.  1.
</event>
<event>
 5   0  0.9681801E-03  0.6011120E+03  0.7818609E-02  0.9903102E-01
        2   -1    0    0  501    0  0.00000000000E+00  0.00000000000E+00  0.12809387936E+04  0.12809387937E+04  0.25500000920E-02 0.  1.
       -2   -1    0    0    0  501  0.00000000000E+00  0.00000000000E+00 -0.70521653004E+02  0.70521653050E+02  0.25500000920E-02 0. -1.
    10030    2    1    2    0    0  0.00000000000E+00  0.00000000000E+00  0.12104171406E+04  0.13514604467E+04  0.60111204000E+03 0.  0.
        4    1    3    3  502    0 -0.20945338720E+03  0.16833695792E+03  0.90788458027E+03  0.94681786887E+03  0.12699999809E+01 0.  1.
       -4    1    3    3    0  502  0.20945338720E+03 -0.16833695792E+03  0.30253256037E+03  0.40464257783E+03  0.12699999809E+01 0. -1.
</event>
<event>
 5   0  0.9571790E-03  0.5911692E+03  0.7818609E-02  0.9923898E-01
       -2   -1    0    0    0  501  0.00000000000E+00  0.00000000000E+00  0.36300338612E+03  0.36300338613E+03  0.25500000920E-02 0.  1.
        2   -1    0    0  501    0  0.00000000000E+00  0.00000000000E+00 -0.24068718864E+03  0.24068718865E+03  0.25500000920E-02 0. -1.
    10030    2    1    2    0    0  0.00000000000E+00  0.00000000000E+00  0.12231619748E+03  0.60369057478E+03  0.59116922951E+03 0.  0.
        5    1    3    3  502    0 -0.18489434736E+03  0.16850675037E+03  0.22186912552E+03  0.33440760078E+03  0.46999998093E+01 0.  1.
       -5    1    3    3    0  502  0.18489434736E+03 -0.16850675037E+03 -0.99552928044E+02  0.26928297400E+03  0.46999998093E+01 0. -1.
</event>
<event>
 5   0  0.9571790E-03  0.5988516E+03  0.7818609E-02  0.9907792E-01
        2   -1    0    0  501    0  0.00000000000E+00  0.00000000000E+00  0.12526000749E+04  0.12526000749E+04  0.25500000920E-02 0.  1.
       -2   -1    0    0    0  501  0.00000000000E+00  0.00000000000E+00 -0.71575763871E+02  0.71575763916E+02  0.25500000920E-02 0. -1.
    10030    2    1    2    0    0  0.00000000000E+00  0.00000000000E+00  0.11810243110E+04  0.13241758388E+04  0.59885159169E+03 0.  0.
        5    1    3    3  502    0  0.29513471798E+03  0.24450113608E+02  0.49333517569E+03  0.57541636698E+03  0.46999998093E+01 0. -1.
       -5    1    3    3    0  502 -0.29513471798E+03 -0.24450113608E+02  0.68768913534E+03  0.74875947185E+03  0.46999998093E+01 0.  1.
</event>
<event>
 5   0  0.9428629E-03  0.5998830E+03  0.7818609E-02  0.9905649E-01
        2   -1    0    0  501    0  0.00000000000E+00  0.00000000000E+00  0.14813204226E+04  0.14813204226E+04  0.25500000920E-02 0. -1.
       -2   -1    0    0    0  501  0.00000000000E+00  0.00000000000E+00 -0.60732906605E+02  0.60732906658E+02  0.25500000920E-02 0.  1.
    10030    2    1    2    0    0  0.00000000000E+00  0.00000000000E+00  0.14205875160E+04  0.15420533292E+04  0.59988297165E+03 0.  0.
        3    1    3    3  502    0 -0.29430628345E+02 -0.11194525990E+03  0.14215950910E+04  0.14262995885E+04  0.10100000352E+00 0. -1.
       -3    1    3    3    0  502  0.29430628345E+02  0.11194525990E+03 -0.10075750133E+01  0.11575374079E+03  0.10100000352E+00 0.  1.
</event>
<event>
 5   0  0.5503975E-03  0.6001440E+03  0.7818609E-02  0.9905107E-01
       -1   -1    0    0    0  501  0.00000000000E+00  0.00000000000E+00  0.31600427309E+03  0.31600427313E+03  0.50400001928E-02 0.  1.
        1   -1    0    0  501    0  0.00000000000E+00  0.00000000000E+00 -0.28494295356E+03  0.28494295360E+03  0.50400001928E-02 0. -1.
    10030    2    1    2    0    0  0.00000000000E+00  0.00000000000E+00  0.31061319528E+02  0.60094722673E+03  0.60014395252E+03 0.  0.
        4    1    3    3  502    0 -0.12830299582E+03 -0.26818572872E+03  0.56283219021E+02  0.30258000176E+03  0.12699999809E+01 0. -1.
       -4    1    3    3    0  502  0.12830299582E+03  0.26818572872E+03 -0.25221899493E+02  0.29836722497E+03  0.12699999809E+01 0.  1.
</event>
<event>
 5   0  0.5785798E-03  0.5986256E+03  0.7818609E-02  0.9908262E-01
       -1   -1    0    0    0  501  0.00000000000E+00  0.00000000000E+00  0.10638639987E+04  0.10638639987E+04  0.50400001928E-02 0.  1.
        1   -1    0    0  501    0  0.00000000000E+00  0.00000000000E+00 -0.84210163787E+02  0.84210163938E+02  0.50400001928E-02 0. -1.
    10030    2    1    2    0    0  0.00000000000E+00  0.00000000000E+00  0.97965383487E+03  0.11480741626E+04  0.59862563148E+03 0.  0.
        1    1    3    3  502    0  0.16656696351E+03 -0.19111412631E+03  0.18465968352E+03  0.31363730860E+03  0.50400001928E-02 0. -1.
       -1    1    3    3    0  502 -0.16656696351E+03  0.19111412631E+03  0.79499415135E+03  0.83443685400E+03  0.50400001928E-02 0.  1.
</event>
<event>
 5   0  0.9530666E-03  0.5995895E+03  0.7818609E-02  0.9906258E-01
       -2   -1    0    0    0  501  0.00000000000E+00  0.00000000000E+00  0.56570199219E+03  0.56570199220E+03  0.25500000920E-02 0. -1.
        2   -1    0    0  501    0  0.00000000000E+00  0.00000000000E+00 -0.15887674127E+03  0.15887674130E+03  0.25500000920E-02 0.  1.
    10030    2    1    2    0    0  0.00000000000E+00  0.00000000000E+00  0.40682525092E+03  0.72457873349E+03  0.59958948977E+03 0.  0.
        2    1    3    3  502    0 -0.10163881758E+03  0.22339512825E+03  0.41146774716E+03  0.47910493582E+03  0.25500000920E-02 0. -1.
       -2    1    3    3    0  502  0.10163881758E+03 -0.22339512825E+03 -0.46424962404E+01  0.24547379768E+03  0.25500000920E-02 0.  1.
</event>
<event>
 5   0  0.9681801E-03  0.5997460E+03  0.7818609E-02  0.9905933E-01
       -2   -1    0    0    0  501  0.00000000000E+00  0.00000000000E+00  0.10831241099E+03  0.10831241102E+03  0.25500000920E-02 0.  1.
        2   -1    0    0  501    0  0.00000000000E+00  0.00000000000E+00 -0.83022623798E+03  0.83022623798E+03  0.25500000920E-02 0. -1.
    10030    2    1    2    0    0  0.00000000000E+00  0.00000000000E+00 -0.72191382699E+03  0.93853864901E+03  0.59974596463E+03 0.  0.
        4    1    3    3  502    0 -0.11870447602E+02  0.45182653561E+02 -0.82449260427E+03  0.82581598865E+03  0.12699999809E+01 0. -1.
       -4    1    3    3    0  502  0.11870447602E+02 -0.45182653561E+02  0.10257877729E+03  0.11272266036E+03  0.12699999809E+01 0.  1.
</event>
<event>
 5   0  0.5574736E-03  0.6000612E+03  0.7818609E-02  0.9905279E-01
       -1   -1    0    0    0  501  0.00000000000E+00  0.00000000000E+00  0.24004600410E+03  0.24004600416E+03  0.50400001928E-02 0.  1.
        1   -1    0    0  501    0  0.00000000000E+00  0.00000000000E+00 -0.37500464557E+03  0.37500464560E+03  0.50400001928E-02 0. -1.
    10030    2    1    2    0    0  0.00000000000E+00  0.00000000000E+00 -0.13495864147E+03  0.61505064976E+03  0.60006121926E+03 0.  0.
        5    1    3    3  502    0 -0.48614870530E+02  0.29482896197E+03 -0.94766784032E+02  0.31351292765E+03  0.46999998093E+01 0. -1.
       -5    1    3    3    0  502  0.48614870530E+02 -0.29482896197E+03 -0.40191857434E+02  0.30153772211E+03  0.46999998093E+01 0.  1.
</event>
<event>
 5   0  0.5574736E-03  0.6009081E+03  0.7818609E-02  0.9903524E-01
       -1   -1    0    0    0  501  0.00000000000E+00  0.00000000000E+00  0.23379796888E+03  0.23379796893E+03  0.50400001928E-02 0. -1.
        1   -1    0    0  501    0  0.00000000000E+00  0.00000000000E+00 -0.38611381942E+03  0.38611381945E+03  0.50400001928E-02 0.  1.
    10030    2    1    2    0    0  0.00000000000E+00  0.00000000000E+00 -0.15231585054E+03  0.61991178838E+03  0.60090806872E+03 0.  0.
        5    1    3    3  502    0 -0.27403699971E+03  0.24290233666E+02 -0.20065691697E+03  0.34054600422E+03  0.46999998093E+01 0.  1.
       -5    1    3    3    0  502  0.27403699971E+03 -0.24290233666E+02  0.48341066433E+02  0.27936578417E+03  0.46999998093E+01 0. -1.
</event>
<event>
 5   0  0.9866317E-03  0.6040439E+03  0.7818609E-02  0.9897052E-01
        2   -1    0    0  501    0  0.00000000000E+00  0.00000000000E+00  0.98264544575E+03  0.98264544575E+03  0.25500000920E-02 0. -1.
       -2   -1    0    0    0  501  0.00000000000E+00  0.00000000000E+00 -0.92828254743E+02  0.92828254778E+02  0.25500000920E-02 0.  1.
    10030    2    1    2    0    0  0.00000000000E+00  0.00000000000E+00  0.88981719101E+03  0.10754737005E+04  0.60404391159E+03 0.  0.
        1    1    3    3  502    0 -0.69471989171E+02 -0.29003963750E+03  0.52969856780E+03  0.60788972796E+03  0.50400001928E-02 0.  1.
       -1    1    3    3    0  502  0.69471989171E+02  0.29003963750E+03  0.36011862320E+03  0.46758397257E+03  0.50400001928E-02 0. -1.
</event>
<event>
 5   0  0.3794375E-03  0.6000990E+03  0.7818609E-02  0.9905201E-01
       -3   -1    0    0    0  501  0.00000000000E+00  0.00000000000E+00  0.46609089845E+03  0.46609090940E+03  0.10100000352E+00 0.  1.
        3   -1    0    0  501    0  0.00000000000E+00  0.00000000000E+00 -0.19315909886E+03  0.19315912526E+03  0.10100000352E+00 0. -1.
    10030    2    1    2    0    0  0.00000000000E+00  0.00000000000E+00  0.27293179960E+03  0.65925003466E+03  0.60009902597E+03 0.  0.
        5    1    3    3  502    0 -0.28911812205E+03  0.77248748861E+02  0.15979497248E+03  0.33928333429E+03  0.46999998093E+01 0.  1.
       -5    1    3    3    0  502  0.28911812205E+03 -0.77248748861E+02  0.11313682712E+03  0.31996670037E+03  0.46999998093E+01 0. -1.
</event>
<event>
 5   0  0.5574736E-03  0.5994244E+03  0.7818609E-02  0.9906601E-01
        1   -1    0    0  501    0  0.00000000000E+00  0.00000000000E+00  0.92860842287E+03  0.92860842288E+03  0.50400001928E-02 0. -1.
       -1   -1    0    0    0  501  0.00000000000E+00  0.00000000000E+00 -0.96733355294E+02  0.96733355426E+02  0.50400001928E-02 0.  1.
    10030    2    1    2    0    0  0.00000000000E+00  0.00000000000E+00  0.83187506757E+03  0.10253417783E+04  0.59942441917E+03 0.  0.
        5    1    3    3  502    0 -0.60108707040E+02 -0.26268053201E+03  0.64021586651E+03  0.69463124338E+03  0.46999998093E+01 0. -1.
       -5    1    3    3    0  502  0.60108707040E+02  0.26268053201E+03  0.19165920107E+03  0.33071053492E+03  0.46999998093E+01 0.  1.
</event>
<event>
 5   0  0.5503975E-03  0.6006157E+03  0.7818609E-02  0.9904130E-01
        1   -1    0    0  501    0  0.00000000000E+00  0.00000000000E+00  0.98762456023E+03  0.98762456024E+03  0.50400001928E-02 0.  1.
       -1   -1    0    0    0  501  0.00000000000E+00  0.00000000000E+00 -0.91314851216E+02  0.91314851355E+02  0.50400001928E-02 0. -1.
    10030    2    1    2    0    0  0.00000000000E+00  0.00000000000E+00  0.89630970901E+03  0.10789394116E+04  0.60061565034E+03 0.  0.
        4    1    3    3  502    0  0.27044083589E+02  0.28323700452E+03  0.27558371072E+03  0.39610930020E+03  0.12699999809E+01 0. -1.
       -4    1    3    3    0  502 -0.27044083589E+02 -0.28323700452E+03  0.62072599829E+03  0.68283011140E+03  0.12699999809E+01 0.  1.
</event>
<event>
 5   0  0.5503975E-03  0.6016053E+03  0.7818609E-02  0.9902081E-01
       -1   -1    0    0    0  501  0.00000000000E+00  0.00000000000E+00  0.28256631101E+03  0.28256631106E+03  0.50400001928E-02 0. -1.
        1   -1    0    0  501    0  0.00000000000E+00  0.00000000000E+00 -0.32021590337E+03  0.32021590341E+03  0.50400001928E-02 0.  1.
    10030    2    1    2    0    0  0.00000000000E+00  0.00000000000E+00 -0.37649592357E+02  0.60278221447E+03  0.60160527447E+03 0.  0.
        4    1    3    3  502    0 -0.24551689580E+03 -0.16045854293E+03 -0.85702086819E+02  0.30556824231E+03  0.12699999809E+01 0. -1.
       -4    1    3    3    0  502  0.24551689580E+03  0.16045854293E+03  0.48052494462E+02  0.29721397216E+03  0.12699999809E+01 0.  1.
</event>
<event>
 5   0  0.5785798E-03  0.6003466E+03  0.7818609E-02  0.9904687E-01
        1   -1    0    0  501    0  0.00000000000E+00  0.00000000000E+00  0.30713557564E+03  0.30713557568E+03  0.50400001928E-02 0. -1.
       -1   -1    0    0    0  501  0.00000000000E+00  0.00000000000E+00 -0.29336880261E+03  0.29336880265E+03  0.50400001928E-02 0.  1.
    10030    2    1    2    0    0  0.00000000000E+00  0.00000000000E+00  0.13766773030E+02  0.60050437833E+03  0.60034655355E+03 0.  0.
        1    1    3    3  502    0  0.22519215939E+03 -0.18512534726E+03 -0.64697240298E+02  0.29861117825E+03  0.50400001928E-02 0.  1.
       -1    1    3    3    0  502 -0.22519215939E+03  0.18512534726E+03  0.78464013329E+02  0.30189320009E+03  0.50400001928E-02 0. -1.
</event>
<event>
 5   0  0.5785798E-03  0.5998847E+03  0.7818609E-02  0.9905645E-01
       -1   -1    0    0    0  501  0.00000000000E+00  0.00000000000E+00  0.61119597402E+03  0.61119597404E+03  0.50400001928E-02 0.  1.
        1   -1    0    0  501    0  0.00000000000E+00  0.00000000000E+00 -0.14719569959E+03  0.14719569968E+03  0.50400001928E-02 0. -1.
    10030    2    1    2    0    0  0.00000000000E+00  0.00000000000E+00  0.46400027443E+03  0.75839167372E+03  0.59988471900E+03 0.  0.
        1    1    3    3  502    0 -0.21178573067E+03 -0.96141998427E+02  0.47143369833E+03  0.52568641939E+03  0.50400001928E-02 0.  1.
       -1    1    3    3    0  502  0.21178573067E+03  0.96141998427E+02 -0.74334239022E+01  0.23270525433E+03  0.50400001928E-02 0. -1.
</event>
<event>
 5   0  0.3794375E-03  0.6022816E+03  0.7818609E-02  0.9900684E-01
        4   -1    0    0  501    0  0.00000000000E+00  0.00000000000E+00  0.47550869660E+03  0.47551039257E+03  0.12699999809E+01 0.  1.
       -4   -1    0    0    0  501  0.00000000000E+00  0.00000000000E+00 -0.19070906005E+03  0.19071328870E+03  0.12699999809E+01 0. -1.
    10030    2    1    2    0    0  0.00000000000E+00  0.00000000000E+00  0.28479963655E+03  0.66622368127E+03  0.60228162890E+03 0.  0.
        3    1    3    3  502    0 -0.79546057302E+02 -0.14028952087E+03 -0.13891691649E+03  0.21285357593E+03  0.10100000352E+00 0. -1.
       -3    1    3    3    0  502  0.79546057302E+02  0.14028952087E+03  0.42371655304E+03  0.45337010534E+03  0.10100000352E+00 0.  1.
</event>
<event>
 5   0  0.5574736E-03  0.5965239E+03  0.7818609E-02  0.9912644E-01
       -1   -1    0    0    0  501  0.00000000000E+00  0.00000000000E+00  0.27649664474E+03  0.27649664479E+03  0.50400001928E-02 0. -1.
        1   -1    0    0  501    0  0.00000000000E+00  0.00000000000E+00 -0.32174060398E+03  0.32174060402E+03  0.50400001928E-02 0.  1.
    10030    2    1    2    0    0  0.00000000000E+00  0.00000000000E+00 -0.45243959238E+02  0.59823724881E+03  0.59652392242E+03 0.  0.
        5    1    3    3  502    0 -0.49481233285E+02 -0.21188746751E+02  0.27154754902E+03  0.27687093891E+03  0.46999998093E+01 0. -1.
       -5    1    3    3    0  502  0.49481233285E+02  0.21188746751E+02 -0.31679150826E+03  0.32136630990E+03  0.46999998093E+01 0.  1.
</event>
<event>
 5   0  0.9428629E-03  0.6001104E+03  0.7818609E-02  0.9905177E-01
       -2   -1    0    0    0  501  0.00000000000E+00  0.00000000000E+00  0.96658830057E+02  0.96658830090E+02  0.25500000920E-02 0.  1.
        2   -1    0    0  501    0  0.00000000000E+00  0.00000000000E+00 -0.93145265415E+03  0.93145265415E+03  0.25500000920E-02 0. -1.
    10030    2    1    2    0    0  0.00000000000E+00  0.00000000000E+00 -0.83479382409E+03  0.10281114842E+04  0.60011040258E+03 0.  0.
        3    1    3    3  502    0 -0.38874837176E+02 -0.47979917080E+02  0.85654683872E+02  0.10559384678E+03  0.10100000352E+00 0.  1.
       -3    1    3    3    0  502  0.38874837176E+02  0.47979917080E+02 -0.92044850797E+03  0.92251763746E+03  0.10100000352E+00 0. -1.
</event>
<event>
 5   0  0.5491236E-03  0.6000425E+03  0.7818609E-02  0.9905318E-01
        1   -1    0    0  501    0  0.00000000000E+00  0.00000000000E+00  0.53857634141E+03  0.53857634143E+03  0.50400001928E-02 0.  1.
       -1   -1    0    0    0  501  0.00000000000E+00  0.00000000000E+00 -0.16713088000E+03  0.16713088008E+03  0.50400001928E-02 0. -1.
    10030    2    1    2    0    0  0.00000000000E+00  0.00000000000E+00  0.37144546140E+03  0.70570722151E+03  0.60004245824E+03 0.  0.
        3    1    3    3  502    0  0.12344840895E+03  0.24837795137E+02 -0.13454752916E+03  0.18428096360E+03  0.10100000352E+00 0. -1.
       -3    1    3    3    0  502 -0.12344840895E+03 -0.24837795137E+02  0.50599299057E+03  0.52142625791E+03  0.10100000352E+00 0.  1.
</event>
<event>
 5   0  0.3794375E-03  0.6002132E+03  0.7818609E-02  0.9904964E-01
        3   -1    0    0  501    0  0.00000000000E+00  0.00000000000E+00  0.23162872359E+03  0.23162874561E+03  0.10100000352E+00 0.  1.
       -3   -1    0    0    0  501  0.00000000000E+00  0.00000000000E+00 -0.38882902977E+03  0.38882904289E+03  0.10100000352E+00 0. -1.
    10030    2    1    2    0    0  0.00000000000E+00  0.00000000000E+00 -0.15720030618E+03  0.62045778850E+03  0.60021323798E+03 0.  0.
        1    1    3    3  502    0 -0.68134385501E+02  0.28779341016E+03 -0.13127613652E+03  0.32357497657E+03  0.50400001928E-02 0. -1.
       -1    1    3    3    0  502  0.68134385501E+02 -0.28779341016E+03 -0.25924169658E+02  0.29688281192E+03  0.50400001928E-02 0.  1.
</event>
<event>
 5   0  0.5653633E-03  0.5999844E+03  0.7818609E-02  0.9905438E-01
       -1   -1    0    0    0  501  0.00000000000E+00  0.00000000000E+00  0.56817216161E+03  0.56817216163E+03  0.50400001928E-02 0. -1.
        1   -1    0    0  501    0  0.00000000000E+00  0.00000000000E+00 -0.15839445840E+03  0.15839445848E+03  0.50400001928E-02 0.  1.
    10030    2    1    2    0    0  0.00000000000E+00  0.00000000000E+00  0.40977770321E+03  0.72656662012E+03  0.59998440598E+03 0.  0.
        2    1    3    3  502    0  0.25538375509E+03  0.84421944543E+02  0.44018585896E+02  0.27255378000E+03  0.25500000920E-02 0.  1.
       -2    1    3    3    0  502 -0.25538375509E+03 -0.84421944543E+02  0.36575911731E+03  0.45401284011E+03  0.25500000920E-02 0. -1.
</event>
<event>
 5   0  0.9571790E-03  0.5997694E+03  0.7818609E-02  0.9905885E-01
       -2   -1    0    0    0  501  0.00000000000E+00  0.00000000000E+00  0.27765369646E+03  0.27765369647E+03  0.25500000920E-02 0.  1.
        2   -1    0    0  501    0  0.00000000000E+00  0.00000000000E+00 -0.32389572253E+03  0.32389572254E+03  0.25500000920E-02 0. -1.
    10030    2    1    2    0    0  0.00000000000E+00  0.00000000000E+00 -0.46242026071E+02  0.60154941901E+03  0.59976943781E+03 0.  0.
        5    1    3    3  502    0  0.36596935327E+02  0.23059187929E+02 -0.32071305003E+03  0.32365106562E+03  0.46999998093E+01 0. -1.
       -5    1    3    3    0  502 -0.36596935327E+02 -0.23059187929E+02  0.27447102396E+03  0.27789835338E+03  0.46999998093E+01 0.  1.
</event>
<event>
 5   0  0.9428629E-03  0.5988485E+03  0.7818609E-02  0.9907798E-01
        2   -1    0    0  501    0  0.00000000000E+00  0.00000000000E+00  0.50253883047E+03  0.50253883047E+03  0.25500000920E-02 0.  1.
       -2   -1    0    0    0  501  0.00000000000E+00  0.00000000000E+00 -0.17840388751E+03  0.17840388753E+03  0.25500000920E-02 0. -1.
    10030    2    1    2    0    0  0.00000000000E+00  0.00000000000E+00  0.32413494296E+03  0.68094271800E+03  0.59884849833E+03 0.  0.
        3    1    3    3  502    0  0.25746176305E+02 -0.25907871646E+03 -0.60915723955E+01  0.26042612075E+03  0.10100000352E+00 0. -1.
       -3    1    3    3    0  502 -0.25746176305E+02  0.25907871646E+03  0.33022651535E+03  0.42051659725E+03  0.10100000352E+00 0.  1.
</event>
<event>
 5   0  0.5785798E-03  0.5994723E+03  0.7818609E-02  0.9906501E-01
        1   -1    0    0  501    0  0.00000000000E+00  0.00000000000E+00  0.18691714869E+04  0.18691714869E+04  0.50400001928E-02 0.  1.
       -1   -1    0    0    0  501  0.00000000000E+00  0.00000000000E+00 -0.48065022934E+02  0.48065023199E+02  0.50400001928E-02 0. -1.
    10030    2    1    2    0    0  0.00000000000E+00  0.00000000000E+00  0.18211064639E+04  0.19172365101E+04  0.59947233679E+03 0.  0.
        1    1    3    3  502    0  0.67980367268E+01  0.20993295869E+03  0.15944290942E+04  0.16082046502E+04  0.50400001928E-02 0.  1.
       -1    1    3    3    0  502 -0.67980367268E+01 -0.20993295869E+03  0.22667736975E+03  0.30903185990E+03  0.50400001928E-02 0. -1.
</event>
<event>
 5   0  0.9681801E-03  0.5995757E+03  0.7818609E-02  0.9906287E-01
       -2   -1    0    0    0  501  0.00000000000E+00  0.00000000000E+00  0.56235954093E+03  0.56235954094E+03  0.25500000920E-02 0. -1.
        2   -1    0    0  501    0  0.00000000000E+00  0.00000000000E+00 -0.15981369324E+03  0.15981369326E+03  0.25500000920E-02 0.  1.
    10030    2    1    2    0    0  0.00000000000E+00  0.00000000000E+00  0.40254584769E+03  0.72217323419E+03  0.59957570055E+03 0.  0.
        4    1    3    3  502    0 -0.23065926296E+02  0.29697387914E+03  0.24204076728E+03  0.38381097923E+03  0.12699999809E+01 0.  1.
       -4    1    3    3    0  502  0.23065926296E+02 -0.29697387914E+03  0.16050508041E+03  0.33836225497E+03  0.12699999809E+01 0. -1.
</event>
<event>
 5   0  0.9866317E-03  0.5997570E+03  0.7818609E-02  0.9905910E-01
        2   -1    0    0  501    0  0.00000000000E+00  0.00000000000E+00  0.42003969351E+03  0.42003969352E+03  0.25500000920E-02 0. -1.
       -2   -1    0    0    0  501  0.00000000000E+00  0.00000000000E+00 -0.21409195289E+03  0.21409195290E+03  0.25500000920E-02 0.  1.
    10030    2    1    2    0    0  0.00000000000E+00  0.00000000000E+00  0.20594774063E+03  0.63413164642E+03  0.59975701174E+03 0.  0.
        1    1    3    3  502    0  0.16698350812E+03  0.48043177056E+02 -0.15544264749E+03  0.23313956234E+03  0.50400001928E-02 0.  1.
       -1    1    3    3    0  502 -0.16698350812E+03 -0.48043177056E+02  0.36139038812E+03  0.40099208408E+03  0.50400001928E-02 0. -1.
</event>
<event>
 5   0  0.9428629E-03  0.5998265E+03  0.7818609E-02  0.9905766E-01
        2   -1    0    0  501    0  0.00000000000E+00  0.00000000000E+00  0.13288878163E+04  0.13288878163E+04  0.25500000920E-02 0. -1.
       -2   -1    0    0    0  501  0.00000000000E+00  0.00000000000E+00 -0.67686654231E+02  0.67686654279E+02  0.25500000920E-02 0.  1.
    10030    2    1    2    0    0  0.00000000000E+00  0.00000000000E+00  0.12612011621E+04  0.13965744706E+04  0.59982654217E+03 0.  0.
        3    1    3    3  502    0 -0.22869746948E+03 -0.39862284207E+02  0.10727099884E+04  0.10975419189E+04  0.10100000352E+00 0. -1.
       -3    1    3    3    0  502  0.22869746948E+03  0.39862284207E+02  0.18849117373E+03  0.29903255178E+03  0.10100000352E+00 0.  1.
</event>
<event>
 5   0  0.5574736E-03  0.5998447E+03  0.7818609E-02  0.9905728E-01
       -1   -1    0    0    0  501  0.00000000000E+00  0.00000000000E+00  0.13152007789E+03  0.13152007798E+03  0.50400001928E-02 0.  1.
        1   -1    0    0  501    0  0.00000000000E+00  0.00000000000E+00 -0.68395199978E+03  0.68395199980E+03  0.50400001928E-02 0. -1.
    10030    2    1    2    0    0  0.00000000000E+00  0.00000000000E+00 -0.55243192189E+03  0.81547207778E+03  0.59984471434E+03 0.  0.
        5    1    3    3  502    0 -0.47946994459E+01  0.19473363916E+03 -0.58618496481E+03  0.61772087736E+03  0.46999998093E+01 0. -1.
       -5    1    3    3    0  502  0.47946994459E+01 -0.19473363916E+03  0.33753042918E+02  0.19775120042E+03  0.46999998093E+01 0.  1.
</event>
<event>
 5   0  0.5653633E-03  0.5991922E+03  0.7818609E-02  0.9907084E-01
        1   -1    0    0  501    0  0.00000000000E+00  0.00000000000E+00  0.23713714671E+03  0.23713714677E+03  0.50400001928E-02 0.  1.
       -1   -1    0    0    0  501  0.00000000000E+00  0.00000000000E+00 -0.37850589738E+03  0.37850589741E+03  0.50400001928E-02 0. -1.
    10030    2    1    2    0    0  0.00000000000E+00  0.00000000000E+00 -0.14136875067E+03  0.61564304418E+03  0.59919215130E+03 0.  0.
        2    1    3    3  502    0  0.26452405707E+03  0.28369821782E+01  0.73806588628E+02  0.27464238159E+03  0.25500000920E-02 0.  1.
       -2    1    3    3    0  502 -0.26452405707E+03 -0.28369821782E+01 -0.21517533929E+03  0.34100066258E+03  0.25500000920E-02 0. -1.
</event>
<event>
 5   0  0.5785798E-03  0.5997179E+03  0.7818609E-02  0.9905991E-01
        1   -1    0    0  501    0  0.00000000000E+00  0.00000000000E+00  0.99734680774E+02  0.99734680902E+02  0.50400001928E-02 0.  1.
       -1   -1    0    0    0  501  0.00000000000E+00  0.00000000000E+00 -0.90154592215E+03  0.90154592217E+03  0.50400001928E-02 0. -1.
    10030    2    1    2    0    0  0.00000000000E+00  0.00000000000E+00 -0.80181124138E+03  0.10012806031E+04  0.59971791642E+03 0.  0.
        1    1    3    3  502    0 -0.25863932313E+03 -0.12661090180E+03 -0.54050112687E+03  0.61242639402E+03  0.50400001928E-02 0. -1.
       -1    1    3    3    0  502  0.25863932313E+03  0.12661090180E+03 -0.26131011451E+03  0.38885420905E+03  0.50400001928E-02 0.  1.
</event>
<event>
 5   0  0.9530666E-03  0.6002987E+03  0.7818609E-02  0.9904786E-01
        2   -1    0    0  501    0  0.00000000000E+00  0.00000000000E+00  0.84392514761E+03  0.84392514761E+03  0.25500000920E-02 0.  1.
       -2   -1    0    0    0  501  0.00000000000E+00  0.00000000000E+00 -0.10675075541E+03  0.10675075544E+03  0.25500000920E-02 0. -1.
    10030    2    1    2    0    0  0.00000000000E+00  0.00000000000E+00  0.73717439220E+03  0.95067590305E+03  0.60029874906E+03 0.  0.
        2    1    3    3  502    0  0.13519170061E+03  0.89111535951E+02  0.76882697976E+03  0.78569242492E+03  0.25500000920E-02 0.  1.
       -2    1    3    3    0  502 -0.13519170061E+03 -0.89111535951E+02 -0.31652587559E+02  0.16498347814E+03  0.25500000920E-02 0. -1.
</event>
<event>
 5   0  0.9681801E-03  0.6001337E+03  0.7818609E-02  0.9905129E-01
        2   -1    0    0  501    0  0.00000000000E+00  0.00000000000E+00  0.76053726578E+03  0.76053726579E+03  0.25500000920E-02 0.  1.
       -2   -1    0    0    0  501  0.00000000000E+00  0.00000000000E+00 -0.11839015559E+03  0.11839015562E+03  0.25500000920E-02 0. -1.
    10030    2    1    2    0    0  0.00000000000E+00  0.00000000000E+00  0.64214711019E+03  0.87892742141E+03  0.60013373591E+03 0.  0.
        4    1    3    3  502    0  0.10147893646E+03 -0.26576842924E+03  0.46084190903E+03  0.54157890519E+03  0.12699999809E+01 0.  1.
       -4    1    3    3    0  502 -0.10147893646E+03  0.26576842924E+03  0.18130520116E+03  0.33734851622E+03  0.12699999809E+01 0. -1.
</event>
<event>
 5   0  0.5653633E-03  0.6023145E+03  0.7818609E-02  0.9900616E-01
       -1   -1    0    0    0  501  0.00000000000E+00  0.00000000000E+00  0.20664922485E+03  0.20664922491E+03  0.50400001928E-02 0.  1.
        1   -1    0    0  501    0  0.00000000000E+00  0.00000000000E+00 -0.43888720164E+03  0.43888720167E+03  0.50400001928E-02 0. -1.
    10030    2    1    2    0    0  0.00000000000E+00  0.00000000000E+00 -0.23223797679E+03  0.64553642658E+03  0.60231453592E+03 0.  0.
        2    1    3    3  502    0  0.14340533546E+03 -0.22198493353E+03 -0.27088828028E+03  0.37844796386E+03  0.25500000920E-02 0. -1.
       -2    1    3    3    0  502 -0.14340533546E+03  0.22198493353E+03  0.38650303489E+02  0.26708846272E+03  0.25500000920E-02 0.  1.
</event>
<event>
 5   0  0.3794375E-03  0.6065860E+03  0.7818609E-02  0.9891836E-01
        3   -1    0    0  501    0  0.00000000000E+00  0.00000000000E+00  0.23057960268E+03  0.23057962480E+03  0.10100000352E+00 0. -1.
       -3   -1    0    0    0  501  0.00000000000E+00  0.00000000000E+00 -0.39893654433E+03  0.39893655712E+03  0.10100000352E+00 0.  1.
    10030    2    1    2    0    0  0.00000000000E+00  0.00000000000E+00 -0.16835694165E+03  0.62951618192E+03  0.60658599019E+03 0.  0.
        4    1    3    3  502    0  0.31907041579E+02 -0.29681936483E+03 -0.28627133295E+02  0.29990151767E+03  0.12699999809E+01 0.  1.
       -4    1    3    3    0  502 -0.31907041579E+02  0.29681936483E+03 -0.13972980836E+03  0.32961466425E+03  0.12699999809E+01 0. -1.
</event>
<event>
 5   0  0.5491236E-03  0.6025710E+03  0.7818609E-02  0.9900086E-01
        1   -1    0    0  501    0  0.00000000000E+00  0.00000000000E+00  0.43507038167E+03  0.43507038170E+03  0.50400001928E-02 0.  1.
       -1   -1    0    0    0  501  0.00000000000E+00  0.00000000000E+00 -0.20863967093E+03  0.20863967099E+03  0.50400001928E-02 0. -1.
    10030    2    1    2    0    0  0.00000000000E+00  0.00000000000E+00  0.22643071074E+03  0.64371005269E+03  0.60257096277E+03 0.  0.
        3    1    3    3  502    0 -0.92033394431E+02  0.21975973002E+03  0.31021955691E+03  0.39115299860E+03  0.10100000352E+00 0.  1.
       -3    1    3    3    0  502  0.92033394431E+02 -0.21975973002E+03 -0.83788846165E+02  0.25255705409E+03  0.10100000352E+00 0. -1.
</event>
<event>
 5   0  0.5653633E-03  0.5988932E+03  0.7818609E-02  0.9907705E-01
       -1   -1    0    0    0  501  0.00000000000E+00  0.00000000000E+00  0.16148220517E+03  0.16148220525E+03  0.50400001928E-02 0.  1.
        1   -1    0    0  501    0  0.00000000000E+00  0.00000000000E+00 -0.55528255662E+03  0.55528255664E+03  0.50400001928E-02 0. -1.
    10030    2    1    2    0    0  0.00000000000E+00  0.00000000000E+00 -0.39380035145E+03  0.71676476190E+03  0.59889315165E+03 0.  0.
        2    1    3    3  502    0  0.77331058138E+02  0.49415484512E+02  0.14423697093E+03  0.17095697252E+03  0.25500000920E-02 0.  1.
       -2    1    3    3    0  502 -0.77331058138E+02 -0.49415484512E+02 -0.53803732238E+03  0.54580778938E+03  0.25500000920E-02 0. -1.
</event>
<event>
 5   0  0.5574736E-03  0.6008601E+03  0.7818609E-02  0.9903623E-01
        1   -1    0    0  501    0  0.00000000000E+00  0.00000000000E+00  0.10524161334E+04  0.10524161334E+04  0.50400001928E-02 0.  1.
       -1   -1    0    0    0  501  0.00000000000E+00  0.00000000000E+00 -0.85762856853E+02  0.85762857001E+02  0.50400001928E-02 0. -1.
    10030    2    1    2    0    0  0.00000000000E+00  0.00000000000E+00  0.96665327653E+03  0.11381789904E+04  0.60086009782E+03 0.  0.
        5    1    3    3  502    0 -0.22102418023E+02  0.29469513051E+03  0.58537708142E+03  0.65576074470E+03  0.46999998093E+01 0.  1.
       -5    1    3    3    0  502  0.22102418023E+02 -0.29469513051E+03  0.38127619511E+03  0.48241824570E+03  0.46999998093E+01 0. -1.
</event>
<event>
 5   0  0.9530666E-03  0.5996578E+03  0.7818609E-02  0.9906116E-01
        2   -1    0    0  501    0  0.00000000000E+00  0.00000000000E+00  0.17708209411E+03  0.17708209413E+03  0.25500000920E-02 0. -1.
       -2   -1    0    0    0  501  0.00000000000E+00  0.00000000000E+00 -0.50765924677E+03  0.50765924678E+03  0.25500000920E-02 0.  1.
    10030    2    1    2    0    0  0.00000000000E+00  0.00000000000E+00 -0.33057715266E+03  0.68474134091E+03  0.59965777747E+03 0.  0.
        2    1    3    3  502    0 -0.74647903838E+02  0.18659502209E+03 -0.41936122870E+03  0.46503102258E+03  0.25500000920E-02 0.  1.
       -2    1    3    3    0  502  0.74647903838E+02 -0.18659502209E+03  0.88784076038E+02  0.21971031833E+03  0.25500000920E-02 0. -1.
</event>
<event>
 5   0  0.9428629E-03  0.6001813E+03  0.7818609E-02  0.9905030E-01
       -2   -1    0    0    0  501  0.00000000000E+00  0.00000000000E+00  0.13844770780E+03  0.13844770782E+03  0.25500000920E-02 0. -1.
        2   -1    0    0  501    0  0.00000000000E+00  0.00000000000E+00 -0.65045788714E+03  0.65045788714E+03  0.25500000920E-02 0.  1.
    10030    2    1    2    0    0  0.00000000000E+00  0.00000000000E+00 -0.51201017934E+03  0.78890559496E+03  0.60018131761E+03 0.  0.
        3    1    3    3  502    0  0.62172246413E+02  0.12988828137E+03 -0.60207648094E+03  0.61905771376E+03  0.10100000352E+00 0.  1.
       -3    1    3    3    0  502 -0.62172246413E+02 -0.12988828137E+03  0.90066301602E+02  0.16984788120E+03  0.10100000352E+00 0. -1.
</event>
<event>
 5   0  0.9530666E-03  0.5998344E+03  0.7818609E-02  0.9905750E-01
       -2   -1    0    0    0  501  0.00000000000E+00  0.00000000000E+00  0.93526559072E+02  0.93526559107E+02  0.25500000920E-02 0. -1.
        2   -1    0    0  501    0  0.00000000000E+00  0.00000000000E+00 -0.96176248212E+03  0.96176248212E+03  0.25500000920E-02 0.  1.
    10030    2    1    2    0    0  0.00000000000E+00  0.00000000000E+00 -0.86823592305E+03  0.10552890412E+04  0.59983442921E+03 0.  0.
        2    1    3    3  502    0  0.18943079964E+03 -0.81414629923E+02 -0.50937754905E+02  0.21238414418E+03  0.25500000920E-02 0. -1.
       -2    1    3    3    0  502 -0.18943079964E+03  0.81414629923E+02 -0.81729816814E+03  0.84290489705E+03  0.25500000920E-02 0.  1.
</event>
<event>
 5   0  0.5491236E-03  0.5991779E+03  0.7818609E-02  0.9907113E-01
        1   -1    0    0  501    0  0.00000000000E+00  0.00000000000E+00  0.63322841477E+02  0.63322841678E+02  0.50400001928E-02 0. -1.
       -1   -1    0    0    0  501  0.00000000000E+00  0.00000000000E+00 -0.14173960852E+04  0.14173960852E+04  0.50400001928E-02 0.  1.
    10030    2    1    2    0    0  0.00000000000E+00  0.00000000000E+00 -0.13540732437E+04  0.14807189269E+04  0.59917792939E+03 0.  0.
        3    1    3    3  502    0 -0.22231074031E+03 -0.18464241953E+03 -0.87222866205E+03  0.91885675568E+03  0.10100000352E+00 0.  1.
       -3    1    3    3    0  502  0.22231074031E+03  0.18464241953E+03 -0.48184458166E+03  0.56186217120E+03  0.10100000352E+00 0. -1.
</event>
<event>
 5   0  0.5491236E-03  0.5995181E+03  0.7818609E-02  0.9906406E-01
       -1   -1    0    0    0  501  0.00000000000E+00  0.00000000000E+00  0.11076044142E+03  0.11076044154E+03  0.50400001928E-02 0. -1.
        1   -1    0    0  501    0  0.00000000000E+00  0.00000000000E+00 -0.81125976944E+03  0.81125976945E+03  0.50400001928E-02 0.  1.
    10030    2    1    2    0    0  0.00000000000E+00  0.00000000000E+00 -0.70049932801E+03  0.92202021099E+03  0.59951810726E+03 0.  0.
        3    1    3    3  502    0  0.12981455638E+03 -0.10255176004E+03  0.34193612555E+02  0.16893163077E+03  0.10100000352E+00 0. -1.
       -3    1    3    3    0  502 -0.12981455638E+03  0.10255176004E+03 -0.73469294057E+03  0.75308858022E+03  0.10100000352E+00 0.  1.
</event>
<event>
 5   0  0.9571790E-03  0.6032578E+03  0.7818609E-02  0.9898670E-01
       -2   -1    0    0    0  501  0.00000000000E+00  0.00000000000E+00  0.19937498563E+03  0.19937498565E+03  0.25500000920E-02 0.  1.
        2   -1    0    0  501    0  0.00000000000E+00  0.00000000000E+00 -0.45632606503E+03  0.45632606504E+03  0.25500000920E-02 0. -1.
    10030    2    1    2    0    0  0.00000000000E+00  0.00000000000E+00 -0.25695107940E+03  0.65570105068E+03  0.60325783100E+03 0.  0.
        5    1    3    3  502    0  0.20709615975E+03 -0.19541901367E+03 -0.23651749240E+03  0.37018917394E+03  0.46999998093E+01 0. -1.
       -5    1    3    3    0  502 -0.20709615975E+03  0.19541901367E+03 -0.20433586994E+02  0.28551187675E+03  0.46999998093E+01 0.  1.
</event>
<event>
 5   0  0.5491236E-03  0.6004553E+03  0.7818609E-02  0.9904462E-01
        1   -1    0    0  501    0  0.00000000000E+00  0.00000000000E+00  0.88034034953E+03  0.88034034955E+03  0.50400001928E-02 0. -1.
       -1   -1    0    0    0  501  0.00000000000E+00  0.00000000000E+00 -0.10238840252E+03  0.10238840264E+03  0.50400001928E-02 0.  1.
    10030    2    1    2    0    0  0.00000000000E+00  0.00000000000E+00  0.77795194701E+03  0.98272875219E+03  0.60045530102E+03 0.  0.
        3    1    3    3  502    0  0.11042945255E+03 -0.13740810475E+03 -0.87677236659E+01  0.17650080572E+03  0.10100000352E+00 0.  1.
       -3    1    3    3    0  502 -0.11042945255E+03  0.13740810475E+03  0.78671967068E+03  0.80622794647E+03  0.10100000352E+00 0. -1.
</event>
<event>
 5   0  0.5653633E-03  0.6004182E+03  0.7818609E-02  0.9904539E-01
        1   -1    0    0  501    0  0.00000000000E+00  0.00000000000E+00  0.90310847913E+03  0.90310847915E+03  0.50400001928E-02 0.  1.
       -1   -1    0    0    0  501  0.00000000000E+00  0.00000000000E+00 -0.99794775213E+02  0.99794775341E+02  0.50400001928E-02 0. -1.
    10030    2    1    2    0    0  0.00000000000E+00  0.00000000000E+00  0.80331370392E+03  0.10029032545E+04  0.60041821338E+03 0.  0.
        2    1    3    3  502    0 -0.25065656466E+03  0.32143663509E+02  0.67235303913E+03  0.71827608741E+03  0.25500000920E-02 0.  1.
       -2    1    3    3    0  502  0.25065656466E+03 -0.32143663509E+02  0.13096066479E+03  0.28462716708E+03  0.25500000920E-02 0. -1.
</event>
<event>
 5   0  0.9571790E-03  0.6000482E+03  0.7818609E-02  0.9905306E-01
        2   -1    0    0  501    0  0.00000000000E+00  0.00000000000E+00  0.10955274790E+04  0.10955274790E+04  0.25500000920E-02 0. -1.
       -2   -1    0    0    0  501  0.00000000000E+00  0.00000000000E+00 -0.82165419691E+02  0.82165419731E+02  0.25500000920E-02 0.  1.
    10030    2    1    2    0    0  0.00000000000E+00  0.00000000000E+00  0.10133620593E+04  0.11776928987E+04  0.60004824846E+03 0.  0.
        5    1    3    3  502    0 -0.58964454025E+02 -0.26531743048E+03  0.75588707096E+03  0.80327921658E+03  0.46999998093E+01 0.  1.
       -5    1    3    3    0  502  0.58964454025E+02  0.26531743048E+03  0.25747498834E+03  0.37441368214E+03  0.46999998093E+01 0. -1.
</event>
<event>
 5   0  0.5785798E-03  0.5990043E+03  0.7818609E-02  0.9907474E-01
       -1   -1    0    0    0  501  0.00000000000E+00  0.00000000000E+00  0.54964712605E+02  0.54964712836E+02  0.50400001928E-02 0.  1.
        1   -1    0    0  501    0  0.00000000000E+00  0.00000000000E+00 -0.16319840362E+04  0.16319840362E+04  0.50400001928E-02 0. -1.
    10030    2    1    2    0    0  0.00000000000E+00  0.00000000000E+00 -0.15770193236E+04  0.16869487490E+04  0.59900428622E+03 0.  0.
        1    1    3    3  502    0 -0.60666783163E+01 -0.14125655862E+03 -0.15320826286E+04  0.15385926689E+04  0.50400001928E-02 0. -1.
       -1    1    3    3    0  502  0.60666783163E+01  0.14125655862E+03 -0.44936695029E+02  0.14835608017E+03  0.50400001928E-02 0.  1.
</event>
<event>
 5   0  0.9428629E-03  0.6031327E+03  0.7818609E-02  0.9898928E-01
        2   -1    0    0  501    0  0.00000000000E+00  0.00000000000E+00  0.16674198706E+04  0.16674198706E+04  0.25500000920E-02 0.  1.
       -2   -1    0    0    0  501  0.00000000000E+00  0.00000000000E+00 -0.54540703993E+02  0.54540704053E+02  0.25500000920E-02 0. -1.
    10030    2    1    2    0    0  0.00000000000E+00  0.00000000000E+00  0.16128791666E+04  0.17219605747E+04  0.60313266749E+03 0.  0.
        3    1    3    3  502    0 -0.17866071018E+03 -0.20740590310E+03  0.44524317703E+03  0.52266466773E+03  0.10100000352E+00 0. -1.
       -3    1    3    3    0  502  0.17866071018E+03  0.20740590310E+03  0.11676359896E+04  0.11992959069E+04  0.10100000352E+00 0.  1.
</event>
<event>
 5   0  0.9866317E-03  0.5984464E+03  0.7818609E-02  0.9908635E-01
       -2   -1    0    0    0  501  0.00000000000E+00  0.00000000000E+00  0.56056089653E+02  0.56056089711E+02  0.25500000920E-02 0.  1.
        2   -1    0    0  501    0  0.00000000000E+00  0.00000000000E+00 -0.15972308919E+04  0.15972308919E+04  0.25500000920E-02 0. -1.
    10030    2    1    2    0    0  0.00000000000E+00  0.00000000000E+00 -0.15411748022E+04  0.16532869816E+04  0.59844638230E+03 0.  0.
        1    1    3    3  502    0  0.19885897894E+03  0.16146684628E+03 -0.11978414397E+04  0.12249247123E+04  0.50400001928E-02 0. -1.
       -1    1    3    3    0  502 -0.19885897894E+03 -0.16146684628E+03 -0.34333336247E+03  0.42836226931E+03  0.50400001928E-02 0.  1.
</event>
<event>
 5   0  0.9428629E-03  0.5999158E+03  0.7818609E-02  0.9905581E-01
       -2   -1    0    0    0  501  0.00000000000E+00  0.00000000000E+00  0.21725816412E+03  0.21725816414E+03  0.25500000920E-02 0. -1.
        2   -1    0    0  501    0  0.00000000000E+00  0.00000000000E+00 -0.41413741054E+03  0.41413741055E+03  0.25500000920E-02 0.  1.
    10030    2    1    2    0    0  0.00000000000E+00  0.00000000000E+00 -0.19687924642E+03  0.63139557468E+03  0.59991577247E+03 0.  0.
        3    1    3    3  502    0 -0.19427807382E+03 -0.18501839057E+03 -0.23963966349E+03  0.35972621998E+03  0.10100000352E+00 0.  1.
       -3    1    3    3    0  502  0.19427807382E+03  0.18501839057E+03  0.42760417075E+02  0.27166935471E+03  0.10100000352E+00 0. -1.
</event>
<event>
 5   0  0.3794375E-03  0.6016261E+03  0.7818609E-02  0.9902038E-01
       -4   -1    0    0    0  501  0.00000000000E+00  0.00000000000E+00  0.12199792243E+04  0.12199798854E+04  0.12699999809E+01 0. -1.
        4   -1    0    0  501    0  0.00000000000E+00  0.00000000000E+00 -0.74166041080E+02  0.74176913858E+02  0.12699999809E+01 0.  1.
    10030    2    1    2    0    0  0.00000000000E+00  0.00000000000E+00  0.11458131832E+04  0.12941567992E+04  0.60162610487E+03 0.  0.
        3    1    3    3  502    0  0.10544613921E+03 -0.85469880508E+02  0.11503652474E+04  0.11583454586E+04  0.10100000352E+00 0. -1.
       -3    1    3    3    0  502 -0.10544613921E+03  0.85469880508E+02 -0.45520642007E+01  0.13581134061E+03  0.10100000352E+00 0.  1.
</event>
<event>
 5   0  0.9681801E-03  0.6008373E+03  0.7818609E-02  0.9903670E-01
        2   -1    0    0  501    0  0.00000000000E+00  0.00000000000E+00  0.14364145572E+04  0.14364145572E+04  0.25500000920E-02 0. -1.
       -2   -1    0    0    0  501  0.00000000000E+00  0.00000000000E+00 -0.62831002712E+02  0.62831002764E+02  0.25500000920E-02 0.  1.
    10030    2    1    2    0    0  0.00000000000E+00  0.00000000000E+00  0.13735835545E+04  0.14992455600E+04  0.60083730570E+03 0.  0.
        4    1    3    3  502    0  0.14994968623E+03  0.65972878096E+02  0.58439689584E+02  0.17393717044E+03  0.12699999809E+01 0.  1.
       -4    1    3    3    0  502 -0.14994968623E+03 -0.65972878096E+02  0.13151438649E+04  0.13253083895E+04  0.12699999809E+01 0. -1.
</event>
<event>
 5   0  0.5491236E-03  0.5981769E+03  0.7818609E-02  0.9909196E-01
        1   -1    0    0  501    0  0.00000000000E+00  0.00000000000E+00  0.64239361583E+03  0.64239361585E+03  0.50400001928E-02 0.  1.
       -1   -1    0    0    0  501  0.00000000000E+00  0.00000000000E+00 -0.13925090602E+03  0.13925090611E+03  0.50400001928E-02 0. -1.
    10030    2    1    2    0    0  0.00000000000E+00  0.00000000000E+00  0.50314270981E+03  0.78164452196E+03  0.59817687374E+03 0.  0.
        3    1    3    3  502    0  0.10167947507E+03  0.65606192586E+02 -0.10583509404E+03  0.16076058438E+03  0.10100000352E+00 0. -1.
       -3    1    3    3    0  502 -0.10167947507E+03 -0.65606192586E+02  0.60897780385E+03  0.62088393758E+03  0.10100000352E+00 0.  1.
</event>
<event>
 5   0  0.3794375E-03  0.6006554E+03  0.7818609E-02  0.9904047E-01
        4   -1    0    0  501    0  0.00000000000E+00  0.00000000000E+00  0.14095014457E+03  0.14095586598E+03  0.12699999809E+01 0.  1.
       -4   -1    0    0    0  501  0.00000000000E+00  0.00000000000E+00 -0.63990001321E+03  0.63990127348E+03  0.12699999809E+01 0. -1.
    10030    2    1    2    0    0  0.00000000000E+00  0.00000000000E+00 -0.49894986864E+03  0.78085713946E+03  0.60065539274E+03 0.  0.
        1    1    3    3  502    0  0.26344539057E+03 -0.99675327578E+02 -0.38493857154E+03  0.47698673842E+03  0.50400001928E-02 0. -1.
       -1    1    3    3    0  502 -0.26344539057E+03  0.99675327578E+02 -0.11401129710E+03  0.30387040104E+03  0.50400001928E-02 0.  1.
</event>
<event>
 5   0  0.3794375E-03  0.6160403E+03  0.7818609E-02  0.9872675E-01
       -3   -1    0    0    0  501  0.00000000000E+00  0.00000000000E+00  0.38793123612E+03  0.38793124927E+03  0.10100000352E+00 0.  1.
        3   -1    0    0  501    0  0.00000000000E+00  0.00000000000E+00 -0.24457012003E+03  0.24457014088E+03  0.10100000352E+00 0. -1.
    10030    2    1    2    0    0  0.00000000000E+00  0.00000000000E+00  0.14336111610E+03  0.63250139015E+03  0.61604025756E+03 0.  0.
        2    1    3    3  502    0 -0.12432493654E+03  0.28038255751E+03  0.10081721271E+03  0.32285473326E+03  0.25500000920E-02 0. -1.
       -2    1    3    3    0  502  0.12432493654E+03 -0.28038255751E+03  0.42543903390E+02  0.30964665689E+03  0.25500000920E-02 0.  1.
</event>
<event>
 5   0  0.3794375E-03  0.6008272E+03  0.7818609E-02  0.9903691E-01
       -3   -1    0    0    0  501  0.00000000000E+00  0.00000000000E+00  0.14266575432E+03  0.14266579007E+03  0.10100000352E+00 0. -1.
        3   -1    0    0  501    0  0.00000000000E+00  0.00000000000E+00 -0.63258559314E+03  0.63258560121E+03  0.10100000352E+00 0.  1.
    10030    2    1    2    0    0  0.00000000000E+00  0.00000000000E+00 -0.48991983882E+03  0.77525139128E+03  0.60082715585E+03 0.  0.
        4    1    3    3  502    0 -0.21737433512E+03 -0.17615112546E+02  0.21621381505E+02  0.21915973808E+03  0.12699999809E+01 0. -1.
       -4    1    3    3    0  502  0.21737433512E+03  0.17615112546E+02 -0.51154122033E+03  0.55609165319E+03  0.12699999809E+01 0.  1.
</event>
<event>
 5   0  0.5574736E-03  0.5998408E+03  0.7818609E-02  0.9905736E-01
       -1   -1    0    0    0  501  0.00000000000E+00  0.00000000000E+00  0.33345349711E+03  0.33345349714E+03  0.50400001928E-02 0.  1.
        1   -1    0    0  501    0  0.00000000000E+00  0.00000000000E+00 -0.26975951067E+03  0.26975951071E+03  0.50400001928E-02 0. -1.
    10030    2    1    2    0    0  0.00000000000E+00  0.00000000000E+00  0.63693986441E+02  0.60321300786E+03  0.59984081967E+03 0.  0.
        5    1    3    3  502    0 -0.97799688252E+02 -0.25239071715E+03 -0.97969041144E+02  0.28789907285E+03  0.46999998093E+01 0.  1.
       -5    1    3    3    0  502  0.97799688252E+02  0.25239071715E+03  0.16166302758E+03  0.31531393501E+03  0.46999998093E+01 0. -1.
</event>
<event>
 5   0  0.5653633E-03  0.5915333E+03  0.7818609E-02  0.9923129E-01
       -1   -1    0    0    0  501  0.00000000000E+00  0.00000000000E+00  0.77082773646E+02  0.77082773811E+02  0.50400001928E-02 0. -1.
        1   -1    0    0  501    0  0.00000000000E+00  0.00000000000E+00 -0.11348569312E+04  0.11348569312E+04  0.50400001928E-02 0.  1.
    10030    2    1    2    0    0  0.00000000000E+00  0.00000000000E+00 -0.10577741575E+04  0.12119397050E+04  0.59153332975E+03 0.  0.
        2    1    3    3  502    0  0.63459447527E+02  0.86736077468E+02  0.35662170917E+02  0.11323444289E+03  0.25500000920E-02 0. -1.
       -2    1    3    3    0  502 -0.63459447527E+02 -0.86736077468E+02 -0.10934363284E+04  0.10987052621E+04  0.25500000920E-02 0.  1.
</event>
<event>
 5   0  0.5491236E-03  0.6009189E+03  0.7818609E-02  0.9903502E-01
        1   -1    0    0  501    0  0.00000000000E+00  0.00000000000E+00  0.73026080813E+03  0.73026080815E+03  0.50400001928E-02 0. -1.
       -1   -1    0    0    0  501  0.00000000000E+00  0.00000000000E+00 -0.12362140928E+03  0.12362140938E+03  0.50400001928E-02 0.  1.
    10030    2    1    2    0    0  0.00000000000E+00  0.00000000000E+00  0.60663939885E+03  0.85388221753E+03  0.60091886405E+03 0.  0.
        3    1    3    3  502    0  0.11903511726E+03 -0.28421388141E+02  0.69324008816E+03  0.70395949065E+03  0.10100000352E+00 0. -1.
       -3    1    3    3    0  502 -0.11903511726E+03  0.28421388141E+02 -0.86600689308E+02  0.14992272688E+03  0.10100000352E+00 0.  1.
</event>
<event>
 5   0  0.5491236E-03  0.5824897E+03  0.7818609E-02  0.9942415E-01
        1   -1    0    0  501    0  0.00000000000E+00  0.00000000000E+00  0.22827048344E+03  0.22827048350E+03  0.50400001928E-02 0.  1.
       -1   -1    0    0    0  501  0.00000000000E+00  0.00000000000E+00 -0.37159233515E+03  0.37159233519E+03  0.50400001928E-02 0. -1.
    10030    2    1    2    0    0  0.00000000000E+00  0.00000000000E+00 -0.14332185171E+03  0.59986281869E+03  0.58248969782E+03 0.  0.
        3    1    3    3  502    0 -0.33736774249E+02  0.49271723600E+02 -0.36522026558E+03  0.37006989242E+03  0.10100000352E+00 0. -1.
       -3    1    3    3    0  502  0.33736774249E+02 -0.49271723600E+02  0.22189841387E+03  0.22979292627E+03  0.10100000352E+00 0.  1.
</event>
<event>
 5   0  0.9571790E-03  0.5998358E+03  0.7818609E-02  0.9905747E-01
        2   -1    0    0  501    0  0.00000000000E+00  0.00000000000E+00  0.14877294980E+04  0.14877294980E+04  0.25500000920E-02 0. -1.
       -2   -1    0    0    0  501  0.00000000000E+00  0.00000000000E+00 -0.60461770234E+02  0.60461770287E+02  0.25500000920E-02 0.  1.
    10030    2    1    2    0    0  0.00000000000E+00  0.00000000000E+00  0.14272677277E+04  0.15481912683E+04  0.59983584128E+03 0.  0.
        5    1    3    3  502    0  0.23631953389E+03  0.60881637860E+02  0.11634671443E+04  0.11887940872E+04  0.46999998093E+01 0.  1.
       -5    1    3    3    0  502 -0.23631953389E+03 -0.60881637860E+02  0.26380058345E+03  0.35939718106E+03  0.46999998093E+01 0. -1.
</event>
<event>
 5   0  0.5785798E-03  0.6023398E+03  0.7818609E-02  0.9900564E-01
       -1   -1    0    0    0  501  0.00000000000E+00  0.00000000000E+00  0.67768574099E+02  0.67768574286E+02  0.50400001928E-02 0.  1.
        1   -1    0    0  501    0  0.00000000000E+00  0.00000000000E+00 -0.13384273492E+04  0.13384273492E+04  0.50400001928E-02 0. -1.
    10030    2    1    2    0    0  0.00000000000E+00  0.00000000000E+00 -0.12706587751E+04  0.14061959235E+04  0.60233981481E+03 0.  0.
        1    1    3    3  502    0  0.26072569891E+03  0.57553504667E+02 -0.31005431502E+03  0.40917474783E+03  0.50400001928E-02 0. -1.
       -1    1    3    3    0  502 -0.26072569891E+03 -0.57553504667E+02 -0.96060446005E+03  0.99702117564E+03  0.50400001928E-02 0.  1.
</event>
<event>
 5   0  0.5574736E-03  0.6017447E+03  0.7818609E-02  0.9901793E-01
       -1   -1    0    0    0  501  0.00000000000E+00  0.00000000000E+00  0.37445871520E+03  0.37445871523E+03  0.50400001928E-02 0. -1.
        1   -1    0    0  501    0  0.00000000000E+00  0.00000000000E+00 -0.24174671613E+03  0.24174671618E+03  0.50400001928E-02 0.  1.
    10030    2    1    2    0    0  0.00000000000E+00  0.00000000000E+00  0.13271199907E+03  0.61620543141E+03  0.60174467925E+03 0.  0.
        5    1    3    3  502    0 -0.26555943926E+03 -0.10623499134E+03  0.16184046288E+03  0.32866717905E+03  0.46999998093E+01 0.  1.
       -5    1    3    3    0  502  0.26555943926E+03  0.10623499134E+03 -0.29128463804E+02  0.28753825235E+03  0.46999998093E+01 0. -1.
</event>
<event>
 5   0  0.5503975E-03  0.5991741E+03  0.7818609E-02  0.9907121E-01
       -1   -1    0    0    0  501  0.00000000000E+00  0.00000000000E+00  0.26702410723E+03  0.26702410728E+03  0.50400001928E-02 0.  1.
        1   -1    0    0  501    0  0.00000000000E+00  0.00000000000E+00 -0.33612095563E+03  0.33612095567E+03  0.50400001928E-02 0. -1.
    10030    2    1    2    0    0  0.00000000000E+00  0.00000000000E+00 -0.69096848402E+02  0.60314506295E+03  0.59917409198E+03 0.  0.
        4    1    3    3  502    0 -0.17592533402E+03  0.13824597113E+03 -0.23509001255E+03  0.32454675870E+03  0.12699999809E+01 0. -1.
       -4    1    3    3    0  502  0.17592533402E+03 -0.13824597113E+03  0.16599316415E+03  0.27859830425E+03  0.12699999809E+01 0.  1.
</event>
<event>
 5   0  0.5653633E-03  0.6008329E+03  0.7818609E-02  0.9903679E-01
       -1   -1    0    0    0  501  0.00000000000E+00  0.00000000000E+00  0.50158988659E+03  0.50158988661E+03  0.50400001928E-02 0. -1.
        1   -1    0    0  501    0  0.00000000000E+00  0.00000000000E+00 -0.17992798628E+03  0.17992798635E+03  0.50400001928E-02 0.  1.
    10030    2    1    2    0    0  0.00000000000E+00  0.00000000000E+00  0.32166190031E+03  0.68151787296E+03  0.60083294938E+03 0.  0.
        2    1    3    3  502    0 -0.17219999086E+03  0.52645984169E+02  0.43359282329E+03  0.46949672301E+03  0.25500000920E-02 0. -1.
       -2    1    3    3    0  502  0.17219999086E+03 -0.52645984169E+02 -0.11193092298E+03  0.21202114995E+03  0.25500000920E-02 0.  1.
</event>
<event>
 5   0  0.9530666E-03  0.6001634E+03  0.7818609E-02  0.9905067E-01
       -2   -1    0    0    0  501  0.00000000000E+00  0.00000000000E+00  0.98246947499E+02  0.98246947532E+02  0.25500000920E-02 0.  1.
        2   -1    0    0  501    0  0.00000000000E+00  0.00000000000E+00 -0.91655798421E+03  0.91655798422E+03  0.25500000920E-02 0. -1.
    10030    2    1    2    0    0  0.00000000000E+00  0.00000000000E+00 -0.81831103671E+03  0.10148049317E+04  0.60016339166E+03 0.  0.
        2    1    3    3  502    0 -0.14885006878E+03 -0.12245647454E+02 -0.84924845695E+03  0.86228141607E+03  0.25500000920E-02 0. -1.
       -2    1    3    3    0  502  0.14885006878E+03  0.12245647454E+02  0.30937420238E+02  0.15252351568E+03  0.25500000920E-02 0.  1.
</event>
<event>
 5   0  0.9428629E-03  0.5965726E+03  0.7818609E-02  0.9912543E-01
        2   -1    0    0  501    0  0.00000000000E+00  0.00000000000E+00  0.10275667605E+04  0.10275667605E+04  0.25500000920E-02 0. -1.
       -2   -1    0    0    0  501  0.00000000000E+00  0.00000000000E+00 -0.86587758288E+02  0.86587758325E+02  0.25500000920E-02 0.  1.
    10030    2    1    2    0    0  0.00000000000E+00  0.00000000000E+00  0.94097900220E+03  0.11141545188E+04  0.59657255151E+03 0.  0.
        3    1    3    3  502    0  0.26670574433E+03  0.50748323593E+02  0.23972769558E+03  0.36218327493E+03  0.10100000352E+00 0.  1.
       -3    1    3    3    0  502 -0.26670574433E+03 -0.50748323593E+02  0.70125130662E+03  0.75197124389E+03  0.10100000352E+00 0. -1.
</event>
<event>
 5   0  0.9681801E-03  0.5999567E+03  0.7818609E-02  0.9905496E-01
       -2   -1    0    0    0  501  0.00000000000E+00  0.00000000000E+00  0.11437942573E+03  0.11437942576E+03  0.25500000920E-02 0. -1.
        2   -1    0    0  501    0  0.00000000000E+00  0.00000000000E+00 -0.78674113234E+03  0.78674113235E+03  0.25500000920E-02 0.  1.
    10030    2    1    2    0    0  0.00000000000E+00  0.00000000000E+00 -0.67236170661E+03  0.90112055810E+03  0.59995666153E+03 0.  0.
        4    1    3    3  502    0 -0.11585876409E+03  0.26121760790E+03 -0.47324383828E+03  0.55282839586E+03  0.12699999809E+01 0.  1.
       -4    1    3    3    0  502  0.11585876409E+03 -0.26121760790E+03 -0.19911786833E+03  0.34829216225E+03  0.12699999809E+01 0. -1.
</event>
<event>
 5   0  0.5491236E-03  0.5968634E+03  0.7818609E-02  0.9911935E-01
        1   -1    0    0  501    0  0.00000000000E+00  0.00000000000E+00  0.17159596649E+04  0.17159596649E+04  0.50400001928E-02 0.  1.
       -1   -1    0    0    0  501  0.00000000000E+00  0.00000000000E+00 -0.51901846588E+02  0.51901846833E+02  0.50400001928E-02 0. -1.
    10030    2    1    2    0    0  0.00000000000E+00  0.00000000000E+00  0.16640578183E+04  0.17678615118E+04  0.59686338639E+03 0.  0.
        3    1    3    3  502    0 -0.11290743261E+03  0.27473384522E+03  0.91760180599E+03  0.96447906074E+03  0.10100000352E+00 0.  1.
       -3    1    3    3    0  502  0.11290743261E+03 -0.27473384522E+03  0.74645601235E+03  0.80338245103E+03  0.10100000352E+00 0. -1.
</event>
<event>
 5   0  0.9866317E-03  0.5990727E+03  0.7818609E-02  0.9907332E-01
        2   -1    0    0  501    0  0.00000000000E+00  0.00000000000E+00  0.22641883224E+03  0.22641883225E+03  0.25500000920E-02 0.  1.
       -2   -1    0    0    0  501  0.00000000000E+00  0.00000000000E+00 -0.39626570940E+03  0.39626570941E+03  0.25500000920E-02 0. -1.
    10030    2    1    2    0    0  0.00000000000E+00  0.00000000000E+00 -0.16984687717E+03  0.62268454166E+03  0.59907268068E+03 0.  0.
        1    1    3    3  502    0 -0.11823065268E+03 -0.26858248654E+03 -0.22498168875E+02  0.29431480924E+03  0.50400001928E-02 0.  1.
       -1    1    3    3    0  502  0.11823065268E+03  0.26858248654E+03 -0.14734870829E+03  0.32836973242E+03  0.50400001928E-02 0. -1.
</event>
<event>
 5   0  0.9571790E-03  0.5982986E+03  0.7818609E-02  0.9908942E-01
       -2   -1    0    0    0  501  0.00000000000E+00  0.00000000000E+00  0.51208258361E+02  0.51208258424E+02  0.25500000920E-02 0. -1.
        2   -1    0    0  501    0  0.00000000000E+00  0.00000000000E+00 -0.17475757959E+04  0.17475757959E+04  0.25500000920E-02 0.  1.
    10030    2    1    2    0    0  0.00000000000E+00  0.00000000000E+00 -0.16963675376E+04  0.17987840544E+04  0.59829863086E+03 0.  0.
        5    1    3    3  502    0 -0.12450152767E+03  0.22012459539E+03 -0.36796437010E+03  0.44651465323E+03  0.46999998093E+01 0. -1.
       -5    1    3    3    0  502  0.12450152767E+03 -0.22012459539E+03 -0.13284031675E+04  0.13522694011E+04  0.46999998093E+01 0.  1.
</event>
<event>
 5   0  0.5503975E-03  0.5996575E+03  0.7818609E-02  0.9906117E-01
       -1   -1    0    0    0  501  0.00000000000E+00  0.00000000000E+00  0.12262379695E+03  0.12262379705E+03  0.50400001928E-02 0. -1.
        1   -1    0    0  501    0  0.00000000000E+00  0.00000000000E+00 -0.73311440440E+03  0.73311440442E+03  0.50400001928E-02 0.  1.
    10030    2    1    2    0    0  0.00000000000E+00  0.00000000000E+00 -0.61049060745E+03  0.85573820147E+03  0.59965747529E+03 0.  0.
        4    1    3    3  502    0  0.24750450198E+03 -0.19620703360E+02 -0.54510863973E+03  0.59898955960E+03  0.12699999809E+01 0.  1.
       -4    1    3    3    0  502 -0.24750450198E+03  0.19620703360E+02 -0.65381967729E+02  0.25674864188E+03  0.12699999809E+01 0. -1.
</event>
<event>
 5   0  0.5653633E-03  0.6000865E+03  0.7818609E-02  0.9905227E-01
        1   -1    0    0  501    0  0.00000000000E+00  0.00000000000E+00  0.11226405612E+04  0.11226405612E+04  0.50400001928E-02 0. -1.
       -1   -1    0    0    0  501  0.00000000000E+00  0.00000000000E+00 -0.80191249071E+02  0.80191249229E+02  0.50400001928E-02 0.  1.
    10030    2    1    2    0    0  0.00000000000E+00  0.00000000000E+00  0.10424493121E+04  0.12028318104E+04  0.60008649029E+03 0.  0.
        2    1    3    3  502    0  0.16079236488E+03 -0.77395528619E+01  0.13696364813E+02  0.16156013028E+03  0.25500000920E-02 0.  1.
       -2    1    3    3    0  502 -0.16079236488E+03  0.77395528619E+01  0.10287529473E+04  0.10412716801E+04  0.25500000920E-02 0. -1.
</event>
<event>
 5   0  0.5653633E-03  0.5998665E+03  0.7818609E-02  0.9905683E-01
       -1   -1    0    0    0  501  0.00000000000E+00  0.00000000000E+00  0.64814122662E+02  0.64814122858E+02  0.50400001928E-02 0.  1.
        1   -1    0    0  501    0  0.00000000000E+00  0.00000000000E+00 -0.13879685723E+04  0.13879685723E+04  0.50400001928E-02 0. -1.
    10030    2    1    2    0    0  0.00000000000E+00  0.00000000000E+00 -0.13231544496E+04  0.14527826951E+04  0.59986653663E+03 0.  0.
        2    1    3    3  502    0  0.26325171811E+03  0.68934582308E+02 -0.35613179339E+03  0.44820006470E+03  0.25500000920E-02 0. -1.
       -2    1    3    3    0  502 -0.26325171811E+03 -0.68934582308E+02 -0.96702265622E+03  0.10045826304E+04  0.25500000920E-02 0.  1.
</event>
<event>
 5   0  0.5491236E-03  0.6002042E+03  0.7818609E-02  0.9904983E-01
       -1   -1    0    0    0  501  0.00000000000E+00  0.00000000000E+00  0.53241792192E+03  0.53241792194E+03  0.50400001928E-02 0. -1.
        1   -1    0    0  501    0  0.00000000000E+00  0.00000000000E+00 -0.16915521537E+03  0.16915521544E+03  0.50400001928E-02 0.  1.
    10030    2    1    2    0    0  0.00000000000E+00  0.00000000000E+00  0.36326270655E+03  0.70157313738E+03  0.60020419286E+03 0.  0.
        3    1    3    3  502    0  0.16712031751E+03  0.12676065207E+03  0.43250427207E+03  0.48068432365E+03  0.10100000352E+00 0. -1.
       -3    1    3    3    0  502 -0.16712031751E+03 -0.12676065207E+03 -0.69241565522E+02  0.22088881374E+03  0.10100000352E+00 0.  1.
</event>
<event>
 5   0  0.5653633E-03  0.6007964E+03  0.7818609E-02  0.9903755E-01
        1   -1    0    0  501    0  0.00000000000E+00  0.00000000000E+00  0.79959326388E+03  0.79959326390E+03  0.50400001928E-02 0. -1.
       -1   -1    0    0    0  501  0.00000000000E+00  0.00000000000E+00 -0.11285621271E+03  0.11285621282E+03  0.50400001928E-02 0.  1.
    10030    2    1    2    0    0  0.00000000000E+00  0.00000000000E+00  0.68673705117E+03  0.91244947672E+03  0.60079636327E+03 0.  0.
        2    1    3    3  502    0  0.92542224492E+02 -0.21581284588E+02  0.77616557115E+03  0.78196087435E+03  0.25500000920E-02 0. -1.
       -2    1    3    3    0  502 -0.92542224492E+02  0.21581284588E+02 -0.89428519981E+02  0.13048860238E+03  0.25500000920E-02 0.  1.
</event>
<event>
 5   0  0.9530666E-03  0.6005774E+03  0.7818609E-02  0.9904209E-01
        2   -1    0    0  501    0  0.00000000000E+00  0.00000000000E+00  0.12317442070E+04  0.12317442070E+04  0.25500000920E-02 0. -1.
       -2   -1    0    0    0  501  0.00000000000E+00  0.00000000000E+00 -0.73207806893E+02  0.73207806937E+02  0.25500000920E-02 0.  1.
    10030    2    1    2    0    0  0.00000000000E+00  0.00000000000E+00  0.11585364001E+04  0.13049520139E+04  0.60057736247E+03 0.  0.
        2    1    3    3  502    0  0.25507454730E+03  0.98987212054E+02  0.31040045999E+03  0.41377522691E+03  0.25500000920E-02 0.  1.
       -2    1    3    3    0  502 -0.25507454730E+03 -0.98987212054E+02  0.84813594011E+03  0.89117678703E+03  0.25500000920E-02 0. -1.
</event>
<event>
 5   0  0.9530666E-03  0.6023805E+03  0.7818609E-02  0.9900480E-01
        2   -1    0    0  501    0  0.00000000000E+00  0.00000000000E+00  0.13626032386E+04  0.13626032386E+04  0.25500000920E-02 0. -1.
       -2   -1    0    0    0  501  0.00000000000E+00  0.00000000000E+00 -0.66575188413E+02  0.66575188462E+02  0.25500000920E-02 0.  1.
    10030    2    1    2    0    0  0.00000000000E+00  0.00000000000E+00  0.12960280502E+04  0.14291784271E+04  0.60238050227E+03 0.  0.
        2    1    3    3  502    0  0.15022390379E+03  0.11631577693E+03  0.93532139193E+02  0.21176600837E+03  0.25500000920E-02 0.  1.
       -2    1    3    3    0  502 -0.15022390379E+03 -0.11631577693E+03  0.12024959110E+04  0.12174124187E+04  0.25500000920E-02 0. -1.
</event>
<event>
 5   0  0.9428629E-03  0.5995312E+03  0.7818609E-02  0.9906379E-01
       -2   -1    0    0    0  501  0.00000000000E+00  0.00000000000E+00  0.57839456075E+03  0.57839456075E+03  0.25500000920E-02 0. -1.
        2   -1    0    0  501    0  0.00000000000E+00  0.00000000000E+00 -0.15536007527E+03  0.15536007529E+03  0.25500000920E-02 0.  1.
    10030    2    1    2    0    0  0.00000000000E+00  0.00000000000E+00  0.42303448548E+03  0.73375463604E+03  0.59953122522E+03 0.  0.
        3    1    3    3  502    0  0.12490565924E+03  0.67871635565E+02 -0.11148390728E+03  0.18065617733E+03  0.10100000352E+00 0.  1.
       -3    1    3    3    0  502 -0.12490565924E+03 -0.67871635565E+02  0.53451839276E+03  0.55309845871E+03  0.10100000352E+00 0. -1.
</event>
<event>
 5   0  0.3794375E-03  0.5986117E+03  0.7818609E-02  0.9908291E-01
        3   -1    0    0  501    0  0.00000000000E+00  0.00000000000E+00  0.16598189852E+03  0.16598192925E+03  0.10100000352E+00 0. -1.
       -3   -1    0    0    0  501  0.00000000000E+00  0.00000000000E+00 -0.53972128690E+03  0.53972129635E+03  0.10100000352E+00 0.  1.
    10030    2    1    2    0    0  0.00000000000E+00  0.00000000000E+00 -0.37373938838E+03  0.70570322559E+03  0.59861165390E+03 0.  0.
        4    1    3    3  502    0 -0.22879190940E+02 -0.22096585768E+03 -0.42333538117E+03  0.47808349218E+03  0.12699999809E+01 0. -1.
       -4    1    3    3    0  502  0.22879190940E+02  0.22096585768E+03  0.49595992792E+02  0.22761973342E+03  0.12699999809E+01 0.  1.
</event>
<event>
 5   0  0.5503975E-03  0.5994719E+03  0.7818609E-02  0.9906502E-01
       -1   -1    0    0    0  501  0.00000000000E+00  0.00000000000E+00  0.63015510297E+02  0.63015510499E+02  0.50400001928E-02 0. -1.
        1   -1    0    0  501    0  0.00000000000E+00  0.00000000000E+00 -0.14257069924E+04  0.14257069924E+04  0.50400001928E-02 0.  1.
    10030    2    1    2    0    0  0.00000000000E+00  0.00000000000E+00 -0.13626914821E+04  0.14887225029E+04  0.59947194702E+03 0.  0.
        4    1    3    3  502    0 -0.24166575543E+03  0.10705875547E+03 -0.33035106619E+03  0.42308078933E+03  0.12699999809E+01 0. -1.
       -4    1    3    3    0  502  0.24166575543E+03 -0.10705875547E+03 -0.10323404159E+04  0.10656417136E+04  0.12699999809E+01 0.  1.
</event>
<event>
 5   0  0.5653633E-03  0.5998842E+03  0.7818609E-02  0.9905646E-01
        1   -1    0    0  501    0  0.00000000000E+00  0.00000000000E+00  0.52777525739E+03  0.52777525741E+03  0.50400001928E-02 0. -1.
       -1   -1    0    0    0  501  0.00000000000E+00  0.00000000000E+00 -0.17046131726E+03  0.17046131734E+03  0.50400001928E-02 0.  1.
    10030    2    1    2    0    0  0.00000000000E+00  0.00000000000E+00  0.35731394012E+03  0.69823657475E+03  0.59988420759E+03 0.  0.
        2    1    3    3  502    0  0.19041824399E+03  0.53824555718E+02  0.44102191649E+03  0.48338030708E+03  0.25500000920E-02 0. -1.
       -2    1    3    3    0  502 -0.19041824399E+03 -0.53824555718E+02 -0.83707976368E+02  0.21485626767E+03  0.25500000920E-02 0.  1.
</event>
<event>
 5   0  0.3794375E-03  0.5994691E+03  0.7818609E-02  0.9906508E-01
        3   -1    0    0  501    0  0.00000000000E+00  0.00000000000E+00  0.12849720771E+03  0.12849724740E+03  0.10100000352E+00 0. -1.
       -3   -1    0    0    0  501  0.00000000000E+00  0.00000000000E+00 -0.69916534625E+03  0.69916535354E+03  0.10100000352E+00 0.  1.
    10030    2    1    2    0    0  0.00000000000E+00  0.00000000000E+00 -0.57066813854E+03  0.82766260094E+03  0.59946914570E+03 0.  0.
        1    1    3    3  502    0 -0.15387771441E+02  0.25807298546E+03 -0.75935967837E+02  0.26945263141E+03  0.50400001928E-02 0. -1.
       -1    1    3    3    0  502  0.15387771441E+02 -0.25807298546E+03 -0.49473217071E+03  0.55820996954E+03  0.50400001928E-02 0.  1.
</event>
<event>
 5   0  0.5653633E-03  0.5997267E+03  0.7818609E-02  0.9905973E-01
       -1   -1    0    0    0  501  0.00000000000E+00  0.00000000000E+00  0.32992775331E+03  0.32992775335E+03  0.50400001928E-02 0. -1.
        1   -1    0    0  501    0  0.00000000000E+00  0.00000000000E+00 -0.27253854740E+03  0.27253854745E+03  0.50400001928E-02 0.  1.
    10030    2    1    2    0    0  0.00000000000E+00  0.00000000000E+00  0.57389205906E+02  0.60246630080E+03  0.59972670663E+03 0.  0.
        2    1    3    3  502    0 -0.60148428458E+02 -0.26886842621E+03  0.14759900149E+03  0.31255964120E+03  0.25500000920E-02 0. -1.
       -2    1    3    3    0  502  0.60148428458E+02  0.26886842621E+03 -0.90209795585E+02  0.28990665960E+03  0.25500000920E-02 0.  1.
</event>
<event>
 5   0  0.9428629E-03  0.5993584E+03  0.7818609E-02  0.9906738E-01
        2   -1    0    0  501    0  0.00000000000E+00  0.00000000000E+00  0.19843812837E+03  0.19843812838E+03  0.25500000920E-02 0. -1.
       -2   -1    0    0    0  501  0.00000000000E+00  0.00000000000E+00 -0.45257242939E+03  0.45257242940E+03  0.25500000920E-02 0.  1.
    10030    2    1    2    0    0  0.00000000000E+00  0.00000000000E+00 -0.25413430102E+03  0.65101055778E+03  0.59935840979E+03 0.  0.
        3    1    3    3  502    0  0.13210249254E+02  0.30990461015E+02  0.19637482845E+03  0.19924357658E+03  0.10100000352E+00 0. -1.
       -3    1    3    3    0  502 -0.13210249254E+02 -0.30990461015E+02 -0.45050912947E+03  0.45176698120E+03  0.10100000352E+00 0.  1.
</event>
<event>
 5   0  0.9530666E-03  0.5998798E+03  0.7818609E-02  0.9905655E-01
        2   -1    0    0  501    0  0.00000000000E+00  0.00000000000E+00  0.27327294250E+03  0.27327294251E+03  0.25500000920E-02 0.  1.
       -2   -1    0    0    0  501  0.00000000000E+00  0.00000000000E+00 -0.32920913685E+03  0.32920913686E+03  0.25500000920E-02 0. -1.
    10030    2    1    2    0    0  0.00000000000E+00  0.00000000000E+00 -0.55936194348E+02  0.60248207937E+03  0.59987981974E+03 0.  0.
        2    1    3    3  502    0  0.15042961918E+03  0.25412739587E+03 -0.80675710354E+02  0.30613456830E+03  0.25500000920E-02 0. -1.
       -2    1    3    3    0  502 -0.15042961918E+03 -0.25412739587E+03  0.24739516007E+02  0.29634751107E+03  0.25500000920E-02 0.  1.
</event>
<event>
 5   0  0.9530666E-03  0.5997711E+03  0.7818609E-02  0.9905881E-01
       -2   -1    0    0    0  501  0.00000000000E+00  0.00000000000E+00  0.14990095165E+03  0.14990095167E+03  0.25500000920E-02 0.  1.
        2   -1    0    0  501    0  0.00000000000E+00  0.00000000000E+00 -0.59993837466E+03  0.59993837467E+03  0.25500000920E-02 0. -1.
    10030    2    1    2    0    0  0.00000000000E+00  0.00000000000E+00 -0.45003742301E+03  0.74983932634E+03  0.59977106734E+03 0.  0.
        2    1    3    3  502    0 -0.50458817846E+02  0.19476840418E+03 -0.50303362185E+03  0.54177822795E+03  0.25500000920E-02 0. -1.
       -2    1    3    3    0  502  0.50458817846E+02 -0.19476840418E+03  0.52996198843E+02  0.20806109839E+03  0.25500000920E-02 0.  1.
</event>
<event>
 5   0  0.5653633E-03  0.6001361E+03  0.7818609E-02  0.9905124E-01
        1   -1    0    0  501    0  0.00000000000E+00  0.00000000000E+00  0.70205267010E+03  0.70205267012E+03  0.50400001928E-02 0. -1.
       -1   -1    0    0    0  501  0.00000000000E+00  0.00000000000E+00 -0.12825367256E+03  0.12825367266E+03  0.50400001928E-02 0.  1.
    10030    2    1    2    0    0  0.00000000000E+00  0.00000000000E+00  0.57379899754E+03  0.83030634278E+03  0.60013609563E+03 0.  0.
        2    1    3    3  502    0 -0.15587909321E+03  0.23169291871E+03  0.43884192610E+03  0.52015587701E+03  0.25500000920E-02 0.  1.
       -2    1    3    3    0  502  0.15587909321E+03 -0.23169291871E+03  0.13495707144E+03  0.31015046577E+03  0.25500000920E-02 0. -1.
</event>
<event>
 5   0  0.5574736E-03  0.6012162E+03  0.7818609E-02  0.9902886E-01
       -1   -1    0    0    0  501  0.00000000000E+00  0.00000000000E+00  0.61649506197E+02  0.61649506403E+02  0.50400001928E-02 0.  1.
        1   -1    0    0  501    0  0.00000000000E+00  0.00000000000E+00 -0.14657898813E+04  0.14657898813E+04  0.50400001928E-02 0. -1.
    10030    2    1    2    0    0  0.00000000000E+00  0.00000000000E+00 -0.14041403751E+04  0.15274393877E+04  0.60121617587E+03 0.  0.
        5    1    3    3  502    0  0.19896384973E+03  0.54772880604E+02 -0.14687032600E+03  0.25333705731E+03  0.46999998093E+01 0.  1.
       -5    1    3    3    0  502 -0.19896384973E+03 -0.54772880604E+02 -0.12572700491E+04  0.12741023304E+04  0.46999998093E+01 0. -1.
</event>
<event>
 5   0  0.3794375E-03  0.6015556E+03  0.7818609E-02  0.9902184E-01
        3   -1    0    0  501    0  0.00000000000E+00  0.00000000000E+00  0.34058478968E+03  0.34058480466E+03  0.10100000352E+00 0. -1.
       -3   -1    0    0    0  501  0.00000000000E+00  0.00000000000E+00 -0.26562334239E+03  0.26562336159E+03  0.10100000352E+00 0.  1.
    10030    2    1    2    0    0  0.00000000000E+00  0.00000000000E+00  0.74961447290E+02  0.60620816625E+03  0.60155558534E+03 0.  0.
        3    1    3    3  502    0  0.87856326729E+02  0.28102596312E+03  0.99380091538E+02  0.31075832875E+03  0.10100000352E+00 0. -1.
       -3    1    3    3    0  502 -0.87856326729E+02 -0.28102596312E+03 -0.24418644248E+02  0.29544983750E+03  0.10100000352E+00 0.  1.
</event>
<event>
 5   0  0.9866317E-03  0.5999872E+03  0.7818609E-02  0.9905433E-01
        2   -1    0    0  501    0  0.00000000000E+00  0.00000000000E+00  0.20746112041E+03  0.20746112043E+03  0.25500000920E-02 0.  1.
       -2   -1    0    0    0  501  0.00000000000E+00  0.00000000000E+00 -0.43379766605E+03  0.43379766606E+03  0.25500000920E-02 0. -1.
    10030    2    1    2    0    0  0.00000000000E+00  0.00000000000E+00 -0.22633654564E+03  0.64125878648E+03  0.59998716599E+03 0.  0.
        1    1    3    3  502    0  0.58310556519E+02 -0.15861793496E+03 -0.37808182459E+03  0.41413238995E+03  0.50400001928E-02 0. -1.
       -1    1    3    3    0  502 -0.58310556519E+02  0.15861793496E+03  0.15174527895E+03  0.22712639653E+03  0.50400001928E-02 0.  1.
</event>
<event>
 5   0  0.9428629E-03  0.5993011E+03  0.7818609E-02  0.9906857E-01
       -2   -1    0    0    0  501  0.00000000000E+00  0.00000000000E+00  0.10932092336E+03  0.10932092339E+03  0.25500000920E-02 0. -1.
        2   -1    0    0  501    0  0.00000000000E+00  0.00000000000E+00 -0.82134734224E+03  0.82134734225E+03  0.25500000920E-02 0.  1.
    10030    2    1    2    0    0  0.00000000000E+00  0.00000000000E+00 -0.71202641889E+03  0.93066826563E+03  0.59930109249E+03 0.  0.
        3    1    3    3  502    0  0.16842500476E+03  0.11885695315E+03 -0.18287396517E+02  0.20695022738E+03  0.10100000352E+00 0. -1.
       -3    1    3    3    0  502 -0.16842500476E+03 -0.11885695315E+03 -0.69373902237E+03  0.72371803826E+03  0.10100000352E+00 0.  1.
</event>
<event>
 5   0  0.3794375E-03  0.6009077E+03  0.7818609E-02  0.9903525E-01
        4   -1    0    0  501    0  0.00000000000E+00  0.00000000000E+00  0.14602636589E+03  0.14603188842E+03  0.12699999809E+01 0. -1.
       -4   -1    0    0    0  501  0.00000000000E+00  0.00000000000E+00 -0.61817532125E+03  0.61817662581E+03  0.12699999809E+01 0.  1.
    10030    2    1    2    0    0  0.00000000000E+00  0.00000000000E+00 -0.47214895535E+03  0.76420851423E+03  0.60090766112E+03 0.  0.
        3    1    3    3  502    0  0.26403456056E+03 -0.64435270445E+01 -0.53912321159E+02  0.26955948654E+03  0.10100000352E+00 0. -1.
       -3    1    3    3    0  502 -0.26403456056E+03  0.64435270445E+01 -0.41823663419E+03  0.49464902769E+03  0.10100000352E+00 0.  1.
</event>
<event>
 5   0  0.9428629E-03  0.6022269E+03  0.7818609E-02  0.9900797E-01
       -2   -1    0    0    0  501  0.00000000000E+00  0.00000000000E+00  0.97372939810E+02  0.97372939843E+02  0.25500000920E-02 0. -1.
        2   -1    0    0  501    0  0.00000000000E+00  0.00000000000E+00 -0.93115509631E+03  0.93115509631E+03  0.25500000920E-02 0.  1.
    10030    2    1    2    0    0  0.00000000000E+00  0.00000000000E+00 -0.83378215650E+03  0.10285280362E+04  0.60222689799E+03 0.  0.
        3    1    3    3  502    0 -0.35286086750E+02 -0.20659392560E+03 -0.78613634025E+03  0.81359480927E+03  0.10100000352E+00 0.  1.
       -3    1    3    3    0  502  0.35286086750E+02  0.20659392560E+03 -0.47645816250E+02  0.21493322688E+03  0.10100000352E+00 0. -1.
</event>
<event>
 5   0  0.9530666E-03  0.6003216E+03  0.7818609E-02  0.9904739E-01
        2   -1    0    0  501    0  0.00000000000E+00  0.00000000000E+00  0.29841551639E+03  0.29841551640E+03  0.25500000920E-02 0. -1.
       -2   -1    0    0    0  501  0.00000000000E+00  0.00000000000E+00 -0.30191633771E+03  0.30191633772E+03  0.25500000920E-02 0.  1.
    10030    2    1    2    0    0  0.00000000000E+00  0.00000000000E+00 -0.35008213224E+01  0.60033185412E+03  0.60032164656E+03 0.  0.
        2    1    3    3  502    0  0.29683933622E+03 -0.33596800648E+02  0.27476500465E+02  0.29999549101E+03  0.25500000920E-02 0. -1.
       -2    1    3    3    0  502 -0.29683933622E+03  0.33596800648E+02 -0.30977321787E+02  0.30033636312E+03  0.25500000920E-02 0.  1.
</event>
<event>
 5   0  0.9571790E-03  0.5999027E+03  0.7818609E-02  0.9905608E-01
        2   -1    0    0  501    0  0.00000000000E+00  0.00000000000E+00  0.36290382594E+03  0.36290382595E+03  0.25500000920E-02 0. -1.
       -2   -1    0    0    0  501  0.00000000000E+00  0.00000000000E+00 -0.24791915797E+03  0.24791915798E+03  0.25500000920E-02 0.  1.
    10030    2    1    2    0    0  0.00000000000E+00  0.00000000000E+00  0.11498466798E+03  0.61082298394E+03  0.59990269530E+03 0.  0.
        5    1    3    3  502    0  0.16269477516E+03 -0.19193321994E+03  0.22368350391E+03  0.33669622911E+03  0.46999998093E+01 0. -1.
       -5    1    3    3    0  502 -0.16269477516E+03  0.19193321994E+03 -0.10869883593E+03  0.27412675482E+03  0.46999998093E+01 0.  1.
</event>
<event>
 5   0  0.5491236E-03  0.6060944E+03  0.7818609E-02  0.9892842E-01
       -1   -1    0    0    0  501  0.00000000000E+00  0.00000000000E+00  0.18955945037E+03  0.18955945044E+03  0.50400001928E-02 0.  1.
        1   -1    0    0  501    0  0.00000000000E+00  0.00000000000E+00 -0.48447915313E+03  0.48447915315E+03  0.50400001928E-02 0. -1.
    10030    2    1    2    0    0  0.00000000000E+00  0.00000000000E+00 -0.29491970276E+03  0.67403860359E+03  0.60609438873E+03 0.  0.
        3    1    3    3  502    0  0.70026742533E+02  0.19035601419E+03 -0.39786415207E+03  0.44658151609E+03  0.10100000352E+00 0. -1.
       -3    1    3    3    0  502 -0.70026742533E+02 -0.19035601419E+03  0.10294444931E+03  0.22745708750E+03  0.10100000352E+00 0.  1.
</event>
<event>
 5   0  0.5574736E-03  0.6011802E+03  0.7818609E-02  0.9902960E-01
       -1   -1    0    0    0  501  0.00000000000E+00  0.00000000000E+00  0.23875615344E+03  0.23875615349E+03  0.50400001928E-02 0.  1.
        1   -1    0    0  501    0  0.00000000000E+00  0.00000000000E+00 -0.37843808062E+03  0.37843808065E+03  0.50400001928E-02 0. -1.
    10030    2    1    2    0    0  0.00000000000E+00  0.00000000000E+00 -0.13968192718E+03  0.61719423415E+03  0.60118024076E+03 0.  0.
        5    1    3    3  502    0  0.26703183225E+03 -0.12611762793E+03 -0.12719202112E+03  0.32157667164E+03  0.46999998093E+01 0. -1.
       -5    1    3    3    0  502 -0.26703183225E+03  0.12611762793E+03 -0.12489906056E+02  0.29561756250E+03  0.46999998093E+01 0.  1.
</event>
<event>
 5   0  0.9866317E-03  0.6002104E+03  0.7818609E-02  0.9904970E-01
       -2   -1    0    0    0  501  0.00000000000E+00  0.00000000000E+00  0.14769007707E+03  0.14769007709E+03  0.25500000920E-02 0. -1.
        2   -1    0    0  501    0  0.00000000000E+00  0.00000000000E+00 -0.60981163118E+03  0.60981163118E+03  0.25500000920E-02 0.  1.
    10030    2    1    2    0    0  0.00000000000E+00  0.00000000000E+00 -0.46212155411E+03  0.75750170827E+03  0.60021038583E+03 0.  0.
        1    1    3    3  502    0 -0.38366847941E+02  0.16575368737E+03 -0.54306502688E+03  0.56909219230E+03  0.50400001928E-02 0.  1.
       -1    1    3    3    0  502  0.38366847941E+02 -0.16575368737E+03  0.80943472770E+02  0.18840951597E+03  0.50400001928E-02 0. -1.
</event>
<event>
 5   0  0.5653633E-03  0.6000781E+03  0.7818609E-02  0.9905244E-01
        1   -1    0    0  501    0  0.00000000000E+00  0.00000000000E+00  0.35422173672E+03  0.35422173675E+03  0.50400001928E-02 0.  1.
       -1   -1    0    0    0  501  0.00000000000E+00  0.00000000000E+00 -0.25414429446E+03  0.25414429451E+03  0.50400001928E-02 0. -1.
    10030    2    1    2    0    0  0.00000000000E+00  0.00000000000E+00  0.10007744226E+03  0.60836603127E+03  0.60007810621E+03 0.  0.
        2    1    3    3  502    0 -0.45550816103E+02  0.29584100341E+03  0.70979688107E+02  0.30762784704E+03  0.25500000920E-02 0. -1.
       -2    1    3    3    0  502  0.45550816103E+02 -0.29584100341E+03  0.29097754151E+02  0.30073818422E+03  0.25500000920E-02 0.  1.
</event>
<event>
 5   0  0.9530666E-03  0.5966297E+03  0.7818609E-02  0.9912423E-01
        2   -1    0    0  501    0  0.00000000000E+00  0.00000000000E+00  0.12310312428E+04  0.12310312428E+04  0.25500000920E-02 0.  1.
       -2   -1    0    0    0  501  0.00000000000E+00  0.00000000000E+00 -0.72290418218E+02  0.72290418263E+02  0.25500000920E-02 0. -1.
    10030    2    1    2    0    0  0.00000000000E+00  0.00000000000E+00  0.11587408245E+04  0.13033216610E+04  0.59662974585E+03 0.  0.
        2    1    3    3  502    0 -0.16289469023E+03 -0.18561620224E+03  0.21381393171E+03  0.32665647405E+03  0.25500000920E-02 0. -1.
       -2    1    3    3    0  502  0.16289469023E+03  0.18561620224E+03  0.94492689283E+03  0.97666518697E+03  0.25500000920E-02 0.  1.
</event>
<event>
 5   0  0.5785798E-03  0.6007755E+03  0.7818609E-02  0.9903799E-01
       -1   -1    0    0    0  501  0.00000000000E+00  0.00000000000E+00  0.15030955959E+03  0.15030955967E+03  0.50400001928E-02 0. -1.
        1   -1    0    0  501    0  0.00000000000E+00  0.00000000000E+00 -0.60031303376E+03  0.60031303379E+03  0.50400001928E-02 0.  1.
    10030    2    1    2    0    0  0.00000000000E+00  0.00000000000E+00 -0.45000347418E+03  0.75062259346E+03  0.60077545809E+03 0.  0.
        1    1    3    3  502    0  0.16357966847E+03 -0.15242007927E+03 -0.47564293696E+03  0.52557244220E+03  0.50400001928E-02 0.  1.
       -1    1    3    3    0  502 -0.16357966847E+03  0.15242007927E+03  0.25639462779E+02  0.22505015125E+03  0.50400001928E-02 0. -1.
</event>
<event>
 5   0  0.9681801E-03  0.5998194E+03  0.7818609E-02  0.9905781E-01
        2   -1    0    0  501    0  0.00000000000E+00  0.00000000000E+00  0.66478564905E+03  0.66478564906E+03  0.25500000920E-02 0. -1.
       -2   -1    0    0    0  501  0.00000000000E+00  0.00000000000E+00 -0.13530048325E+03  0.13530048327E+03  0.25500000920E-02 0.  1.
    10030    2    1    2    0    0  0.00000000000E+00  0.00000000000E+00  0.52948516580E+03  0.80008613233E+03  0.59981937142E+03 0.  0.
        4    1    3    3  502    0 -0.37079361415E+02 -0.18403760288E+03 -0.47223864765E+02  0.19358828637E+03  0.12699999809E+01 0.  1.
       -4    1    3    3    0  502  0.37079361415E+02  0.18403760288E+03  0.57670903057E+03  0.60649784596E+03  0.12699999809E+01 0. -1.
</event>
<event>
 5   0  0.5503975E-03  0.6001345E+03  0.7818609E-02  0.9905127E-01
       -1   -1    0    0    0  501  0.00000000000E+00  0.00000000000E+00  0.13193797505E+03  0.13193797514E+03  0.50400001928E-02 0. -1.
        1   -1    0    0  501    0  0.00000000000E+00  0.00000000000E+00 -0.68244458254E+03  0.68244458256E+03  0.50400001928E-02 0.  1.
    10030    2    1    2    0    0  0.00000000000E+00  0.00000000000E+00 -0.55050660749E+03  0.81438255770E+03  0.60013450608E+03 0.  0.
        4    1    3    3  502    0 -0.88457109142E+02 -0.12418530306E+03 -0.62595865625E+03  0.64426120626E+03  0.12699999809E+01 0.  1.
       -4    1    3    3    0  502  0.88457109142E+02  0.12418530306E+03  0.75452048762E+02  0.17012135144E+03  0.12699999809E+01 0. -1.
</event>
<event>
 5   0  0.3794375E-03  0.6007506E+03  0.7818609E-02  0.9903850E-01
        4   -1    0    0  501    0  0.00000000000E+00  0.00000000000E+00  0.12874704617E+03  0.12875330985E+03  0.12699999809E+01 0. -1.
       -4   -1    0    0    0  501  0.00000000000E+00  0.00000000000E+00 -0.70077128068E+03  0.70077243149E+03  0.12699999809E+01 0.  1.
    10030    2    1    2    0    0  0.00000000000E+00  0.00000000000E+00 -0.57202423451E+03  0.82952574134E+03  0.60075055611E+03 0.  0.
        2    1    3    3  502    0  0.38241941660E+02 -0.11536258843E+03  0.93283463828E+02  0.15320828157E+03  0.25500000920E-02 0. -1.
       -2    1    3    3    0  502 -0.38241941660E+02  0.11536258843E+03 -0.66530769834E+03  0.67631745977E+03  0.25500000920E-02 0.  1.
</event>
<event>
 5   0  0.5653633E-03  0.6042417E+03  0.7818609E-02  0.9896645E-01
        1   -1    0    0  501    0  0.00000000000E+00  0.00000000000E+00  0.86846112615E+03  0.86846112616E+03  0.50400001928E-02 0.  1.
       -1   -1    0    0    0  501  0.00000000000E+00  0.00000000000E+00 -0.10510200886E+03  0.10510200898E+03  0.50400001928E-02 0. -1.
    10030    2    1    2    0    0  0.00000000000E+00  0.00000000000E+00  0.76335911729E+03  0.97356313515E+03  0.60424170343E+03 0.  0.
        2    1    3    3  502    0 -0.26184621176E+02  0.29835538625E+03  0.31772756283E+03  0.43663757864E+03  0.25500000920E-02 0. -1.
       -2    1    3    3    0  502  0.26184621176E+02 -0.29835538625E+03  0.44563155445E+03  0.53692555650E+03  0.25500000920E-02 0.  1.
</event>
<event>
 5   0  0.5491236E-03  0.6034203E+03  0.7818609E-02  0.9898335E-01
        1   -1    0    0  501    0  0.00000000000E+00  0.00000000000E+00  0.57690783559E+03  0.57690783562E+03  0.50400001928E-02 0. -1.
       -1   -1    0    0    0  501  0.00000000000E+00  0.00000000000E+00 -0.15778777446E+03  0.15778777454E+03  0.50400001928E-02 0.  1.
    10030    2    1    2    0    0  0.00000000000E+00  0.00000000000E+00  0.41912006113E+03  0.73469561016E+03  0.60342026312E+03 0.  0.
        3    1    3    3  502    0  0.29266623076E+03 -0.56950492153E+02  0.15333980648E+03  0.33527598727E+03  0.10100000352E+00 0.  1.
       -3    1    3    3    0  502 -0.29266623076E+03  0.56950492153E+02  0.26578025465E+03  0.39941962289E+03  0.10100000352E+00 0. -1.
</event>
<event>
 5   0  0.9866317E-03  0.6001136E+03  0.7818609E-02  0.9905170E-01
       -2   -1    0    0    0  501  0.00000000000E+00  0.00000000000E+00  0.43181898520E+02  0.43181898595E+02  0.25500000920E-02 0.  1.
        2   -1    0    0  501    0  0.00000000000E+00  0.00000000000E+00 -0.20849960650E+04  0.20849960650E+04  0.25500000920E-02 0. -1.
    10030    2    1    2    0    0  0.00000000000E+00  0.00000000000E+00 -0.20418141665E+04  0.21281779636E+04  0.60011361783E+03 0.  0.
        1    1    3    3  502    0  0.27560566645E+01 -0.10056893718E+03 -0.20234004252E+04  0.20259000439E+04  0.50400001928E-02 0. -1.
       -1    1    3    3    0  502 -0.27560566645E+01  0.10056893718E+03 -0.18413741281E+02  0.10227791974E+03  0.50400001928E-02 0.  1.
</event>
<event>
 5   0  0.5491236E-03  0.5990766E+03  0.7818609E-02  0.9907324E-01
        1   -1    0    0  501    0  0.00000000000E+00  0.00000000000E+00  0.24419482571E+03  0.24419482576E+03  0.50400001928E-02 0. -1.
       -1   -1    0    0    0  501  0.00000000000E+00  0.00000000000E+00 -0.36742463439E+03  0.36742463442E+03  0.50400001928E-02 0.  1.
    10030    2    1    2    0    0  0.00000000000E+00  0.00000000000E+00 -0.12322980867E+03  0.61161946019E+03  0.59907660473E+03 0.  0.
        3    1    3    3  502    0  0.14189298320E+02 -0.12856949626E+03  0.21421145828E+03  0.25023590992E+03  0.10100000352E+00 0. -1.
       -3    1    3    3    0  502 -0.14189298320E+02  0.12856949626E+03 -0.33744126696E+03  0.36138355026E+03  0.10100000352E+00 0.  1.
</event>
<event>
 5   0  0.9866317E-03  0.6003038E+03  0.7818609E-02  0.9904776E-01
       -2   -1    0    0    0  501  0.00000000000E+00  0.00000000000E+00  0.55928062821E+02  0.55928062879E+02  0.25500000920E-02 0.  1.
        2   -1    0    0  501    0  0.00000000000E+00  0.00000000000E+00 -0.16108399495E+04  0.16108399495E+04  0.25500000920E-02 0. -1.
    10030    2    1    2    0    0  0.00000000000E+00  0.00000000000E+00 -0.15549118867E+04  0.16667680124E+04  0.60030378289E+03 0.  0.
        1    1    3    3  502    0 -0.17164403452E+03 -0.91272875130E+02 -0.14124208351E+04  0.14257366615E+04  0.50400001928E-02 0. -1.
       -1    1    3    3    0  502  0.17164403452E+03  0.91272875130E+02 -0.14249105153E+03  0.24103135089E+03  0.50400001928E-02 0.  1.
</event>
<event>
 5   0  0.5491236E-03  0.6006670E+03  0.7818609E-02  0.9904023E-01
        1   -1    0    0  501    0  0.00000000000E+00  0.00000000000E+00  0.87518449422E+03  0.87518449424E+03  0.50400001928E-02 0.  1.
       -1   -1    0    0    0  501  0.00000000000E+00  0.00000000000E+00 -0.10306421790E+03  0.10306421802E+03  0.50400001928E-02 0. -1.
    10030    2    1    2    0    0  0.00000000000E+00  0.00000000000E+00  0.77212027632E+03  0.97824871226E+03  0.60066698089E+03 0.  0.
        3    1    3    3  502    0  0.13320387711E+03 -0.10067821174E+03  0.79262711983E+03  0.81002292343E+03  0.10100000352E+00 0.  1.
       -3    1    3    3    0  502 -0.13320387711E+03  0.10067821174E+03 -0.20506843508E+02  0.16822578883E+03  0.10100000352E+00 0. -1.
</event>
<event>
 5   0  0.5574736E-03  0.6004120E+03  0.7818609E-02  0.9904552E-01
        1   -1    0    0  501    0  0.00000000000E+00  0.00000000000E+00  0.15340296011E+03  0.15340296019E+03  0.50400001928E-02 0.  1.
       -1   -1    0    0    0  501  0.00000000000E+00  0.00000000000E+00 -0.58749609544E+03  0.58749609546E+03  0.50400001928E-02 0. -1.
    10030    2    1    2    0    0  0.00000000000E+00  0.00000000000E+00 -0.43409313533E+03  0.74089905566E+03  0.60041199233E+03 0.  0.
        5    1    3    3  502    0  0.73482018827E+02 -0.27275501297E+03 -0.34232270719E+03  0.44384888199E+03  0.46999998093E+01 0.  1.
       -5    1    3    3    0  502 -0.73482018827E+02  0.27275501297E+03 -0.91770428142E+02  0.29705017366E+03  0.46999998093E+01 0. -1.
</event>
<event>
 5   0  0.9681801E-03  0.6000637E+03  0.7818609E-02  0.9905274E-01
        2   -1    0    0  501    0  0.00000000000E+00  0.00000000000E+00  0.22942001798E+03  0.22942001799E+03  0.25500000920E-02 0. -1.
       -2   -1    0    0    0  501  0.00000000000E+00  0.00000000000E+00 -0.39237689824E+03  0.39237689825E+03  0.25500000920E-02 0.  1.
    10030    2    1    2    0    0  0.00000000000E+00  0.00000000000E+00 -0.16295688026E+03  0.62179691624E+03  0.60006371347E+03 0.  0.
        4    1    3    3  502    0  0.20179628108E+03 -0.28546997673E+02  0.14667983810E+03  0.25110407790E+03  0.12699999809E+01 0. -1.
       -4    1    3    3    0  502 -0.20179628108E+03  0.28546997673E+02 -0.30963671837E+03  0.37069283834E+03  0.12699999809E+01 0.  1.
</event>
<event>
 5   0  0.9530666E-03  0.5996392E+03  0.7818609E-02  0.9906155E-01
        2   -1    0    0  501    0  0.00000000000E+00  0.00000000000E+00  0.49629897548E+03  0.49629897549E+03  0.25500000920E-02 0.  1.
       -2   -1    0    0    0  501  0.00000000000E+00  0.00000000000E+00 -0.18112428773E+03  0.18112428775E+03  0.25500000920E-02 0. -1.
    10030    2    1    2    0    0  0.00000000000E+00  0.00000000000E+00  0.31517468775E+03  0.67742326324E+03  0.59963921968E+03 0.  0.
        2    1    3    3  502    0  0.20491525736E+02 -0.15843197104E+03  0.44421355335E+03  0.47206596262E+03  0.25500000920E-02 0.  1.
       -2    1    3    3    0  502 -0.20491525736E+02  0.15843197104E+03 -0.12903886560E+03  0.20535730062E+03  0.25500000920E-02 0. -1.
</event>
<event>
 5   0  0.5503975E-03  0.6172489E+03  0.7818609E-02  0.9870252E-01
       -1   -1    0    0    0  501  0.00000000000E+00  0.00000000000E+00  0.12713579809E+03  0.12713579819E+03  0.50400001928E-02 0.  1.
        1   -1    0    0  501    0  0.00000000000E+00  0.00000000000E+00 -0.74919150227E+03  0.74919150228E+03  0.50400001928E-02 0. -1.
    10030    2    1    2    0    0  0.00000000000E+00  0.00000000000E+00 -0.62205570417E+03  0.87632730047E+03  0.61724892747E+03 0.  0.
        4    1    3    3  502    0 -0.14671913533E+03  0.18091463695E+03 -0.23586407735E+02  0.23412505646E+03  0.12699999809E+01 0.  1.
       -4    1    3    3    0  502  0.14671913533E+03 -0.18091463695E+03 -0.59846929644E+03  0.64220224401E+03  0.12699999809E+01 0. -1.
</event>
<event>
 5   0  0.3794375E-03  0.5976865E+03  0.7818609E-02  0.9910217E-01
        3   -1    0    0  501    0  0.00000000000E+00  0.00000000000E+00  0.33118079408E+03  0.33118080948E+03  0.10100000352E+00 0.  1.
       -3   -1    0    0    0  501  0.00000000000E+00  0.00000000000E+00 -0.26966325937E+03  0.26966327828E+03  0.10100000352E+00 0. -1.
    10030    2    1    2    0    0  0.00000000000E+00  0.00000000000E+00  0.61517534712E+02  0.60084408776E+03  0.59768654888E+03 0.  0.
        2    1    3    3  502    0  0.97893876975E+02  0.27241134051E+03 -0.43904409582E+02  0.29277764049E+03  0.25500000920E-02 0. -1.
       -2    1    3    3    0  502 -0.97893876975E+02 -0.27241134051E+03  0.10542194429E+03  0.30806644727E+03  0.25500000920E-02 0.  1.
</event>
<event>
 5   0  0.9571790E-03  0.6037108E+03  0.7818609E-02  0.9897737E-01
        2   -1    0    0  501    0  0.00000000000E+00  0.00000000000E+00  0.36439902580E+03  0.36439902581E+03  0.25500000920E-02 0. -1.
       -2   -1    0    0    0  501  0.00000000000E+00  0.00000000000E+00 -0.25004646005E+03  0.25004646006E+03  0.25500000920E-02 0.  1.
    10030    2    1    2    0    0  0.00000000000E+00  0.00000000000E+00  0.11435256575E+03  0.61444548588E+03  0.60371081307E+03 0.  0.
        5    1    3    3  502    0  0.30978940855E+02 -0.65175349482E+02  0.35545228322E+03  0.36273397498E+03  0.46999998093E+01 0. -1.
       -5    1    3    3    0  502 -0.30978940855E+02  0.65175349482E+02 -0.24109971747E+03  0.25171151090E+03  0.46999998093E+01 0.  1.
</event>
<event>
 5   0  0.5503975E-03  0.5998653E+03  0.7818609E-02  0.9905686E-01
       -1   -1    0    0    0  501  0.00000000000E+00  0.00000000000E+00  0.74812138830E+02  0.74812139000E+02  0.50400001928E-02 0. -1.
        1   -1    0    0  501    0  0.00000000000E+00  0.00000000000E+00 -0.12024731906E+04  0.12024731906E+04  0.50400001928E-02 0.  1.
    10030    2    1    2    0    0  0.00000000000E+00  0.00000000000E+00 -0.11276610518E+04  0.12772853296E+04  0.59986528951E+03 0.  0.
        4    1    3    3  502    0  0.13246153669E+03  0.10815308093E+03 -0.10884949127E+04  0.11018466025E+04  0.12699999809E+01 0.  1.
       -4    1    3    3    0  502 -0.13246153669E+03 -0.10815308093E+03 -0.39166139088E+02  0.17543872711E+03  0.12699999809E+01 0. -1.
</event>
<event>
 5   0  0.9681801E-03  0.5987225E+03  0.7818609E-02  0.9908060E-01
        2   -1    0    0  501    0  0.00000000000E+00  0.00000000000E+00  0.74554635937E+03  0.74554635938E+03  0.25500000920E-02 0. -1.
       -2   -1    0    0    0  501  0.00000000000E+00  0.00000000000E+00 -0.12020334597E+03  0.12020334600E+03  0.25500000920E-02 0.  1.
    10030    2    1    2    0    0  0.00000000000E+00  0.00000000000E+00  0.62534301340E+03  0.86574970538E+03  0.59872253002E+03 0.  0.
        4    1    3    3  502    0 -0.26861404862E+03  0.94995075203E+02  0.17984459789E+03  0.33693213518E+03  0.12699999809E+01 0.  1.
       -4    1    3    3    0  502  0.26861404862E+03 -0.94995075203E+02  0.44549841551E+03  0.52881757019E+03  0.12699999809E+01 0. -1.
</event>
<event>
 5   0  0.5653633E-03  0.6127383E+03  0.7818609E-02  0.9879325E-01
        1   -1    0    0  501    0  0.00000000000E+00  0.00000000000E+00  0.15417079569E+03  0.15417079577E+03  0.50400001928E-02 0.  1.
       -1   -1    0    0    0  501  0.00000000000E+00  0.00000000000E+00 -0.60881872422E+03  0.60881872424E+03  0.50400001928E-02 0. -1.
    10030    2    1    2    0    0  0.00000000000E+00  0.00000000000E+00 -0.45464792853E+03  0.76298952001E+03  0.61273833627E+03 0.  0.
        2    1    3    3  502    0 -0.29495917852E+02  0.16070113929E+03  0.95393261744E+02  0.18919497809E+03  0.25500000920E-02 0.  1.
       -2    1    3    3    0  502  0.29495917852E+02 -0.16070113929E+03 -0.55004119028E+03  0.57379454193E+03  0.25500000920E-02 0. -1.
</event>
<event>
 5   0  0.5653633E-03  0.5995655E+03  0.7818609E-02  0.9906308E-01
       -1   -1    0    0    0  501  0.00000000000E+00  0.00000000000E+00  0.14444279869E+03  0.14444279877E+03  0.50400001928E-02 0. -1.
        1   -1    0    0  501    0  0.00000000000E+00  0.00000000000E+00 -0.62218192798E+03  0.62218192800E+03  0.50400001928E-02 0.  1.
    10030    2    1    2    0    0  0.00000000000E+00  0.00000000000E+00 -0.47773912929E+03  0.76662472677E+03  0.59956550605E+03 0.  0.
        2    1    3    3  502    0  0.22388912483E+03 -0.15546666282E+03 -0.79304079790E+02  0.28387560752E+03  0.25500000920E-02 0. -1.
       -2    1    3    3    0  502 -0.22388912483E+03  0.15546666282E+03 -0.39843504950E+03  0.48274911926E+03  0.25500000920E-02 0.  1.
</event>
<event>
 5   0  0.9530666E-03  0.6007027E+03  0.7818609E-02  0.9903949E-01
       -2   -1    0    0    0  501  0.00000000000E+00  0.00000000000E+00  0.11466589661E+03  0.11466589664E+03  0.25500000920E-02 0. -1.
        2   -1    0    0  501    0  0.00000000000E+00  0.00000000000E+00 -0.78672865531E+03  0.78672865532E+03  0.25500000920E-02 0.  1.
    10030    2    1    2    0    0  0.00000000000E+00  0.00000000000E+00 -0.67206275870E+03  0.90139455196E+03  0.60070274401E+03 0.  0.
        2    1    3    3  502    0 -0.26754312448E+03 -0.89788459626E+02 -0.18175986815E+03  0.33567535002E+03  0.25500000920E-02 0. -1.
       -2    1    3    3    0  502  0.26754312448E+03  0.89788459626E+02 -0.49030289056E+03  0.56571920193E+03  0.25500000920E-02 0.  1.
</event>
<event>
 5   0  0.5574736E-03  0.6006966E+03  0.7818609E-02  0.9903962E-01
        1   -1    0    0  501    0  0.00000000000E+00  0.00000000000E+00  0.13699734179E+03  0.13699734188E+03  0.50400001928E-02 0.  1.
       -1   -1    0    0    0  501  0.00000000000E+00  0.00000000000E+00 -0.65847346584E+03  0.65847346585E+03  0.50400001928E-02 0. -1.
    10030    2    1    2    0    0  0.00000000000E+00  0.00000000000E+00 -0.52147612405E+03  0.79547080774E+03  0.60069664392E+03 0.  0.
        5    1    3    3  502    0  0.21521825050E+03 -0.10816943372E+03 -0.23230350857E+02  0.24203566046E+03  0.46999998093E+01 0.  1.
       -5    1    3    3    0  502 -0.21521825050E+03  0.10816943372E+03 -0.49824577319E+03  0.55343514727E+03  0.46999998093E+01 0. -1.
</event>
<event>
 5   0  0.5503975E-03  0.5953810E+03  0.7818609E-02  0.9915036E-01
       -1   -1    0    0    0  501  0.00000000000E+00  0.00000000000E+00  0.49317931331E+02  0.49317931589E+02  0.50400001928E-02 0. -1.
        1   -1    0    0  501    0  0.00000000000E+00  0.00000000000E+00 -0.17969046917E+04  0.17969046917E+04  0.50400001928E-02 0.  1.
    10030    2    1    2    0    0  0.00000000000E+00  0.00000000000E+00 -0.17475867604E+04  0.18462226233E+04  0.59538096187E+03 0.  0.
        4    1    3    3  502    0 -0.21095748755E+03 -0.18643909702E+03 -0.11737238329E+04  0.12070177493E+04  0.12699999809E+01 0.  1.
       -4    1    3    3    0  502  0.21095748755E+03  0.18643909702E+03 -0.57386292753E+03  0.63920487400E+03  0.12699999809E+01 0. -1.
</event>
<event>
 5   0  0.5574736E-03  0.6003878E+03  0.7818609E-02  0.9904602E-01
        1   -1    0    0  501    0  0.00000000000E+00  0.00000000000E+00  0.54649848196E+03  0.54649848199E+03  0.50400001928E-02 0.  1.
       -1   -1    0    0    0  501  0.00000000000E+00  0.00000000000E+00 -0.16489775837E+03  0.16489775845E+03  0.50400001928E-02 0. -1.
    10030    2    1    2    0    0  0.00000000000E+00  0.00000000000E+00  0.38160072359E+03  0.71139624044E+03  0.60038779024E+03 0.  0.
        5    1    3    3  502    0  0.14040716333E+03  0.15472075554E+03 -0.64548134862E+02  0.21872639398E+03  0.46999998093E+01 0. -1.
       -5    1    3    3    0  502 -0.14040716333E+03 -0.15472075554E+03  0.44614885845E+03  0.49266984646E+03  0.46999998093E+01 0.  1.
</event>
<event>
 5   0  0.9530666E-03  0.6004503E+03  0.7818609E-02  0.9904472E-01
        2   -1    0    0  501    0  0.00000000000E+00  0.00000000000E+00  0.23592385732E+03  0.23592385733E+03  0.25500000920E-02 0. -1.
       -2   -1    0    0    0  501  0.00000000000E+00  0.00000000000E+00 -0.38205177987E+03  0.38205177988E+03  0.25500000920E-02 0.  1.
    10030    2    1    2    0    0  0.00000000000E+00  0.00000000000E+00 -0.14612792255E+03  0.61797563721E+03  0.60045026308E+03 0.  0.
        2    1    3    3  502    0 -0.24795764005E+03  0.36787411571E+02 -0.24310990994E+03  0.34919726979E+03  0.25500000920E-02 0.  1.
       -2    1    3    3    0  502  0.24795764005E+03 -0.36787411571E+02  0.96981987387E+02  0.26877836742E+03  0.25500000920E-02 0. -1.
</event>
<event>
 5   0  0.9530666E-03  0.6000449E+03  0.7818609E-02  0.9905313E-01
        2   -1    0    0  501    0  0.00000000000E+00  0.00000000000E+00  0.48653680701E+03  0.48653680702E+03  0.25500000920E-02 0. -1.
       -2   -1    0    0    0  501  0.00000000000E+00  0.00000000000E+00 -0.18500857765E+03  0.18500857767E+03  0.25500000920E-02 0.  1.
    10030    2    1    2    0    0  0.00000000000E+00  0.00000000000E+00  0.30152822936E+03  0.67154538469E+03  0.60004494048E+03 0.  0.
        2    1    3    3  502    0 -0.14717442539E+03  0.37062781800E+02 -0.13887860074E+03  0.20572123623E+03  0.25500000920E-02 0.  1.
       -2    1    3    3    0  502  0.14717442539E+03 -0.37062781800E+02  0.44040683010E+03  0.46582414846E+03  0.25500000920E-02 0. -1.
</event>
<event>
 5   0  0.5503975E-03  0.6000077E+03  0.7818609E-02  0.9905390E-01
       -1   -1    0    0    0  501  0.00000000000E+00  0.00000000000E+00  0.34831197112E+03  0.34831197115E+03  0.50400001928E-02 0. -1.
        1   -1    0    0  501    0  0.00000000000E+00  0.00000000000E+00 -0.25839564905E+03  0.25839564910E+03  0.50400001928E-02 0.  1.
    10030    2    1    2    0    0  0.00000000000E+00  0.00000000000E+00  0.89916322064E+02  0.60670762026E+03  0.60000765954E+03 0.  0.
        4    1    3    3  502    0  0.16406920137E+03  0.57279843498E+02  0.29223126727E+03  0.34000060261E+03  0.12699999809E+01 0. -1.
       -4    1    3    3    0  502 -0.16406920137E+03 -0.57279843498E+02 -0.20231494520E+03  0.26670701765E+03  0.12699999809E+01 0.  1.
</event>
<event>
 5   0  0.9428629E-03  0.5999872E+03  0.7818609E-02  0.9905433E-01
        2   -1    0    0  501    0  0.00000000000E+00  0.00000000000E+00  0.11642489355E+04  0.11642489355E+04  0.25500000920E-02 0. -1.
       -2   -1    0    0    0  501  0.00000000000E+00  0.00000000000E+00 -0.77299751498E+02  0.77299751540E+02  0.25500000920E-02 0.  1.
    10030    2    1    2    0    0  0.00000000000E+00  0.00000000000E+00  0.10869491840E+04  0.12415486870E+04  0.59998717793E+03 0.  0.
        3    1    3    3  502    0  0.65628347038E+02  0.18440906547E+03  0.73046819157E+02  0.20892494191E+03  0.10100000352E+00 0.  1.
       -3    1    3    3    0  502 -0.65628347038E+02 -0.18440906547E+03  0.10139023648E+04  0.10326237451E+04  0.10100000352E+00 0. -1.
</event>
<event>
 5   0  0.9428629E-03  0.6018299E+03  0.7818609E-02  0.9901617E-01
        2   -1    0    0  501    0  0.00000000000E+00  0.00000000000E+00  0.20330977174E+03  0.20330977175E+03  0.25500000920E-02 0.  1.
       -2   -1    0    0    0  501  0.00000000000E+00  0.00000000000E+00 -0.44537856699E+03  0.44537856700E+03  0.25500000920E-02 0. -1.
    10030    2    1    2    0    0  0.00000000000E+00  0.00000000000E+00 -0.24206879525E+03  0.64868833875E+03  0.60182992547E+03 0.  0.
        3    1    3    3  502    0 -0.30040036218E+03  0.61871835360E+00 -0.13998280020E+03  0.33141507956E+03  0.10100000352E+00 0.  1.
       -3    1    3    3    0  502  0.30040036218E+03 -0.61871835360E+00 -0.10208599505E+03  0.31727325919E+03  0.10100000352E+00 0. -1.
</event>
<event>
 5   0  0.9681801E-03  0.6002313E+03  0.7818609E-02  0.9904926E-01
        2   -1    0    0  501    0  0.00000000000E+00  0.00000000000E+00  0.16469484557E+03  0.16469484559E+03  0.25500000920E-02 0. -1.
       -2   -1    0    0    0  501  0.00000000000E+00  0.00000000000E+00 -0.54688663154E+03  0.54688663154E+03  0.25500000920E-02 0.  1.
    10030    2    1    2    0    0  0.00000000000E+00  0.00000000000E+00 -0.38219178596E+03  0.71158147714E+03  0.60023131986E+03 0.  0.
        4    1    3    3  502    0 -0.88653558698E+01  0.29857493240E+03 -0.15669128593E+03  0.33731195766E+03  0.12699999809E+01 0. -1.
       -4    1    3    3    0  502  0.88653558698E+01 -0.29857493240E+03 -0.22550050003E+03  0.37426951948E+03  0.12699999809E+01 0.  1.
</event>
<event>
 5   0  0.5503975E-03  0.6006040E+03  0.7818609E-02  0.9904154E-01
        1   -1    0    0  501    0  0.00000000000E+00  0.00000000000E+00  0.70293362672E+02  0.70293362853E+02  0.50400001928E-02 0.  1.
       -1   -1    0    0    0  501  0.00000000000E+00  0.00000000000E+00 -0.12829274926E+04  0.12829274926E+04  0.50400001928E-02 0. -1.
    10030    2    1    2    0    0  0.00000000000E+00  0.00000000000E+00 -0.12126341300E+04  0.13532208555E+04  0.60060398817E+03 0.  0.
        4    1    3    3  502    0  0.15836669580E+03 -0.22282013320E+03 -0.32625344620E+03  0.42564274475E+03  0.12699999809E+01 0.  1.
       -4    1    3    3    0  502 -0.15836669580E+03  0.22282013320E+03 -0.88638068375E+03  0.92757811074E+03  0.12699999809E+01 0. -1.
</event>
<event>
 5   0  0.5503975E-03  0.5999804E+03  0.7818609E-02  0.9905447E-01
       -1   -1    0    0    0  501  0.00000000000E+00  0.00000000000E+00  0.57005570937E+03  0.57005570940E+03  0.50400001928E-02 0. -1.
        1   -1    0    0  501    0  0.00000000000E+00  0.00000000000E+00 -0.15786899416E+03  0.15786899424E+03  0.50400001928E-02 0.  1.
    10030    2    1    2    0    0  0.00000000000E+00  0.00000000000E+00  0.41218671522E+03  0.72792470363E+03  0.59998040464E+03 0.  0.
        4    1    3    3  502    0  0.61019444653E+02 -0.20557117763E+03 -0.48427416294E+02  0.21984019024E+03  0.12699999809E+01 0.  1.
       -4    1    3    3    0  502 -0.61019444653E+02  0.20557117763E+03  0.46061413151E+03  0.50808451339E+03  0.12699999809E+01 0. -1.
</event>
<event>
 5   0  0.9571790E-03  0.6003920E+03  0.7818609E-02  0.9904593E-01
       -2   -1    0    0    0  501  0.00000000000E+00  0.00000000000E+00  0.21271218291E+03  0.21271218293E+03  0.25500000920E-02 0.  1.
        2   -1    0    0  501    0  0.00000000000E+00  0.00000000000E+00 -0.42366000535E+03  0.42366000536E+03  0.25500000920E-02 0. -1.
    10030    2    1    2    0    0  0.00000000000E+00  0.00000000000E+00 -0.21094782244E+03  0.63637218829E+03  0.60039202046E+03 0.  0.
        5    1    3    3  502    0  0.13611150501E+03  0.48558143819E+02 -0.38432018405E+03  0.41061944546E+03  0.46999998093E+01 0. -1.
       -5    1    3    3    0  502 -0.13611150501E+03 -0.48558143819E+02  0.17337236160E+03  0.22575274283E+03  0.46999998093E+01 0.  1.
</event>
<event>
 5   0  0.5503975E-03  0.5996437E+03  0.7818609E-02  0.9906146E-01
        1   -1    0    0  501    0  0.00000000000E+00  0.00000000000E+00  0.26489872167E+03  0.26489872172E+03  0.50400001928E-02 0. -1.
       -1   -1    0    0    0  501  0.00000000000E+00  0.00000000000E+00 -0.33934910815E+03  0.33934910818E+03  0.50400001928E-02 0.  1.
    10030    2    1    2    0    0  0.00000000000E+00  0.00000000000E+00 -0.74450386479E+02  0.60424782990E+03  0.59964371079E+03 0.  0.
        4    1    3    3  502    0 -0.99621905466E+02  0.16085340139E+02 -0.32171945265E+03  0.33717692882E+03  0.12699999809E+01 0.  1.
       -4    1    3    3    0  502  0.99621905466E+02 -0.16085340139E+02  0.24726906617E+03  0.26707090108E+03  0.12699999809E+01 0. -1.
</event>
<event>
 5   0  0.9428629E-03  0.6001796E+03  0.7818609E-02  0.9905034E-01
        2   -1    0    0  501    0  0.00000000000E+00  0.00000000000E+00  0.46931483820E+03  0.46931483820E+03  0.25500000920E-02 0.  1.
       -2   -1    0    0    0  501  0.00000000000E+00  0.00000000000E+00 -0.19188372944E+03  0.19188372946E+03  0.25500000920E-02 0. -1.
    10030    2    1    2    0    0  0.00000000000E+00  0.00000000000E+00  0.27743110875E+03  0.66119856766E+03  0.60017957794E+03 0.  0.
        3    1    3    3  502    0  0.16426462056E+03 -0.19828977623E+03 -0.31070626560E+02  0.25935900787E+03  0.10100000352E+00 0. -1.
       -3    1    3    3    0  502 -0.16426462056E+03  0.19828977623E+03  0.30850173531E+03  0.40183955980E+03  0.10100000352E+00 0.  1.
</event>
<event>
 5   0  0.9571790E-03  0.5988775E+03  0.7818609E-02  0.9907738E-01
       -2   -1    0    0    0  501  0.00000000000E+00  0.00000000000E+00  0.13698099116E+03  0.13698099119E+03  0.25500000920E-02 0. -1.
        2   -1    0    0  501    0  0.00000000000E+00  0.00000000000E+00 -0.65456935971E+03  0.65456935971E+03  0.25500000920E-02 0.  1.
    10030    2    1    2    0    0  0.00000000000E+00  0.00000000000E+00 -0.51758836854E+03  0.79155035090E+03  0.59887748226E+03 0.  0.
        5    1    3    3  502    0 -0.22552478398E+03  0.19228412228E+03 -0.20261149131E+03  0.35903776720E+03  0.46999998093E+01 0.  1.
       -5    1    3    3    0  502  0.22552478398E+03 -0.19228412228E+03 -0.31497687723E+03  0.43251258370E+03  0.46999998093E+01 0. -1.
</event>
<event>
 5   0  0.5503975E-03  0.6001085E+03  0.7818609E-02  0.9905181E-01
       -1   -1    0    0    0  501  0.00000000000E+00  0.00000000000E+00  0.39491563760E+02  0.39491564081E+02  0.50400001928E-02 0.  1.
        1   -1    0    0  501    0  0.00000000000E+00  0.00000000000E+00 -0.22797922399E+04  0.22797922399E+04  0.50400001928E-02 0. -1.
    10030    2    1    2    0    0  0.00000000000E+00  0.00000000000E+00 -0.22403006761E+04  0.23192838040E+04  0.60010852678E+03 0.  0.
        4    1    3    3  502    0  0.18740140471E+03  0.12536827597E+03 -0.35501823628E+03  0.42056634684E+03  0.12699999809E+01 0.  1.
       -4    1    3    3    0  502 -0.18740140471E+03 -0.12536827597E+03 -0.18852824398E+04  0.18987174571E+04  0.12699999809E+01 0. -1.
</event>
<event>
 5   0  0.5491236E-03  0.5997265E+03  0.7818609E-02  0.9905974E-01
        1   -1    0    0  501    0  0.00000000000E+00  0.00000000000E+00  0.74782032058E+03  0.74782032060E+03  0.50400001928E-02 0.  1.
       -1   -1    0    0    0  501  0.00000000000E+00  0.00000000000E+00 -0.12024007408E+03  0.12024007419E+03  0.50400001928E-02 0. -1.
    10030    2    1    2    0    0  0.00000000000E+00  0.00000000000E+00  0.62758024650E+03  0.86806039478E+03  0.59972650700E+03 0.  0.
        3    1    3    3  502    0  0.26141085968E+03  0.11884737531E+03  0.18879388258E+03  0.34366186357E+03  0.10100000352E+00 0.  1.
       -3    1    3    3    0  502 -0.26141085968E+03 -0.11884737531E+03  0.43878636392E+03  0.52439853121E+03  0.10100000352E+00 0. -1.
</event>
<event>
 5   0  0.5503975E-03  0.5992330E+03  0.7818609E-02  0.9906999E-01
       -1   -1    0    0    0  501  0.00000000000E+00  0.00000000000E+00  0.77524744800E+03  0.77524744802E+03  0.50400001928E-02 0.  1.
        1   -1    0    0  501    0  0.00000000000E+00  0.00000000000E+00 -0.11579536145E+03  0.11579536156E+03  0.50400001928E-02 0. -1.
    10030    2    1    2    0    0  0.00000000000E+00  0.00000000000E+00  0.65945208656E+03  0.89104280958E+03  0.59923303817E+03 0.  0.
        4    1    3    3  502    0 -0.20225419934E+03  0.19753698757E+03  0.47723504719E+03  0.55469137885E+03  0.12699999809E+01 0.  1.
       -4    1    3    3    0  502  0.20225419934E+03 -0.19753698757E+03  0.18221703937E+03  0.33635143072E+03  0.12699999809E+01 0. -1.
</event>
<event>
 5   0  0.9571790E-03  0.5998485E+03  0.7818609E-02  0.9905720E-01
       -2   -1    0    0    0  501  0.00000000000E+00  0.00000000000E+00  0.14795972103E+03  0.14795972105E+03  0.25500000920E-02 0. -1.
        2   -1    0    0  501    0  0.00000000000E+00  0.00000000000E+00 -0.60796645535E+03  0.60796645536E+03  0.25500000920E-02 0.  1.
    10030    2    1    2    0    0  0.00000000000E+00  0.00000000000E+00 -0.46000673432E+03  0.75592617641E+03  0.59984847133E+03 0.  0.
        5    1    3    3  502    0  0.19193460364E+03 -0.14842979325E+03 -0.45210597866E+03  0.51312006542E+03  0.46999998093E+01 0.  1.
       -5    1    3    3    0  502 -0.19193460364E+03  0.14842979325E+03 -0.79007556662E+01  0.24280611100E+03  0.46999998093E+01 0. -1.
</event>
<event>
 5   0  0.5503975E-03  0.5994629E+03  0.7818609E-02  0.9906521E-01
       -1   -1    0    0    0  501  0.00000000000E+00  0.00000000000E+00  0.12792604942E+03  0.12792604952E+03  0.50400001928E-02 0. -1.
        1   -1    0    0  501    0  0.00000000000E+00  0.00000000000E+00 -0.70227238895E+03  0.70227238896E+03  0.50400001928E-02 0.  1.
    10030    2    1    2    0    0  0.00000000000E+00  0.00000000000E+00 -0.57434633953E+03  0.83019843848E+03  0.59946286752E+03 0.  0.
        4    1    3    3  502    0  0.11882739096E+03 -0.21636078392E+03 -0.52262874625E+03  0.57799165821E+03  0.12699999809E+01 0.  1.
       -4    1    3    3    0  502 -0.11882739096E+03  0.21636078392E+03 -0.51717593280E+02  0.25220678027E+03  0.12699999809E+01 0. -1.
</event>
<event>
 5   0  0.5574736E-03  0.5998970E+03  0.7818609E-02  0.9905620E-01
       -1   -1    0    0    0  501  0.00000000000E+00  0.00000000000E+00  0.25793904720E+03  0.25793904725E+03  0.50400001928E-02 0. -1.
        1   -1    0    0  501    0  0.00000000000E+00  0.00000000000E+00 -0.34879989370E+03  0.34879989374E+03  0.50400001928E-02 0.  1.
    10030    2    1    2    0    0  0.00000000000E+00  0.00000000000E+00 -0.90860846500E+02  0.60673894099E+03  0.59989703207E+03 0.  0.
        5    1    3    3  502    0 -0.23621403776E+02 -0.26931834132E+03 -0.17674447758E+03  0.32303411591E+03  0.46999998093E+01 0.  1.
       -5    1    3    3    0  502  0.23621403776E+02  0.26931834132E+03  0.85883631084E+02  0.28370482508E+03  0.46999998093E+01 0. -1.
</event>
<event>
 5   0  0.5653633E-03  0.5995052E+03  0.7818609E-02  0.9906433E-01
        1   -1    0    0  501    0  0.00000000000E+00  0.00000000000E+00  0.11720984533E+04  0.11720984533E+04  0.50400001928E-02 0.  1.
       -1   -1    0    0    0  501  0.00000000000E+00  0.00000000000E+00 -0.76658766247E+02  0.76658766413E+02  0.50400001928E-02 0. -1.
    10030    2    1    2    0    0  0.00000000000E+00  0.00000000000E+00  0.10954396870E+04  0.12487572197E+04  0.59950520084E+03 0.  0.
        2    1    3    3  502    0 -0.29830031365E+02  0.16562704411E+03  0.31033890664E+02  0.17112933965E+03  0.25500000920E-02 0. -1.
       -2    1    3    3    0  502  0.29830031365E+02 -0.16562704411E+03  0.10644057964E+04  0.10776278800E+04  0.25500000920E-02 0.  1.
</event>
<event>
 5   0  0.5574736E-03  0.5989306E+03  0.7818609E-02  0.9907627E-01
       -1   -1    0    0    0  501  0.00000000000E+00  0.00000000000E+00  0.12527246447E+03  0.12527246457E+03  0.50400001928E-02 0.  1.
        1   -1    0    0  501    0  0.00000000000E+00  0.00000000000E+00 -0.71587539415E+03  0.71587539417E+03  0.50400001928E-02 0. -1.
    10030    2    1    2    0    0  0.00000000000E+00  0.00000000000E+00 -0.59060292968E+03  0.84114785874E+03  0.59893063014E+03 0.  0.
        5    1    3    3  502    0 -0.10825650141E+03  0.13439193032E+03  0.48355250486E+02  0.17927905979E+03  0.46999998093E+01 0.  1.
       -5    1    3    3    0  502  0.10825650141E+03 -0.13439193032E+03 -0.63895818016E+03  0.66186879895E+03  0.46999998093E+01 0. -1.
</event>
<event>
 5   0  0.9530666E-03  0.5998078E+03  0.7818609E-02  0.9905805E-01
       -2   -1    0    0    0  501  0.00000000000E+00  0.00000000000E+00  0.52615531905E+02  0.52615531967E+02  0.25500000920E-02 0. -1.
        2   -1    0    0  501    0  0.00000000000E+00  0.00000000000E+00 -0.17094260900E+04  0.17094260900E+04  0.25500000920E-02 0.  1.
    10030    2    1    2    0    0  0.00000000000E+00  0.00000000000E+00 -0.16568105581E+04  0.17620416219E+04  0.59980784600E+03 0.  0.
        2    1    3    3  502    0 -0.25214292512E+03  0.75126051851E+02 -0.40551871587E+03  0.48338949853E+03  0.25500000920E-02 0. -1.
       -2    1    3    3    0  502  0.25214292512E+03 -0.75126051851E+02 -0.12512918422E+04  0.12786521234E+04  0.25500000920E-02 0.  1.
</event>
<event>
 5   0  0.9681801E-03  0.6020918E+03  0.7818609E-02  0.9901076E-01
        2   -1    0    0  501    0  0.00000000000E+00  0.00000000000E+00  0.96879322629E+03  0.96879322630E+03  0.25500000920E-02 0.  1.
       -2   -1    0    0    0  501  0.00000000000E+00  0.00000000000E+00 -0.93547952946E+02  0.93547952981E+02  0.25500000920E-02 0. -1.
    10030    2    1    2    0    0  0.00000000000E+00  0.00000000000E+00  0.87524527335E+03  0.10623411793E+04  0.60209176433E+03 0.  0.
        4    1    3    3  502    0 -0.29819347503E+03  0.90441501548E+01  0.50876750487E+03  0.58978566625E+03  0.12699999809E+01 0.  1.
       -4    1    3    3    0  502  0.29819347503E+03 -0.90441501548E+01  0.36647776848E+03  0.47255551303E+03  0.12699999809E+01 0. -1.
</event>
<event>
 5   0  0.9428629E-03  0.5998540E+03  0.7818609E-02  0.9905709E-01
       -2   -1    0    0    0  501  0.00000000000E+00  0.00000000000E+00  0.13285590284E+03  0.13285590286E+03  0.25500000920E-02 0. -1.
        2   -1    0    0  501    0  0.00000000000E+00  0.00000000000E+00 -0.67709611130E+03  0.67709611131E+03  0.25500000920E-02 0.  1.
    10030    2    1    2    0    0  0.00000000000E+00  0.00000000000E+00 -0.54424020846E+03  0.80995201417E+03  0.59985403286E+03 0.  0.
        3    1    3    3  502    0  0.20478822488E+03  0.20304941644E+03 -0.38337371875E+03  0.47973190533E+03  0.10100000352E+00 0.  1.
       -3    1    3    3    0  502 -0.20478822488E+03 -0.20304941644E+03 -0.16086648972E+03  0.33022010884E+03  0.10100000352E+00 0. -1.
</event>
<event>
 5   0  0.5503975E-03  0.5991311E+03  0.7818609E-02  0.9907210E-01
        1   -1    0    0  501    0  0.00000000000E+00  0.00000000000E+00  0.41146437844E+03  0.41146437847E+03  0.50400001928E-02 0.  1.
       -1   -1    0    0    0  501  0.00000000000E+00  0.00000000000E+00 -0.21809787350E+03  0.21809787355E+03  0.50400001928E-02 0. -1.
    10030    2    1    2    0    0  0.00000000000E+00  0.00000000000E+00  0.19336650495E+03  0.62956225203E+03  0.59913105740E+03 0.  0.
        4    1    3    3  502    0  0.10257449342E+03  0.16687533559E+03  0.33484244849E+03  0.38793038362E+03  0.12699999809E+01 0.  1.
       -4    1    3    3    0  502 -0.10257449342E+03 -0.16687533559E+03 -0.14147594354E+03  0.24163186841E+03  0.12699999809E+01 0. -1.
</event>
<event>
 5   0  0.5491236E-03  0.5997817E+03  0.7818609E-02  0.9905859E-01
       -1   -1    0    0    0  501  0.00000000000E+00  0.00000000000E+00  0.28985387499E+03  0.28985387504E+03  0.50400001928E-02 0.  1.
        1   -1    0    0  501    0  0.00000000000E+00  0.00000000000E+00 -0.31027538453E+03  0.31027538458E+03  0.50400001928E-02 0. -1.
    10030    2    1    2    0    0  0.00000000000E+00  0.00000000000E+00 -0.20421509541E+02  0.60012925961E+03  0.59978170212E+03 0.  0.
        3    1    3    3  502    0  0.87122653814E+02  0.13435337854E+03 -0.26391897170E+03  0.30869794453E+03  0.10100000352E+00 0. -1.
       -3    1    3    3    0  502 -0.87122653814E+02 -0.13435337854E+03  0.24349746216E+03  0.29143131508E+03  0.10100000352E+00 0.  1.
</event>
<event>
 5   0  0.5574736E-03  0.5969899E+03  0.7818609E-02  0.9911671E-01
        1   -1    0    0  501    0  0.00000000000E+00  0.00000000000E+00  0.57993553223E+03  0.57993553226E+03  0.50400001928E-02 0.  1.
       -1   -1    0    0    0  501  0.00000000000E+00  0.00000000000E+00 -0.15363643166E+03  0.15363643174E+03  0.50400001928E-02 0. -1.
    10030    2    1    2    0    0  0.00000000000E+00  0.00000000000E+00  0.42629910058E+03  0.73357196399E+03  0.59698986860E+03 0.  0.
        5    1    3    3  502    0 -0.22608238536E+03 -0.10085710308E+03  0.83006679874E+01  0.24774259080E+03  0.46999998093E+01 0.  1.
       -5    1    3    3    0  502  0.22608238536E+03  0.10085710308E+03  0.41799843259E+03  0.48582937319E+03  0.46999998093E+01 0. -1.
</event>
<event>
 5   0  0.5574736E-03  0.6015309E+03  0.7818609E-02  0.9902235E-01
        1   -1    0    0  501    0  0.00000000000E+00  0.00000000000E+00  0.10583798483E+04  0.10583798483E+04  0.50400001928E-02 0.  1.
       -1   -1    0    0    0  501  0.00000000000E+00  0.00000000000E+00 -0.85470136321E+02  0.85470136470E+02  0.50400001928E-02 0. -1.
    10030    2    1    2    0    0  0.00000000000E+00  0.00000000000E+00  0.97290971200E+03  0.11438499848E+04  0.60153094686E+03 0.  0.
        5    1    3    3  502    0  0.29991189687E+03 -0.65292711207E+01  0.44620619552E+03  0.53769120896E+03  0.46999998093E+01 0. -1.
       -5    1    3    3    0  502 -0.29991189687E+03  0.65292711207E+01  0.52670351648E+03  0.60615877585E+03  0.46999998093E+01 0.  1.
</event>
<event>
 5   0  0.9530666E-03  0.6000372E+03  0.7818609E-02  0.9905329E-01
        2   -1    0    0  501    0  0.00000000000E+00  0.00000000000E+00  0.54783328223E+03  0.54783328223E+03  0.25500000920E-02 0. -1.
       -2   -1    0    0    0  501  0.00000000000E+00  0.00000000000E+00 -0.16430390828E+03  0.16430390830E+03  0.25500000920E-02 0.  1.
    10030    2    1    2    0    0  0.00000000000E+00  0.00000000000E+00  0.38352937395E+03  0.71213719054E+03  0.60003716340E+03 0.  0.
        2    1    3    3  502    0 -0.82718158730E+02  0.14724156317E+03 -0.10253069509E+03  0.19757255667E+03  0.25500000920E-02 0.  1.
       -2    1    3    3    0  502  0.82718158730E+02 -0.14724156317E+03  0.48606006903E+03  0.51456463386E+03  0.25500000920E-02 0. -1.
</event>
<event>
 5   0  0.9530666E-03  0.5997316E+03  0.7818609E-02  0.9905963E-01
        2   -1    0    0  501    0  0.00000000000E+00  0.00000000000E+00  0.16588462307E+03  0.16588462309E+03  0.25500000920E-02 0. -1.
       -2   -1    0    0    0  501  0.00000000000E+00  0.00000000000E+00 -0.54206052450E+03  0.54206052451E+03  0.25500000920E-02 0.  1.
    10030    2    1    2    0    0  0.00000000000E+00  0.00000000000E+00 -0.37617590144E+03  0.70794514759E+03  0.59973162596E+03 0.  0.
        2    1    3    3  502    0 -0.21428226732E+03  0.76606461714E+02 -0.41860296265E+03  0.47645973640E+03  0.25500000920E-02 0. -1.
       -2    1    3    3    0  502  0.21428226732E+03 -0.76606461714E+02  0.42427061212E+02  0.23148541119E+03  0.25500000920E-02 0.  1.
</event>
<event>
 5   0  0.5785798E-03  0.6014143E+03  0.7818609E-02  0.9902476E-01
       -1   -1    0    0    0  501  0.00000000000E+00  0.00000000000E+00  0.31172114036E+03  0.31172114041E+03  0.50400001928E-02 0. -1.
        1   -1    0    0  501    0  0.00000000000E+00  0.00000000000E+00 -0.29008230125E+03  0.29008230129E+03  0.50400001928E-02 0.  1.
    10030    2    1    2    0    0  0.00000000000E+00  0.00000000000E+00  0.21638839117E+02  0.60180344170E+03  0.60141428573E+03 0.  0.
        1    1    3    3  502    0  0.14628431765E+03  0.20617874351E+03 -0.15212331979E+03  0.29504284488E+03  0.50400001928E-02 0.  1.
       -1    1    3    3    0  502 -0.14628431765E+03 -0.20617874351E+03  0.17376215891E+03  0.30676059682E+03  0.50400001928E-02 0. -1.
</event>
<event>
 5   0  0.5503975E-03  0.5993176E+03  0.7818609E-02  0.9906823E-01
       -1   -1    0    0    0  501  0.00000000000E+00  0.00000000000E+00  0.17742085179E+03  0.17742085186E+03  0.50400001928E-02 0. -1.
        1   -1    0    0  501    0  0.00000000000E+00  0.00000000000E+00 -0.50611519799E+03  0.50611519802E+03  0.50400001928E-02 0.  1.
    10030    2    1    2    0    0  0.00000000000E+00  0.00000000000E+00 -0.32869434620E+03  0.68353604988E+03  0.59931757713E+03 0.  0.
        4    1    3    3  502    0 -0.19553034150E+03  0.51536527478E+01  0.94567092358E+02  0.21726302594E+03  0.12699999809E+01 0. -1.
       -4    1    3    3    0  502  0.19553034150E+03 -0.51536527478E+01 -0.42326143856E+03  0.46627302394E+03  0.12699999809E+01 0.  1.
</event>
<event>
 5   0  0.9428629E-03  0.5910758E+03  0.7818609E-02  0.9924096E-01
        2   -1    0    0  501    0  0.00000000000E+00  0.00000000000E+00  0.67609452201E+03  0.67609452201E+03  0.25500000920E-02 0.  1.
       -2   -1    0    0    0  501  0.00000000000E+00  0.00000000000E+00 -0.12918706085E+03  0.12918706088E+03  0.25500000920E-02 0. -1.
    10030    2    1    2    0    0  0.00000000000E+00  0.00000000000E+00  0.54690746116E+03  0.80528158289E+03  0.59107584680E+03 0.  0.
        3    1    3    3  502    0 -0.63814866694E+02 -0.98524835918E+02  0.64297103548E+03  0.65359868664E+03  0.10100000352E+00 0.  1.
       -3    1    3    3    0  502  0.63814866694E+02  0.98524835918E+02 -0.96063574322E+02  0.15168289625E+03  0.10100000352E+00 0. -1.
</event>
<event>
 5   0  0.9571790E-03  0.5995573E+03  0.7818609E-02  0.9906325E-01
        2   -1    0    0  501    0  0.00000000000E+00  0.00000000000E+00  0.68747278227E+03  0.68747278227E+03  0.25500000920E-02 0. -1.
       -2   -1    0    0    0  501  0.00000000000E+00  0.00000000000E+00 -0.13072114857E+03  0.13072114860E+03  0.25500000920E-02 0.  1.
    10030    2    1    2    0    0  0.00000000000E+00  0.00000000000E+00  0.55675163370E+03  0.81819393087E+03  0.59955727573E+03 0.  0.
        5    1    3    3  502    0 -0.17394733723E+03  0.20904025735E+03  0.10635438596E+03  0.29204254952E+03  0.46999998093E+01 0.  1.
       -5    1    3    3    0  502  0.17394733723E+03 -0.20904025735E+03  0.45039724774E+03  0.52615138135E+03  0.46999998093E+01 0. -1.
</event>
<event>
 5   0  0.5653633E-03  0.6004023E+03  0.7818609E-02  0.9904572E-01
       -1   -1    0    0    0  501  0.00000000000E+00  0.00000000000E+00  0.23501404967E+03  0.23501404973E+03  0.50400001928E-02 0. -1.
        1   -1    0    0  501    0  0.00000000000E+00  0.00000000000E+00 -0.38346956960E+03  0.38346956964E+03  0.50400001928E-02 0.  1.
    10030    2    1    2    0    0  0.00000000000E+00  0.00000000000E+00 -0.14845551993E+03  0.61848361936E+03  0.60040232013E+03 0.  0.
        2    1    3    3  502    0  0.25802967038E+03 -0.34641284231E+02  0.79744009696E+02  0.27228374256E+03  0.25500000920E-02 0. -1.
       -2    1    3    3    0  502 -0.25802967038E+03  0.34641284231E+02 -0.22819952963E+03  0.34619987681E+03  0.25500000920E-02 0.  1.
</event>
<event>
 5   0  0.5653633E-03  0.6000706E+03  0.7818609E-02  0.9905260E-01
       -1   -1    0    0    0  501  0.00000000000E+00  0.00000000000E+00  0.53168691939E+02  0.53168692178E+02  0.50400001928E-02 0.  1.
        1   -1    0    0  501    0  0.00000000000E+00  0.00000000000E+00 -0.16931236613E+04  0.16931236613E+04  0.50400001928E-02 0. -1.
    10030    2    1    2    0    0  0.00000000000E+00  0.00000000000E+00 -0.16399549694E+04  0.17462923535E+04  0.60007056445E+03 0.  0.
        2    1    3    3  502    0  0.15629431382E+03 -0.45011680811E+02 -0.15536988955E+04  0.15621889200E+04  0.25500000920E-02 0. -1.
       -2    1    3    3    0  502 -0.15629431382E+03  0.45011680811E+02 -0.86256073922E+02  0.18410343353E+03  0.25500000920E-02 0.  1.
</event>
<event>
 5   0  0.5491236E-03  0.6004726E+03  0.7818609E-02  0.9904426E-01
        1   -1    0    0  501    0  0.00000000000E+00  0.00000000000E+00  0.14802341080E+04  0.14802341080E+04  0.50400001928E-02 0.  1.
       -1   -1    0    0    0  501  0.00000000000E+00  0.00000000000E+00 -0.60897018092E+02  0.60897018300E+02  0.50400001928E-02 0. -1.
    10030    2    1    2    0    0  0.00000000000E+00  0.00000000000E+00  0.14193370899E+04  0.15411311263E+04  0.60047262526E+03 0.  0.
        3    1    3    3  502    0  0.10961635074E+03  0.22275826220E+03  0.11429855416E+04  0.11696379552E+04  0.10100000352E+00 0. -1.
       -3    1    3    3    0  502 -0.10961635074E+03 -0.22275826220E+03  0.27635154828E+03  0.37149317109E+03  0.10100000352E+00 0.  1.
</event>
<event>
 5   0  0.9428629E-03  0.5955529E+03  0.7818609E-02  0.9914676E-01
       -2   -1    0    0    0  501  0.00000000000E+00  0.00000000000E+00  0.60395232486E+02  0.60395232540E+02  0.25500000920E-02 0.  1.
        2   -1    0    0  501    0  0.00000000000E+00  0.00000000000E+00 -0.14681756550E+04  0.14681756550E+04  0.25500000920E-02 0. -1.
    10030    2    1    2    0    0  0.00000000000E+00  0.00000000000E+00 -0.14077804225E+04  0.15285708875E+04  0.59555288616E+03 0.  0.
        3    1    3    3  502    0  0.17836238059E+03  0.23219954564E+03 -0.84308248477E+03  0.89247848945E+03  0.10100000352E+00 0.  1.
       -3    1    3    3    0  502 -0.17836238059E+03 -0.23219954564E+03 -0.56469793769E+03  0.63609239804E+03  0.10100000352E+00 0. -1.
</event>
<event>
 5   0  0.5491236E-03  0.5998020E+03  0.7818609E-02  0.9905817E-01
       -1   -1    0    0    0  501  0.00000000000E+00  0.00000000000E+00  0.11245495938E+03  0.11245495950E+03  0.50400001928E-02 0. -1.
        1   -1    0    0  501    0  0.00000000000E+00  0.00000000000E+00 -0.79979236299E+03  0.79979236300E+03  0.50400001928E-02 0.  1.
    10030    2    1    2    0    0  0.00000000000E+00  0.00000000000E+00 -0.68733740360E+03  0.91224732250E+03  0.59980202652E+03 0.  0.
        3    1    3    3  502    0 -0.19495691249E+03  0.20457793368E+03 -0.19096803193E+03  0.34107056176E+03  0.10100000352E+00 0. -1.
       -3    1    3    3    0  502  0.19495691249E+03 -0.20457793368E+03 -0.49636937167E+03  0.57117676074E+03  0.10100000352E+00 0.  1.
</event>
<event>
 5   0  0.5653633E-03  0.5997122E+03  0.7818609E-02  0.9906003E-01
       -1   -1    0    0    0  501  0.00000000000E+00  0.00000000000E+00  0.26990723727E+03  0.26990723731E+03  0.50400001928E-02 0.  1.
        1   -1    0    0  501    0  0.00000000000E+00  0.00000000000E+00 -0.33312805556E+03  0.33312805560E+03  0.50400001928E-02 0. -1.
    10030    2    1    2    0    0  0.00000000000E+00  0.00000000000E+00 -0.63220818292E+02  0.60303529291E+03  0.59971217482E+03 0.  0.
        2    1    3    3  502    0 -0.27011487094E+03  0.54992758226E+02  0.87058048383E+02  0.28907672123E+03  0.25500000920E-02 0.  1.
       -2    1    3    3    0  502  0.27011487094E+03 -0.54992758226E+02 -0.15027886668E+03  0.31395857169E+03  0.25500000920E-02 0. -1.
</event>
<event>
 5   0  0.9428629E-03  0.6016595E+03  0.7818609E-02  0.9901969E-01
       -2   -1    0    0    0  501  0.00000000000E+00  0.00000000000E+00  0.62797742246E+02  0.62797742298E+02  0.25500000920E-02 0.  1.
        2   -1    0    0  501    0  0.00000000000E+00  0.00000000000E+00 -0.14411115674E+04  0.14411115674E+04  0.25500000920E-02 0. -1.
    10030    2    1    2    0    0  0.00000000000E+00  0.00000000000E+00 -0.13783138252E+04  0.15039093097E+04  0.60165954759E+03 0.  0.
        3    1    3    3  502    0 -0.68273376235E+02 -0.56169247945E+02 -0.14079056929E+04  0.14106788042E+04  0.10100000352E+00 0. -1.
       -3    1    3    3    0  502  0.68273376235E+02  0.56169247945E+02  0.29591867750E+02  0.93230505496E+02  0.10100000352E+00 0.  1.
</event>
<event>
 5   0  0.9571790E-03  0.6004057E+03  0.7818609E-02  0.9904565E-01
       -2   -1    0    0    0  501  0.00000000000E+00  0.00000000000E+00  0.22396725958E+03  0.22396725960E+03  0.25500000920E-02 0.  1.
        2   -1    0    0  501    0  0.00000000000E+00  0.00000000000E+00 -0.40238802486E+03  0.40238802486E+03  0.25500000920E-02 0. -1.
    10030    2    1    2    0    0  0.00000000000E+00  0.00000000000E+00 -0.17842076528E+03  0.62635528446E+03  0.60040567360E+03 0.  0.
        5    1    3    3  502    0  0.47795063634E+02 -0.15416113630E+02  0.21951515023E+03  0.22523546756E+03  0.46999998093E+01 0.  1.
       -5    1    3    3    0  502 -0.47795063634E+02  0.15416113630E+02 -0.39793591550E+03  0.40111981690E+03  0.46999998093E+01 0. -1.
</event>
<event>
 5   0  0.9571790E-03  0.5983882E+03  0.7818609E-02  0.9908756E-01
       -2   -1    0    0    0  501  0.00000000000E+00  0.00000000000E+00  0.28456239205E+03  0.28456239206E+03  0.25500000920E-02 0.  1.
        2   -1    0    0  501    0  0.00000000000E+00  0.00000000000E+00 -0.31457819338E+03  0.31457819339E+03  0.25500000920E-02 0. -1.
    10030    2    1    2    0    0  0.00000000000E+00  0.00000000000E+00 -0.30015801330E+02  0.59914058545E+03  0.59838824588E+03 0.  0.
        5    1    3    3  502    0  0.87685796184E+01 -0.20334479058E+03 -0.23453008522E+03  0.31056793575E+03  0.46999998093E+01 0. -1.
       -5    1    3    3    0  502 -0.87685796184E+01  0.20334479058E+03  0.20451428389E+03  0.28857264970E+03  0.46999998093E+01 0.  1.
</event>
<event>
 5   0  0.9571790E-03  0.5988891E+03  0.7818609E-02  0.9907713E-01
       -2   -1    0    0    0  501  0.00000000000E+00  0.00000000000E+00  0.12649950874E+03  0.12649950877E+03  0.25500000920E-02 0.  1.
        2   -1    0    0  501    0  0.00000000000E+00  0.00000000000E+00 -0.70883316606E+03  0.70883316606E+03  0.25500000920E-02 0. -1.
    10030    2    1    2    0    0  0.00000000000E+00  0.00000000000E+00 -0.58233365732E+03  0.83533267483E+03  0.59888912931E+03 0.  0.
        5    1    3    3  502    0 -0.19386342313E+03 -0.16298403952E+03 -0.51389093928E+03  0.57293351398E+03  0.46999998093E+01 0. -1.
       -5    1    3    3    0  502  0.19386342313E+03  0.16298403952E+03 -0.68442718031E+02  0.26239916085E+03  0.46999998093E+01 0.  1.
</event>
<event>
 5   0  0.9530666E-03  0.5988486E+03  0.7818609E-02  0.9907798E-01
        2   -1    0    0  501    0  0.00000000000E+00  0.00000000000E+00  0.89438514071E+03  0.89438514072E+03  0.25500000920E-02 0.  1.
       -2   -1    0    0    0  501  0.00000000000E+00  0.00000000000E+00 -0.10024196366E+03  0.10024196369E+03  0.25500000920E-02 0. -1.
    10030    2    1    2    0    0  0.00000000000E+00  0.00000000000E+00  0.79414317705E+03  0.99462710441E+03  0.59884863795E+03 0.  0.
        2    1    3    3  502    0 -0.20521673001E+03  0.21514665624E+03  0.45586208345E+03  0.54425382783E+03  0.25500000920E-02 0. -1.
       -2    1    3    3    0  502  0.20521673001E+03 -0.21514665624E+03  0.33828109360E+03  0.45037327658E+03  0.25500000920E-02 0.  1.
</event>
<event>
 5   0  0.9681801E-03  0.5965476E+03  0.7818609E-02  0.9912595E-01
       -2   -1    0    0    0  501  0.00000000000E+00  0.00000000000E+00  0.15917462752E+03  0.15917462754E+03  0.25500000920E-02 0.  1.
        2   -1    0    0  501    0  0.00000000000E+00  0.00000000000E+00 -0.55892861606E+03  0.55892861607E+03  0.25500000920E-02 0. -1.
    10030    2    1    2    0    0  0.00000000000E+00  0.00000000000E+00 -0.39975398854E+03  0.71810324361E+03  0.59654758162E+03 0.  0.
        4    1    3    3  502    0 -0.69443165594E+02 -0.59605934670E+02 -0.54160731201E+03  0.54928618590E+03  0.12699999809E+01 0. -1.
       -4    1    3    3    0  502  0.69443165594E+02  0.59605934670E+02  0.14185332347E+03  0.16881705771E+03  0.12699999809E+01 0.  1.
</event>
<event>
 5   0  0.9571790E-03  0.5996437E+03  0.7818609E-02  0.9906146E-01
        2   -1    0    0  501    0  0.00000000000E+00  0.00000000000E+00  0.16551898611E+04  0.16551898611E+04  0.25500000920E-02 0.  1.
       -2   -1    0    0    0  501  0.00000000000E+00  0.00000000000E+00 -0.54309858708E+02  0.54309858767E+02  0.25500000920E-02 0. -1.
    10030    2    1    2    0    0  0.00000000000E+00  0.00000000000E+00  0.16008800024E+04  0.17094997199E+04  0.59964365266E+03 0.  0.
        5    1    3    3  502    0 -0.29961403127E+02  0.32975878762E+02 -0.44713319547E+02  0.63296644466E+02  0.46999998093E+01 0. -1.
       -5    1    3    3    0  502  0.29961403127E+02 -0.32975878762E+02  0.16455933219E+04  0.16462030754E+04  0.46999998093E+01 0.  1.
</event>
<event>
 5   0  0.9571790E-03  0.6016893E+03  0.7818609E-02  0.9901908E-01
        2   -1    0    0  501    0  0.00000000000E+00  0.00000000000E+00  0.11110932055E+04  0.11110932055E+04  0.25500000920E-02 0.  1.
       -2   -1    0    0    0  501  0.00000000000E+00  0.00000000000E+00 -0.81458061165E+02  0.81458061205E+02  0.25500000920E-02 0. -1.
    10030    2    1    2    0    0  0.00000000000E+00  0.00000000000E+00  0.10296351443E+04  0.11925512667E+04  0.60168928300E+03 0.  0.
        5    1    3    3  502    0  0.25778984328E+03 -0.13315814597E+03  0.67211828780E+03  0.73208727480E+03  0.46999998093E+01 0. -1.
       -5    1    3    3    0  502 -0.25778984328E+03  0.13315814597E+03  0.35751685653E+03  0.46046399190E+03  0.46999998093E+01 0.  1.
</event>
<event>
 5   0  0.9866317E-03  0.6001592E+03  0.7818609E-02  0.9905076E-01
       -2   -1    0    0    0  501  0.00000000000E+00  0.00000000000E+00  0.94087606817E+02  0.94087606852E+02  0.25500000920E-02 0. -1.
        2   -1    0    0  501    0  0.00000000000E+00  0.00000000000E+00 -0.95706303053E+03  0.95706303053E+03  0.25500000920E-02 0.  1.
    10030    2    1    2    0    0  0.00000000000E+00  0.00000000000E+00 -0.86297542371E+03  0.10511506374E+04  0.60015921266E+03 0.  0.
        1    1    3    3  502    0  0.22226712711E+03 -0.50586155831E+02 -0.89679940188E+02  0.24495739763E+03  0.50400001928E-02 0. -1.
       -1    1    3    3    0  502 -0.22226712711E+03  0.50586155831E+02 -0.77329548353E+03  0.80619323975E+03  0.50400001928E-02 0.  1.
</event>
<event>
 5   0  0.5574736E-03  0.5989285E+03  0.7818609E-02  0.9907631E-01
       -1   -1    0    0    0  501  0.00000000000E+00  0.00000000000E+00  0.80485039559E+02  0.80485039716E+02  0.50400001928E-02 0. -1.
        1   -1    0    0  501    0  0.00000000000E+00  0.00000000000E+00 -0.11142300472E+04  0.11142300472E+04  0.50400001928E-02 0.  1.
    10030    2    1    2    0    0  0.00000000000E+00  0.00000000000E+00 -0.10337450077E+04  0.11947150869E+04  0.59892854174E+03 0.  0.
        5    1    3    3  502    0  0.19336180858E+03  0.18936351140E+03 -0.77239909430E+03  0.81845572839E+03  0.46999998093E+01 0.  1.
       -5    1    3    3    0  502 -0.19336180858E+03 -0.18936351140E+03 -0.26134591335E+03  0.37625935855E+03  0.46999998093E+01 0. -1.
</event>
<event>
 5   0  0.9866317E-03  0.5990791E+03  0.7818609E-02  0.9907318E-01
        2   -1    0    0  501    0  0.00000000000E+00  0.00000000000E+00  0.39559277673E+03  0.39559277674E+03  0.25500000920E-02 0.  1.
       -2   -1    0    0    0  501  0.00000000000E+00  0.00000000000E+00 -0.22680886142E+03  0.22680886143E+03  0.25500000920E-02 0. -1.
    10030    2    1    2    0    0  0.00000000000E+00  0.00000000000E+00  0.16878391532E+03  0.62240163817E+03  0.59907911759E+03 0.  0.
        1    1    3    3  502    0 -0.78599780479E+02 -0.28427536742E+03  0.30073298223E+02  0.29647059434E+03  0.50400001928E-02 0. -1.
       -1    1    3    3    0  502  0.78599780479E+02  0.28427536742E+03  0.13871061709E+03  0.32593104383E+03  0.50400001928E-02 0.  1.
</event>
<event>
 5   0  0.5653633E-03  0.5997602E+03  0.7818609E-02  0.9905904E-01
        1   -1    0    0  501    0  0.00000000000E+00  0.00000000000E+00  0.27854216990E+03  0.27854216995E+03  0.50400001928E-02 0.  1.
       -1   -1    0    0    0  501  0.00000000000E+00  0.00000000000E+00 -0.32285268682E+03  0.32285268686E+03  0.50400001928E-02 0. -1.
    10030    2    1    2    0    0  0.00000000000E+00  0.00000000000E+00 -0.44310516921E+02  0.60139485681E+03  0.59976024534E+03 0.  0.
        2    1    3    3  502    0 -0.16261505036E+03 -0.23891733937E+03 -0.10239170616E+03  0.30660921570E+03  0.25500000920E-02 0. -1.
       -2    1    3    3    0  502  0.16261505036E+03  0.23891733937E+03  0.58081189239E+02  0.29478564111E+03  0.25500000920E-02 0.  1.
</event>
<event>
 5   0  0.9428629E-03  0.6031430E+03  0.7818609E-02  0.9898907E-01
        2   -1    0    0  501    0  0.00000000000E+00  0.00000000000E+00  0.28607807678E+04  0.28607807678E+04  0.25500000920E-02 0. -1.
       -2   -1    0    0    0  501  0.00000000000E+00  0.00000000000E+00 -0.31790397001E+02  0.31790397104E+02  0.25500000920E-02 0.  1.
    10030    2    1    2    0    0  0.00000000000E+00  0.00000000000E+00  0.28289903708E+04  0.28925711649E+04  0.60314295650E+03 0.  0.
        3    1    3    3  502    0  0.62849241082E+02  0.29374009720E+03  0.12865197831E+04  0.13211231715E+04  0.10100000352E+00 0. -1.
       -3    1    3    3    0  502 -0.62849241082E+02 -0.29374009720E+03  0.15424705877E+04  0.15714479934E+04  0.10100000352E+00 0.  1.
</event>
<event>
 5   0  0.5503975E-03  0.6072179E+03  0.7818609E-02  0.9890543E-01
        1   -1    0    0  501    0  0.00000000000E+00  0.00000000000E+00  0.95827287103E+03  0.95827287105E+03  0.50400001928E-02 0. -1.
       -1   -1    0    0    0  501  0.00000000000E+00  0.00000000000E+00 -0.96192213562E+02  0.96192213694E+02  0.50400001928E-02 0.  1.
    10030    2    1    2    0    0  0.00000000000E+00  0.00000000000E+00  0.86208065747E+03  0.10544650847E+04  0.60721788096E+03 0.  0.
        4    1    3    3  502    0 -0.29198601145E+03  0.40290294506E+02  0.55743499734E+03  0.63056683062E+03  0.12699999809E+01 0.  1.
       -4    1    3    3    0  502  0.29198601145E+03 -0.40290294506E+02  0.30464566013E+03  0.42389825412E+03  0.12699999809E+01 0. -1.
</event>
<event>
 5   0  0.5785798E-03  0.6004415E+03  0.7818609E-02  0.9904490E-01
       -1   -1    0    0    0  501  0.00000000000E+00  0.00000000000E+00  0.54578725306E+02  0.54578725539E+02  0.50400001928E-02 0.  1.
        1   -1    0    0  501    0  0.00000000000E+00  0.00000000000E+00 -0.16514219808E+04  0.16514219808E+04  0.50400001928E-02 0. -1.
    10030    2    1    2    0    0  0.00000000000E+00  0.00000000000E+00 -0.15968432555E+04  0.17060007064E+04  0.60044152708E+03 0.  0.
        1    1    3    3  502    0  0.13747008949E+03  0.42006090830E+02 -0.49550580199E+02  0.15204537873E+03  0.50400001928E-02 0.  1.
       -1    1    3    3    0  502 -0.13747008949E+03 -0.42006090830E+02 -0.15472926753E+04  0.15539553276E+04  0.50400001928E-02 0. -1.
</event>
<event>
 5   0  0.5574736E-03  0.5998597E+03  0.7818609E-02  0.9905697E-01
       -1   -1    0    0    0  501  0.00000000000E+00  0.00000000000E+00  0.50006823811E+03  0.50006823814E+03  0.50400001928E-02 0. -1.
        1   -1    0    0  501    0  0.00000000000E+00  0.00000000000E+00 -0.17989125133E+03  0.17989125140E+03  0.50400001928E-02 0.  1.
    10030    2    1    2    0    0  0.00000000000E+00  0.00000000000E+00  0.32017698678E+03  0.67995948954E+03  0.59985965405E+03 0.  0.
        5    1    3    3  502    0 -0.84000934155E+02 -0.28641155214E+03  0.19309891180E+03  0.35552357710E+03  0.46999998093E+01 0.  1.
       -5    1    3    3    0  502  0.84000934155E+02  0.28641155214E+03  0.12707807498E+03  0.32443591244E+03  0.46999998093E+01 0. -1.
</event>
<event>
 5   0  0.9681801E-03  0.5997650E+03  0.7818609E-02  0.9905894E-01
        2   -1    0    0  501    0  0.00000000000E+00  0.00000000000E+00  0.11610551554E+03  0.11610551557E+03  0.25500000920E-02 0. -1.
       -2   -1    0    0    0  501  0.00000000000E+00  0.00000000000E+00 -0.77454986456E+03  0.77454986456E+03  0.25500000920E-02 0.  1.
    10030    2    1    2    0    0  0.00000000000E+00  0.00000000000E+00 -0.65844434901E+03  0.89065538013E+03  0.59976499182E+03 0.  0.
        4    1    3    3  502    0 -0.22641108444E+03 -0.25500418392E+02 -0.39681366645E+02  0.23127575371E+03  0.12699999809E+01 0. -1.
       -4    1    3    3    0  502  0.22641108444E+03  0.25500418392E+02 -0.61876298237E+03  0.65937962642E+03  0.12699999809E+01 0.  1.
</event>
<event>
 5   0  0.5653633E-03  0.5996117E+03  0.7818609E-02  0.9906212E-01
        1   -1    0    0  501    0  0.00000000000E+00  0.00000000000E+00  0.68031276061E+03  0.68031276063E+03  0.50400001928E-02 0.  1.
       -1   -1    0    0    0  501  0.00000000000E+00  0.00000000000E+00 -0.13212094093E+03  0.13212094103E+03  0.50400001928E-02 0. -1.
    10030    2    1    2    0    0  0.00000000000E+00  0.00000000000E+00  0.54819181968E+03  0.81243370165E+03  0.59961174807E+03 0.  0.
        2    1    3    3  502    0  0.38946676382E+02 -0.22271107506E+03  0.54087148742E+03  0.58622438747E+03  0.25500000920E-02 0.  1.
       -2    1    3    3    0  502 -0.38946676382E+02  0.22271107506E+03  0.73203322615E+01  0.22620931419E+03  0.25500000920E-02 0. -1.
</event>
<event>
 5   0  0.9530666E-03  0.5998606E+03  0.7818609E-02  0.9905695E-01
       -2   -1    0    0    0  501  0.00000000000E+00  0.00000000000E+00  0.81206395404E+02  0.81206395444E+02  0.25500000920E-02 0.  1.
        2   -1    0    0  501    0  0.00000000000E+00  0.00000000000E+00 -0.11077721289E+04  0.11077721289E+04  0.25500000920E-02 0. -1.
    10030    2    1    2    0    0  0.00000000000E+00  0.00000000000E+00 -0.10265657335E+04  0.11889785243E+04  0.59986058894E+03 0.  0.
        2    1    3    3  502    0  0.25008996847E+03 -0.11520168507E+03 -0.74899146586E+03  0.79800039882E+03  0.25500000920E-02 0. -1.
       -2    1    3    3    0  502 -0.25008996847E+03  0.11520168507E+03 -0.27757426760E+03  0.39097812549E+03  0.25500000920E-02 0.  1.
</event>
<event>
 5   0  0.3794375E-03  0.6003230E+03  0.7818609E-02  0.9904736E-01
       -3   -1    0    0    0  501  0.00000000000E+00  0.00000000000E+00  0.33320170259E+03  0.33320171790E+03  0.10100000352E+00 0.  1.
        3   -1    0    0  501    0  0.00000000000E+00  0.00000000000E+00 -0.27039751760E+03  0.27039753647E+03  0.10100000352E+00 0. -1.
    10030    2    1    2    0    0  0.00000000000E+00  0.00000000000E+00  0.62804184984E+02  0.60359925436E+03  0.60032299158E+03 0.  0.
        1    1    3    3  502    0  0.25072356522E+03  0.16209585050E+03  0.62547793939E+02  0.30504032104E+03  0.50400001928E-02 0.  1.
       -1    1    3    3    0  502 -0.25072356522E+03 -0.16209585050E+03  0.25639104513E+00  0.29855893333E+03  0.50400001928E-02 0. -1.
</event>
<event>
 5   0  0.3794375E-03  0.5994727E+03  0.7818609E-02  0.9906501E-01
        3   -1    0    0  501    0  0.00000000000E+00  0.00000000000E+00  0.74745971212E+02  0.74746039450E+02  0.10100000352E+00 0.  1.
       -3   -1    0    0    0  501  0.00000000000E+00  0.00000000000E+00 -0.12019623031E+04  0.12019623074E+04  0.10100000352E+00 0. -1.
    10030    2    1    2    0    0  0.00000000000E+00  0.00000000000E+00 -0.11272163319E+04  0.12767083468E+04  0.59947272157E+03 0.  0.
        5    1    3    3  502    0 -0.37063855954E+02 -0.14031562556E+03 -0.11220559868E+04  0.11314123615E+04  0.46999998093E+01 0. -1.
       -5    1    3    3    0  502  0.37063855954E+02  0.14031562556E+03 -0.51603451059E+01  0.14529598533E+03  0.46999998093E+01 0.  1.
</event>
<event>
 5   0  0.9866317E-03  0.6010661E+03  0.7818609E-02  0.9903197E-01
        2   -1    0    0  501    0  0.00000000000E+00  0.00000000000E+00  0.20627331640E+04  0.20627331640E+04  0.25500000920E-02 0.  1.
       -2   -1    0    0    0  501  0.00000000000E+00  0.00000000000E+00 -0.43786626920E+02  0.43786626994E+02  0.25500000920E-02 0. -1.
    10030    2    1    2    0    0  0.00000000000E+00  0.00000000000E+00  0.20189465371E+04  0.21065197910E+04  0.60106614467E+03 0.  0.
        1    1    3    3  502    0  0.27799482680E+03 -0.97615688322E+02  0.80183469088E+03  0.85425336865E+03  0.50400001928E-02 0. -1.
       -1    1    3    3    0  502 -0.27799482680E+03  0.97615688322E+02  0.12171118462E+04  0.12522664224E+04  0.50400001928E-02 0.  1.
</event>
<event>
 5   0  0.9571790E-03  0.5987635E+03  0.7818609E-02  0.9907975E-01
       -2   -1    0    0    0  501  0.00000000000E+00  0.00000000000E+00  0.20397569237E+03  0.20397569239E+03  0.25500000920E-02 0. -1.
        2   -1    0    0  501    0  0.00000000000E+00  0.00000000000E+00 -0.43941230603E+03  0.43941230604E+03  0.25500000920E-02 0.  1.
    10030    2    1    2    0    0  0.00000000000E+00  0.00000000000E+00 -0.23543661366E+03  0.64338799843E+03  0.59876349042E+03 0.  0.
        5    1    3    3  502    0  0.19436078072E+03 -0.47670451212E+01 -0.36229674077E+03  0.41119321027E+03  0.46999998093E+01 0.  1.
       -5    1    3    3    0  502 -0.19436078072E+03  0.47670451212E+01  0.12686012711E+03  0.23219478816E+03  0.46999998093E+01 0. -1.
</event>
<event>
 5   0  0.5653633E-03  0.5997835E+03  0.7818609E-02  0.9905855E-01
       -1   -1    0    0    0  501  0.00000000000E+00  0.00000000000E+00  0.33809196919E+03  0.33809196923E+03  0.50400001928E-02 0. -1.
        1   -1    0    0  501    0  0.00000000000E+00  0.00000000000E+00 -0.26600766639E+03  0.26600766644E+03  0.50400001928E-02 0.  1.
    10030    2    1    2    0    0  0.00000000000E+00  0.00000000000E+00  0.72084302799E+02  0.60409963566E+03  0.59978348018E+03 0.  0.
        2    1    3    3  502    0  0.26051031288E+03 -0.12498305116E+03 -0.44839337288E+02  0.29239861896E+03  0.25500000920E-02 0.  1.
       -2    1    3    3    0  502 -0.26051031288E+03  0.12498305116E+03  0.11692364009E+03  0.31170101670E+03  0.25500000920E-02 0. -1.
</event>
<event>
 5   0  0.5503975E-03  0.5942075E+03  0.7818609E-02  0.9917497E-01
       -1   -1    0    0    0  501  0.00000000000E+00  0.00000000000E+00  0.11117406441E+03  0.11117406452E+03  0.50400001928E-02 0.  1.
        1   -1    0    0  501    0  0.00000000000E+00  0.00000000000E+00 -0.79398591969E+03  0.79398591971E+03  0.50400001928E-02 0. -1.
    10030    2    1    2    0    0  0.00000000000E+00  0.00000000000E+00 -0.68281185528E+03  0.90515998423E+03  0.59420751202E+03 0.  0.
        4    1    3    3  502    0 -0.11418320437E+03 -0.22362822431E+03 -0.58332710496E+03  0.63507441387E+03  0.12699999809E+01 0. -1.
       -4    1    3    3    0  502  0.11418320437E+03  0.22362822431E+03 -0.99484750323E+02  0.27008557036E+03  0.12699999809E+01 0.  1.
</event>
<event>
 5   0  0.9681801E-03  0.5994764E+03  0.7818609E-02  0.9906493E-01
        2   -1    0    0  501    0  0.00000000000E+00  0.00000000000E+00  0.27287785443E+03  0.27287785444E+03  0.25500000920E-02 0. -1.
       -2   -1    0    0    0  501  0.00000000000E+00  0.00000000000E+00 -0.32924249106E+03  0.32924249107E+03  0.25500000920E-02 0.  1.
    10030    2    1    2    0    0  0.00000000000E+00  0.00000000000E+00 -0.56364636630E+02  0.60212034551E+03  0.59947638670E+03 0.  0.
        4    1    3    3  502    0  0.89209211838E+02  0.27126834144E+03  0.63304946947E+02  0.29249602690E+03  0.12699999809E+01 0. -1.
       -4    1    3    3    0  502 -0.89209211838E+02 -0.27126834144E+03 -0.11966958358E+03  0.30962431861E+03  0.12699999809E+01 0.  1.
</event>
<event>
 5   0  0.9428629E-03  0.6006227E+03  0.7818609E-02  0.9904115E-01
        2   -1    0    0  501    0  0.00000000000E+00  0.00000000000E+00  0.48623612183E+03  0.48623612184E+03  0.25500000920E-02 0. -1.
       -2   -1    0    0    0  501  0.00000000000E+00  0.00000000000E+00 -0.18547963596E+03  0.18547963598E+03  0.25500000920E-02 0.  1.
    10030    2    1    2    0    0  0.00000000000E+00  0.00000000000E+00  0.30075648587E+03  0.67171575781E+03  0.60062267315E+03 0.  0.
        3    1    3    3  502    0 -0.79134134217E+02  0.24162123882E+03  0.32912041422E+03  0.41588855660E+03  0.10100000352E+00 0. -1.
       -3    1    3    3    0  502  0.79134134217E+02 -0.24162123882E+03 -0.28363928353E+02  0.25582720121E+03  0.10100000352E+00 0.  1.
</event>
<event>
 5   0  0.5785798E-03  0.5999834E+03  0.7818609E-02  0.9905440E-01
       -1   -1    0    0    0  501  0.00000000000E+00  0.00000000000E+00  0.16763970731E+03  0.16763970739E+03  0.50400001928E-02 0. -1.
        1   -1    0    0  501    0  0.00000000000E+00  0.00000000000E+00 -0.53683596769E+03  0.53683596771E+03  0.50400001928E-02 0.  1.
    10030    2    1    2    0    0  0.00000000000E+00  0.00000000000E+00 -0.36919626037E+03  0.70447567510E+03  0.59998341488E+03 0.  0.
        1    1    3    3  502    0  0.19501838446E+03 -0.20423276584E+03 -0.65713013610E+02  0.28993342875E+03  0.50400001928E-02 0.  1.
       -1    1    3    3    0  502 -0.19501838446E+03  0.20423276584E+03 -0.30348324676E+03  0.41454224635E+03  0.50400001928E-02 0. -1.
</event>
<event>
 5   0  0.5785798E-03  0.5995712E+03  0.7818609E-02  0.9906296E-01
       -1   -1    0    0    0  501  0.00000000000E+00  0.00000000000E+00  0.29135837794E+03  0.29135837798E+03  0.50400001928E-02 0. -1.
        1   -1    0    0  501    0  0.00000000000E+00  0.00000000000E+00 -0.30845655188E+03  0.30845655192E+03  0.50400001928E-02 0.  1.
    10030    2    1    2    0    0  0.00000000000E+00  0.00000000000E+00 -0.17098173937E+02  0.59981492990E+03  0.59957118225E+03 0.  0.
        1    1    3    3  502    0 -0.73139504575E+02  0.16249666615E+03 -0.24972145239E+03  0.30678226391E+03  0.50400001928E-02 0. -1.
       -1    1    3    3    0  502  0.73139504575E+02 -0.16249666615E+03  0.23262327845E+03  0.29303266600E+03  0.50400001928E-02 0.  1.
</event>
<event>
 5   0  0.5653633E-03  0.6007283E+03  0.7818609E-02  0.9903896E-01
       -1   -1    0    0    0  501  0.00000000000E+00  0.00000000000E+00  0.22720167486E+03  0.22720167491E+03  0.50400001928E-02 0. -1.
        1   -1    0    0  501    0  0.00000000000E+00  0.00000000000E+00 -0.39708612810E+03  0.39708612813E+03  0.50400001928E-02 0.  1.
    10030    2    1    2    0    0  0.00000000000E+00  0.00000000000E+00 -0.16988445325E+03  0.62428780305E+03  0.60072833592E+03 0.  0.
        2    1    3    3  502    0  0.10065542475E+03  0.13535550599E+02 -0.37870092948E+03  0.39208305199E+03  0.25500000920E-02 0.  1.
       -2    1    3    3    0  502 -0.10065542475E+03 -0.13535550599E+02  0.20881647623E+03  0.23220475106E+03  0.25500000920E-02 0. -1.
</event>
<event>
 5   0  0.5653633E-03  0.5996022E+03  0.7818609E-02  0.9906232E-01
       -1   -1    0    0    0  501  0.00000000000E+00  0.00000000000E+00  0.25320903414E+03  0.25320903419E+03  0.50400001928E-02 0.  1.
        1   -1    0    0  501    0  0.00000000000E+00  0.00000000000E+00 -0.35496642539E+03  0.35496642543E+03  0.50400001928E-02 0. -1.
    10030    2    1    2    0    0  0.00000000000E+00  0.00000000000E+00 -0.10175739125E+03  0.60817545961E+03  0.59960222065E+03 0.  0.
        2    1    3    3  502    0  0.74073625169E+02  0.17006820341E+03 -0.28976823346E+03  0.34405773482E+03  0.25500000920E-02 0. -1.
       -2    1    3    3    0  502 -0.74073625169E+02 -0.17006820341E+03  0.18801084221E+03  0.26411772480E+03  0.25500000920E-02 0.  1.
</event>
<event>
 5   0  0.9571790E-03  0.5997678E+03  0.7818609E-02  0.9905888E-01
       -2   -1    0    0    0  501  0.00000000000E+00  0.00000000000E+00  0.41189313046E+02  0.41189313125E+02  0.25500000920E-02 0. -1.
        2   -1    0    0  501    0  0.00000000000E+00  0.00000000000E+00 -0.21833418412E+04  0.21833418412E+04  0.25500000920E-02 0.  1.
    10030    2    1    2    0    0  0.00000000000E+00  0.00000000000E+00 -0.21421525282E+04  0.22245311543E+04  0.59976779065E+03 0.  0.
        5    1    3    3  502    0  0.65653350753E+02 -0.23569975400E+03 -0.17139575604E+04  0.17313397544E+04  0.46999998093E+01 0.  1.
       -5    1    3    3    0  502 -0.65653350753E+02  0.23569975400E+03 -0.42819496776E+03  0.49319139988E+03  0.46999998093E+01 0. -1.
</event>
<event>
 5   0  0.5574736E-03  0.5993815E+03  0.7818609E-02  0.9906690E-01
       -1   -1    0    0    0  501  0.00000000000E+00  0.00000000000E+00  0.59569137743E+02  0.59569137956E+02  0.50400001928E-02 0.  1.
        1   -1    0    0  501    0  0.00000000000E+00  0.00000000000E+00 -0.15077363779E+04  0.15077363779E+04  0.50400001928E-02 0. -1.
    10030    2    1    2    0    0  0.00000000000E+00  0.00000000000E+00 -0.14481672401E+04  0.15673055158E+04  0.59938153508E+03 0.  0.
        5    1    3    3  502    0 -0.25254479510E+03  0.89183086431E+02 -0.37267791243E+03  0.45895905356E+03  0.46999998093E+01 0. -1.
       -5    1    3    3    0  502  0.25254479510E+03 -0.89183086431E+02 -0.10754893277E+04  0.11083464623E+04  0.46999998093E+01 0.  1.
</event>
<event>
 5   0  0.5491236E-03  0.5999166E+03  0.7818609E-02  0.9905579E-01
        1   -1    0    0  501    0  0.00000000000E+00  0.00000000000E+00  0.86660975948E+03  0.86660975950E+03  0.50400001928E-02 0. -1.
       -1   -1    0    0    0  501  0.00000000000E+00  0.00000000000E+00 -0.10382410206E+03  0.10382410218E+03  0.50400001928E-02 0.  1.
    10030    2    1    2    0    0  0.00000000000E+00  0.00000000000E+00  0.76278565743E+03  0.97043386167E+03  0.59991659479E+03 0.  0.
        3    1    3    3  502    0  0.27904597869E+03 -0.10600909295E+03  0.42911613310E+03  0.52272865992E+03  0.10100000352E+00 0. -1.
       -3    1    3    3    0  502 -0.27904597869E+03  0.10600909295E+03  0.33366952432E+03  0.44770520175E+03  0.10100000352E+00 0.  1.
</event>
<event>
 5   0  0.5491236E-03  0.5994573E+03  0.7818609E-02  0.9906533E-01
       -1   -1    0    0    0  501  0.00000000000E+00  0.00000000000E+00  0.71231061965E+02  0.71231062143E+02  0.50400001928E-02 0. -1.
        1   -1    0    0  501    0  0.00000000000E+00  0.00000000000E+00 -0.12612089244E+04  0.12612089244E+04  0.50400001928E-02 0.  1.
    10030    2    1    2    0    0  0.00000000000E+00  0.00000000000E+00 -0.11899778625E+04  0.13324399866E+04  0.59945725843E+03 0.  0.
        3    1    3    3  502    0  0.21081150289E+03 -0.19702596150E+03 -0.77524403218E+03  0.82720253801E+03  0.10100000352E+00 0.  1.
       -3    1    3    3    0  502 -0.21081150289E+03  0.19702596150E+03 -0.41473383027E+03  0.50523744856E+03  0.10100000352E+00 0. -1.
</event>
<event>
 5   0  0.5503975E-03  0.5958289E+03  0.7818609E-02  0.9914098E-01
       -1   -1    0    0    0  501  0.00000000000E+00  0.00000000000E+00  0.10557393772E+03  0.10557393784E+03  0.50400001928E-02 0. -1.
        1   -1    0    0  501    0  0.00000000000E+00  0.00000000000E+00 -0.84067168219E+03  0.84067168221E+03  0.50400001928E-02 0.  1.
    10030    2    1    2    0    0  0.00000000000E+00  0.00000000000E+00 -0.73509774447E+03  0.94624562005E+03  0.59582890123E+03 0.  0.
        4    1    3    3  502    0 -0.13487101222E+03  0.20712244838E+03 -0.63168040197E+03  0.67831529667E+03  0.12699999809E+01 0.  1.
       -4    1    3    3    0  502  0.13487101222E+03 -0.20712244838E+03 -0.10341734250E+03  0.26793032339E+03  0.12699999809E+01 0. -1.
</event>
<event>
 5   0  0.9530666E-03  0.5991742E+03  0.7818609E-02  0.9907121E-01
       -2   -1    0    0    0  501  0.00000000000E+00  0.00000000000E+00  0.37588465403E+03  0.37588465404E+03  0.25500000920E-02 0. -1.
        2   -1    0    0  501    0  0.00000000000E+00  0.00000000000E+00 -0.23877652604E+03  0.23877652606E+03  0.25500000920E-02 0.  1.
    10030    2    1    2    0    0  0.00000000000E+00  0.00000000000E+00  0.13710812799E+03  0.61466118009E+03  0.59917420468E+03 0.  0.
        2    1    3    3  502    0  0.17389115565E+03  0.11100228392E+03  0.29140810206E+03  0.35704106626E+03  0.25500000920E-02 0. -1.
       -2    1    3    3    0  502 -0.17389115565E+03 -0.11100228392E+03 -0.15429997407E+03  0.25762011383E+03  0.25500000920E-02 0.  1.
</event>
<event>
 5   0  0.9866317E-03  0.6118824E+03  0.7818609E-02  0.9881056E-01
       -2   -1    0    0    0  501  0.00000000000E+00  0.00000000000E+00  0.99283347304E+02  0.99283347337E+02  0.25500000920E-02 0.  1.
        2   -1    0    0  501    0  0.00000000000E+00  0.00000000000E+00 -0.94275634885E+03  0.94275634885E+03  0.25500000920E-02 0. -1.
    10030    2    1    2    0    0  0.00000000000E+00  0.00000000000E+00 -0.84347300154E+03  0.10420396962E+04  0.61188236132E+03 0.  0.
        1    1    3    3  502    0 -0.19384210152E+03  0.14170668132E+03 -0.74460994334E+03  0.78236788763E+03  0.50400001928E-02 0. -1.
       -1    1    3    3    0  502  0.19384210152E+03 -0.14170668132E+03 -0.98863058203E+02  0.25967180855E+03  0.50400001928E-02 0.  1.
</event>
<event>
 5   0  0.5574736E-03  0.6013928E+03  0.7818609E-02  0.9902521E-01
        1   -1    0    0  501    0  0.00000000000E+00  0.00000000000E+00  0.92240407783E+03  0.92240407784E+03  0.50400001928E-02 0. -1.
       -1   -1    0    0    0  501  0.00000000000E+00  0.00000000000E+00 -0.98024651254E+02  0.98024651384E+02  0.50400001928E-02 0.  1.
    10030    2    1    2    0    0  0.00000000000E+00  0.00000000000E+00  0.82437942657E+03  0.10204287292E+04  0.60139284371E+03 0.  0.
        5    1    3    3  502    0  0.99190346446E+02 -0.19810977396E+03  0.75705718494E+03  0.78882436488E+03  0.46999998093E+01 0. -1.
       -5    1    3    3    0  502 -0.99190346446E+02  0.19810977396E+03  0.67322241629E+02  0.23160436434E+03  0.46999998093E+01 0.  1.
</event>
<event>
 5   0  0.5653633E-03  0.6010938E+03  0.7818609E-02  0.9903139E-01
        1   -1    0    0  501    0  0.00000000000E+00  0.00000000000E+00  0.13553019497E+03  0.13553019507E+03  0.50400001928E-02 0. -1.
       -1   -1    0    0    0  501  0.00000000000E+00  0.00000000000E+00 -0.66648202181E+03  0.66648202183E+03  0.50400001928E-02 0.  1.
    10030    2    1    2    0    0  0.00000000000E+00  0.00000000000E+00 -0.53095182684E+03  0.80201221690E+03  0.60109379770E+03 0.  0.
        2    1    3    3  502    0  0.17125582442E+03 -0.24070541367E+03 -0.19165912650E+03  0.35213757872E+03  0.25500000920E-02 0. -1.
       -2    1    3    3    0  502 -0.17125582442E+03  0.24070541367E+03 -0.33929270034E+03  0.44987463818E+03  0.25500000920E-02 0.  1.
</event>
<event>
 5   0  0.5491236E-03  0.5998159E+03  0.7818609E-02  0.9905788E-01
        1   -1    0    0  501    0  0.00000000000E+00  0.00000000000E+00  0.18940972385E+04  0.18940972385E+04  0.50400001928E-02 0. -1.
       -1   -1    0    0    0  501  0.00000000000E+00  0.00000000000E+00 -0.47486882030E+02  0.47486882297E+02  0.50400001928E-02 0.  1.
    10030    2    1    2    0    0  0.00000000000E+00  0.00000000000E+00  0.18466103565E+04  0.19415841208E+04  0.59981587969E+03 0.  0.
        3    1    3    3  502    0 -0.14680222204E+03 -0.56208763434E+02  0.17500600014E+04  0.17571056701E+04  0.10100000352E+00 0. -1.
       -3    1    3    3    0  502  0.14680222204E+03  0.56208763434E+02  0.96550355086E+02  0.18447845064E+03  0.10100000352E+00 0.  1.
</event>
<event>
 5   0  0.9530666E-03  0.5957638E+03  0.7818609E-02  0.9914234E-01
       -2   -1    0    0    0  501  0.00000000000E+00  0.00000000000E+00  0.93523710591E+02  0.93523710626E+02  0.25500000920E-02 0.  1.
        2   -1    0    0  501    0  0.00000000000E+00  0.00000000000E+00 -0.94878198411E+03  0.94878198411E+03  0.25500000920E-02 0. -1.
    10030    2    1    2    0    0  0.00000000000E+00  0.00000000000E+00 -0.85525827352E+03  0.10423056947E+04  0.59576375088E+03 0.  0.
        2    1    3    3  502    0 -0.26647908259E+03 -0.12968937080E+03 -0.37505071387E+03  0.47800990820E+03  0.25500000920E-02 0. -1.
       -2    1    3    3    0  502  0.26647908259E+03  0.12968937080E+03 -0.48020755965E+03  0.56429578654E+03  0.25500000920E-02 0.  1.
</event>
<event>
 5   0  0.9428629E-03  0.5987564E+03  0.7818609E-02  0.9907990E-01
        2   -1    0    0  501    0  0.00000000000E+00  0.00000000000E+00  0.79602068358E+03  0.79602068359E+03  0.25500000920E-02 0.  1.
       -2   -1    0    0    0  501  0.00000000000E+00  0.00000000000E+00 -0.11259418938E+03  0.11259418941E+03  0.25500000920E-02 0. -1.
    10030    2    1    2    0    0  0.00000000000E+00  0.00000000000E+00  0.68342649421E+03  0.90861487300E+03  0.59875638990E+03 0.  0.
        3    1    3    3  502    0 -0.24173357163E+03  0.23054868915E+02  0.60743085629E+03  0.65417039218E+03  0.10100000352E+00 0.  1.
       -3    1    3    3    0  502  0.24173357163E+03 -0.23054868915E+02  0.75995637920E+02  0.25444448082E+03  0.10100000352E+00 0. -1.
</event>
<event>
 5   0  0.5785798E-03  0.5979015E+03  0.7818609E-02  0.9909769E-01
       -1   -1    0    0    0  501  0.00000000000E+00  0.00000000000E+00  0.23567373448E+03  0.23567373453E+03  0.50400001928E-02 0.  1.
        1   -1    0    0  501    0  0.00000000000E+00  0.00000000000E+00 -0.37921723700E+03  0.37921723704E+03  0.50400001928E-02 0. -1.
    10030    2    1    2    0    0  0.00000000000E+00  0.00000000000E+00 -0.14354350253E+03  0.61489097157E+03  0.59790147165E+03 0.  0.
        1    1    3    3  502    0  0.24785430940E+03  0.12778510553E+03  0.39043271790E+02  0.28157622233E+03  0.50400001928E-02 0.  1.
       -1    1    3    3    0  502 -0.24785430940E+03 -0.12778510553E+03 -0.18258677432E+03  0.33331474924E+03  0.50400001928E-02 0. -1.
</event>
<event>
 5   0  0.9530666E-03  0.5991584E+03  0.7818609E-02  0.9907154E-01
        2   -1    0    0  501    0  0.00000000000E+00  0.00000000000E+00  0.96943280615E+03  0.96943280615E+03  0.25500000920E-02 0.  1.
       -2   -1    0    0    0  501  0.00000000000E+00  0.00000000000E+00 -0.92577523970E+02  0.92577524005E+02  0.25500000920E-02 0. -1.
    10030    2    1    2    0    0  0.00000000000E+00  0.00000000000E+00  0.87685528218E+03  0.10620103302E+04  0.59915837261E+03 0.  0.
        2    1    3    3  502    0 -0.97981118574E+02 -0.27588785161E+03  0.32585925623E+03  0.43806239412E+03  0.25500000920E-02 0.  1.
       -2    1    3    3    0  502  0.97981118574E+02  0.27588785161E+03  0.55099602595E+03  0.62394793604E+03  0.25500000920E-02 0. -1.
</event>
<event>
 5   0  0.5653633E-03  0.6001472E+03  0.7818609E-02  0.9905101E-01
       -1   -1    0    0    0  501  0.00000000000E+00  0.00000000000E+00  0.21650929969E+03  0.21650929975E+03  0.50400001928E-02 0.  1.
        1   -1    0    0  501    0  0.00000000000E+00  0.00000000000E+00 -0.41589058147E+03  0.41589058150E+03  0.50400001928E-02 0. -1.
    10030    2    1    2    0    0  0.00000000000E+00  0.00000000000E+00 -0.19938128178E+03  0.63239988125E+03  0.60014724384E+03 0.  0.
        2    1    3    3  502    0  0.10065590900E+03 -0.24017693676E+02  0.19711239517E+03  0.22262470205E+03  0.25500000920E-02 0.  1.
       -2    1    3    3    0  502 -0.10065590900E+03  0.24017693676E+02 -0.39649367695E+03  0.40977517920E+03  0.25500000920E-02 0. -1.
</event>
<event>
 5   0  0.3794375E-03  0.5985709E+03  0.7818609E-02  0.9908375E-01
        3   -1    0    0  501    0  0.00000000000E+00  0.00000000000E+00  0.11543289910E+03  0.11543294329E+03  0.10100000352E+00 0. -1.
       -3   -1    0    0    0  501  0.00000000000E+00  0.00000000000E+00 -0.77596390691E+03  0.77596391349E+03  0.10100000352E+00 0.  1.
    10030    2    1    2    0    0  0.00000000000E+00  0.00000000000E+00 -0.66053100781E+03  0.89139685677E+03  0.59857091809E+03 0.  0.
        2    1    3    3  502    0  0.37542001362E+02  0.73108230384E+02  0.98299525003E+02  0.12812888760E+03  0.25500000920E-02 0. -1.
       -2    1    3    3    0  502 -0.37542001362E+02 -0.73108230384E+02 -0.75883053282E+03  0.76326796917E+03  0.25500000920E-02 0.  1.
</event>
<event>
 5   0  0.5491236E-03  0.5998535E+03  0.7818609E-02  0.9905710E-01
        1   -1    0    0  501    0  0.00000000000E+00  0.00000000000E+00  0.49935524904E+03  0.49935524907E+03  0.50400001928E-02 0.  1.
       -1   -1    0    0    0  501  0.00000000000E+00  0.00000000000E+00 -0.18014441647E+03  0.18014441654E+03  0.50400001928E-02 0. -1.
    10030    2    1    2    0    0  0.00000000000E+00  0.00000000000E+00  0.31921083258E+03  0.67949966560E+03  0.59985351539E+03 0.  0.
        3    1    3    3  502    0 -0.26816692834E+03 -0.32635471581E+02  0.12007379790E+02  0.27041220910E+03  0.10100000352E+00 0. -1.
       -3    1    3    3    0  502  0.26816692834E+03  0.32635471581E+02  0.30720345279E+03  0.40908745650E+03  0.10100000352E+00 0.  1.
</event>
<event>
 5   0  0.9571790E-03  0.6000684E+03  0.7818609E-02  0.9905264E-01
        2   -1    0    0  501    0  0.00000000000E+00  0.00000000000E+00  0.83200822432E+03  0.83200822432E+03  0.25500000920E-02 0.  1.
       -2   -1    0    0    0  501  0.00000000000E+00  0.00000000000E+00 -0.10819666438E+03  0.10819666441E+03  0.25500000920E-02 0. -1.
    10030    2    1    2    0    0  0.00000000000E+00  0.00000000000E+00  0.72381155994E+03  0.94020488872E+03  0.60006837817E+03 0.  0.
        5    1    3    3  502    0 -0.17720956907E+03  0.65408804731E+02 -0.32592474984E+01  0.18898215735E+03  0.46999998093E+01 0. -1.
       -5    1    3    3    0  502  0.17720956907E+03 -0.65408804731E+02  0.72707080744E+03  0.75122273137E+03  0.46999998093E+01 0.  1.
</event>
<event>
 5   0  0.9530666E-03  0.6004237E+03  0.7818609E-02  0.9904527E-01
        2   -1    0    0  501    0  0.00000000000E+00  0.00000000000E+00  0.20696969516E+03  0.20696969518E+03  0.25500000920E-02 0. -1.
       -2   -1    0    0    0  501  0.00000000000E+00  0.00000000000E+00 -0.43546066658E+03  0.43546066658E+03  0.25500000920E-02 0.  1.
    10030    2    1    2    0    0  0.00000000000E+00  0.00000000000E+00 -0.22849097141E+03  0.64243036176E+03  0.60042372180E+03 0.  0.
        2    1    3    3  502    0 -0.14965896506E+03  0.25180721259E+03 -0.18459075181E+03  0.34623463691E+03  0.25500000920E-02 0.  1.
       -2    1    3    3    0  502  0.14965896506E+03 -0.25180721259E+03 -0.43900219605E+02  0.29619572486E+03  0.25500000920E-02 0. -1.
</event>
<event>
 5   0  0.5574736E-03  0.5990898E+03  0.7818609E-02  0.9907296E-01
       -1   -1    0    0    0  501  0.00000000000E+00  0.00000000000E+00  0.97956396767E+02  0.97956396896E+02  0.50400001928E-02 0.  1.
        1   -1    0    0  501    0  0.00000000000E+00  0.00000000000E+00 -0.91599057264E+03  0.91599057266E+03  0.50400001928E-02 0. -1.
    10030    2    1    2    0    0  0.00000000000E+00  0.00000000000E+00 -0.81803417588E+03  0.10139469696E+04  0.59908976303E+03 0.  0.
        5    1    3    3  502    0 -0.24419291971E+03  0.17827402791E+02 -0.11706051066E+03  0.27142817003E+03  0.46999998093E+01 0.  1.
       -5    1    3    3    0  502  0.24419291971E+03 -0.17827402791E+02 -0.70097366522E+03  0.74251879953E+03  0.46999998093E+01 0. -1.
</event>
<event>
 5   0  0.3794375E-03  0.5997513E+03  0.7818609E-02  0.9905922E-01
        3   -1    0    0  501    0  0.00000000000E+00  0.00000000000E+00  0.79475951787E+02  0.79476015964E+02  0.10100000352E+00 0.  1.
       -3   -1    0    0    0  501  0.00000000000E+00  0.00000000000E+00 -0.11314790323E+04  0.11314790368E+04  0.10100000352E+00 0. -1.
    10030    2    1    2    0    0  0.00000000000E+00  0.00000000000E+00 -0.10520030805E+04  0.12109550528E+04  0.59975133049E+03 0.  0.
        3    1    3    3  502    0 -0.20409395080E+03 -0.21528134175E+03 -0.43741392274E+03  0.52851806674E+03  0.10100000352E+00 0. -1.
       -3    1    3    3    0  502  0.20409395080E+03  0.21528134175E+03 -0.61458915778E+03  0.68243698604E+03  0.10100000352E+00 0.  1.
</event>
<event>
 5   0  0.5574736E-03  0.5999693E+03  0.7818609E-02  0.9905470E-01
        1   -1    0    0  501    0  0.00000000000E+00  0.00000000000E+00  0.14482308615E+04  0.14482308615E+04  0.50400001928E-02 0. -1.
       -1   -1    0    0    0  501  0.00000000000E+00  0.00000000000E+00 -0.62138423196E+02  0.62138423400E+02  0.50400001928E-02 0.  1.
    10030    2    1    2    0    0  0.00000000000E+00  0.00000000000E+00  0.13860924383E+04  0.15103692849E+04  0.59996927360E+03 0.  0.
        5    1    3    3  502    0 -0.90127625875E+02  0.40363556435E+02 -0.19947910726E+02  0.10085739821E+03  0.46999998093E+01 0.  1.
       -5    1    3    3    0  502  0.90127625875E+02 -0.40363556435E+02  0.14060403490E+04  0.14095118867E+04  0.46999998093E+01 0. -1.
</event>
<event>
 5   0  0.5653633E-03  0.5985951E+03  0.7818609E-02  0.9908325E-01
       -1   -1    0    0    0  501  0.00000000000E+00  0.00000000000E+00  0.27725058643E+03  0.27725058648E+03  0.50400001928E-02 0.  1.
        1   -1    0    0  501    0  0.00000000000E+00  0.00000000000E+00 -0.32309766624E+03  0.32309766628E+03  0.50400001928E-02 0. -1.
    10030    2    1    2    0    0  0.00000000000E+00  0.00000000000E+00 -0.45847079811E+02  0.60034825276E+03  0.59859508005E+03 0.  0.
        2    1    3    3  502    0  0.10512207219E+03  0.10338658693E+03 -0.28414670461E+03  0.32012307972E+03  0.25500000920E-02 0. -1.
       -2    1    3    3    0  502 -0.10512207219E+03 -0.10338658693E+03  0.23829962480E+03  0.28022517304E+03  0.25500000920E-02 0.  1.
</event>
<event>
 5   0  0.5785798E-03  0.5925569E+03  0.7818609E-02  0.9920969E-01
       -1   -1    0    0    0  501  0.00000000000E+00  0.00000000000E+00  0.50650607191E+02  0.50650607442E+02  0.50400001928E-02 0. -1.
        1   -1    0    0  501    0  0.00000000000E+00  0.00000000000E+00 -0.17330677025E+04  0.17330677025E+04  0.50400001928E-02 0.  1.
    10030    2    1    2    0    0  0.00000000000E+00  0.00000000000E+00 -0.16824170953E+04  0.17837183099E+04  0.59255693959E+03 0.  0.
        1    1    3    3  502    0  0.14037132024E+03  0.63464193214E+02 -0.79387852489E+02  0.17330390219E+03  0.50400001928E-02 0. -1.
       -1    1    3    3    0  502 -0.14037132024E+03 -0.63464193214E+02 -0.16030292428E+04  0.16104144077E+04  0.50400001928E-02 0.  1.
</event>
<event>
 5   0  0.9530666E-03  0.6000227E+03  0.7818609E-02  0.9905359E-01
        2   -1    0    0  501    0  0.00000000000E+00  0.00000000000E+00  0.62445054035E+03  0.62445054036E+03  0.25500000920E-02 0.  1.
       -2   -1    0    0    0  501  0.00000000000E+00  0.00000000000E+00 -0.14413762085E+03  0.14413762087E+03  0.25500000920E-02 0. -1.
    10030    2    1    2    0    0  0.00000000000E+00  0.00000000000E+00  0.48031291950E+03  0.76858816123E+03  0.60002271702E+03 0.  0.
        2    1    3    3  502    0  0.66658621334E+02  0.27042968695E+03  0.38297448071E+03  0.47354518291E+03  0.25500000920E-02 0.  1.
       -2    1    3    3    0  502 -0.66658621334E+02 -0.27042968695E+03  0.97338438794E+02  0.29504297832E+03  0.25500000920E-02 0. -1.
</event>
<event>
 5   0  0.5785798E-03  0.6004390E+03  0.7818609E-02  0.9904496E-01
       -1   -1    0    0    0  501  0.00000000000E+00  0.00000000000E+00  0.32387897527E+02  0.32387897919E+02  0.50400001928E-02 0.  1.
        1   -1    0    0  501    0  0.00000000000E+00  0.00000000000E+00 -0.27828835330E+04  0.27828835330E+04  0.50400001928E-02 0. -1.
    10030    2    1    2    0    0  0.00000000000E+00  0.00000000000E+00 -0.27504956355E+04  0.28152714309E+04  0.60043899692E+03 0.  0.
        1    1    3    3  502    0 -0.24743950942E+03 -0.90625392131E+02 -0.70078564239E+03  0.74869205227E+03  0.50400001928E-02 0.  1.
       -1    1    3    3    0  502  0.24743950942E+03  0.90625392131E+02 -0.20497099931E+04  0.20665793787E+04  0.50400001928E-02 0. -1.
</event>
<event>
 5   0  0.3794375E-03  0.6005848E+03  0.7818609E-02  0.9904194E-01
       -3   -1    0    0    0  501  0.00000000000E+00  0.00000000000E+00  0.71848498981E+03  0.71848499691E+03  0.10100000352E+00 0. -1.
        3   -1    0    0  501    0  0.00000000000E+00  0.00000000000E+00 -0.12550784132E+03  0.12550788196E+03  0.10100000352E+00 0.  1.
    10030    2    1    2    0    0  0.00000000000E+00  0.00000000000E+00  0.59297714849E+03  0.84399287886E+03  0.60058478247E+03 0.  0.
        4    1    3    3  502    0  0.24145853034E+03 -0.10764141752E+03  0.49663695407E+03  0.56261778650E+03  0.12699999809E+01 0. -1.
       -4    1    3    3    0  502 -0.24145853034E+03  0.10764141752E+03  0.96340194422E+02  0.28137509236E+03  0.12699999809E+01 0.  1.
</event>
<event>
 5   0  0.3794375E-03  0.5960142E+03  0.7818609E-02  0.9913710E-01
        3   -1    0    0  501    0  0.00000000000E+00  0.00000000000E+00  0.39506951617E+03  0.39506952908E+03  0.10100000352E+00 0. -1.
       -3   -1    0    0    0  501  0.00000000000E+00  0.00000000000E+00 -0.22479138905E+03  0.22479141174E+03  0.10100000352E+00 0.  1.
    10030    2    1    2    0    0  0.00000000000E+00  0.00000000000E+00  0.17027812712E+03  0.61986094082E+03  0.59601421575E+03 0.  0.
        3    1    3    3  502    0  0.50078032912E+02  0.24534241834E+03 -0.82903932835E+02  0.26376842854E+03  0.10100000352E+00 0.  1.
       -3    1    3    3    0  502 -0.50078032912E+02 -0.24534241834E+03  0.25318205996E+03  0.35609251228E+03  0.10100000352E+00 0. -1.
</event>
<event>
 5   0  0.3794375E-03  0.6009260E+03  0.7818609E-02  0.9903487E-01
        4   -1    0    0  501    0  0.00000000000E+00  0.00000000000E+00  0.11113554103E+04  0.11113561360E+04  0.12699999809E+01 0.  1.
       -4   -1    0    0    0  501  0.00000000000E+00  0.00000000000E+00 -0.81226634151E+02  0.81236561938E+02  0.12699999809E+01 0. -1.
    10030    2    1    2    0    0  0.00000000000E+00  0.00000000000E+00  0.10301287762E+04  0.11925926979E+04  0.60092599179E+03 0.  0.
        2    1    3    3  502    0 -0.14857029063E+03 -0.12952194845E+03  0.64999671887E+02  0.20754282387E+03  0.25500000920E-02 0. -1.
       -2    1    3    3    0  502  0.14857029063E+03  0.12952194845E+03  0.96512910430E+03  0.98504987404E+03  0.25500000920E-02 0.  1.
</event>
<event>
 5   0  0.5491236E-03  0.6003323E+03  0.7818609E-02  0.9904717E-01
        1   -1    0    0  501    0  0.00000000000E+00  0.00000000000E+00  0.19260267127E+03  0.19260267134E+03  0.50400001928E-02 0. -1.
       -1   -1    0    0    0  501  0.00000000000E+00  0.00000000000E+00 -0.46780092711E+03  0.46780092714E+03  0.50400001928E-02 0.  1.
    10030    2    1    2    0    0  0.00000000000E+00  0.00000000000E+00 -0.27519825584E+03  0.66040359848E+03  0.60033226872E+03 0.  0.
        3    1    3    3  502    0  0.13579403024E+03 -0.12441079526E+03  0.12314523243E+03  0.22154643553E+03  0.10100000352E+00 0. -1.
       -3    1    3    3    0  502 -0.13579403024E+03  0.12441079526E+03 -0.39834348827E+03  0.43885716295E+03  0.10100000352E+00 0.  1.
</event>
<event>
 5   0  0.5574736E-03  0.6006178E+03  0.7818609E-02  0.9904125E-01
       -1   -1    0    0    0  501  0.00000000000E+00  0.00000000000E+00  0.61899439998E+02  0.61899440203E+02  0.50400001928E-02 0. -1.
        1   -1    0    0  501    0  0.00000000000E+00  0.00000000000E+00 -0.14569668513E+04  0.14569668513E+04  0.50400001928E-02 0.  1.
    10030    2    1    2    0    0  0.00000000000E+00  0.00000000000E+00 -0.13950674113E+04  0.15188662915E+04  0.60061778979E+03 0.  0.
        5    1    3    3  502    0  0.14413763457E+03 -0.11217548169E+03 -0.94818519423E+02  0.20584372231E+03  0.46999998093E+01 0. -1.
       -5    1    3    3    0  502 -0.14413763457E+03  0.11217548169E+03 -0.13002488919E+04  0.13130225692E+04  0.46999998093E+01 0.  1.
</event>
<event>
 5   0  0.5574736E-03  0.6006617E+03  0.7818609E-02  0.9904034E-01
        1   -1    0    0  501    0  0.00000000000E+00  0.00000000000E+00  0.50615602571E+03  0.50615602573E+03  0.50400001928E-02 0. -1.
       -1   -1    0    0    0  501  0.00000000000E+00  0.00000000000E+00 -0.17820319073E+03  0.17820319080E+03  0.50400001928E-02 0.  1.
    10030    2    1    2    0    0  0.00000000000E+00  0.00000000000E+00  0.32795283498E+03  0.68435921653E+03  0.60066169786E+03 0.  0.
        5    1    3    3  502    0  0.25082982910E+03 -0.77148242925E+02  0.33029335237E+03  0.42188060298E+03  0.46999998093E+01 0. -1.
       -5    1    3    3    0  502 -0.25082982910E+03  0.77148242925E+02 -0.23405173913E+01  0.26247861355E+03  0.46999998093E+01 0.  1.
</event>
<event>
 5   0  0.9530666E-03  0.5978897E+03  0.7818609E-02  0.9909794E-01
        2   -1    0    0  501    0  0.00000000000E+00  0.00000000000E+00  0.69244109404E+03  0.69244109404E+03  0.25500000920E-02 0. -1.
       -2   -1    0    0    0  501  0.00000000000E+00  0.00000000000E+00 -0.12906227091E+03  0.12906227093E+03  0.25500000920E-02 0.  1.
    10030    2    1    2    0    0  0.00000000000E+00  0.00000000000E+00  0.56337882313E+03  0.82150336498E+03  0.59788968908E+03 0.  0.
        2    1    3    3  502    0 -0.23987487422E+03  0.17670059946E+03  0.24789439453E+03  0.38757539650E+03  0.25500000920E-02 0.  1.
       -2    1    3    3    0  502  0.23987487422E+03 -0.17670059946E+03  0.31548442860E+03  0.43392796847E+03  0.25500000920E-02 0. -1.
</event>
<event>
 5   0  0.5574736E-03  0.6001730E+03  0.7818609E-02  0.9905047E-01
       -1   -1    0    0    0  501  0.00000000000E+00  0.00000000000E+00  0.45425396772E+03  0.45425396775E+03  0.50400001928E-02 0.  1.
        1   -1    0    0  501    0  0.00000000000E+00  0.00000000000E+00 -0.19824130328E+03  0.19824130334E+03  0.50400001928E-02 0. -1.
    10030    2    1    2    0    0  0.00000000000E+00  0.00000000000E+00  0.25601266444E+03  0.65249527109E+03  0.60017297044E+03 0.  0.
        5    1    3    3  502    0 -0.11179793052E+03 -0.27715210965E+03  0.15713256706E+03  0.33767558808E+03  0.46999998093E+01 0.  1.
       -5    1    3    3    0  502  0.11179793052E+03  0.27715210965E+03  0.98880097385E+02  0.31481968301E+03  0.46999998093E+01 0. -1.
</event>
<event>
 5   0  0.5785798E-03  0.6009627E+03  0.7818609E-02  0.9903411E-01
        1   -1    0    0  501    0  0.00000000000E+00  0.00000000000E+00  0.45098752945E+03  0.45098752948E+03  0.50400001928E-02 0. -1.
       -1   -1    0    0    0  501  0.00000000000E+00  0.00000000000E+00 -0.20020293806E+03  0.20020293813E+03  0.50400001928E-02 0.  1.
    10030    2    1    2    0    0  0.00000000000E+00  0.00000000000E+00  0.25078459139E+03  0.65119046761E+03  0.60096265593E+03 0.  0.
        1    1    3    3  502    0 -0.25645943336E+03  0.12732805350E+03  0.22414168096E+03  0.36362531174E+03  0.50400001928E-02 0. -1.
       -1    1    3    3    0  502  0.25645943336E+03 -0.12732805350E+03  0.26642910425E+02  0.28756515587E+03  0.50400001928E-02 0.  1.
</event>
<event>
 5   0  0.9530666E-03  0.6008459E+03  0.7818609E-02  0.9903653E-01
        2   -1    0    0  501    0  0.00000000000E+00  0.00000000000E+00  0.69967012082E+03  0.69967012083E+03  0.25500000920E-02 0.  1.
       -2   -1    0    0    0  501  0.00000000000E+00  0.00000000000E+00 -0.12899499430E+03  0.12899499432E+03  0.25500000920E-02 0. -1.
    10030    2    1    2    0    0  0.00000000000E+00  0.00000000000E+00  0.57067512653E+03  0.82866511515E+03  0.60084588127E+03 0.  0.
        2    1    3    3  502    0  0.13869988312E+03  0.19044346288E+03  0.54242343280E+03  0.59137936266E+03  0.25500000920E-02 0.  1.
       -2    1    3    3    0  502 -0.13869988312E+03 -0.19044346288E+03  0.28251693726E+02  0.23728575249E+03  0.25500000920E-02 0. -1.
</event>
<event>
 5   0  0.3794375E-03  0.5993083E+03  0.7818609E-02  0.9906842E-01
        4   -1    0    0  501    0  0.00000000000E+00  0.00000000000E+00  0.38086762344E+03  0.38086974084E+03  0.12699999809E+01 0.  1.
       -4   -1    0    0    0  501  0.00000000000E+00  0.00000000000E+00 -0.23575359257E+03  0.23575701328E+03  0.12699999809E+01 0. -1.
    10030    2    1    2    0    0  0.00000000000E+00  0.00000000000E+00  0.14511403087E+03  0.61662675411E+03  0.59930832794E+03 0.  0.
        5    1    3    3  502    0  0.10351122107E+03  0.11845760415E+03  0.33492332168E+03  0.37005742564E+03  0.46999998093E+01 0.  1.
       -5    1    3    3    0  502 -0.10351122107E+03 -0.11845760415E+03 -0.18980929081E+03  0.24656932847E+03  0.46999998093E+01 0. -1.
</event>
<event>
 5   0  0.5653633E-03  0.6000001E+03  0.7818609E-02  0.9905406E-01
       -1   -1    0    0    0  501  0.00000000000E+00  0.00000000000E+00  0.46981025831E+03  0.46981025834E+03  0.50400001928E-02 0.  1.
        1   -1    0    0  501    0  0.00000000000E+00  0.00000000000E+00 -0.19156678343E+03  0.19156678349E+03  0.50400001928E-02 0. -1.
    10030    2    1    2    0    0  0.00000000000E+00  0.00000000000E+00  0.27824347488E+03  0.66137704183E+03  0.60000013346E+03 0.  0.
        2    1    3    3  502    0  0.19834544579E+03  0.61629307320E+02  0.37773980537E+03  0.43107591901E+03  0.25500000920E-02 0.  1.
       -2    1    3    3    0  502 -0.19834544579E+03 -0.61629307320E+02 -0.99496330488E+02  0.23030112282E+03  0.25500000920E-02 0. -1.
</event>
<event>
 5   0  0.5503975E-03  0.6014797E+03  0.7818609E-02  0.9902341E-01
       -1   -1    0    0    0  501  0.00000000000E+00  0.00000000000E+00  0.10774506522E+03  0.10774506534E+03  0.50400001928E-02 0.  1.
        1   -1    0    0  501    0  0.00000000000E+00  0.00000000000E+00 -0.83943008615E+03  0.83943008617E+03  0.50400001928E-02 0. -1.
    10030    2    1    2    0    0  0.00000000000E+00  0.00000000000E+00 -0.73168502093E+03  0.94717515151E+03  0.60147967362E+03 0.  0.
        4    1    3    3  502    0 -0.26270593916E+03  0.14601335800E+03 -0.38224746236E+03  0.48626026628E+03  0.12699999809E+01 0.  1.
       -4    1    3    3    0  502  0.26270593916E+03 -0.14601335800E+03 -0.34943755857E+03  0.46091488522E+03  0.12699999809E+01 0. -1.
</event>
<event>
 5   0  0.5503975E-03  0.5996544E+03  0.7818609E-02  0.9906123E-01
       -1   -1    0    0    0  501  0.00000000000E+00  0.00000000000E+00  0.42860978809E+02  0.42860979106E+02  0.50400001928E-02 0. -1.
        1   -1    0    0  501    0  0.00000000000E+00  0.00000000000E+00 -0.20973939575E+04  0.20973939575E+04  0.50400001928E-02 0.  1.
    10030    2    1    2    0    0  0.00000000000E+00  0.00000000000E+00 -0.20545329787E+04  0.21402549366E+04  0.59965442812E+03 0.  0.
        4    1    3    3  502    0  0.16059608990E+03 -0.21971129556E+03 -0.14763353944E+04  0.15012101676E+04  0.12699999809E+01 0.  1.
       -4    1    3    3    0  502 -0.16059608990E+03  0.21971129556E+03 -0.57819758425E+03  0.63904476902E+03  0.12699999809E+01 0. -1.
</event>
<event>
 5   0  0.5574736E-03  0.5907288E+03  0.7818609E-02  0.9924830E-01
        1   -1    0    0  501    0  0.00000000000E+00  0.00000000000E+00  0.60149157217E+02  0.60149157428E+02  0.50400001928E-02 0. -1.
       -1   -1    0    0    0  501  0.00000000000E+00  0.00000000000E+00 -0.14503967464E+04  0.14503967464E+04  0.50400001928E-02 0.  1.
    10030    2    1    2    0    0  0.00000000000E+00  0.00000000000E+00 -0.13902475892E+04  0.15105459039E+04  0.59072884505E+03 0.  0.
        5    1    3    3  502    0 -0.70118952998E+02  0.26408661404E+03 -0.40855134989E+03  0.49152284054E+03  0.46999998093E+01 0. -1.
       -5    1    3    3    0  502  0.70118952998E+02 -0.26408661404E+03 -0.98169623931E+03  0.10190230633E+04  0.46999998093E+01 0.  1.
</event>
<event>
 5   0  0.5491236E-03  0.6004703E+03  0.7818609E-02  0.9904431E-01
       -1   -1    0    0    0  501  0.00000000000E+00  0.00000000000E+00  0.72283947360E+03  0.72283947362E+03  0.50400001928E-02 0.  1.
        1   -1    0    0  501    0  0.00000000000E+00  0.00000000000E+00 -0.12470422635E+03  0.12470422646E+03  0.50400001928E-02 0. -1.
    10030    2    1    2    0    0  0.00000000000E+00  0.00000000000E+00  0.59813524724E+03  0.84754370007E+03  0.60047027365E+03 0.  0.
        3    1    3    3  502    0  0.46527826060E+01 -0.14559605562E+03  0.66961796277E+03  0.68527956781E+03  0.10100000352E+00 0.  1.
       -3    1    3    3    0  502 -0.46527826060E+01  0.14559605562E+03 -0.71482715526E+02  0.16226413226E+03  0.10100000352E+00 0. -1.
</event>
<event>
 5   0  0.9571790E-03  0.6008807E+03  0.7818609E-02  0.9903581E-01
       -2   -1    0    0    0  501  0.00000000000E+00  0.00000000000E+00  0.35965659344E+03  0.35965659345E+03  0.25500000920E-02 0.  1.
        2   -1    0    0  501    0  0.00000000000E+00  0.00000000000E+00 -0.25097388518E+03  0.25097388519E+03  0.25500000920E-02 0. -1.
    10030    2    1    2    0    0  0.00000000000E+00  0.00000000000E+00  0.10868270826E+03  0.61063047864E+03  0.60088072891E+03 0.  0.
        5    1    3    3  502    0 -0.16002674765E+00  0.10782072033E+03 -0.23059535608E+03  0.25460094576E+03  0.46999998093E+01 0. -1.
       -5    1    3    3    0  502  0.16002674765E+00 -0.10782072033E+03  0.33927806434E+03  0.35602953288E+03  0.46999998093E+01 0.  1.
</event>
<event>
 5   0  0.5574736E-03  0.5996448E+03  0.7818609E-02  0.9906143E-01
       -1   -1    0    0    0  501  0.00000000000E+00  0.00000000000E+00  0.21233284653E+03  0.21233284659E+03  0.50400001928E-02 0. -1.
        1   -1    0    0  501    0  0.00000000000E+00  0.00000000000E+00 -0.42336116045E+03  0.42336116048E+03  0.50400001928E-02 0.  1.
    10030    2    1    2    0    0  0.00000000000E+00  0.00000000000E+00 -0.21102831392E+03  0.63569400707E+03  0.59964482934E+03 0.  0.
        5    1    3    3  502    0 -0.23900863439E+03  0.14638472332E+03 -0.21829480025E+03  0.35528625690E+03  0.46999998093E+01 0.  1.
       -5    1    3    3    0  502  0.23900863439E+03 -0.14638472332E+03  0.72664863302E+01  0.28040775017E+03  0.46999998093E+01 0. -1.
</event>
<event>
 5   0  0.9866317E-03  0.5847285E+03  0.7818609E-02  0.9937606E-01
       -2   -1    0    0    0  501  0.00000000000E+00  0.00000000000E+00  0.16815312426E+03  0.16815312428E+03  0.25500000920E-02 0.  1.
        2   -1    0    0  501    0  0.00000000000E+00  0.00000000000E+00 -0.50832753346E+03  0.50832753346E+03  0.25500000920E-02 0. -1.
    10030    2    1    2    0    0  0.00000000000E+00  0.00000000000E+00 -0.34017440920E+03  0.67648065774E+03  0.58472852814E+03 0.  0.
        1    1    3    3  502    0 -0.90174534246E+02 -0.15492736738E+03  0.97114683164E+02  0.20387544605E+03  0.50400001928E-02 0.  1.
       -1    1    3    3    0  502  0.90174534246E+02  0.15492736738E+03 -0.43728909236E+03  0.47260521169E+03  0.50400001928E-02 0. -1.
</event>
<event>
 5   0  0.5491236E-03  0.5990811E+03  0.7818609E-02  0.9907314E-01
       -1   -1    0    0    0  501  0.00000000000E+00  0.00000000000E+00  0.73857609610E+03  0.73857609612E+03  0.50400001928E-02 0.  1.
        1   -1    0    0  501    0  0.00000000000E+00  0.00000000000E+00 -0.12148312849E+03  0.12148312859E+03  0.50400001928E-02 0. -1.
    10030    2    1    2    0    0  0.00000000000E+00  0.00000000000E+00  0.61709296761E+03  0.86005922471E+03  0.59908107910E+03 0.  0.
        3    1    3    3  502    0 -0.11949556318E+03  0.18712402439E+03  0.59721157953E+03  0.63714697759E+03  0.10100000352E+00 0.  1.
       -3    1    3    3    0  502  0.11949556318E+03 -0.18712402439E+03  0.19881388080E+02  0.22291224712E+03  0.10100000352E+00 0. -1.
</event>
<event>
 5   0  0.5653633E-03  0.5972128E+03  0.7818609E-02  0.9911206E-01
       -1   -1    0    0    0  501  0.00000000000E+00  0.00000000000E+00  0.24841396659E+03  0.24841396665E+03  0.50400001928E-02 0. -1.
        1   -1    0    0  501    0  0.00000000000E+00  0.00000000000E+00 -0.35894029784E+03  0.35894029787E+03  0.50400001928E-02 0.  1.
    10030    2    1    2    0    0  0.00000000000E+00  0.00000000000E+00 -0.11052633124E+03  0.60735426452E+03  0.59721280355E+03 0.  0.
        2    1    3    3  502    0  0.14257510024E+03 -0.58178555351E+02  0.20491989214E+03  0.25632901847E+03  0.25500000920E-02 0. -1.
       -2    1    3    3    0  502 -0.14257510024E+03  0.58178555351E+02 -0.31544622338E+03  0.35102524604E+03  0.25500000920E-02 0.  1.
</event>
<event>
 5   0  0.3794375E-03  0.6002592E+03  0.7818609E-02  0.9904868E-01
        3   -1    0    0  501    0  0.00000000000E+00  0.00000000000E+00  0.73497722374E+03  0.73497723068E+03  0.10100000352E+00 0. -1.
       -3   -1    0    0    0  501  0.00000000000E+00  0.00000000000E+00 -0.12255855837E+03  0.12255859999E+03  0.10100000352E+00 0.  1.
    10030    2    1    2    0    0  0.00000000000E+00  0.00000000000E+00  0.61241866536E+03  0.85753583067E+03  0.60025917668E+03 0.  0.
        2    1    3    3  502    0 -0.56969699348E+02 -0.27237878456E+03  0.14558116008E+03  0.31405353540E+03  0.25500000920E-02 0.  1.
       -2    1    3    3    0  502  0.56969699348E+02  0.27237878456E+03  0.46683750528E+03  0.54348229526E+03  0.25500000920E-02 0. -1.
</event>
<event>
 5   0  0.9866317E-03  0.5996860E+03  0.7818609E-02  0.9906058E-01
       -2   -1    0    0    0  501  0.00000000000E+00  0.00000000000E+00  0.54597920043E+02  0.54597920103E+02  0.25500000920E-02 0.  1.
        2   -1    0    0  501    0  0.00000000000E+00  0.00000000000E+00 -0.16466893825E+04  0.16466893825E+04  0.25500000920E-02 0. -1.
    10030    2    1    2    0    0  0.00000000000E+00  0.00000000000E+00 -0.15920914625E+04  0.17012873026E+04  0.59968596880E+03 0.  0.
        1    1    3    3  502    0  0.60904822414E+02 -0.24805567647E+03 -0.12415917483E+04  0.12675926339E+04  0.50400001928E-02 0. -1.
       -1    1    3    3    0  502 -0.60904822414E+02  0.24805567647E+03 -0.35049971416E+03  0.43369466872E+03  0.50400001928E-02 0.  1.
</event>
<event>
 5   0  0.9428629E-03  0.6070528E+03  0.7818609E-02  0.9890881E-01
       -2   -1    0    0    0  501  0.00000000000E+00  0.00000000000E+00  0.18699600441E+03  0.18699600443E+03  0.25500000920E-02 0.  1.
        2   -1    0    0  501    0  0.00000000000E+00  0.00000000000E+00 -0.49267512795E+03  0.49267512795E+03  0.25500000920E-02 0. -1.
    10030    2    1    2    0    0  0.00000000000E+00  0.00000000000E+00 -0.30567912354E+03  0.67967113238E+03  0.60705281618E+03 0.  0.
        3    1    3    3  502    0  0.27791379800E+03 -0.12180404191E+03 -0.14446356953E+03  0.33606850026E+03  0.10100000352E+00 0. -1.
       -3    1    3    3    0  502 -0.27791379800E+03  0.12180404191E+03 -0.16121555400E+03  0.34360263212E+03  0.10100000352E+00 0.  1.
</event>
<event>
 5   0  0.9866317E-03  0.6002416E+03  0.7818609E-02  0.9904905E-01
        2   -1    0    0  501    0  0.00000000000E+00  0.00000000000E+00  0.11716057332E+03  0.11716057334E+03  0.25500000920E-02 0. -1.
       -2   -1    0    0    0  501  0.00000000000E+00  0.00000000000E+00 -0.76879526937E+03  0.76879526937E+03  0.25500000920E-02 0.  1.
    10030    2    1    2    0    0  0.00000000000E+00  0.00000000000E+00 -0.65163469605E+03  0.88595584272E+03  0.60024159981E+03 0.  0.
        1    1    3    3  502    0 -0.86682392743E+02 -0.13142300981E+03  0.51318814098E+02  0.16558824060E+03  0.50400001928E-02 0. -1.
       -1    1    3    3    0  502  0.86682392743E+02  0.13142300981E+03 -0.70295351015E+03  0.72036760212E+03  0.50400001928E-02 0.  1.
</event>
<event>
 5   0  0.9428629E-03  0.6001284E+03  0.7818609E-02  0.9905140E-01
        2   -1    0    0  501    0  0.00000000000E+00  0.00000000000E+00  0.65843844554E+03  0.65843844554E+03  0.25500000920E-02 0. -1.
       -2   -1    0    0    0  501  0.00000000000E+00  0.00000000000E+00 -0.13674555293E+03  0.13674555296E+03  0.25500000920E-02 0.  1.
    10030    2    1    2    0    0  0.00000000000E+00  0.00000000000E+00  0.52169289260E+03  0.79518399850E+03  0.60012841732E+03 0.  0.
        3    1    3    3  502    0 -0.16518546082E+03 -0.24698052686E+03  0.20537081426E+03  0.36119634365E+03  0.10100000352E+00 0. -1.
       -3    1    3    3    0  502  0.16518546082E+03  0.24698052686E+03  0.31632207834E+03  0.43398765485E+03  0.10100000352E+00 0.  1.
</event>
<event>
 5   0  0.9530666E-03  0.5974295E+03  0.7818609E-02  0.9910753E-01
        2   -1    0    0  501    0  0.00000000000E+00  0.00000000000E+00  0.36211038648E+03  0.36211038649E+03  0.25500000920E-02 0.  1.
       -2   -1    0    0    0  501  0.00000000000E+00  0.00000000000E+00 -0.24641797764E+03  0.24641797765E+03  0.25500000920E-02 0. -1.
    10030    2    1    2    0    0  0.00000000000E+00  0.00000000000E+00  0.11569240884E+03  0.60852836414E+03  0.59742952429E+03 0.  0.
        2    1    3    3  502    0  0.36370179145E+02 -0.14239028181E+03 -0.20704808366E+03  0.25390291695E+03  0.25500000920E-02 0. -1.
       -2    1    3    3    0  502 -0.36370179145E+02  0.14239028181E+03  0.32274049250E+03  0.35462544718E+03  0.25500000920E-02 0.  1.
</event>
<event>
 5   0  0.9866317E-03  0.5962442E+03  0.7818609E-02  0.9913229E-01
        2   -1    0    0  501    0  0.00000000000E+00  0.00000000000E+00  0.43804888856E+03  0.43804888856E+03  0.25500000920E-02 0.  1.
       -2   -1    0    0    0  501  0.00000000000E+00  0.00000000000E+00 -0.20289237957E+03  0.20289237958E+03  0.25500000920E-02 0. -1.
    10030    2    1    2    0    0  0.00000000000E+00  0.00000000000E+00  0.23515650899E+03  0.64094126815E+03  0.59624418277E+03 0.  0.
        1    1    3    3  502    0 -0.85675485338E+02 -0.27159313763E+03  0.22800403867E+02  0.28569735672E+03  0.50400001928E-02 0. -1.
       -1    1    3    3    0  502  0.85675485338E+02  0.27159313763E+03  0.21235610512E+03  0.35524391142E+03  0.50400001928E-02 0.  1.
</event>
<event>
 5   0  0.5574736E-03  0.6003037E+03  0.7818609E-02  0.9904776E-01
       -1   -1    0    0    0  501  0.00000000000E+00  0.00000000000E+00  0.26864410576E+03  0.26864410581E+03  0.50400001928E-02 0.  1.
        1   -1    0    0  501    0  0.00000000000E+00  0.00000000000E+00 -0.33535499502E+03  0.33535499506E+03  0.50400001928E-02 0. -1.
    10030    2    1    2    0    0  0.00000000000E+00  0.00000000000E+00 -0.66710889256E+02  0.60399910087E+03  0.60030373238E+03 0.  0.
        5    1    3    3  502    0  0.10536798408E+03 -0.87628409580E+02  0.23528609450E+03  0.27232845334E+03  0.46999998093E+01 0.  1.
       -5    1    3    3    0  502 -0.10536798408E+03  0.87628409580E+02 -0.30199698376E+03  0.33167064753E+03  0.46999998093E+01 0. -1.
</event>
<event>
 5   0  0.5491236E-03  0.5984172E+03  0.7818609E-02  0.9908695E-01
       -1   -1    0    0    0  501  0.00000000000E+00  0.00000000000E+00  0.69960362828E+03  0.69960362830E+03  0.50400001928E-02 0.  1.
        1   -1    0    0  501    0  0.00000000000E+00  0.00000000000E+00 -0.12796643216E+03  0.12796643226E+03  0.50400001928E-02 0. -1.
    10030    2    1    2    0    0  0.00000000000E+00  0.00000000000E+00  0.57163719612E+03  0.82757006055E+03  0.59841717984E+03 0.  0.
        3    1    3    3  502    0 -0.22687895913E+03  0.14465979766E+03  0.10484334637E+03  0.28877786729E+03  0.10100000352E+00 0. -1.
       -3    1    3    3    0  502  0.22687895913E+03 -0.14465979766E+03  0.46679384975E+03  0.53879219326E+03  0.10100000352E+00 0.  1.
</event>
<event>
 5   0  0.9530666E-03  0.6003675E+03  0.7818609E-02  0.9904644E-01
        2   -1    0    0  501    0  0.00000000000E+00  0.00000000000E+00  0.48152555907E+03  0.48152555908E+03  0.25500000920E-02 0. -1.
       -2   -1    0    0    0  501  0.00000000000E+00  0.00000000000E+00 -0.18713498548E+03  0.18713498550E+03  0.25500000920E-02 0.  1.
    10030    2    1    2    0    0  0.00000000000E+00  0.00000000000E+00  0.29439057359E+03  0.66866054458E+03  0.60036748251E+03 0.  0.
        2    1    3    3  502    0  0.90827744702E+02 -0.20715584623E+03  0.36699435457E+03  0.43110100919E+03  0.25500000920E-02 0. -1.
       -2    1    3    3    0  502 -0.90827744702E+02  0.20715584623E+03 -0.72603780978E+02  0.23755953539E+03  0.25500000920E-02 0.  1.
</event>
<event>
 5   0  0.5491236E-03  0.6002928E+03  0.7818609E-02  0.9904799E-01
        1   -1    0    0  501    0  0.00000000000E+00  0.00000000000E+00  0.48749390068E+03  0.48749390071E+03  0.50400001928E-02 0.  1.
       -1   -1    0    0    0  501  0.00000000000E+00  0.00000000000E+00 -0.18479793887E+03  0.18479793893E+03  0.50400001928E-02 0. -1.
    10030    2    1    2    0    0  0.00000000000E+00  0.00000000000E+00  0.30269596182E+03  0.67229183964E+03  0.60029282217E+03 0.  0.
        3    1    3    3  502    0  0.18810273675E+03  0.10996929373E+02  0.41300266011E+03  0.45395460069E+03  0.10100000352E+00 0.  1.
       -3    1    3    3    0  502 -0.18810273675E+03 -0.10996929373E+02 -0.11030669829E+03  0.21833723896E+03  0.10100000352E+00 0. -1.
</event>
<event>
 5   0  0.5491236E-03  0.6001777E+03  0.7818609E-02  0.9905037E-01
       -1   -1    0    0    0  501  0.00000000000E+00  0.00000000000E+00  0.88518099531E+02  0.88518099675E+02  0.50400001928E-02 0.  1.
        1   -1    0    0  501    0  0.00000000000E+00  0.00000000000E+00 -0.10173434834E+04  0.10173434834E+04  0.50400001928E-02 0. -1.
    10030    2    1    2    0    0  0.00000000000E+00  0.00000000000E+00 -0.92882538389E+03  0.11058615831E+04  0.60017767972E+03 0.  0.
        3    1    3    3  502    0 -0.39482879608E+02 -0.26812405607E+03 -0.70183739970E+03  0.75234643154E+03  0.10100000352E+00 0. -1.
       -3    1    3    3    0  502  0.39482879608E+02  0.26812405607E+03 -0.22698798418E+03  0.35351515157E+03  0.10100000352E+00 0.  1.
</event>
<event>
 5   0  0.3794375E-03  0.5993220E+03  0.7818609E-02  0.9906814E-01
       -4   -1    0    0    0  501  0.00000000000E+00  0.00000000000E+00  0.60212769445E+03  0.60212903378E+03  0.12699999809E+01 0. -1.
        4   -1    0    0  501    0  0.00000000000E+00  0.00000000000E+00 -0.14912811967E+03  0.14913352734E+03  0.12699999809E+01 0.  1.
    10030    2    1    2    0    0  0.00000000000E+00  0.00000000000E+00  0.45299957478E+03  0.75126256112E+03  0.59932196772E+03 0.  0.
        4    1    3    3  502    0 -0.12423473866E+03  0.12990012118E+03  0.52704896471E+03  0.55685773396E+03  0.12699999809E+01 0. -1.
       -4    1    3    3    0  502  0.12423473866E+03 -0.12990012118E+03 -0.74049389930E+02  0.19440482716E+03  0.12699999809E+01 0.  1.
</event>
<event>
 5   0  0.9428629E-03  0.6017878E+03  0.7818609E-02  0.9901704E-01
        2   -1    0    0  501    0  0.00000000000E+00  0.00000000000E+00  0.34648181863E+03  0.34648181864E+03  0.25500000920E-02 0.  1.
       -2   -1    0    0    0  501  0.00000000000E+00  0.00000000000E+00 -0.26130416165E+03  0.26130416167E+03  0.25500000920E-02 0. -1.
    10030    2    1    2    0    0  0.00000000000E+00  0.00000000000E+00  0.85177656977E+02  0.60778598031E+03  0.60178780696E+03 0.  0.
        3    1    3    3  502    0  0.12674779551E+03  0.30575715841E+02 -0.23129159768E+03  0.26551024730E+03  0.10100000352E+00 0. -1.
       -3    1    3    3    0  502 -0.12674779551E+03 -0.30575715841E+02  0.31646925465E+03  0.34227573301E+03  0.10100000352E+00 0.  1.
</event>
<event>
 5   0  0.5574736E-03  0.5995811E+03  0.7818609E-02  0.9906275E-01
       -1   -1    0    0    0  501  0.00000000000E+00  0.00000000000E+00  0.93577312248E+03  0.93577312249E+03  0.50400001928E-02 0. -1.
        1   -1    0    0  501    0  0.00000000000E+00  0.00000000000E+00 -0.96042916091E+02  0.96042916223E+02  0.50400001928E-02 0.  1.
    10030    2    1    2    0    0  0.00000000000E+00  0.00000000000E+00  0.83973020638E+03  0.10318160387E+04  0.59958111897E+03 0.  0.
        5    1    3    3  502    0  0.31870916027E+01 -0.12219763077E+03 -0.51138089217E+02  0.13258813177E+03  0.46999998093E+01 0.  1.
       -5    1    3    3    0  502 -0.31870916027E+01  0.12219763077E+03  0.89086829560E+03  0.89922790694E+03  0.46999998093E+01 0. -1.
</event>
<event>
 5   0  0.9530666E-03  0.5975122E+03  0.7818609E-02  0.9910581E-01
       -2   -1    0    0    0  501  0.00000000000E+00  0.00000000000E+00  0.57171041577E+02  0.57171041634E+02  0.25500000920E-02 0. -1.
        2   -1    0    0  501    0  0.00000000000E+00  0.00000000000E+00 -0.15611962617E+04  0.15611962617E+04  0.25500000920E-02 0.  1.
    10030    2    1    2    0    0  0.00000000000E+00  0.00000000000E+00 -0.15040252201E+04  0.16183673033E+04  0.59751223061E+03 0.  0.
        2    1    3    3  502    0  0.20840457122E+03  0.18017387655E+03 -0.10650783635E+04  0.11001304520E+04  0.25500000920E-02 0.  1.
       -2    1    3    3    0  502 -0.20840457122E+03 -0.18017387655E+03 -0.43894685661E+03  0.51823685128E+03  0.25500000920E-02 0. -1.
</event>
<event>
 5   0  0.5785798E-03  0.5997369E+03  0.7818609E-02  0.9905952E-01
       -1   -1    0    0    0  501  0.00000000000E+00  0.00000000000E+00  0.59145629267E+02  0.59145629482E+02  0.50400001928E-02 0.  1.
        1   -1    0    0  501    0  0.00000000000E+00  0.00000000000E+00 -0.15203335798E+04  0.15203335798E+04  0.50400001928E-02 0. -1.
    10030    2    1    2    0    0  0.00000000000E+00  0.00000000000E+00 -0.14611879505E+04  0.15794792093E+04  0.59973689714E+03 0.  0.
        1    1    3    3  502    0  0.11269188415E+03 -0.89752875310E+02 -0.37966646924E+02  0.14898491764E+03  0.50400001928E-02 0.  1.
       -1    1    3    3    0  502 -0.11269188415E+03  0.89752875310E+02 -0.14232213036E+04  0.14304942916E+04  0.50400001928E-02 0. -1.
</event>
<event>
 5   0  0.5574736E-03  0.5997901E+03  0.7818609E-02  0.9905842E-01
       -1   -1    0    0    0  501  0.00000000000E+00  0.00000000000E+00  0.97890649948E+02  0.97890650078E+02  0.50400001928E-02 0.  1.
        1   -1    0    0  501    0  0.00000000000E+00  0.00000000000E+00 -0.91875014697E+03  0.91875014698E+03  0.50400001928E-02 0. -1.
    10030    2    1    2    0    0  0.00000000000E+00  0.00000000000E+00 -0.82085949702E+03  0.10166407971E+04  0.59979012696E+03 0.  0.
        5    1    3    3  502    0  0.45770051337E+02 -0.18476249779E+03 -0.80315255998E+03  0.82541395844E+03  0.46999998093E+01 0. -1.
       -5    1    3    3    0  502 -0.45770051337E+02  0.18476249779E+03 -0.17706937036E+02  0.19122683861E+03  0.46999998093E+01 0.  1.
</event>
<event>
 5   0  0.9428629E-03  0.6014945E+03  0.7818609E-02  0.9902310E-01
        2   -1    0    0  501    0  0.00000000000E+00  0.00000000000E+00  0.30303432788E+03  0.30303432789E+03  0.25500000920E-02 0.  1.
       -2   -1    0    0    0  501  0.00000000000E+00  0.00000000000E+00 -0.29847739625E+03  0.29847739626E+03  0.25500000920E-02 0. -1.
    10030    2    1    2    0    0  0.00000000000E+00  0.00000000000E+00  0.45569316381E+01  0.60151172415E+03  0.60149446271E+03 0.  0.
        3    1    3    3  502    0 -0.13637165039E+03 -0.15314979979E+03  0.22227750342E+03  0.30242253046E+03  0.10100000352E+00 0.  1.
       -3    1    3    3    0  502  0.13637165039E+03  0.15314979979E+03 -0.21772057178E+03  0.29908919369E+03  0.10100000352E+00 0. -1.
</event>
<event>
 5   0  0.5653633E-03  0.5936547E+03  0.7818609E-02  0.9918659E-01
        1   -1    0    0  501    0  0.00000000000E+00  0.00000000000E+00  0.55372685928E+03  0.55372685930E+03  0.50400001928E-02 0. -1.
       -1   -1    0    0    0  501  0.00000000000E+00  0.00000000000E+00 -0.15911539770E+03  0.15911539778E+03  0.50400001928E-02 0.  1.
    10030    2    1    2    0    0  0.00000000000E+00  0.00000000000E+00  0.39461146157E+03  0.71284225708E+03  0.59365467898E+03 0.  0.
        2    1    3    3  502    0  0.16674939456E+02 -0.29383019342E+03  0.24369076740E+03  0.38209871276E+03  0.25500000920E-02 0. -1.
       -2    1    3    3    0  502 -0.16674939456E+02  0.29383019342E+03  0.15092069418E+03  0.33074354432E+03  0.25500000920E-02 0.  1.
</event>
<event>
 5   0  0.5491236E-03  0.5986224E+03  0.7818609E-02  0.9908268E-01
        1   -1    0    0  501    0  0.00000000000E+00  0.00000000000E+00  0.27810975017E+03  0.27810975022E+03  0.50400001928E-02 0. -1.
       -1   -1    0    0    0  501  0.00000000000E+00  0.00000000000E+00 -0.32212896042E+03  0.32212896045E+03  0.50400001928E-02 0.  1.
    10030    2    1    2    0    0  0.00000000000E+00  0.00000000000E+00 -0.44019210243E+02  0.60023871067E+03  0.59862243436E+03 0.  0.
        3    1    3    3  502    0 -0.17875085395E+03  0.17397693053E+03 -0.18788708164E+03  0.31228417474E+03  0.10100000352E+00 0. -1.
       -3    1    3    3    0  502  0.17875085395E+03 -0.17397693053E+03  0.14386787140E+03  0.28795453593E+03  0.10100000352E+00 0.  1.
</event>
<event>
 5   0  0.5574736E-03  0.5999902E+03  0.7818609E-02  0.9905426E-01
        1   -1    0    0  501    0  0.00000000000E+00  0.00000000000E+00  0.24777590747E+03  0.24777590752E+03  0.50400001928E-02 0.  1.
       -1   -1    0    0    0  501  0.00000000000E+00  0.00000000000E+00 -0.36321955773E+03  0.36321955776E+03  0.50400001928E-02 0. -1.
    10030    2    1    2    0    0  0.00000000000E+00  0.00000000000E+00 -0.11544365025E+03  0.61099546528E+03  0.59999018510E+03 0.  0.
        5    1    3    3  502    0  0.72393390121E+01  0.12671822137E+03 -0.33448820852E+03  0.35779095474E+03  0.46999998093E+01 0. -1.
       -5    1    3    3    0  502 -0.72393390121E+01 -0.12671822137E+03  0.21904455826E+03  0.25320451055E+03  0.46999998093E+01 0.  1.
</event>
<event>
 5   0  0.5653633E-03  0.6014813E+03  0.7818609E-02  0.9902337E-01
        1   -1    0    0  501    0  0.00000000000E+00  0.00000000000E+00  0.23540192784E+03  0.23540192789E+03  0.50400001928E-02 0.  1.
       -1   -1    0    0    0  501  0.00000000000E+00  0.00000000000E+00 -0.38421499983E+03  0.38421499986E+03  0.50400001928E-02 0. -1.
    10030    2    1    2    0    0  0.00000000000E+00  0.00000000000E+00 -0.14881307199E+03  0.61961692775E+03  0.60148134365E+03 0.  0.
        2    1    3    3  502    0  0.25804009596E+03  0.12414451628E+03  0.20280023733E+02  0.28706764257E+03  0.25500000920E-02 0.  1.
       -2    1    3    3    0  502 -0.25804009596E+03 -0.12414451628E+03 -0.16909309572E+03  0.33254928518E+03  0.25500000920E-02 0. -1.
</event>
<event>
 5   0  0.3794375E-03  0.6007748E+03  0.7818609E-02  0.9903800E-01
        3   -1    0    0  501    0  0.00000000000E+00  0.00000000000E+00  0.14540564099E+03  0.14540567607E+03  0.10100000352E+00 0.  1.
       -3   -1    0    0    0  501  0.00000000000E+00  0.00000000000E+00 -0.62055748872E+03  0.62055749694E+03  0.10100000352E+00 0. -1.
    10030    2    1    2    0    0  0.00000000000E+00  0.00000000000E+00 -0.47515184773E+03  0.76596317300E+03  0.60077475313E+03 0.  0.
        1    1    3    3  502    0 -0.10379963475E+03 -0.37612777289E+02  0.11859999978E+03  0.16203408642E+03  0.50400001928E-02 0.  1.
       -1    1    3    3    0  502  0.10379963475E+03  0.37612777289E+02 -0.59375184750E+03  0.60392908659E+03  0.50400001928E-02 0. -1.
</event>
<event>
 5   0  0.9681801E-03  0.5988405E+03  0.7818609E-02  0.9907815E-01
       -2   -1    0    0    0  501  0.00000000000E+00  0.00000000000E+00  0.46259044193E+02  0.46259044263E+02  0.25500000920E-02 0. -1.
        2   -1    0    0  501    0  0.00000000000E+00  0.00000000000E+00 -0.19380533336E+04  0.19380533337E+04  0.25500000920E-02 0.  1.
    10030    2    1    2    0    0  0.00000000000E+00  0.00000000000E+00 -0.18917942895E+04  0.19843123779E+04  0.59884052929E+03 0.  0.
        4    1    3    3  502    0 -0.29611077026E+03 -0.23342596205E+02 -0.82083743451E+03  0.87292735771E+03  0.12699999809E+01 0. -1.
       -4    1    3    3    0  502  0.29611077026E+03  0.23342596205E+02 -0.10709568550E+04  0.11113850202E+04  0.12699999809E+01 0.  1.
</event>
<event>
 5   0  0.5503975E-03  0.5856442E+03  0.7818609E-02  0.9935646E-01
       -1   -1    0    0    0  501  0.00000000000E+00  0.00000000000E+00  0.10114435286E+03  0.10114435298E+03  0.50400001928E-02 0. -1.
        1   -1    0    0  501    0  0.00000000000E+00  0.00000000000E+00 -0.84774661025E+03  0.84774661027E+03  0.50400001928E-02 0.  1.
    10030    2    1    2    0    0  0.00000000000E+00  0.00000000000E+00 -0.74660225739E+03  0.94889096325E+03  0.58564420034E+03 0.  0.
        4    1    3    3  502    0 -0.13770865348E+03  0.17564691061E+03 -0.66189031393E+02  0.23280487802E+03  0.12699999809E+01 0. -1.
       -4    1    3    3    0  502  0.13770865348E+03 -0.17564691061E+03 -0.68041322600E+03  0.71608608523E+03  0.12699999809E+01 0.  1.
</event>
<event>
 5   0  0.5491236E-03  0.5997487E+03  0.7818609E-02  0.9905927E-01
       -1   -1    0    0    0  501  0.00000000000E+00  0.00000000000E+00  0.21170557675E+03  0.21170557681E+03  0.50400001928E-02 0.  1.
        1   -1    0    0  501    0  0.00000000000E+00  0.00000000000E+00 -0.42476271870E+03  0.42476271873E+03  0.50400001928E-02 0. -1.
    10030    2    1    2    0    0  0.00000000000E+00  0.00000000000E+00 -0.21305714196E+03  0.63646829554E+03  0.59974873530E+03 0.  0.
        3    1    3    3  502    0  0.26681713199E+03  0.68141591180E+02  0.19440067228E+02  0.27606626884E+03  0.10100000352E+00 0.  1.
       -3    1    3    3    0  502 -0.26681713199E+03 -0.68141591180E+02 -0.23249720918E+03  0.36040202671E+03  0.10100000352E+00 0. -1.
</event>
<event>
 5   0  0.3794375E-03  0.5998437E+03  0.7818609E-02  0.9905730E-01
        4   -1    0    0  501    0  0.00000000000E+00  0.00000000000E+00  0.62757201910E+03  0.62757330413E+03  0.12699999809E+01 0.  1.
       -4   -1    0    0    0  501  0.00000000000E+00  0.00000000000E+00 -0.14333087265E+03  0.14333649903E+03  0.12699999809E+01 0. -1.
    10030    2    1    2    0    0  0.00000000000E+00  0.00000000000E+00  0.48424114645E+03  0.77090980317E+03  0.59984367689E+03 0.  0.
        1    1    3    3  502    0 -0.22896512224E+03 -0.17690528228E+03  0.14065932123E+03  0.32172278560E+03  0.50400001928E-02 0. -1.
       -1    1    3    3    0  502  0.22896512224E+03  0.17690528228E+03  0.34358182523E+03  0.44918701757E+03  0.50400001928E-02 0.  1.
</event>
<event>
 5   0  0.9866317E-03  0.5993301E+03  0.7818609E-02  0.9906797E-01
        2   -1    0    0  501    0  0.00000000000E+00  0.00000000000E+00  0.59278954595E+03  0.59278954595E+03  0.25500000920E-02 0. -1.
       -2   -1    0    0    0  501  0.00000000000E+00  0.00000000000E+00 -0.15148572213E+03  0.15148572215E+03  0.25500000920E-02 0.  1.
    10030    2    1    2    0    0  0.00000000000E+00  0.00000000000E+00  0.44130382382E+03  0.74427526811E+03  0.59933013423E+03 0.  0.
        1    1    3    3  502    0 -0.25445493280E+03 -0.68220933259E+02  0.39801307999E+03  0.47730055566E+03  0.50400001928E-02 0. -1.
       -1    1    3    3    0  502  0.25445493280E+03  0.68220933259E+02  0.43290743824E+02  0.26697471245E+03  0.50400001928E-02 0.  1.
</event>
<event>
 5   0  0.9428629E-03  0.5998355E+03  0.7818609E-02  0.9905747E-01
        2   -1    0    0  501    0  0.00000000000E+00  0.00000000000E+00  0.11046605661E+04  0.11046605661E+04  0.25500000920E-02 0.  1.
       -2   -1    0    0    0  501  0.00000000000E+00  0.00000000000E+00 -0.81428315440E+02  0.81428315480E+02  0.25500000920E-02 0. -1.
    10030    2    1    2    0    0  0.00000000000E+00  0.00000000000E+00  0.10232322507E+04  0.11860888816E+04  0.59983547431E+03 0.  0.
        3    1    3    3  502    0 -0.17904348078E+03 -0.11283015502E+03  0.93183788083E+03  0.95556740120E+03  0.10100000352E+00 0.  1.
       -3    1    3    3    0  502  0.17904348078E+03  0.11283015502E+03  0.91394369869E+02  0.23052148042E+03  0.10100000352E+00 0. -1.
</event>
<event>
 5   0  0.9428629E-03  0.6004291E+03  0.7818609E-02  0.9904516E-01
       -2   -1    0    0    0  501  0.00000000000E+00  0.00000000000E+00  0.30199962509E+03  0.30199962510E+03  0.25500000920E-02 0. -1.
        2   -1    0    0  501    0  0.00000000000E+00  0.00000000000E+00 -0.29844004166E+03  0.29844004167E+03  0.25500000920E-02 0.  1.
    10030    2    1    2    0    0  0.00000000000E+00  0.00000000000E+00  0.35595834280E+01  0.60043966677E+03  0.60042911555E+03 0.  0.
        3    1    3    3  502    0 -0.20172432275E+03 -0.61373954947E+02 -0.21192774407E+03  0.29895291209E+03  0.10100000352E+00 0.  1.
       -3    1    3    3    0  502  0.20172432275E+03  0.61373954947E+02  0.21548732750E+03  0.30148675468E+03  0.10100000352E+00 0. -1.
</event>
<event>
 5   0  0.5503975E-03  0.5983490E+03  0.7818609E-02  0.9908837E-01
       -1   -1    0    0    0  501  0.00000000000E+00  0.00000000000E+00  0.10292962132E+03  0.10292962144E+03  0.50400001928E-02 0.  1.
        1   -1    0    0  501    0  0.00000000000E+00  0.00000000000E+00 -0.86957858064E+03  0.86957858066E+03  0.50400001928E-02 0. -1.
    10030    2    1    2    0    0  0.00000000000E+00  0.00000000000E+00 -0.76664895933E+03  0.97250820210E+03  0.59834904221E+03 0.  0.
        4    1    3    3  502    0  0.59274924306E+02 -0.18327562423E+03 -0.75537815679E+03  0.77955195064E+03  0.12699999809E+01 0. -1.
       -4    1    3    3    0  502 -0.59274924306E+02  0.18327562423E+03 -0.11270802535E+02  0.19295625146E+03  0.12699999809E+01 0.  1.
</event>
<event>
 5   0  0.9866317E-03  0.5994656E+03  0.7818609E-02  0.9906515E-01
        2   -1    0    0  501    0  0.00000000000E+00  0.00000000000E+00  0.49018204164E+03  0.49018204164E+03  0.25500000920E-02 0.  1.
       -2   -1    0    0    0  501  0.00000000000E+00  0.00000000000E+00 -0.18327836716E+03  0.18327836717E+03  0.25500000920E-02 0. -1.
    10030    2    1    2    0    0  0.00000000000E+00  0.00000000000E+00  0.30690367448E+03  0.67346040882E+03  0.59946564275E+03 0.  0.
        1    1    3    3  502    0 -0.19874093303E+03  0.12861718321E+03  0.35999101042E+03  0.43085248739E+03  0.50400001928E-02 0.  1.
       -1    1    3    3    0  502  0.19874093303E+03 -0.12861718321E+03 -0.53087335941E+02  0.24260792143E+03  0.50400001928E-02 0. -1.
</event>
<event>
 5   0  0.5653633E-03  0.6006765E+03  0.7818609E-02  0.9904004E-01
        1   -1    0    0  501    0  0.00000000000E+00  0.00000000000E+00  0.31405213300E+03  0.31405213304E+03  0.50400001928E-02 0. -1.
       -1   -1    0    0    0  501  0.00000000000E+00  0.00000000000E+00 -0.28722322821E+03  0.28722322826E+03  0.50400001928E-02 0.  1.
    10030    2    1    2    0    0  0.00000000000E+00  0.00000000000E+00  0.26828904789E+02  0.60127536130E+03  0.60067651026E+03 0.  0.
        2    1    3    3  502    0 -0.86599023930E+02 -0.21129724912E+03  0.20869135801E+03  0.30935093559E+03  0.25500000920E-02 0. -1.
       -2    1    3    3    0  502  0.86599023930E+02  0.21129724912E+03 -0.18186245323E+03  0.29192442572E+03  0.25500000920E-02 0.  1.
</event>
<event>
 5   0  0.5785798E-03  0.6000425E+03  0.7818609E-02  0.9905318E-01
        1   -1    0    0  501    0  0.00000000000E+00  0.00000000000E+00  0.15779555060E+03  0.15779555068E+03  0.50400001928E-02 0. -1.
       -1   -1    0    0    0  501  0.00000000000E+00  0.00000000000E+00 -0.57043917670E+03  0.57043917673E+03  0.50400001928E-02 0.  1.
    10030    2    1    2    0    0  0.00000000000E+00  0.00000000000E+00 -0.41264362610E+03  0.72823472741E+03  0.60004254519E+03 0.  0.
        1    1    3    3  502    0 -0.26254613997E+03  0.13493940713E+03 -0.27138058805E+03  0.40098197317E+03  0.50400001928E-02 0.  1.
       -1    1    3    3    0  502  0.26254613997E+03 -0.13493940713E+03 -0.14126303805E+03  0.32725275424E+03  0.50400001928E-02 0. -1.
</event>
<event>
 5   0  0.5574736E-03  0.5999601E+03  0.7818609E-02  0.9905489E-01
       -1   -1    0    0    0  501  0.00000000000E+00  0.00000000000E+00  0.36510985274E+03  0.36510985278E+03  0.50400001928E-02 0.  1.
        1   -1    0    0  501    0  0.00000000000E+00  0.00000000000E+00 -0.24646837385E+03  0.24646837390E+03  0.50400001928E-02 0. -1.
    10030    2    1    2    0    0  0.00000000000E+00  0.00000000000E+00  0.11864147890E+03  0.61157822668E+03  0.59996010436E+03 0.  0.
        5    1    3    3  502    0 -0.28224341851E+03  0.98157623394E+02  0.32941527843E+02  0.30067174889E+03  0.46999998093E+01 0. -1.
       -5    1    3    3    0  502  0.28224341851E+03 -0.98157623394E+02  0.85699951054E+02  0.31090647779E+03  0.46999998093E+01 0.  1.
</event>
<event>
 5   0  0.9530666E-03  0.5988134E+03  0.7818609E-02  0.9907871E-01
       -2   -1    0    0    0  501  0.00000000000E+00  0.00000000000E+00  0.31727455399E+03  0.31727455400E+03  0.25500000920E-02 0.  1.
        2   -1    0    0  501    0  0.00000000000E+00  0.00000000000E+00 -0.28254510152E+03  0.28254510153E+03  0.25500000920E-02 0. -1.
    10030    2    1    2    0    0  0.00000000000E+00  0.00000000000E+00  0.34729452468E+02  0.59981965552E+03  0.59881339688E+03 0.  0.
        2    1    3    3  502    0 -0.14479015711E+03  0.20062504065E+02 -0.24437434364E+03  0.28475518169E+03  0.25500000920E-02 0. -1.
       -2    1    3    3    0  502  0.14479015711E+03 -0.20062504065E+02  0.27910379610E+03  0.31506447383E+03  0.25500000920E-02 0.  1.
</event>
<event>
 5   0  0.9866317E-03  0.5998508E+03  0.7818609E-02  0.9905716E-01
       -2   -1    0    0    0  501  0.00000000000E+00  0.00000000000E+00  0.89243788357E+02  0.89243788394E+02  0.25500000920E-02 0. -1.
        2   -1    0    0  501    0  0.00000000000E+00  0.00000000000E+00 -0.10079722250E+04  0.10079722250E+04  0.25500000920E-02 0.  1.
    10030    2    1    2    0    0  0.00000000000E+00  0.00000000000E+00 -0.91872843668E+03  0.10972160134E+04  0.59985084794E+03 0.  0.
        1    1    3    3  502    0  0.26026658837E+03 -0.40304808303E+02 -0.19688252160E+03  0.32882503240E+03  0.50400001928E-02 0. -1.
       -1    1    3    3    0  502 -0.26026658837E+03  0.40304808303E+02 -0.72184591508E+03  0.76839098104E+03  0.50400001928E-02 0.  1.
</event>
<event>
 5   0  0.9571790E-03  0.5998299E+03  0.7818609E-02  0.9905759E-01
       -2   -1    0    0    0  501  0.00000000000E+00  0.00000000000E+00  0.23442761790E+03  0.23442761791E+03  0.25500000920E-02 0.  1.
        2   -1    0    0  501    0  0.00000000000E+00  0.00000000000E+00 -0.38369609896E+03  0.38369609897E+03  0.25500000920E-02 0. -1.
    10030    2    1    2    0    0  0.00000000000E+00  0.00000000000E+00 -0.14926848106E+03  0.61812371688E+03  0.59982985082E+03 0.  0.
        5    1    3    3  502    0 -0.18787818481E+03 -0.45497095402E+02 -0.31088299877E+03  0.36611272436E+03  0.46999998093E+01 0. -1.
       -5    1    3    3    0  502  0.18787818481E+03  0.45497095402E+02  0.16161451771E+03  0.25201099252E+03  0.46999998093E+01 0.  1.
</event>
<event>
 5   0  0.5574736E-03  0.5995254E+03  0.7818609E-02  0.9906391E-01
        1   -1    0    0  501    0  0.00000000000E+00  0.00000000000E+00  0.17806214471E+04  0.17806214471E+04  0.50400001928E-02 0. -1.
       -1   -1    0    0    0  501  0.00000000000E+00  0.00000000000E+00 -0.50464214985E+02  0.50464215237E+02  0.50400001928E-02 0.  1.
    10030    2    1    2    0    0  0.00000000000E+00  0.00000000000E+00  0.17301572321E+04  0.18310856623E+04  0.59952535809E+03 0.  0.
        5    1    3    3  502    0 -0.17015347334E+03 -0.10097298562E+03  0.15527056378E+04  0.15652682313E+04  0.46999998093E+01 0. -1.
       -5    1    3    3    0  502  0.17015347334E+03  0.10097298562E+03  0.17745159433E+03  0.26581743104E+03  0.46999998093E+01 0.  1.
</event>
<event>
 5   0  0.3794375E-03  0.5997735E+03  0.7818609E-02  0.9905876E-01
        4   -1    0    0  501    0  0.00000000000E+00  0.00000000000E+00  0.72728603041E+02  0.72739690681E+02  0.12699999809E+01 0.  1.
       -4   -1    0    0    0  501  0.00000000000E+00  0.00000000000E+00 -0.12364376527E+04  0.12364383049E+04  0.12699999809E+01 0. -1.
    10030    2    1    2    0    0  0.00000000000E+00  0.00000000000E+00 -0.11637090496E+04  0.13091779956E+04  0.59977351721E+03 0.  0.
        1    1    3    3  502    0  0.58562818351E+02  0.19786696437E+02 -0.12223861896E+04  0.12239481662E+04  0.50400001928E-02 0. -1.
       -1    1    3    3    0  502 -0.58562818351E+02 -0.19786696437E+02  0.58677139915E+02  0.85229829421E+02  0.50400001928E-02 0.  1.
</event>
<event>
 5   0  0.9681801E-03  0.6002788E+03  0.7818609E-02  0.9904828E-01
       -2   -1    0    0    0  501  0.00000000000E+00  0.00000000000E+00  0.18710256460E+03  0.18710256462E+03  0.25500000920E-02 0.  1.
        2   -1    0    0  501    0  0.00000000000E+00  0.00000000000E+00 -0.48146667609E+03  0.48146667610E+03  0.25500000920E-02 0. -1.
    10030    2    1    2    0    0  0.00000000000E+00  0.00000000000E+00 -0.29436411149E+03  0.66856924072E+03  0.60027876816E+03 0.  0.
        4    1    3    3  502    0 -0.62593076713E+02  0.17215381580E+03 -0.41198461287E+03  0.45087444337E+03  0.12699999809E+01 0. -1.
       -4    1    3    3    0  502  0.62593076713E+02 -0.17215381580E+03  0.11762050138E+03  0.21769479734E+03  0.12699999809E+01 0.  1.
</event>
<event>
 5   0  0.9866317E-03  0.6009264E+03  0.7818609E-02  0.9903486E-01
        2   -1    0    0  501    0  0.00000000000E+00  0.00000000000E+00  0.46398201951E+03  0.46398201952E+03  0.25500000920E-02 0. -1.
       -2   -1    0    0    0  501  0.00000000000E+00  0.00000000000E+00 -0.19457248506E+03  0.19457248507E+03  0.25500000920E-02 0.  1.
    10030    2    1    2    0    0  0.00000000000E+00  0.00000000000E+00  0.26940953446E+03  0.65855450459E+03  0.60092640004E+03 0.  0.
        1    1    3    3  502    0 -0.10903421783E+03  0.23281468560E+03 -0.35731262027E+02  0.25955319609E+03  0.50400001928E-02 0.  1.
       -1    1    3    3    0  502  0.10903421783E+03 -0.23281468560E+03  0.30514079648E+03  0.39900130851E+03  0.50400001928E-02 0. -1.
</event>
<event>
 5   0  0.5503975E-03  0.5998546E+03  0.7818609E-02  0.9905708E-01
        1   -1    0    0  501    0  0.00000000000E+00  0.00000000000E+00  0.51968422727E+03  0.51968422729E+03  0.50400001928E-02 0.  1.
       -1   -1    0    0    0  501  0.00000000000E+00  0.00000000000E+00 -0.17309819213E+03  0.17309819221E+03  0.50400001928E-02 0. -1.
    10030    2    1    2    0    0  0.00000000000E+00  0.00000000000E+00  0.34658603513E+03  0.69278241950E+03  0.59985464991E+03 0.  0.
        4    1    3    3  502    0 -0.14709366115E+03  0.11833937671E+03  0.44245074878E+03  0.48104576832E+03  0.12699999809E+01 0.  1.
       -4    1    3    3    0  502  0.14709366115E+03 -0.11833937671E+03 -0.95864713643E+02  0.21173665118E+03  0.12699999809E+01 0. -1.
</event>
<event>
 5   0  0.5574736E-03  0.5989573E+03  0.7818609E-02  0.9907572E-01
        1   -1    0    0  501    0  0.00000000000E+00  0.00000000000E+00  0.28406223325E+03  0.28406223330E+03  0.50400001928E-02 0. -1.
       -1   -1    0    0    0  501  0.00000000000E+00  0.00000000000E+00 -0.31573173839E+03  0.31573173843E+03  0.50400001928E-02 0.  1.
    10030    2    1    2    0    0  0.00000000000E+00  0.00000000000E+00 -0.31669505135E+02  0.59979397172E+03  0.59895730312E+03 0.  0.
        5    1    3    3  502    0  0.26930454708E+03  0.12027273877E+03  0.35956947553E+02  0.29716235099E+03  0.46999998093E+01 0. -1.
       -5    1    3    3    0  502 -0.26930454708E+03 -0.12027273877E+03 -0.67626452688E+02  0.30263162074E+03  0.46999998093E+01 0.  1.
</event>
<event>
 5   0  0.9571790E-03  0.5941858E+03  0.7818609E-02  0.9917543E-01
        2   -1    0    0  501    0  0.00000000000E+00  0.00000000000E+00  0.17442956087E+04  0.17442956087E+04  0.25500000920E-02 0.  1.
       -2   -1    0    0    0  501  0.00000000000E+00  0.00000000000E+00 -0.50601625732E+02  0.50601625796E+02  0.25500000920E-02 0. -1.
    10030    2    1    2    0    0  0.00000000000E+00  0.00000000000E+00  0.16936939830E+04  0.17948972345E+04  0.59418580803E+03 0.  0.
        5    1    3    3  502    0 -0.25639528852E+03  0.49007808519E+02  0.41856015479E+03  0.49331024969E+03  0.46999998093E+01 0. -1.
       -5    1    3    3    0  502  0.25639528852E+03 -0.49007808519E+02  0.12751338282E+04  0.13015869848E+04  0.46999998093E+01 0.  1.
</event>
<event>
 5   0  0.9571790E-03  0.5999993E+03  0.7818609E-02  0.9905408E-01
        2   -1    0    0  501    0  0.00000000000E+00  0.00000000000E+00  0.98495534793E+03  0.98495534793E+03  0.25500000920E-02 0. -1.
       -2   -1    0    0    0  501  0.00000000000E+00  0.00000000000E+00 -0.91374473494E+02  0.91374473530E+02  0.25500000920E-02 0.  1.
    10030    2    1    2    0    0  0.00000000000E+00  0.00000000000E+00  0.89358087443E+03  0.10763298215E+04  0.59999925451E+03 0.  0.
        5    1    3    3  502    0  0.41406752097E+02 -0.25987389109E+03  0.18851625890E+03  0.32374284279E+03  0.46999998093E+01 0.  1.
       -5    1    3    3    0  502 -0.41406752097E+02  0.25987389109E+03  0.70506461553E+03  0.75258697867E+03  0.46999998093E+01 0. -1.
</event>
<event>
 5   0  0.9571790E-03  0.6013212E+03  0.7818609E-02  0.9902669E-01
        2   -1    0    0  501    0  0.00000000000E+00  0.00000000000E+00  0.12752141176E+03  0.12752141179E+03  0.25500000920E-02 0. -1.
       -2   -1    0    0    0  501  0.00000000000E+00  0.00000000000E+00 -0.70887539799E+03  0.70887539800E+03  0.25500000920E-02 0.  1.
    10030    2    1    2    0    0  0.00000000000E+00  0.00000000000E+00 -0.58135398623E+03  0.83639680978E+03  0.60132118382E+03 0.  0.
        5    1    3    3  502    0  0.73439331769E+02  0.25491070444E+03 -0.48739380488E+03  0.55493027826E+03  0.46999998093E+01 0.  1.
       -5    1    3    3    0  502 -0.73439331769E+02 -0.25491070444E+03 -0.93960181348E+02  0.28146653152E+03  0.46999998093E+01 0. -1.
</event>
<event>
 5   0  0.9681801E-03  0.5996921E+03  0.7818609E-02  0.9906045E-01
        2   -1    0    0  501    0  0.00000000000E+00  0.00000000000E+00  0.92907354220E+03  0.92907354220E+03  0.25500000920E-02 0.  1.
       -2   -1    0    0    0  501  0.00000000000E+00  0.00000000000E+00 -0.96771302851E+02  0.96771302884E+02  0.25500000920E-02 0. -1.
    10030    2    1    2    0    0  0.00000000000E+00  0.00000000000E+00  0.83230223935E+03  0.10258448451E+04  0.59969211148E+03 0.  0.
        4    1    3    3  502    0  0.25886862539E+03 -0.49717752484E+02  0.17169876204E+03  0.31459004738E+03  0.12699999809E+01 0. -1.
       -4    1    3    3    0  502 -0.25886862539E+03  0.49717752484E+02  0.66060347731E+03  0.71125479771E+03  0.12699999809E+01 0.  1.
</event>
<event>
 5   0  0.9681801E-03  0.6028817E+03  0.7818609E-02  0.9899445E-01
        2   -1    0    0  501    0  0.00000000000E+00  0.00000000000E+00  0.20146094299E+04  0.20146094299E+04  0.25500000920E-02 0. -1.
       -2   -1    0    0    0  501  0.00000000000E+00  0.00000000000E+00 -0.45103822079E+02  0.45103822151E+02  0.25500000920E-02 0.  1.
    10030    2    1    2    0    0  0.00000000000E+00  0.00000000000E+00  0.19695056078E+04  0.20597132521E+04  0.60288169772E+03 0.  0.
        4    1    3    3  502    0 -0.22640617634E+03 -0.52243764781E+01  0.30507802316E+03  0.37994902804E+03  0.12699999809E+01 0.  1.
       -4    1    3    3    0  502  0.22640617634E+03  0.52243764781E+01  0.16644275847E+04  0.16797642240E+04  0.12699999809E+01 0. -1.
</event>
<event>
 5   0  0.5574736E-03  0.5990718E+03  0.7818609E-02  0.9907334E-01
        1   -1    0    0  501    0  0.00000000000E+00  0.00000000000E+00  0.27879366291E+03  0.27879366295E+03  0.50400001928E-02 0.  1.
       -1   -1    0    0    0  501  0.00000000000E+00  0.00000000000E+00 -0.32182141006E+03  0.32182141010E+03  0.50400001928E-02 0. -1.
    10030    2    1    2    0    0  0.00000000000E+00  0.00000000000E+00 -0.43027747157E+02  0.60061507306E+03  0.59907184791E+03 0.  0.
        5    1    3    3  502    0 -0.27616481120E+03  0.92518227166E+02 -0.91500965355E+02  0.30532137488E+03  0.46999998093E+01 0.  1.
       -5    1    3    3    0  502  0.27616481120E+03 -0.92518227166E+02  0.48473218199E+02  0.29529369817E+03  0.46999998093E+01 0. -1.
</event>
<event>
 5   0  0.9428629E-03  0.6012215E+03  0.7818609E-02  0.9902875E-01
        2   -1    0    0  501    0  0.00000000000E+00  0.00000000000E+00  0.80173806897E+03  0.80173806898E+03  0.25500000920E-02 0. -1.
       -2   -1    0    0    0  501  0.00000000000E+00  0.00000000000E+00 -0.11271366103E+03  0.11271366106E+03  0.25500000920E-02 0.  1.
    10030    2    1    2    0    0  0.00000000000E+00  0.00000000000E+00  0.68902440794E+03  0.91445173003E+03  0.60122153306E+03 0.  0.
        3    1    3    3  502    0 -0.20415122234E+02 -0.51221951690E+02 -0.10495595518E+03  0.11855896541E+03  0.10100000352E+00 0.  1.
       -3    1    3    3    0  502  0.20415122234E+02  0.51221951690E+02  0.79398036312E+03  0.79589276462E+03  0.10100000352E+00 0. -1.
</event>
<event>
 5   0  0.9530666E-03  0.5999397E+03  0.7818609E-02  0.9905531E-01
       -2   -1    0    0    0  501  0.00000000000E+00  0.00000000000E+00  0.72783763638E+02  0.72783763683E+02  0.25500000920E-02 0. -1.
        2   -1    0    0  501    0  0.00000000000E+00  0.00000000000E+00 -0.12362908652E+04  0.12362908652E+04  0.25500000920E-02 0.  1.
    10030    2    1    2    0    0  0.00000000000E+00  0.00000000000E+00 -0.11635071016E+04  0.13090746289E+04  0.59993967081E+03 0.  0.
        2    1    3    3  502    0  0.22995496393E+03  0.41294663906E+02 -0.17122600071E+03  0.28965993514E+03  0.25500000920E-02 0. -1.
       -2    1    3    3    0  502 -0.22995496393E+03 -0.41294663906E+02 -0.99228110087E+03  0.10194146938E+04  0.25500000920E-02 0.  1.
</event>
<event>
 5   0  0.5785798E-03  0.6001189E+03  0.7818609E-02  0.9905159E-01
       -1   -1    0    0    0  501  0.00000000000E+00  0.00000000000E+00  0.10458264027E+03  0.10458264039E+03  0.50400001928E-02 0. -1.
        1   -1    0    0  501    0  0.00000000000E+00  0.00000000000E+00 -0.86090455267E+03  0.86090455268E+03  0.50400001928E-02 0.  1.
    10030    2    1    2    0    0  0.00000000000E+00  0.00000000000E+00 -0.75632191240E+03  0.96548719308E+03  0.60011889224E+03 0.  0.
        1    1    3    3  502    0 -0.29907281895E+03 -0.24310023557E+02 -0.37755278455E+03  0.48226718054E+03  0.50400001928E-02 0. -1.
       -1    1    3    3    0  502  0.29907281895E+03  0.24310023557E+02 -0.37876912785E+03  0.48322001254E+03  0.50400001928E-02 0.  1.
</event>
<event>
 5   0  0.9571790E-03  0.5999767E+03  0.7818609E-02  0.9905454E-01
        2   -1    0    0  501    0  0.00000000000E+00  0.00000000000E+00  0.88539550930E+03  0.88539550930E+03  0.25500000920E-02 0. -1.
       -2   -1    0    0    0  501  0.00000000000E+00  0.00000000000E+00 -0.10164158913E+03  0.10164158916E+03  0.25500000920E-02 0.  1.
    10030    2    1    2    0    0  0.00000000000E+00  0.00000000000E+00  0.78375392017E+03  0.98703709846E+03  0.59997668818E+03 0.  0.
        5    1    3    3  502    0  0.13751534875E+03 -0.16529362062E+03  0.73593433048E+03  0.76671629755E+03  0.46999998093E+01 0. -1.
       -5    1    3    3    0  502 -0.13751534875E+03  0.16529362062E+03  0.47819589691E+02  0.22032080091E+03  0.46999998093E+01 0.  1.
</event>
<event>
 5   0  0.9530666E-03  0.6013277E+03  0.7818609E-02  0.9902655E-01
        2   -1    0    0  501    0  0.00000000000E+00  0.00000000000E+00  0.92018815113E+03  0.92018815113E+03  0.25500000920E-02 0.  1.
       -2   -1    0    0    0  501  0.00000000000E+00  0.00000000000E+00 -0.98239429276E+02  0.98239429310E+02  0.25500000920E-02 0. -1.
    10030    2    1    2    0    0  0.00000000000E+00  0.00000000000E+00  0.82194872185E+03  0.10184275804E+04  0.60132772699E+03 0.  0.
        2    1    3    3  502    0  0.20608678915E+03 -0.21794392424E+03  0.44598955352E+03  0.53747372087E+03  0.25500000920E-02 0. -1.
       -2    1    3    3    0  502 -0.20608678915E+03  0.21794392424E+03  0.37595916833E+03  0.48095385957E+03  0.25500000920E-02 0.  1.
</event>
<event>
 5   0  0.5785798E-03  0.5973746E+03  0.7818609E-02  0.9910868E-01
       -1   -1    0    0    0  501  0.00000000000E+00  0.00000000000E+00  0.10369912811E+03  0.10369912824E+03  0.50400001928E-02 0. -1.
        1   -1    0    0  501    0  0.00000000000E+00  0.00000000000E+00 -0.86031691843E+03  0.86031691844E+03  0.50400001928E-02 0.  1.
    10030    2    1    2    0    0  0.00000000000E+00  0.00000000000E+00 -0.75661779031E+03  0.96401604668E+03  0.59737463759E+03 0.  0.
        1    1    3    3  502    0  0.26958698871E+03  0.10882965731E+03 -0.48886080704E+03  0.56877581478E+03  0.50400001928E-02 0. -1.
       -1    1    3    3    0  502 -0.26958698871E+03 -0.10882965731E+03 -0.26775698328E+03  0.39524023190E+03  0.50400001928E-02 0.  1.
</event>
<event>
 5   0  0.9571790E-03  0.6006339E+03  0.7818609E-02  0.9904092E-01
       -2   -1    0    0    0  501  0.00000000000E+00  0.00000000000E+00  0.46510429376E+02  0.46510429446E+02  0.25500000920E-02 0.  1.
        2   -1    0    0  501    0  0.00000000000E+00  0.00000000000E+00 -0.19391409593E+04  0.19391409593E+04  0.25500000920E-02 0. -1.
    10030    2    1    2    0    0  0.00000000000E+00  0.00000000000E+00 -0.18926305299E+04  0.19856513887E+04  0.60063392747E+03 0.  0.
        5    1    3    3  502    0  0.37308645175E+01  0.53128805087E+02  0.30649387373E+02  0.61628436817E+02  0.46999998093E+01 0.  1.
       -5    1    3    3    0  502 -0.37308645175E+01 -0.53128805087E+02 -0.19232799173E+04  0.19240229519E+04  0.46999998093E+01 0. -1.
</event>
<event>
 5   0  0.3794375E-03  0.6006625E+03  0.7818609E-02  0.9904033E-01
        4   -1    0    0  501    0  0.00000000000E+00  0.00000000000E+00  0.51759657411E+03  0.51759813218E+03  0.12699999809E+01 0.  1.
       -4   -1    0    0    0  501  0.00000000000E+00  0.00000000000E+00 -0.17426063208E+03  0.17426525986E+03  0.12699999809E+01 0. -1.
    10030    2    1    2    0    0  0.00000000000E+00  0.00000000000E+00  0.34333594204E+03  0.69186339203E+03  0.60066245441E+03 0.  0.
        4    1    3    3  502    0 -0.98599768077E+02 -0.11444859834E+03  0.47065006255E+03  0.49430101174E+03  0.12699999809E+01 0.  1.
       -4    1    3    3    0  502  0.98599768077E+02  0.11444859834E+03 -0.12731412051E+03  0.19756238030E+03  0.12699999809E+01 0. -1.
</event>
<event>
 5   0  0.9428629E-03  0.5969986E+03  0.7818609E-02  0.9911653E-01
       -2   -1    0    0    0  501  0.00000000000E+00  0.00000000000E+00  0.10453818907E+03  0.10453818910E+03  0.25500000920E-02 0. -1.
        2   -1    0    0  501    0  0.00000000000E+00  0.00000000000E+00 -0.85233748887E+03  0.85233748887E+03  0.25500000920E-02 0.  1.
    10030    2    1    2    0    0  0.00000000000E+00  0.00000000000E+00 -0.74779929980E+03  0.95687567798E+03  0.59699855136E+03 0.  0.
        3    1    3    3  502    0 -0.19383704812E+03 -0.11482287501E+03 -0.68775893937E+03  0.72371918776E+03  0.10100000352E+00 0.  1.
       -3    1    3    3    0  502  0.19383704812E+03  0.11482287501E+03 -0.60040360428E+02  0.23315649022E+03  0.10100000352E+00 0. -1.
</event>
<event>
 5   0  0.3794375E-03  0.6014023E+03  0.7818609E-02  0.9902501E-01
       -4   -1    0    0    0  501  0.00000000000E+00  0.00000000000E+00  0.19225729806E+03  0.19226149265E+03  0.12699999809E+01 0. -1.
        4   -1    0    0  501    0  0.00000000000E+00  0.00000000000E+00 -0.47030318578E+03  0.47030490053E+03  0.12699999809E+01 0.  1.
    10030    2    1    2    0    0  0.00000000000E+00  0.00000000000E+00 -0.27804588773E+03  0.66256639318E+03  0.60140228607E+03 0.  0.
        5    1    3    3  502    0  0.95956462492E+02  0.10281472713E+03  0.15374933875E+03  0.20842135201E+03  0.46999998093E+01 0. -1.
       -5    1    3    3    0  502 -0.95956462492E+02 -0.10281472713E+03 -0.43179522648E+03  0.45414504117E+03  0.46999998093E+01 0.  1.
</event>
<event>
 5   0  0.5574736E-03  0.6002746E+03  0.7818609E-02  0.9904836E-01
        1   -1    0    0  501    0  0.00000000000E+00  0.00000000000E+00  0.94825982606E+03  0.94825982607E+03  0.50400001928E-02 0. -1.
       -1   -1    0    0    0  501  0.00000000000E+00  0.00000000000E+00 -0.94997594481E+02  0.94997594615E+02  0.50400001928E-02 0.  1.
    10030    2    1    2    0    0  0.00000000000E+00  0.00000000000E+00  0.85326223158E+03  0.10432574207E+04  0.60027461214E+03 0.  0.
        5    1    3    3  502    0 -0.30333645760E+02  0.14377038289E+03  0.88140183388E+03  0.89357782864E+03  0.46999998093E+01 0. -1.
       -5    1    3    3    0  502  0.30333645760E+02 -0.14377038289E+03 -0.28139602305E+02  0.14967959205E+03  0.46999998093E+01 0.  1.
</event>
<event>
 5   0  0.9530666E-03  0.6006265E+03  0.7818609E-02  0.9904107E-01
        2   -1    0    0  501    0  0.00000000000E+00  0.00000000000E+00  0.60317640727E+03  0.60317640727E+03  0.25500000920E-02 0.  1.
       -2   -1    0    0    0  501  0.00000000000E+00  0.00000000000E+00 -0.14952182147E+03  0.14952182149E+03  0.25500000920E-02 0. -1.
    10030    2    1    2    0    0  0.00000000000E+00  0.00000000000E+00  0.45365458580E+03  0.75269822876E+03  0.60062645660E+03 0.  0.
        2    1    3    3  502    0  0.17438430049E+03 -0.21807677572E+03  0.88290874047E+02  0.29285259571E+03  0.25500000920E-02 0. -1.
       -2    1    3    3    0  502 -0.17438430049E+03  0.21807677572E+03  0.36536371175E+03  0.45984563305E+03  0.25500000920E-02 0.  1.
</event>
<event>
 5   0  0.9866317E-03  0.5999092E+03  0.7818609E-02  0.9905594E-01
       -2   -1    0    0    0  501  0.00000000000E+00  0.00000000000E+00  0.35643452861E+03  0.35643452862E+03  0.25500000920E-02 0.  1.
        2   -1    0    0  501    0  0.00000000000E+00  0.00000000000E+00 -0.25242438851E+03  0.25242438853E+03  0.25500000920E-02 0. -1.
    10030    2    1    2    0    0  0.00000000000E+00  0.00000000000E+00  0.10401014009E+03  0.60885891714E+03  0.59990921958E+03 0.  0.
        1    1    3    3  502    0  0.12824447475E+03 -0.27115580998E+03  0.51187243555E+02  0.30428975092E+03  0.50400001928E-02 0.  1.
       -1    1    3    3    0  502 -0.12824447475E+03  0.27115580998E+03  0.52822896537E+02  0.30456916622E+03  0.50400001928E-02 0. -1.
</event>
<event>
 5   0  0.5653633E-03  0.5995110E+03  0.7818609E-02  0.9906421E-01
       -1   -1    0    0    0  501  0.00000000000E+00  0.00000000000E+00  0.12031763748E+03  0.12031763759E+03  0.50400001928E-02 0.  1.
        1   -1    0    0  501    0  0.00000000000E+00  0.00000000000E+00 -0.74680131796E+03  0.74680131798E+03  0.50400001928E-02 0. -1.
    10030    2    1    2    0    0  0.00000000000E+00  0.00000000000E+00 -0.62648368048E+03  0.86711895556E+03  0.59951103509E+03 0.  0.
        2    1    3    3  502    0 -0.25704482418E+03 -0.14038012708E+03 -0.40556951684E+03  0.50026518439E+03  0.25500000920E-02 0. -1.
       -2    1    3    3    0  502  0.25704482418E+03  0.14038012708E+03 -0.22091416364E+03  0.36685377117E+03  0.25500000920E-02 0.  1.
</event>
<event>
 5   0  0.5785798E-03  0.5996294E+03  0.7818609E-02  0.9906175E-01
       -1   -1    0    0    0  501  0.00000000000E+00  0.00000000000E+00  0.56393097951E+02  0.56393098176E+02  0.50400001928E-02 0.  1.
        1   -1    0    0  501    0  0.00000000000E+00  0.00000000000E+00 -0.15939689812E+04  0.15939689812E+04  0.50400001928E-02 0. -1.
    10030    2    1    2    0    0  0.00000000000E+00  0.00000000000E+00 -0.15375758832E+04  0.16503620794E+04  0.59962938246E+03 0.  0.
        1    1    3    3  502    0  0.34088879281E+02 -0.25447067354E+03 -0.34265638407E+03  0.42817142940E+03  0.50400001928E-02 0.  1.
       -1    1    3    3    0  502 -0.34088879281E+02  0.25447067354E+03 -0.11949194991E+04  0.12221906500E+04  0.50400001928E-02 0. -1.
</event>
<event>
 5   0  0.9530666E-03  0.5988391E+03  0.7818609E-02  0.9907818E-01
        2   -1    0    0  501    0  0.00000000000E+00  0.00000000000E+00  0.11656074337E+04  0.11656074337E+04  0.25500000920E-02 0.  1.
       -2   -1    0    0    0  501  0.00000000000E+00  0.00000000000E+00 -0.76914452501E+02  0.76914452543E+02  0.25500000920E-02 0. -1.
    10030    2    1    2    0    0  0.00000000000E+00  0.00000000000E+00  0.10886929812E+04  0.12425218863E+04  0.59883906895E+03 0.  0.
        2    1    3    3  502    0 -0.11563035340E+03 -0.97276562834E+02  0.80021010821E+01  0.15131801589E+03  0.25500000920E-02 0. -1.
       -2    1    3    3    0  502  0.11563035340E+03  0.97276562834E+02  0.10806908801E+04  0.10912038704E+04  0.25500000920E-02 0.  1.
</event>
<event>
 5   0  0.5785798E-03  0.5983425E+03  0.7818609E-02  0.9908851E-01
        1   -1    0    0  501    0  0.00000000000E+00  0.00000000000E+00  0.65460851714E+03  0.65460851716E+03  0.50400001928E-02 0. -1.
       -1   -1    0    0    0  501  0.00000000000E+00  0.00000000000E+00 -0.13672819776E+03  0.13672819786E+03  0.50400001928E-02 0.  1.
    10030    2    1    2    0    0  0.00000000000E+00  0.00000000000E+00  0.51788031938E+03  0.79133671501E+03  0.59834252008E+03 0.  0.
        1    1    3    3  502    0 -0.27830434569E+03  0.10768620518E+02  0.40342010677E+03  0.49022143424E+03  0.50400001928E-02 0. -1.
       -1    1    3    3    0  502  0.27830434569E+03 -0.10768620518E+02  0.11446021261E+03  0.30111528077E+03  0.50400001928E-02 0.  1.
</event>
<event>
 5   0  0.5785798E-03  0.5972451E+03  0.7818609E-02  0.9911138E-01
       -1   -1    0    0    0  501  0.00000000000E+00  0.00000000000E+00  0.19153245182E+03  0.19153245188E+03  0.50400001928E-02 0.  1.
        1   -1    0    0  501    0  0.00000000000E+00  0.00000000000E+00 -0.46558916191E+03  0.46558916193E+03  0.50400001928E-02 0. -1.
    10030    2    1    2    0    0  0.00000000000E+00  0.00000000000E+00 -0.27405671009E+03  0.65712161382E+03  0.59724512137E+03 0.  0.
        1    1    3    3  502    0  0.72243286113E+02  0.28963067334E+03 -0.12779575808E+03  0.32471029416E+03  0.50400001928E-02 0. -1.
       -1    1    3    3    0  502 -0.72243286113E+02 -0.28963067334E+03 -0.14626095201E+03  0.33241131966E+03  0.50400001928E-02 0.  1.
</event>
<event>
 5   0  0.5653633E-03  0.5993945E+03  0.7818609E-02  0.9906663E-01
        1   -1    0    0  501    0  0.00000000000E+00  0.00000000000E+00  0.52274506036E+03  0.52274506039E+03  0.50400001928E-02 0.  1.
       -1   -1    0    0    0  501  0.00000000000E+00  0.00000000000E+00 -0.17182071579E+03  0.17182071587E+03  0.50400001928E-02 0. -1.
    10030    2    1    2    0    0  0.00000000000E+00  0.00000000000E+00  0.35092434457E+03  0.69456577625E+03  0.59939446271E+03 0.  0.
        2    1    3    3  502    0 -0.94752791233E+01  0.24054849104E+03  0.38231340467E+03  0.45179298009E+03  0.25500000920E-02 0.  1.
       -2    1    3    3    0  502  0.94752791233E+01 -0.24054849104E+03 -0.31389060104E+02  0.24277279617E+03  0.25500000920E-02 0. -1.
</event>
<event>
 5   0  0.9681801E-03  0.6001448E+03  0.7818609E-02  0.9905106E-01
        2   -1    0    0  501    0  0.00000000000E+00  0.00000000000E+00  0.71171465583E+03  0.71171465583E+03  0.25500000920E-02 0. -1.
       -2   -1    0    0    0  501  0.00000000000E+00  0.00000000000E+00 -0.12651623025E+03  0.12651623027E+03  0.25500000920E-02 0.  1.
    10030    2    1    2    0    0  0.00000000000E+00  0.00000000000E+00  0.58519842558E+03  0.83823088611E+03  0.60014483346E+03 0.  0.
        4    1    3    3  502    0 -0.12012724304E+03 -0.21368274677E+03  0.53431946854E+03  0.58786884434E+03  0.12699999809E+01 0. -1.
       -4    1    3    3    0  502  0.12012724304E+03  0.21368274677E+03  0.50878957038E+02  0.25036204176E+03  0.12699999809E+01 0.  1.
</event>
<event>
 5   0  0.3794375E-03  0.5990707E+03  0.7818609E-02  0.9907336E-01
        4   -1    0    0  501    0  0.00000000000E+00  0.00000000000E+00  0.22068524906E+03  0.22068890333E+03  0.12699999809E+01 0.  1.
       -4   -1    0    0    0  501  0.00000000000E+00  0.00000000000E+00 -0.40655032124E+03  0.40655230488E+03  0.12699999809E+01 0. -1.
    10030    2    1    2    0    0  0.00000000000E+00  0.00000000000E+00 -0.18586507218E+03  0.62724120821E+03  0.59907070386E+03 0.  0.
        4    1    3    3  502    0 -0.19320014083E+03  0.22866822296E+03 -0.10362877048E+03  0.31679012861E+03  0.12699999809E+01 0.  1.
       -4    1    3    3    0  502  0.19320014083E+03 -0.22866822296E+03 -0.82236301699E+02  0.31045107960E+03  0.12699999809E+01 0. -1.
</event>
<event>
 5   0  0.9681801E-03  0.6003471E+03  0.7818609E-02  0.9904686E-01
        2   -1    0    0  501    0  0.00000000000E+00  0.00000000000E+00  0.22791682517E+03  0.22791682519E+03  0.25500000920E-02 0.  1.
       -2   -1    0    0    0  501  0.00000000000E+00  0.00000000000E+00 -0.39533787925E+03  0.39533787926E+03  0.25500000920E-02 0. -1.
    10030    2    1    2    0    0  0.00000000000E+00  0.00000000000E+00 -0.16742105408E+03  0.62325470445E+03  0.60034708067E+03 0.  0.
        4    1    3    3  502    0  0.19383953254E+03  0.22916750235E+03 -0.87158851554E+02  0.31255365430E+03  0.12699999809E+01 0.  1.
       -4    1    3    3    0  502 -0.19383953254E+03 -0.22916750235E+03 -0.80262202527E+02  0.31070105015E+03  0.12699999809E+01 0. -1.
</event>
<event>
 5   0  0.9866317E-03  0.5992208E+03  0.7818609E-02  0.9907024E-01
       -2   -1    0    0    0  501  0.00000000000E+00  0.00000000000E+00  0.16610286053E+03  0.16610286055E+03  0.25500000920E-02 0. -1.
        2   -1    0    0  501    0  0.00000000000E+00  0.00000000000E+00 -0.54042654918E+03  0.54042654918E+03  0.25500000920E-02 0.  1.
    10030    2    1    2    0    0  0.00000000000E+00  0.00000000000E+00 -0.37432368865E+03  0.70652940973E+03  0.59922081317E+03 0.  0.
        1    1    3    3  502    0  0.22147987762E+02  0.11867976794E+03 -0.51047711164E+03  0.52455915035E+03  0.50400001928E-02 0.  1.
       -1    1    3    3    0  502 -0.22147987762E+02 -0.11867976794E+03  0.13615342300E+03  0.18197025938E+03  0.50400001928E-02 0. -1.
</event>
<event>
 5   0  0.3794375E-03  0.6003008E+03  0.7818609E-02  0.9904782E-01
        4   -1    0    0  501    0  0.00000000000E+00  0.00000000000E+00  0.42348021275E+03  0.42348211708E+03  0.12699999809E+01 0. -1.
       -4   -1    0    0    0  501  0.00000000000E+00  0.00000000000E+00 -0.21273353275E+03  0.21273732361E+03  0.12699999809E+01 0.  1.
    10030    2    1    2    0    0  0.00000000000E+00  0.00000000000E+00  0.21074668000E+03  0.63621944069E+03  0.60030076926E+03 0.  0.
        2    1    3    3  502    0 -0.69884191745E+02  0.18151562462E+03 -0.13690614118E+03  0.23785502672E+03  0.25500000920E-02 0.  1.
       -2    1    3    3    0  502  0.69884191745E+02 -0.18151562462E+03  0.34765282118E+03  0.39836441397E+03  0.25500000920E-02 0. -1.
</event>
<event>
 5   0  0.9428629E-03  0.5995629E+03  0.7818609E-02  0.9906313E-01
       -2   -1    0    0    0  501  0.00000000000E+00  0.00000000000E+00  0.17643946615E+03  0.17643946617E+03  0.25500000920E-02 0. -1.
        2   -1    0    0  501    0  0.00000000000E+00  0.00000000000E+00 -0.50934698091E+03  0.50934698092E+03  0.25500000920E-02 0.  1.
    10030    2    1    2    0    0  0.00000000000E+00  0.00000000000E+00 -0.33290751476E+03  0.68578644709E+03  0.59956287212E+03 0.  0.
        3    1    3    3  502    0  0.23354521501E+03  0.11014882334E+03 -0.34064666280E+03  0.42745326039E+03  0.10100000352E+00 0.  1.
       -3    1    3    3    0  502 -0.23354521501E+03 -0.11014882334E+03  0.77391480421E+01  0.25833318670E+03  0.10100000352E+00 0. -1.
</event>
<event>
 5   0  0.9681801E-03  0.6022886E+03  0.7818609E-02  0.9900669E-01
        2   -1    0    0  501    0  0.00000000000E+00  0.00000000000E+00  0.29306541650E+03  0.29306541651E+03  0.25500000920E-02 0. -1.
       -2   -1    0    0    0  501  0.00000000000E+00  0.00000000000E+00 -0.30944593835E+03  0.30944593836E+03  0.25500000920E-02 0.  1.
    10030    2    1    2    0    0  0.00000000000E+00  0.00000000000E+00 -0.16380521850E+02  0.60251135487E+03  0.60228864447E+03 0.  0.
        4    1    3    3  502    0  0.15102057186E+03  0.10567272592E+03  0.23004135115E+03  0.29477885655E+03  0.12699999809E+01 0. -1.
       -4    1    3    3    0  502 -0.15102057186E+03 -0.10567272592E+03 -0.24642187300E+03  0.30773249832E+03  0.12699999809E+01 0.  1.
</event>
<event>
 5   0  0.5491236E-03  0.5984986E+03  0.7818609E-02  0.9908526E-01
        1   -1    0    0  501    0  0.00000000000E+00  0.00000000000E+00  0.20235671536E+03  0.20235671543E+03  0.50400001928E-02 0.  1.
       -1   -1    0    0    0  501  0.00000000000E+00  0.00000000000E+00 -0.44253611157E+03  0.44253611160E+03  0.50400001928E-02 0. -1.
    10030    2    1    2    0    0  0.00000000000E+00  0.00000000000E+00 -0.24017939621E+03  0.64489282703E+03  0.59849863491E+03 0.  0.
        3    1    3    3  502    0 -0.20271222668E+03  0.20386732764E+03 -0.20956914957E+03  0.35577151766E+03  0.10100000352E+00 0. -1.
       -3    1    3    3    0  502  0.20271222668E+03 -0.20386732764E+03 -0.30610246640E+02  0.28912130936E+03  0.10100000352E+00 0.  1.
</event>
<event>
 5   0  0.5653633E-03  0.6114746E+03  0.7818609E-02  0.9881882E-01
       -1   -1    0    0    0  501  0.00000000000E+00  0.00000000000E+00  0.19165008043E+03  0.19165008050E+03  0.50400001928E-02 0.  1.
        1   -1    0    0  501    0  0.00000000000E+00  0.00000000000E+00 -0.48773944401E+03  0.48773944404E+03  0.50400001928E-02 0. -1.
    10030    2    1    2    0    0  0.00000000000E+00  0.00000000000E+00 -0.29608936358E+03  0.67938952454E+03  0.61147462321E+03 0.  0.
        2    1    3    3  502    0  0.97551842810E+01 -0.16544491847E+03 -0.43350062322E+03  0.46410125512E+03  0.25500000920E-02 0. -1.
       -2    1    3    3    0  502 -0.97551842810E+01  0.16544491847E+03  0.13741125964E+03  0.21528826942E+03  0.25500000920E-02 0.  1.
</event>
<event>
 5   0  0.5491236E-03  0.5920837E+03  0.7818609E-02  0.9921967E-01
       -1   -1    0    0    0  501  0.00000000000E+00  0.00000000000E+00  0.95731195005E+02  0.95731195138E+02  0.50400001928E-02 0. -1.
        1   -1    0    0  501    0  0.00000000000E+00  0.00000000000E+00 -0.91548802585E+03  0.91548802586E+03  0.50400001928E-02 0.  1.
    10030    2    1    2    0    0  0.00000000000E+00  0.00000000000E+00 -0.81975683084E+03  0.10112192210E+04  0.59208365220E+03 0.  0.
        3    1    3    3  502    0 -0.25843561733E+03  0.10550959919E+03 -0.57825604991E+03  0.64210693291E+03  0.10100000352E+00 0.  1.
       -3    1    3    3    0  502  0.25843561733E+03 -0.10550959919E+03 -0.24150078093E+03  0.36911228809E+03  0.10100000352E+00 0. -1.
</event>
<event>
 5   0  0.9681801E-03  0.6017858E+03  0.7818609E-02  0.9901708E-01
        2   -1    0    0  501    0  0.00000000000E+00  0.00000000000E+00  0.40330634328E+03  0.40330634329E+03  0.25500000920E-02 0. -1.
       -2   -1    0    0    0  501  0.00000000000E+00  0.00000000000E+00 -0.22448579286E+03  0.22448579288E+03  0.25500000920E-02 0.  1.
    10030    2    1    2    0    0  0.00000000000E+00  0.00000000000E+00  0.17882055042E+03  0.62779213616E+03  0.60178582318E+03 0.  0.
        4    1    3    3  502    0  0.17682222590E+03  0.12346450310E+03 -0.12947942119E+03  0.25154744385E+03  0.12699999809E+01 0.  1.
       -4    1    3    3    0  502 -0.17682222590E+03 -0.12346450310E+03  0.30829997161E+03  0.37624469231E+03  0.12699999809E+01 0. -1.
</event>
<event>
 5   0  0.5785798E-03  0.6005306E+03  0.7818609E-02  0.9904306E-01
       -1   -1    0    0    0  501  0.00000000000E+00  0.00000000000E+00  0.73122526413E+02  0.73122526587E+02  0.50400001928E-02 0.  1.
        1   -1    0    0  501    0  0.00000000000E+00  0.00000000000E+00 -0.12329886263E+04  0.12329886263E+04  0.50400001928E-02 0. -1.
    10030    2    1    2    0    0  0.00000000000E+00  0.00000000000E+00 -0.11598660999E+04  0.13061111529E+04  0.60053057713E+03 0.  0.
        1    1    3    3  502    0  0.17209125208E+03  0.24604643984E+03 -0.58479336518E+03  0.65737168299E+03  0.50400001928E-02 0.  1.
       -1    1    3    3    0  502 -0.17209125208E+03 -0.24604643984E+03 -0.57507273474E+03  0.64873946995E+03  0.50400001928E-02 0. -1.
</event>
<event>
 5   0  0.5574736E-03  0.6024068E+03  0.7818609E-02  0.9900425E-01
       -1   -1    0    0    0  501  0.00000000000E+00  0.00000000000E+00  0.69689888428E+02  0.69689888610E+02  0.50400001928E-02 0.  1.
        1   -1    0    0  501    0  0.00000000000E+00  0.00000000000E+00 -0.13018171219E+04  0.13018171219E+04  0.50400001928E-02 0. -1.
    10030    2    1    2    0    0  0.00000000000E+00  0.00000000000E+00 -0.12321272334E+04  0.13715070105E+04  0.60240680643E+03 0.  0.
        5    1    3    3  502    0 -0.55356006370E+02 -0.16556772182E+02 -0.12889967253E+04  0.12902996016E+04  0.46999998093E+01 0. -1.
       -5    1    3    3    0  502  0.55356006370E+02  0.16556772182E+02  0.56869491874E+02  0.81207408840E+02  0.46999998093E+01 0.  1.
</event>
<event>
 5   0  0.5785798E-03  0.5996040E+03  0.7818609E-02  0.9906228E-01
       -1   -1    0    0    0  501  0.00000000000E+00  0.00000000000E+00  0.12344813029E+03  0.12344813039E+03  0.50400001928E-02 0. -1.
        1   -1    0    0  501    0  0.00000000000E+00  0.00000000000E+00 -0.72808899110E+03  0.72808899112E+03  0.50400001928E-02 0.  1.
    10030    2    1    2    0    0  0.00000000000E+00  0.00000000000E+00 -0.60464086081E+03  0.85153712151E+03  0.59960395157E+03 0.  0.
        1    1    3    3  502    0 -0.21129275410E+03  0.84912051506E+01 -0.60413325074E+03  0.64007320923E+03  0.50400001928E-02 0.  1.
       -1    1    3    3    0  502  0.21129275410E+03 -0.84912051506E+01 -0.50761007248E+00  0.21146391227E+03  0.50400001928E-02 0. -1.
</event>
<event>
 5   0  0.5653633E-03  0.5998228E+03  0.7818609E-02  0.9905774E-01
       -1   -1    0    0    0  501  0.00000000000E+00  0.00000000000E+00  0.12019201239E+03  0.12019201250E+03  0.50400001928E-02 0.  1.
        1   -1    0    0  501    0  0.00000000000E+00  0.00000000000E+00 -0.74835972575E+03  0.74835972577E+03  0.50400001928E-02 0. -1.
    10030    2    1    2    0    0  0.00000000000E+00  0.00000000000E+00 -0.62816771336E+03  0.86855173827E+03  0.59982284546E+03 0.  0.
        2    1    3    3  502    0  0.95366907707E+02  0.43364680745E+02 -0.72100282666E+03  0.72857423690E+03  0.25500000920E-02 0. -1.
       -2    1    3    3    0  502 -0.95366907707E+02 -0.43364680745E+02  0.92835113293E+02  0.13997750136E+03  0.25500000920E-02 0.  1.
</event>
<event>
 5   0  0.9571790E-03  0.5999595E+03  0.7818609E-02  0.9905490E-01
        2   -1    0    0  501    0  0.00000000000E+00  0.00000000000E+00  0.84191574285E+03  0.84191574285E+03  0.25500000920E-02 0.  1.
       -2   -1    0    0    0  501  0.00000000000E+00  0.00000000000E+00 -0.10688463750E+03  0.10688463753E+03  0.25500000920E-02 0. -1.
    10030    2    1    2    0    0  0.00000000000E+00  0.00000000000E+00  0.73503110535E+03  0.94880038038E+03  0.59995952861E+03 0.  0.
        5    1    3    3  502    0  0.16871295977E+03 -0.21296559168E+03  0.16655829359E+03  0.31871956513E+03  0.46999998093E+01 0. -1.
       -5    1    3    3    0  502 -0.16871295977E+03  0.21296559168E+03  0.56847281176E+03  0.63008081525E+03  0.46999998093E+01 0.  1.
</event>
<event>
 5   0  0.9681801E-03  0.6004954E+03  0.7818609E-02  0.9904379E-01
       -2   -1    0    0    0  501  0.00000000000E+00  0.00000000000E+00  0.59279209478E+02  0.59279209532E+02  0.25500000920E-02 0.  1.
        2   -1    0    0  501    0  0.00000000000E+00  0.00000000000E+00 -0.15207469136E+04  0.15207469136E+04  0.25500000920E-02 0. -1.
    10030    2    1    2    0    0  0.00000000000E+00  0.00000000000E+00 -0.14614677041E+04  0.15800261231E+04  0.60049537850E+03 0.  0.
        4    1    3    3  502    0  0.24571412960E+03 -0.49770889060E+02 -0.29603142299E+03  0.38792884809E+03  0.12699999809E+01 0.  1.
       -4    1    3    3    0  502 -0.24571412960E+03  0.49770889060E+02 -0.11654362811E+04  0.11920972750E+04  0.12699999809E+01 0. -1.
</event>
<event>
 5   0  0.5491236E-03  0.5997951E+03  0.7818609E-02  0.9905831E-01
        1   -1    0    0  501    0  0.00000000000E+00  0.00000000000E+00  0.63812773525E+03  0.63812773527E+03  0.50400001928E-02 0.  1.
       -1   -1    0    0    0  501  0.00000000000E+00  0.00000000000E+00 -0.14094126876E+03  0.14094126885E+03  0.50400001928E-02 0. -1.
    10030    2    1    2    0    0  0.00000000000E+00  0.00000000000E+00  0.49718646650E+03  0.77906900412E+03  0.59979507393E+03 0.  0.
        3    1    3    3  502    0 -0.26844395676E+02  0.14947621011E+03  0.58448871415E+03  0.60389637037E+03  0.10100000352E+00 0.  1.
       -3    1    3    3    0  502  0.26844395676E+02 -0.14947621011E+03 -0.87302247659E+02  0.17517263375E+03  0.10100000352E+00 0. -1.
</event>
<event>
 5   0  0.5653633E-03  0.6003693E+03  0.7818609E-02  0.9904640E-01
       -1   -1    0    0    0  501  0.00000000000E+00  0.00000000000E+00  0.12017625143E+03  0.12017625154E+03  0.50400001928E-02 0. -1.
        1   -1    0    0  501    0  0.00000000000E+00  0.00000000000E+00 -0.74982214598E+03  0.74982214600E+03  0.50400001928E-02 0.  1.
    10030    2    1    2    0    0  0.00000000000E+00  0.00000000000E+00 -0.62964589455E+03  0.86999839754E+03  0.60036926903E+03 0.  0.
        2    1    3    3  502    0  0.13692954686E+03  0.22731920496E+03 -0.51814795415E+03  0.58215206273E+03  0.25500000920E-02 0.  1.
       -2    1    3    3    0  502 -0.13692954686E+03 -0.22731920496E+03 -0.11149794040E+03  0.28784633481E+03  0.25500000920E-02 0. -1.
</event>
<event>
 5   0  0.9681801E-03  0.6006593E+03  0.7818609E-02  0.9904039E-01
       -2   -1    0    0    0  501  0.00000000000E+00  0.00000000000E+00  0.24583063098E+03  0.24583063099E+03  0.25500000920E-02 0. -1.
        2   -1    0    0  501    0  0.00000000000E+00  0.00000000000E+00 -0.36691070258E+03  0.36691070259E+03  0.25500000920E-02 0.  1.
    10030    2    1    2    0    0  0.00000000000E+00  0.00000000000E+00 -0.12108007160E+03  0.61274133358E+03  0.60065926958E+03 0.  0.
        4    1    3    3  502    0 -0.11504722744E+03  0.14713860210E+02  0.22205918975E+03  0.25052796027E+03  0.12699999809E+01 0. -1.
       -4    1    3    3    0  502  0.11504722744E+03 -0.14713860210E+02 -0.34313926136E+03  0.36221337331E+03  0.12699999809E+01 0.  1.
</event>
<event>
 5   0  0.5503975E-03  0.5991900E+03  0.7818609E-02  0.9907088E-01
        1   -1    0    0  501    0  0.00000000000E+00  0.00000000000E+00  0.47704557728E+03  0.47704557730E+03  0.50400001928E-02 0.  1.
       -1   -1    0    0    0  501  0.00000000000E+00  0.00000000000E+00 -0.18815217512E+03  0.18815217519E+03  0.50400001928E-02 0. -1.
    10030    2    1    2    0    0  0.00000000000E+00  0.00000000000E+00  0.28889340216E+03  0.66519775249E+03  0.59918999667E+03 0.  0.
        4    1    3    3  502    0  0.24589339547E+03 -0.56203715884E+01 -0.45453902643E+02  0.25012560980E+03  0.12699999809E+01 0. -1.
       -4    1    3    3    0  502 -0.24589339547E+03  0.56203715884E+01  0.33434730480E+03  0.41507214269E+03  0.12699999809E+01 0.  1.
</event>
<event>
 5   0  0.9866317E-03  0.5984564E+03  0.7818609E-02  0.9908614E-01
        2   -1    0    0  501    0  0.00000000000E+00  0.00000000000E+00  0.93840686792E+03  0.93840686793E+03  0.25500000920E-02 0.  1.
       -2   -1    0    0    0  501  0.00000000000E+00  0.00000000000E+00 -0.95414378300E+02  0.95414378334E+02  0.25500000920E-02 0. -1.
    10030    2    1    2    0    0  0.00000000000E+00  0.00000000000E+00  0.84299248962E+03  0.10338212463E+04  0.59845637406E+03 0.  0.
        1    1    3    3  502    0 -0.27191535406E+03 -0.92920323538E+02  0.27732296131E+03  0.39934968536E+03  0.50400001928E-02 0. -1.
       -1    1    3    3    0  502  0.27191535406E+03  0.92920323538E+02  0.56566952831E+03  0.63447156090E+03  0.50400001928E-02 0.  1.
</event>
<event>
 5   0  0.5503975E-03  0.5936527E+03  0.7818609E-02  0.9918663E-01
       -1   -1    0    0    0  501  0.00000000000E+00  0.00000000000E+00  0.66087889693E+02  0.66087889885E+02  0.50400001928E-02 0.  1.
        1   -1    0    0  501    0  0.00000000000E+00  0.00000000000E+00 -0.13331620950E+04  0.13331620951E+04  0.50400001928E-02 0. -1.
    10030    2    1    2    0    0  0.00000000000E+00  0.00000000000E+00 -0.12670742054E+04  0.13992499849E+04  0.59365265811E+03 0.  0.
        4    1    3    3  502    0 -0.21700159969E+03  0.20214890282E+03 -0.66244144238E+03  0.72579897400E+03  0.12699999809E+01 0.  1.
       -4    1    3    3    0  502  0.21700159969E+03 -0.20214890282E+03 -0.60463276298E+03  0.67345101094E+03  0.12699999809E+01 0. -1.
</event>
<event>
 5   0  0.5785798E-03  0.5998004E+03  0.7818609E-02  0.9905820E-01
       -1   -1    0    0    0  501  0.00000000000E+00  0.00000000000E+00  0.11037184768E+03  0.11037184779E+03  0.50400001928E-02 0.  1.
        1   -1    0    0  501    0  0.00000000000E+00  0.00000000000E+00 -0.81488297075E+03  0.81488297076E+03  0.50400001928E-02 0. -1.
    10030    2    1    2    0    0  0.00000000000E+00  0.00000000000E+00 -0.70451112307E+03  0.92525481856E+03  0.59980043075E+03 0.  0.
        1    1    3    3  502    0 -0.15704676364E+03 -0.52619604707E+02  0.33419093660E+02  0.16896551309E+03  0.50400001928E-02 0.  1.
       -1    1    3    3    0  502  0.15704676364E+03  0.52619604707E+02 -0.73793021673E+03  0.75628930546E+03  0.50400001928E-02 0. -1.
</event>
<event>
 5   0  0.9571790E-03  0.6003807E+03  0.7818609E-02  0.9904617E-01
        2   -1    0    0  501    0  0.00000000000E+00  0.00000000000E+00  0.85617058642E+03  0.85617058643E+03  0.25500000920E-02 0.  1.
       -2   -1    0    0    0  501  0.00000000000E+00  0.00000000000E+00 -0.10525266012E+03  0.10525266015E+03  0.25500000920E-02 0. -1.
    10030    2    1    2    0    0  0.00000000000E+00  0.00000000000E+00  0.75091792630E+03  0.96142324658E+03  0.60038065178E+03 0.  0.
        5    1    3    3  502    0 -0.50692625333E+02  0.65818853566E+02 -0.86415784797E+02  0.11996516831E+03  0.46999998093E+01 0. -1.
       -5    1    3    3    0  502  0.50692625333E+02 -0.65818853566E+02  0.83733371109E+03  0.84145807827E+03  0.46999998093E+01 0.  1.
</event>
<event>
 5   0  0.5574736E-03  0.6002100E+03  0.7818609E-02  0.9904971E-01
       -1   -1    0    0    0  501  0.00000000000E+00  0.00000000000E+00  0.15432871992E+03  0.15432872000E+03  0.50400001928E-02 0. -1.
        1   -1    0    0  501    0  0.00000000000E+00  0.00000000000E+00 -0.58357900552E+03  0.58357900554E+03  0.50400001928E-02 0.  1.
    10030    2    1    2    0    0  0.00000000000E+00  0.00000000000E+00 -0.42925028560E+03  0.73790772555E+03  0.60020996638E+03 0.  0.
        5    1    3    3  502    0  0.29593059438E+03  0.48624619789E+02 -0.20223054460E+03  0.36174376776E+03  0.46999998093E+01 0.  1.
       -5    1    3    3    0  502 -0.29593059438E+03 -0.48624619789E+02 -0.22701974100E+03  0.37616395779E+03  0.46999998093E+01 0. -1.
</event>
<event>
 5   0  0.9428629E-03  0.5978048E+03  0.7818609E-02  0.9909971E-01
       -2   -1    0    0    0  501  0.00000000000E+00  0.00000000000E+00  0.11345427314E+03  0.11345427317E+03  0.25500000920E-02 0.  1.
        2   -1    0    0  501    0  0.00000000000E+00  0.00000000000E+00 -0.78747722585E+03  0.78747722585E+03  0.25500000920E-02 0. -1.
    10030    2    1    2    0    0  0.00000000000E+00  0.00000000000E+00 -0.67402295271E+03  0.90093149902E+03  0.59780483869E+03 0.  0.
        3    1    3    3  502    0  0.68329706574E+02 -0.12192166118E+03  0.61175865367E+02  0.15256584470E+03  0.10100000352E+00 0.  1.
       -3    1    3    3    0  502 -0.68329706574E+02  0.12192166118E+03 -0.73519881807E+03  0.74836565432E+03  0.10100000352E+00 0. -1.
</event>
<event>
 5   0  0.9681801E-03  0.5995158E+03  0.7818609E-02  0.9906411E-01
       -2   -1    0    0    0  501  0.00000000000E+00  0.00000000000E+00  0.43008551362E+02  0.43008551438E+02  0.25500000920E-02 0.  1.
        2   -1    0    0  501    0  0.00000000000E+00  0.00000000000E+00 -0.20892309941E+04  0.20892309941E+04  0.25500000920E-02 0. -1.
    10030    2    1    2    0    0  0.00000000000E+00  0.00000000000E+00 -0.20462224427E+04  0.21322395455E+04  0.59951579996E+03 0.  0.
        4    1    3    3  502    0 -0.32639627039E+02 -0.29796660238E+03 -0.10162291156E+04  0.10595152994E+04  0.12699999809E+01 0.  1.
       -4    1    3    3    0  502  0.32639627039E+02  0.29796660238E+03 -0.10299933272E+04  0.10727242462E+04  0.12699999809E+01 0. -1.
</event>
<event>
 5   0  0.9428629E-03  0.5866403E+03  0.7818609E-02  0.9933517E-01
       -2   -1    0    0    0  501  0.00000000000E+00  0.00000000000E+00  0.21259498257E+03  0.21259498259E+03  0.25500000920E-02 0. -1.
        2   -1    0    0  501    0  0.00000000000E+00  0.00000000000E+00 -0.40469772907E+03  0.40469772908E+03  0.25500000920E-02 0.  1.
    10030    2    1    2    0    0  0.00000000000E+00  0.00000000000E+00 -0.19210274650E+03  0.61729271167E+03  0.58664028729E+03 0.  0.
        3    1    3    3  502    0 -0.57312414812E+02  0.19484996552E+03 -0.31873477890E+03  0.37794588427E+03  0.10100000352E+00 0.  1.
       -3    1    3    3    0  502  0.57312414812E+02 -0.19484996552E+03  0.12663203240E+03  0.23934682740E+03  0.10100000352E+00 0. -1.
</event>
<event>
 5   0  0.9866317E-03  0.6002307E+03  0.7818609E-02  0.9904928E-01
       -2   -1    0    0    0  501  0.00000000000E+00  0.00000000000E+00  0.28656393701E+03  0.28656393702E+03  0.25500000920E-02 0.  1.
        2   -1    0    0  501    0  0.00000000000E+00  0.00000000000E+00 -0.31430759975E+03  0.31430759976E+03  0.25500000920E-02 0. -1.
    10030    2    1    2    0    0  0.00000000000E+00  0.00000000000E+00 -0.27743662738E+02  0.60087153677E+03  0.60023069972E+03 0.  0.
        1    1    3    3  502    0  0.85869767540E+02 -0.13531492675E+03  0.24014201211E+03  0.28870734730E+03  0.50400001928E-02 0.  1.
       -1    1    3    3    0  502 -0.85869767540E+02  0.13531492675E+03 -0.26788567484E+03  0.31216418948E+03  0.50400001928E-02 0. -1.
</event>
<event>
 5   0  0.5653633E-03  0.6015062E+03  0.7818609E-02  0.9902286E-01
       -1   -1    0    0    0  501  0.00000000000E+00  0.00000000000E+00  0.83649263639E+03  0.83649263640E+03  0.50400001928E-02 0. -1.
        1   -1    0    0  501    0  0.00000000000E+00  0.00000000000E+00 -0.10813297673E+03  0.10813297685E+03  0.50400001928E-02 0.  1.
    10030    2    1    2    0    0  0.00000000000E+00  0.00000000000E+00  0.72835965966E+03  0.94462561325E+03  0.60150623886E+03 0.  0.
        2    1    3    3  502    0 -0.13242638032E+03  0.82384138335E+02 -0.39664573963E+02  0.16092597953E+03  0.25500000920E-02 0.  1.
       -2    1    3    3    0  502  0.13242638032E+03 -0.82384138335E+02  0.76802423362E+03  0.78369963372E+03  0.25500000920E-02 0. -1.
</event>
<event>
 5   0  0.5503975E-03  0.5992190E+03  0.7818609E-02  0.9907028E-01
       -1   -1    0    0    0  501  0.00000000000E+00  0.00000000000E+00  0.49314184945E+03  0.49314184947E+03  0.50400001928E-02 0. -1.
        1   -1    0    0  501    0  0.00000000000E+00  0.00000000000E+00 -0.18202847045E+03  0.18202847052E+03  0.50400001928E-02 0.  1.
    10030    2    1    2    0    0  0.00000000000E+00  0.00000000000E+00  0.31111337900E+03  0.67517031999E+03  0.59921901372E+03 0.  0.
        4    1    3    3  502    0  0.77411837244E+02  0.26185861592E+03  0.16633715869E+02  0.27357050404E+03  0.12699999809E+01 0.  1.
       -4    1    3    3    0  502 -0.77411837244E+02 -0.26185861592E+03  0.29447966313E+03  0.40159981595E+03  0.12699999809E+01 0. -1.
</event>
<event>
 5   0  0.9571790E-03  0.6003110E+03  0.7818609E-02  0.9904761E-01
       -2   -1    0    0    0  501  0.00000000000E+00  0.00000000000E+00  0.24097400515E+03  0.24097400517E+03  0.25500000920E-02 0.  1.
        2   -1    0    0  501    0  0.00000000000E+00  0.00000000000E+00 -0.37387160622E+03  0.37387160623E+03  0.25500000920E-02 0. -1.
    10030    2    1    2    0    0  0.00000000000E+00  0.00000000000E+00 -0.13289760107E+03  0.61484561140E+03  0.60031104728E+03 0.  0.
        5    1    3    3  502    0  0.12650806611E+03 -0.14203330343E+02  0.21191307151E+03  0.24725546558E+03  0.46999998093E+01 0.  1.
       -5    1    3    3    0  502 -0.12650806611E+03  0.14203330343E+02 -0.34481067258E+03  0.36759014582E+03  0.46999998093E+01 0. -1.
</event>
<event>
 5   0  0.5785798E-03  0.6015505E+03  0.7818609E-02  0.9902194E-01
        1   -1    0    0  501    0  0.00000000000E+00  0.00000000000E+00  0.70538744304E+03  0.70538744306E+03  0.50400001928E-02 0. -1.
       -1   -1    0    0    0  501  0.00000000000E+00  0.00000000000E+00 -0.12824973663E+03  0.12824973672E+03  0.50400001928E-02 0.  1.
    10030    2    1    2    0    0  0.00000000000E+00  0.00000000000E+00  0.57713770641E+03  0.83363717978E+03  0.60155050939E+03 0.  0.
        1    1    3    3  502    0  0.29938289871E+03 -0.12794241579E+01  0.24854792273E+03  0.38911158667E+03  0.50400001928E-02 0.  1.
       -1    1    3    3    0  502 -0.29938289871E+03  0.12794241579E+01  0.32858978368E+03  0.44452559311E+03  0.50400001928E-02 0. -1.
</event>
<event>
 5   0  0.3794375E-03  0.6014865E+03  0.7818609E-02  0.9902327E-01
        3   -1    0    0  501    0  0.00000000000E+00  0.00000000000E+00  0.51102860873E+03  0.51102861871E+03  0.10100000352E+00 0. -1.
       -3   -1    0    0    0  501  0.00000000000E+00  0.00000000000E+00 -0.17698910028E+03  0.17698912910E+03  0.10100000352E+00 0.  1.
    10030    2    1    2    0    0  0.00000000000E+00  0.00000000000E+00  0.33403950845E+03  0.68801774781E+03  0.60148651531E+03 0.  0.
        3    1    3    3  502    0  0.85067650238E+02  0.21279094016E+03 -0.55754608576E+02  0.23584968923E+03  0.10100000352E+00 0.  1.
       -3    1    3    3    0  502 -0.85067650238E+02 -0.21279094016E+03  0.38979411703E+03  0.45216805858E+03  0.10100000352E+00 0. -1.
</event>
<event>
 5   0  0.5503975E-03  0.5956841E+03  0.7818609E-02  0.9914401E-01
        1   -1    0    0  501    0  0.00000000000E+00  0.00000000000E+00  0.13447459521E+04  0.13447459522E+04  0.50400001928E-02 0.  1.
       -1   -1    0    0    0  501  0.00000000000E+00  0.00000000000E+00 -0.65967767661E+02  0.65967767853E+02  0.50400001928E-02 0. -1.
    10030    2    1    2    0    0  0.00000000000E+00  0.00000000000E+00  0.12787781845E+04  0.14107137200E+04  0.59568410647E+03 0.  0.
        4    1    3    3  502    0  0.28965204133E+03 -0.66533736687E+02  0.68575023231E+03  0.74738212260E+03  0.12699999809E+01 0.  1.
       -4    1    3    3    0  502 -0.28965204133E+03  0.66533736687E+02  0.59302795217E+03  0.66333159741E+03  0.12699999809E+01 0. -1.
</event>
<event>
 5   0  0.5574736E-03  0.5968950E+03  0.7818609E-02  0.9911869E-01
        1   -1    0    0  501    0  0.00000000000E+00  0.00000000000E+00  0.48844940235E+03  0.48844940238E+03  0.50400001928E-02 0.  1.
       -1   -1    0    0    0  501  0.00000000000E+00  0.00000000000E+00 -0.18235441534E+03  0.18235441541E+03  0.50400001928E-02 0. -1.
    10030    2    1    2    0    0  0.00000000000E+00  0.00000000000E+00  0.30609498701E+03  0.67080381779E+03  0.59689498313E+03 0.  0.
        5    1    3    3  502    0 -0.14688153599E+03 -0.22334269311E+03  0.39866796783E+01  0.26738385851E+03  0.46999998093E+01 0. -1.
       -5    1    3    3    0  502  0.14688153599E+03  0.22334269311E+03  0.30210830733E+03  0.40341995927E+03  0.46999998093E+01 0.  1.
</event>
<event>
 5   0  0.9681801E-03  0.5982313E+03  0.7818609E-02  0.9909082E-01
        2   -1    0    0  501    0  0.00000000000E+00  0.00000000000E+00  0.44394682398E+03  0.44394682399E+03  0.25500000920E-02 0. -1.
       -2   -1    0    0    0  501  0.00000000000E+00  0.00000000000E+00 -0.20153350516E+03  0.20153350517E+03  0.25500000920E-02 0.  1.
    10030    2    1    2    0    0  0.00000000000E+00  0.00000000000E+00  0.24241331882E+03  0.64548032916E+03  0.59823125812E+03 0.  0.
        4    1    3    3  502    0 -0.65309553228E+02  0.13692635746E+03 -0.15694119904E+03  0.21828036551E+03  0.12699999809E+01 0.  1.
       -4    1    3    3    0  502  0.65309553228E+02 -0.13692635746E+03  0.39935451786E+03  0.42719996365E+03  0.12699999809E+01 0. -1.
</event>
<event>
 5   0  0.5785798E-03  0.6007538E+03  0.7818609E-02  0.9903843E-01
       -1   -1    0    0    0  501  0.00000000000E+00  0.00000000000E+00  0.11963465676E+03  0.11963465687E+03  0.50400001928E-02 0.  1.
        1   -1    0    0  501    0  0.00000000000E+00  0.00000000000E+00 -0.75418179450E+03  0.75418179452E+03  0.50400001928E-02 0. -1.
    10030    2    1    2    0    0  0.00000000000E+00  0.00000000000E+00 -0.63454713774E+03  0.87381645139E+03  0.60075379375E+03 0.  0.
        1    1    3    3  502    0 -0.23612857401E+03 -0.14992730626E+03 -0.15799466103E+03  0.32124323116E+03  0.50400001928E-02 0.  1.
       -1    1    3    3    0  502  0.23612857401E+03  0.14992730626E+03 -0.47655247671E+03  0.55257322023E+03  0.50400001928E-02 0. -1.
</event>
<event>
 5   0  0.9530666E-03  0.5987793E+03  0.7818609E-02  0.9907942E-01
        2   -1    0    0  501    0  0.00000000000E+00  0.00000000000E+00  0.60335695594E+03  0.60335695595E+03  0.25500000920E-02 0.  1.
       -2   -1    0    0    0  501  0.00000000000E+00  0.00000000000E+00 -0.14855909956E+03  0.14855909958E+03  0.25500000920E-02 0. -1.
    10030    2    1    2    0    0  0.00000000000E+00  0.00000000000E+00  0.45479785638E+03  0.75191605553E+03  0.59877931193E+03 0.  0.
        2    1    3    3  502    0  0.20014053660E+03 -0.71629070492E+02  0.49214212823E+03  0.53608845587E+03  0.25500000920E-02 0.  1.
       -2    1    3    3    0  502 -0.20014053660E+03  0.71629070492E+02 -0.37344271846E+02  0.21582759967E+03  0.25500000920E-02 0. -1.
</event>
<event>
 5   0  0.9571790E-03  0.6005312E+03  0.7818609E-02  0.9904305E-01
       -2   -1    0    0    0  501  0.00000000000E+00  0.00000000000E+00  0.11145883768E+03  0.11145883771E+03  0.25500000920E-02 0.  1.
        2   -1    0    0  501    0  0.00000000000E+00  0.00000000000E+00 -0.80890338195E+03  0.80890338195E+03  0.25500000920E-02 0. -1.
    10030    2    1    2    0    0  0.00000000000E+00  0.00000000000E+00 -0.69744454427E+03  0.92036221966E+03  0.60053120074E+03 0.  0.
        5    1    3    3  502    0 -0.24102132940E+03 -0.58833668727E+02 -0.60783557737E+03  0.65653549860E+03  0.46999998093E+01 0. -1.
       -5    1    3    3    0  502  0.24102132940E+03  0.58833668727E+02 -0.89608966897E+02  0.26382672107E+03  0.46999998093E+01 0.  1.
</event>
<event>
 5   0  0.5491236E-03  0.6002868E+03  0.7818609E-02  0.9904811E-01
        1   -1    0    0  501    0  0.00000000000E+00  0.00000000000E+00  0.58178840599E+03  0.58178840602E+03  0.50400001928E-02 0. -1.
       -1   -1    0    0    0  501  0.00000000000E+00  0.00000000000E+00 -0.15484334617E+03  0.15484334625E+03  0.50400001928E-02 0.  1.
    10030    2    1    2    0    0  0.00000000000E+00  0.00000000000E+00  0.42694505982E+03  0.73663175227E+03  0.60028681007E+03 0.  0.
        3    1    3    3  502    0 -0.27102407125E+03  0.72885828655E+02  0.82913063314E+02  0.29264479746E+03  0.10100000352E+00 0.  1.
       -3    1    3    3    0  502  0.27102407125E+03 -0.72885828655E+02  0.34403199651E+03  0.44398695481E+03  0.10100000352E+00 0. -1.
</event>
<event>
 5   0  0.3794375E-03  0.5926678E+03  0.7818609E-02  0.9920736E-01
        3   -1    0    0  501    0  0.00000000000E+00  0.00000000000E+00  0.69779139766E+03  0.69779140497E+03  0.10100000352E+00 0. -1.
       -3   -1    0    0    0  501  0.00000000000E+00  0.00000000000E+00 -0.12584528442E+03  0.12584532495E+03  0.10100000352E+00 0.  1.
    10030    2    1    2    0    0  0.00000000000E+00  0.00000000000E+00  0.57194611324E+03  0.82363672992E+03  0.59266778757E+03 0.  0.
        2    1    3    3  502    0  0.79100548631E+02  0.52606699882E+02 -0.10411110760E+03  0.14093787425E+03  0.25500000920E-02 0.  1.
       -2    1    3    3    0  502 -0.79100548631E+02 -0.52606699882E+02  0.67605722085E+03  0.68269885567E+03  0.25500000920E-02 0. -1.
</event>
<event>
 5   0  0.5491236E-03  0.5993665E+03  0.7818609E-02  0.9906721E-01
        1   -1    0    0  501    0  0.00000000000E+00  0.00000000000E+00  0.58787888885E+03  0.58787888887E+03  0.50400001928E-02 0. -1.
       -1   -1    0    0    0  501  0.00000000000E+00  0.00000000000E+00 -0.15276963108E+03  0.15276963116E+03  0.50400001928E-02 0.  1.
    10030    2    1    2    0    0  0.00000000000E+00  0.00000000000E+00  0.43510925777E+03  0.74064852003E+03  0.59936646889E+03 0.  0.
        3    1    3    3  502    0  0.17275159768E+01 -0.25940007235E+03  0.40298927584E+03  0.47926167016E+03  0.10100000352E+00 0. -1.
       -3    1    3    3    0  502 -0.17275159768E+01  0.25940007235E+03  0.32119981927E+02  0.26138684987E+03  0.10100000352E+00 0.  1.
</event>
<event>
 5   0  0.9530666E-03  0.5993060E+03  0.7818609E-02  0.9906847E-01
       -2   -1    0    0    0  501  0.00000000000E+00  0.00000000000E+00  0.10170553493E+04  0.10170553493E+04  0.25500000920E-02 0. -1.
        2   -1    0    0  501    0  0.00000000000E+00  0.00000000000E+00 -0.88286167026E+02  0.88286167063E+02  0.25500000920E-02 0.  1.
    10030    2    1    2    0    0  0.00000000000E+00  0.00000000000E+00  0.92876918223E+03  0.11053415163E+04  0.59930599350E+03 0.  0.
        2    1    3    3  502    0 -0.20947376157E+03  0.18767623151E+03  0.27368810890E+03  0.39243700848E+03  0.25500000920E-02 0. -1.
       -2    1    3    3    0  502  0.20947376157E+03 -0.18767623151E+03  0.65508107333E+03  0.71290450784E+03  0.25500000920E-02 0.  1.
</event>
<event>
 5   0  0.5503975E-03  0.5995951E+03  0.7818609E-02  0.9906246E-01
        1   -1    0    0  501    0  0.00000000000E+00  0.00000000000E+00  0.82056533305E+03  0.82056533306E+03  0.50400001928E-02 0.  1.
       -1   -1    0    0    0  501  0.00000000000E+00  0.00000000000E+00 -0.10953250121E+03  0.10953250133E+03  0.50400001928E-02 0. -1.
    10030    2    1    2    0    0  0.00000000000E+00  0.00000000000E+00  0.71103283183E+03  0.93009783439E+03  0.59959510805E+03 0.  0.
        4    1    3    3  502    0 -0.94816783618E+02 -0.36281386933E+02  0.79308518802E+03  0.79955755881E+03  0.12699999809E+01 0.  1.
       -4    1    3    3    0  502  0.94816783618E+02  0.36281386933E+02 -0.82052356187E+02  0.13054027558E+03  0.12699999809E+01 0. -1.
</event>
<event>
 5   0  0.9428629E-03  0.5996945E+03  0.7818609E-02  0.9906040E-01
        2   -1    0    0  501    0  0.00000000000E+00  0.00000000000E+00  0.15950751771E+04  0.15950751771E+04  0.25500000920E-02 0. -1.
       -2   -1    0    0    0  501  0.00000000000E+00  0.00000000000E+00 -0.56366233272E+02  0.56366233330E+02  0.25500000920E-02 0.  1.
    10030    2    1    2    0    0  0.00000000000E+00  0.00000000000E+00  0.15387089438E+04  0.16514414104E+04  0.59969452080E+03 0.  0.
        3    1    3    3  502    0 -0.22851438429E+03 -0.18010575018E+03  0.96891438129E+03  0.10116580418E+04  0.10100000352E+00 0.  1.
       -3    1    3    3    0  502  0.22851438429E+03  0.18010575018E+03  0.56979456255E+03  0.63978336864E+03  0.10100000352E+00 0. -1.
</event>
<event>
 5   0  0.9571790E-03  0.5999791E+03  0.7818609E-02  0.9905449E-01
       -2   -1    0    0    0  501  0.00000000000E+00  0.00000000000E+00  0.14736145025E+03  0.14736145027E+03  0.25500000920E-02 0. -1.
        2   -1    0    0  501    0  0.00000000000E+00  0.00000000000E+00 -0.61070066145E+03  0.61070066145E+03  0.25500000920E-02 0.  1.
    10030    2    1    2    0    0  0.00000000000E+00  0.00000000000E+00 -0.46333921120E+03  0.75806211172E+03  0.59997911680E+03 0.  0.
        5    1    3    3  502    0 -0.26134638541E+01 -0.12761765735E+03 -0.57462622320E+03  0.58865141047E+03  0.46999998093E+01 0.  1.
       -5    1    3    3    0  502  0.26134638541E+01  0.12761765735E+03  0.11128701200E+03  0.16941070125E+03  0.46999998093E+01 0. -1.
</event>
<event>
 5   0  0.9866317E-03  0.6003563E+03  0.7818609E-02  0.9904667E-01
        2   -1    0    0  501    0  0.00000000000E+00  0.00000000000E+00  0.21852765903E+04  0.21852765903E+04  0.25500000920E-02 0. -1.
       -2   -1    0    0    0  501  0.00000000000E+00  0.00000000000E+00 -0.41233645023E+02  0.41233645102E+02  0.25500000920E-02 0.  1.
    10030    2    1    2    0    0  0.00000000000E+00  0.00000000000E+00  0.21440429453E+04  0.22265102354E+04  0.60035629185E+03 0.  0.
        1    1    3    3  502    0 -0.36803965868E+02 -0.35729741301E+02 -0.24859552692E+02  0.57001260534E+02  0.50400001928E-02 0.  1.
       -1    1    3    3    0  502  0.36803965868E+02  0.35729741301E+02  0.21689024979E+04  0.21695089748E+04  0.50400001928E-02 0. -1.
</event>
<event>
 5   0  0.5503975E-03  0.5996567E+03  0.7818609E-02  0.9906119E-01
        1   -1    0    0  501    0  0.00000000000E+00  0.00000000000E+00  0.32532875084E+03  0.32532875088E+03  0.50400001928E-02 0. -1.
       -1   -1    0    0    0  501  0.00000000000E+00  0.00000000000E+00 -0.27632671362E+03  0.27632671366E+03  0.50400001928E-02 0.  1.
    10030    2    1    2    0    0  0.00000000000E+00  0.00000000000E+00  0.49002037220E+02  0.60165546454E+03  0.59965665039E+03 0.  0.
        4    1    3    3  502    0 -0.22495279242E+03 -0.19246018381E+03  0.72101019510E+02  0.30470453079E+03  0.12699999809E+01 0. -1.
       -4    1    3    3    0  502  0.22495279242E+03  0.19246018381E+03 -0.23098982290E+02  0.29695093375E+03  0.12699999809E+01 0.  1.
</event>
<event>
 5   0  0.9866317E-03  0.5991007E+03  0.7818609E-02  0.9907274E-01
        2   -1    0    0  501    0  0.00000000000E+00  0.00000000000E+00  0.17178445243E+04  0.17178445243E+04  0.25500000920E-02 0.  1.
       -2   -1    0    0    0  501  0.00000000000E+00  0.00000000000E+00 -0.52234298853E+02  0.52234298915E+02  0.25500000920E-02 0. -1.
    10030    2    1    2    0    0  0.00000000000E+00  0.00000000000E+00  0.16656102255E+04  0.17700788232E+04  0.59910067375E+03 0.  0.
        1    1    3    3  502    0 -0.15882631596E+03 -0.20687035102E+03  0.12681318518E+04  0.12946735242E+04  0.50400001928E-02 0.  1.
       -1    1    3    3    0  502  0.15882631596E+03  0.20687035102E+03  0.39747837371E+03  0.47540529905E+03  0.50400001928E-02 0. -1.
</event>
<event>
 5   0  0.5503975E-03  0.5996883E+03  0.7818609E-02  0.9906053E-01
       -1   -1    0    0    0  501  0.00000000000E+00  0.00000000000E+00  0.88093947199E+02  0.88093947343E+02  0.50400001928E-02 0.  1.
        1   -1    0    0  501    0  0.00000000000E+00  0.00000000000E+00 -0.10205753196E+04  0.10205753196E+04  0.50400001928E-02 0. -1.
    10030    2    1    2    0    0  0.00000000000E+00  0.00000000000E+00 -0.93248137237E+03  0.11086692669E+04  0.59968828036E+03 0.  0.
        4    1    3    3  502    0  0.40896493100E+02  0.93043411654E+02  0.55272841638E+02  0.11569917685E+03  0.12699999809E+01 0.  1.
       -4    1    3    3    0  502 -0.40896493100E+02 -0.93043411654E+02 -0.98775421401E+03  0.99297009008E+03  0.12699999809E+01 0. -1.
</event>
<event>
 5   0  0.9681801E-03  0.6000798E+03  0.7818609E-02  0.9905241E-01
       -2   -1    0    0    0  501  0.00000000000E+00  0.00000000000E+00  0.15473198105E+03  0.15473198107E+03  0.25500000920E-02 0.  1.
        2   -1    0    0  501    0  0.00000000000E+00  0.00000000000E+00 -0.58180560549E+03  0.58180560549E+03  0.25500000920E-02 0. -1.
    10030    2    1    2    0    0  0.00000000000E+00  0.00000000000E+00 -0.42707362444E+03  0.73653758656E+03  0.60007977446E+03 0.  0.
        4    1    3    3  502    0 -0.13311029894E+03 -0.14820815380E+03 -0.48891862306E+03  0.52794605919E+03  0.12699999809E+01 0. -1.
       -4    1    3    3    0  502  0.13311029894E+03  0.14820815380E+03  0.61844998617E+02  0.20859152737E+03  0.12699999809E+01 0.  1.
</event>
<event>
 5   0  0.5785798E-03  0.5994165E+03  0.7818609E-02  0.9906617E-01
        1   -1    0    0  501    0  0.00000000000E+00  0.00000000000E+00  0.25396233258E+03  0.25396233263E+03  0.50400001928E-02 0. -1.
       -1   -1    0    0    0  501  0.00000000000E+00  0.00000000000E+00 -0.35369431034E+03  0.35369431037E+03  0.50400001928E-02 0.  1.
    10030    2    1    2    0    0  0.00000000000E+00  0.00000000000E+00 -0.99731977755E+02  0.60765664300E+03  0.59941648993E+03 0.  0.
        1    1    3    3  502    0  0.15794385730E+03 -0.10586157107E+02  0.20812554796E+03  0.26148531989E+03  0.50400001928E-02 0. -1.
       -1    1    3    3    0  502 -0.15794385730E+03  0.10586157107E+02 -0.30785752571E+03  0.34617132311E+03  0.50400001928E-02 0.  1.
</event>
<event>
 5   0  0.9571790E-03  0.5985222E+03  0.7818609E-02  0.9908477E-01
       -2   -1    0    0    0  501  0.00000000000E+00  0.00000000000E+00  0.13086730599E+03  0.13086730601E+03  0.25500000920E-02 0. -1.
        2   -1    0    0  501    0  0.00000000000E+00  0.00000000000E+00 -0.68433606658E+03  0.68433606658E+03  0.25500000920E-02 0.  1.
    10030    2    1    2    0    0  0.00000000000E+00  0.00000000000E+00 -0.55346876059E+03  0.81520337260E+03  0.59852223831E+03 0.  0.
        5    1    3    3  502    0 -0.23097840831E+03  0.19070133770E+02 -0.53451548941E+03  0.58261787951E+03  0.46999998093E+01 0.  1.
       -5    1    3    3    0  502  0.23097840831E+03 -0.19070133770E+02 -0.18953271178E+02  0.23258549309E+03  0.46999998093E+01 0. -1.
</event>
<event>
 5   0  0.9571790E-03  0.5989202E+03  0.7818609E-02  0.9907649E-01
        2   -1    0    0  501    0  0.00000000000E+00  0.00000000000E+00  0.16584019543E+04  0.16584019543E+04  0.25500000920E-02 0. -1.
       -2   -1    0    0    0  501  0.00000000000E+00  0.00000000000E+00 -0.54073962216E+02  0.54073962276E+02  0.25500000920E-02 0.  1.
    10030    2    1    2    0    0  0.00000000000E+00  0.00000000000E+00  0.16043279921E+04  0.17124759166E+04  0.59892024400E+03 0.  0.
        5    1    3    3  502    0  0.87827118018E+02 -0.11326686996E+03  0.15538387665E+04  0.15604422414E+04  0.46999998093E+01 0. -1.
       -5    1    3    3    0  502 -0.87827118018E+02  0.11326686996E+03  0.50489225593E+02  0.15203367518E+03  0.46999998093E+01 0.  1.
</event>
<event>
 5   0  0.9530666E-03  0.6002274E+03  0.7818609E-02  0.9904934E-01
        2   -1    0    0  501    0  0.00000000000E+00  0.00000000000E+00  0.65790105031E+03  0.65790105032E+03  0.25500000920E-02 0. -1.
       -2   -1    0    0    0  501  0.00000000000E+00  0.00000000000E+00 -0.13690242196E+03  0.13690242199E+03  0.25500000920E-02 0.  1.
    10030    2    1    2    0    0  0.00000000000E+00  0.00000000000E+00  0.52099862835E+03  0.79480347230E+03  0.60022744760E+03 0.  0.
        2    1    3    3  502    0  0.10136022333E+03  0.15957318088E+03  0.56914965703E+03  0.59972395903E+03  0.25500000920E-02 0. -1.
       -2    1    3    3    0  502 -0.10136022333E+03 -0.15957318088E+03 -0.48151028683E+02  0.19507951328E+03  0.25500000920E-02 0.  1.
</event>
<event>
 5   0  0.9530666E-03  0.6033596E+03  0.7818609E-02  0.9898460E-01
       -2   -1    0    0    0  501  0.00000000000E+00  0.00000000000E+00  0.25116705189E+03  0.25116705190E+03  0.25500000920E-02 0.  1.
        2   -1    0    0  501    0  0.00000000000E+00  0.00000000000E+00 -0.36235132660E+03  0.36235132661E+03  0.25500000920E-02 0. -1.
    10030    2    1    2    0    0  0.00000000000E+00  0.00000000000E+00 -0.11118427471E+03  0.61351837851E+03  0.60335964219E+03 0.  0.
        2    1    3    3  502    0  0.20141325425E+03 -0.11213060921E+03 -0.25347117332E+03  0.34261962615E+03  0.25500000920E-02 0. -1.
       -2    1    3    3    0  502 -0.20141325425E+03  0.11213060921E+03  0.14228689860E+03  0.27089875236E+03  0.25500000920E-02 0.  1.
</event>
<event>
 5   0  0.9866317E-03  0.6011026E+03  0.7818609E-02  0.9903121E-01
       -2   -1    0    0    0  501  0.00000000000E+00  0.00000000000E+00  0.73341859954E+02  0.73341859999E+02  0.25500000920E-02 0.  1.
        2   -1    0    0  501    0  0.00000000000E+00  0.00000000000E+00 -0.12316444817E+04  0.12316444817E+04  0.25500000920E-02 0. -1.
    10030    2    1    2    0    0  0.00000000000E+00  0.00000000000E+00 -0.11583026217E+04  0.13049863417E+04  0.60110264388E+03 0.  0.
        1    1    3    3  502    0  0.14396037488E+03  0.10128558996E+03 -0.11080340692E+04  0.11219281879E+04  0.50400001928E-02 0. -1.
       -1    1    3    3    0  502 -0.14396037488E+03 -0.10128558996E+03 -0.50268552532E+02  0.18305815379E+03  0.50400001928E-02 0.  1.
</event>
<event>
 5   0  0.5491236E-03  0.6003640E+03  0.7818609E-02  0.9904651E-01
        1   -1    0    0  501    0  0.00000000000E+00  0.00000000000E+00  0.30692972696E+03  0.30692972700E+03  0.50400001928E-02 0.  1.
       -1   -1    0    0    0  501  0.00000000000E+00  0.00000000000E+00 -0.29358261247E+03  0.29358261252E+03  0.50400001928E-02 0. -1.
    10030    2    1    2    0    0  0.00000000000E+00  0.00000000000E+00  0.13347114488E+02  0.60051233952E+03  0.60036399330E+03 0.  0.
        3    1    3    3  502    0  0.18216856964E+02 -0.89712830192E+02  0.29262699676E+03  0.30661183149E+03  0.10100000352E+00 0.  1.
       -3    1    3    3    0  502 -0.18216856964E+02  0.89712830192E+02 -0.27927988227E+03  0.29390050803E+03  0.10100000352E+00 0. -1.
</event>
<event>
 5   0  0.5491236E-03  0.6018593E+03  0.7818609E-02  0.9901556E-01
       -1   -1    0    0    0  501  0.00000000000E+00  0.00000000000E+00  0.61898732838E+02  0.61898733044E+02  0.50400001928E-02 0.  1.
        1   -1    0    0  501    0  0.00000000000E+00  0.00000000000E+00 -0.14630129606E+04  0.14630129606E+04  0.50400001928E-02 0. -1.
    10030    2    1    2    0    0  0.00000000000E+00  0.00000000000E+00 -0.14011142278E+04  0.15249116937E+04  0.60185928107E+03 0.  0.
        3    1    3    3  502    0 -0.13652858134E+02 -0.28023108226E+03 -0.97628236021E+03  0.10157967893E+04  0.10100000352E+00 0.  1.
       -3    1    3    3    0  502  0.13652858134E+02  0.28023108226E+03 -0.42483186758E+03  0.50911490443E+03  0.10100000352E+00 0. -1.
</event>
<event>
 5   0  0.5574736E-03  0.6003126E+03  0.7818609E-02  0.9904758E-01
        1   -1    0    0  501    0  0.00000000000E+00  0.00000000000E+00  0.10889902193E+03  0.10889902205E+03  0.50400001928E-02 0. -1.
       -1   -1    0    0    0  501  0.00000000000E+00  0.00000000000E+00 -0.82731513505E+03  0.82731513506E+03  0.50400001928E-02 0.  1.
    10030    2    1    2    0    0  0.00000000000E+00  0.00000000000E+00 -0.71841611312E+03  0.93621415711E+03  0.60031261554E+03 0.  0.
        5    1    3    3  502    0  0.20115219923E+03 -0.12663736512E+03 -0.64496020736E+03  0.68738270896E+03  0.46999998093E+01 0.  1.
       -5    1    3    3    0  502 -0.20115219923E+03  0.12663736512E+03 -0.73455905761E+02  0.24883144815E+03  0.46999998093E+01 0. -1.
</event>
<event>
 5   0  0.9428629E-03  0.5989140E+03  0.7818609E-02  0.9907662E-01
        2   -1    0    0  501    0  0.00000000000E+00  0.00000000000E+00  0.49013209675E+03  0.49013209675E+03  0.25500000920E-02 0.  1.
       -2   -1    0    0    0  501  0.00000000000E+00  0.00000000000E+00 -0.18295985809E+03  0.18295985811E+03  0.25500000920E-02 0. -1.
    10030    2    1    2    0    0  0.00000000000E+00  0.00000000000E+00  0.30717223865E+03  0.67309195486E+03  0.59891401345E+03 0.  0.
        3    1    3    3  502    0  0.14860932248E+02 -0.21102701529E+03 -0.84610609891E+02  0.22784252016E+03  0.10100000352E+00 0. -1.
       -3    1    3    3    0  502 -0.14860932248E+02  0.21102701529E+03  0.39178284854E+03  0.44524943470E+03  0.10100000352E+00 0.  1.
</event>
<event>
 5   0  0.5503975E-03  0.5987045E+03  0.7818609E-02  0.9908097E-01
        1   -1    0    0  501    0  0.00000000000E+00  0.00000000000E+00  0.46536592729E+03  0.46536592732E+03  0.50400001928E-02 0.  1.
       -1   -1    0    0    0  501  0.00000000000E+00  0.00000000000E+00 -0.19256195401E+03  0.19256195407E+03  0.50400001928E-02 0. -1.
    10030    2    1    2    0    0  0.00000000000E+00  0.00000000000E+00  0.27280397329E+03  0.65792788139E+03  0.59870450915E+03 0.  0.
        4    1    3    3  502    0 -0.14554649819E+03 -0.17857395950E+03  0.34645865236E+03  0.41606207811E+03  0.12699999809E+01 0.  1.
       -4    1    3    3    0  502  0.14554649819E+03  0.17857395950E+03 -0.73654679079E+02  0.24186580328E+03  0.12699999809E+01 0. -1.
</event>
<event>
 5   0  0.9530666E-03  0.5936006E+03  0.7818609E-02  0.9918773E-01
       -2   -1    0    0    0  501  0.00000000000E+00  0.00000000000E+00  0.47235549755E+02  0.47235549824E+02  0.25500000920E-02 0. -1.
        2   -1    0    0  501    0  0.00000000000E+00  0.00000000000E+00 -0.18649175955E+04  0.18649175955E+04  0.25500000920E-02 0.  1.
    10030    2    1    2    0    0  0.00000000000E+00  0.00000000000E+00 -0.18176820457E+04  0.19121531453E+04  0.59360056583E+03 0.  0.
        2    1    3    3  502    0 -0.10335602844E+03 -0.11207015196E+03 -0.88532172841E+02  0.17629558477E+03  0.25500000920E-02 0. -1.
       -2    1    3    3    0  502  0.10335602844E+03  0.11207015196E+03 -0.17291498729E+04  0.17358575605E+04  0.25500000920E-02 0.  1.
</event>
<event>
 5   0  0.5503975E-03  0.6010880E+03  0.7818609E-02  0.9903151E-01
       -1   -1    0    0    0  501  0.00000000000E+00  0.00000000000E+00  0.26271338996E+03  0.26271339001E+03  0.50400001928E-02 0. -1.
        1   -1    0    0  501    0  0.00000000000E+00  0.00000000000E+00 -0.34382220081E+03  0.34382220084E+03  0.50400001928E-02 0.  1.
    10030    2    1    2    0    0  0.00000000000E+00  0.00000000000E+00 -0.81108810849E+02  0.60653559085E+03  0.60108800002E+03 0.  0.
        4    1    3    3  502    0 -0.59587339788E+02  0.17073617867E+03 -0.28277908222E+03  0.33565922602E+03  0.12699999809E+01 0.  1.
       -4    1    3    3    0  502  0.59587339788E+02 -0.17073617867E+03  0.20167027137E+03  0.27087636483E+03  0.12699999809E+01 0. -1.
</event>
<event>
 5   0  0.5785798E-03  0.6017578E+03  0.7818609E-02  0.9901766E-01
        1   -1    0    0  501    0  0.00000000000E+00  0.00000000000E+00  0.10835733507E+04  0.10835733507E+04  0.50400001928E-02 0.  1.
       -1   -1    0    0    0  501  0.00000000000E+00  0.00000000000E+00 -0.83545905547E+02  0.83545905699E+02  0.50400001928E-02 0. -1.
    10030    2    1    2    0    0  0.00000000000E+00  0.00000000000E+00  0.10000274451E+04  0.11671192564E+04  0.60175781475E+03 0.  0.
        1    1    3    3  502    0  0.50415644827E+02 -0.61885851729E+02  0.10626625037E+04  0.10656562263E+04  0.50400001928E-02 0.  1.
       -1    1    3    3    0  502 -0.50415644827E+02  0.61885851729E+02 -0.62635058559E+02  0.10146303008E+03  0.50400001928E-02 0. -1.
</event>
<event>
 5   0  0.5653633E-03  0.5998248E+03  0.7818609E-02  0.9905770E-01
        1   -1    0    0  501    0  0.00000000000E+00  0.00000000000E+00  0.14222071090E+04  0.14222071090E+04  0.50400001928E-02 0. -1.
       -1   -1    0    0    0  501  0.00000000000E+00  0.00000000000E+00 -0.63244977335E+02  0.63244977535E+02  0.50400001928E-02 0.  1.
    10030    2    1    2    0    0  0.00000000000E+00  0.00000000000E+00  0.13589621316E+04  0.14854520865E+04  0.59982482952E+03 0.  0.
        2    1    3    3  502    0  0.73324263473E+02  0.18379006865E+03  0.12376077730E+04  0.12533268675E+04  0.25500000920E-02 0. -1.
       -2    1    3    3    0  502 -0.73324263473E+02 -0.18379006865E+03  0.12135435865E+03  0.23212521905E+03  0.25500000920E-02 0.  1.
</event>
<event>
 5   0  0.5491236E-03  0.6001263E+03  0.7818609E-02  0.9905144E-01
        1   -1    0    0  501    0  0.00000000000E+00  0.00000000000E+00  0.12695500768E+04  0.12695500768E+04  0.50400001928E-02 0.  1.
       -1   -1    0    0    0  501  0.00000000000E+00  0.00000000000E+00 -0.70921099480E+02  0.70921099659E+02  0.50400001928E-02 0. -1.
    10030    2    1    2    0    0  0.00000000000E+00  0.00000000000E+00  0.11986289773E+04  0.13404711764E+04  0.60012627810E+03 0.  0.
        3    1    3    3  502    0 -0.20140539737E+03 -0.12506924884E+03  0.10101566343E+04  0.10376043982E+04  0.10100000352E+00 0.  1.
       -3    1    3    3    0  502  0.20140539737E+03  0.12506924884E+03  0.18847234295E+03  0.30286677822E+03  0.10100000352E+00 0. -1.
</event>
<event>
 5   0  0.9681801E-03  0.5998042E+03  0.7818609E-02  0.9905812E-01
       -2   -1    0    0    0  501  0.00000000000E+00  0.00000000000E+00  0.13197925153E+03  0.13197925156E+03  0.25500000920E-02 0.  1.
        2   -1    0    0  501    0  0.00000000000E+00  0.00000000000E+00 -0.68148039762E+03  0.68148039763E+03  0.25500000920E-02 0. -1.
    10030    2    1    2    0    0  0.00000000000E+00  0.00000000000E+00 -0.54950114609E+03  0.81345964918E+03  0.59980421080E+03 0.  0.
        4    1    3    3  502    0  0.17345058450E+03 -0.10747740086E+03 -0.57281784295E+03  0.60807761927E+03  0.12699999809E+01 0. -1.
       -4    1    3    3    0  502 -0.17345058450E+03  0.10747740086E+03  0.23316696863E+02  0.20538202991E+03  0.12699999809E+01 0.  1.
</event>
<event>
 5   0  0.9681801E-03  0.6010470E+03  0.7818609E-02  0.9903236E-01
       -2   -1    0    0    0  501  0.00000000000E+00  0.00000000000E+00  0.82121257410E+02  0.82121257450E+02  0.25500000920E-02 0. -1.
        2   -1    0    0  501    0  0.00000000000E+00  0.00000000000E+00 -0.10997685337E+04  0.10997685337E+04  0.25500000920E-02 0.  1.
    10030    2    1    2    0    0  0.00000000000E+00  0.00000000000E+00 -0.10176472763E+04  0.11818897911E+04  0.60104700272E+03 0.  0.
        4    1    3    3  502    0  0.13501659197E+03 -0.21692477083E+03 -0.19774348979E+03  0.32309431589E+03  0.12699999809E+01 0. -1.
       -4    1    3    3    0  502 -0.13501659197E+03  0.21692477083E+03 -0.81990378647E+03  0.85879547523E+03  0.12699999809E+01 0.  1.
</event>
<event>
 5   0  0.5653633E-03  0.5989937E+03  0.7818609E-02  0.9907496E-01
       -1   -1    0    0    0  501  0.00000000000E+00  0.00000000000E+00  0.22128797819E+03  0.22128797825E+03  0.50400001928E-02 0. -1.
        1   -1    0    0  501    0  0.00000000000E+00  0.00000000000E+00 -0.40534670964E+03  0.40534670967E+03  0.50400001928E-02 0.  1.
    10030    2    1    2    0    0  0.00000000000E+00  0.00000000000E+00 -0.18405873145E+03  0.62663468792E+03  0.59899366898E+03 0.  0.
        2    1    3    3  502    0  0.57936497892E+02 -0.74097009908E+02  0.20543560823E+03  0.22594422719E+03  0.25500000920E-02 0. -1.
       -2    1    3    3    0  502 -0.57936497892E+02  0.74097009908E+02 -0.38949433968E+03  0.40069046073E+03  0.25500000920E-02 0.  1.
</event>
<event>
 5   0  0.9681801E-03  0.5995811E+03  0.7818609E-02  0.9906276E-01
        2   -1    0    0  501    0  0.00000000000E+00  0.00000000000E+00  0.52075361855E+03  0.52075361855E+03  0.25500000920E-02 0.  1.
       -2   -1    0    0    0  501  0.00000000000E+00  0.00000000000E+00 -0.17258521192E+03  0.17258521194E+03  0.25500000920E-02 0. -1.
    10030    2    1    2    0    0  0.00000000000E+00  0.00000000000E+00  0.34816840662E+03  0.69333883049E+03  0.59958109919E+03 0.  0.
        4    1    3    3  502    0  0.93716818971E+02 -0.12674426813E+03  0.46896091294E+03  0.49474529046E+03  0.12699999809E+01 0.  1.
       -4    1    3    3    0  502 -0.93716818971E+02  0.12674426813E+03 -0.12079250632E+03  0.19859354004E+03  0.12699999809E+01 0. -1.
</event>
<event>
 5   0  0.9866317E-03  0.6007618E+03  0.7818609E-02  0.9903827E-01
        2   -1    0    0  501    0  0.00000000000E+00  0.00000000000E+00  0.13311581393E+04  0.13311581393E+04  0.25500000920E-02 0. -1.
       -2   -1    0    0    0  501  0.00000000000E+00  0.00000000000E+00 -0.67782102075E+02  0.67782102123E+02  0.25500000920E-02 0.  1.
    10030    2    1    2    0    0  0.00000000000E+00  0.00000000000E+00  0.12633760373E+04  0.13989402415E+04  0.60076183938E+03 0.  0.
        1    1    3    3  502    0 -0.58787772917E+02 -0.26356385221E+03  0.32534704206E+03  0.42281509462E+03  0.50400001928E-02 0.  1.
       -1    1    3    3    0  502  0.58787772917E+02  0.26356385221E+03  0.93802899519E+03  0.97612514683E+03  0.50400001928E-02 0. -1.
</event>
<event>
 5   0  0.3794375E-03  0.5994221E+03  0.7818609E-02  0.9906606E-01
        3   -1    0    0  501    0  0.00000000000E+00  0.00000000000E+00  0.35154766175E+03  0.35154767626E+03  0.10100000352E+00 0. -1.
       -3   -1    0    0    0  501  0.00000000000E+00  0.00000000000E+00 -0.25551782738E+03  0.25551784734E+03  0.10100000352E+00 0.  1.
    10030    2    1    2    0    0  0.00000000000E+00  0.00000000000E+00  0.96029834372E+02  0.60706552360E+03  0.59942207238E+03 0.  0.
        4    1    3    3  502    0 -0.25192052353E+03 -0.91674825463E+02  0.18372688246E+03  0.32500062160E+03  0.12699999809E+01 0. -1.
       -4    1    3    3    0  502  0.25192052353E+03  0.91674825463E+02 -0.87697048087E+02  0.28206490200E+03  0.12699999809E+01 0.  1.
</event>
<event>
 5   0  0.9681801E-03  0.6005839E+03  0.7818609E-02  0.9904195E-01
        2   -1    0    0  501    0  0.00000000000E+00  0.00000000000E+00  0.21034791806E+04  0.21034791806E+04  0.25500000920E-02 0.  1.
       -2   -1    0    0    0  501  0.00000000000E+00  0.00000000000E+00 -0.42869566564E+02  0.42869566640E+02  0.25500000920E-02 0. -1.
    10030    2    1    2    0    0  0.00000000000E+00  0.00000000000E+00  0.20606096140E+04  0.21463487472E+04  0.60058385203E+03 0.  0.
        4    1    3    3  502    0  0.14563523356E+03 -0.49035233925E+02  0.19523067470E+04  0.19583455576E+04  0.12699999809E+01 0.  1.
       -4    1    3    3    0  502 -0.14563523356E+03  0.49035233925E+02  0.10830286695E+03  0.18800318962E+03  0.12699999809E+01 0. -1.
</event>
<event>
 5   0  0.5491236E-03  0.6021065E+03  0.7818609E-02  0.9901045E-01
       -1   -1    0    0    0  501  0.00000000000E+00  0.00000000000E+00  0.54121071824E+02  0.54121072059E+02  0.50400001928E-02 0.  1.
        1   -1    0    0  501    0  0.00000000000E+00  0.00000000000E+00 -0.16746352848E+04  0.16746352848E+04  0.50400001928E-02 0. -1.
    10030    2    1    2    0    0  0.00000000000E+00  0.00000000000E+00 -0.16205142130E+04  0.17287563569E+04  0.60210649137E+03 0.  0.
        3    1    3    3  502    0 -0.42659896402E+02  0.12886447065E+03 -0.15817830181E+04  0.15875967514E+04  0.10100000352E+00 0. -1.
       -3    1    3    3    0  502  0.42659896402E+02 -0.12886447065E+03 -0.38731194892E+02  0.14115960547E+03  0.10100000352E+00 0.  1.
</event>
<event>
 5   0  0.9571790E-03  0.5881541E+03  0.7818609E-02  0.9930292E-01
        2   -1    0    0  501    0  0.00000000000E+00  0.00000000000E+00  0.75258787064E+03  0.75258787065E+03  0.25500000920E-02 0.  1.
       -2   -1    0    0    0  501  0.00000000000E+00  0.00000000000E+00 -0.11491189359E+03  0.11491189361E+03  0.25500000920E-02 0. -1.
    10030    2    1    2    0    0  0.00000000000E+00  0.00000000000E+00  0.63767597706E+03  0.86749976426E+03  0.58815405233E+03 0.  0.
        5    1    3    3  502    0  0.10374396526E+02 -0.21199935003E+03  0.61897505796E+03  0.65437264986E+03  0.46999998093E+01 0.  1.
       -5    1    3    3    0  502 -0.10374396526E+02  0.21199935003E+03  0.18700919097E+02  0.21312711439E+03  0.46999998093E+01 0. -1.
</event>
<event>
 5   0  0.5491236E-03  0.6112436E+03  0.7818609E-02  0.9882350E-01
       -1   -1    0    0    0  501  0.00000000000E+00  0.00000000000E+00  0.49172616636E+03  0.49172616638E+03  0.50400001928E-02 0.  1.
        1   -1    0    0  501    0  0.00000000000E+00  0.00000000000E+00 -0.18995262055E+03  0.18995262062E+03  0.50400001928E-02 0. -1.
    10030    2    1    2    0    0  0.00000000000E+00  0.00000000000E+00  0.30177354580E+03  0.68167878700E+03  0.61124356495E+03 0.  0.
        3    1    3    3  502    0  0.12598403275E+03  0.33381082219E+02  0.45918031172E+03  0.47731838644E+03  0.10100000352E+00 0.  1.
       -3    1    3    3    0  502 -0.12598403275E+03 -0.33381082219E+02 -0.15740676592E+03  0.20436040056E+03  0.10100000352E+00 0. -1.
</event>
<event>
 5   0  0.5491236E-03  0.6001677E+03  0.7818609E-02  0.9905058E-01
       -1   -1    0    0    0  501  0.00000000000E+00  0.00000000000E+00  0.92346624639E+02  0.92346624777E+02  0.50400001928E-02 0.  1.
        1   -1    0    0  501    0  0.00000000000E+00  0.00000000000E+00 -0.97513380799E+03  0.97513380800E+03  0.50400001928E-02 0. -1.
    10030    2    1    2    0    0  0.00000000000E+00  0.00000000000E+00 -0.88278718335E+03  0.10674804328E+04  0.60016769596E+03 0.  0.
        3    1    3    3  502    0 -0.16998447303E+03 -0.23029888115E+03 -0.60164877864E+03  0.66626838344E+03  0.10100000352E+00 0. -1.
       -3    1    3    3    0  502  0.16998447303E+03  0.23029888115E+03 -0.28113840471E+03  0.40121204934E+03  0.10100000352E+00 0.  1.
</event>
<event>
 5   0  0.9571790E-03  0.6010846E+03  0.7818609E-02  0.9903159E-01
       -2   -1    0    0    0  501  0.00000000000E+00  0.00000000000E+00  0.49025960573E+02  0.49025960639E+02  0.25500000920E-02 0.  1.
        2   -1    0    0  501    0  0.00000000000E+00  0.00000000000E+00 -0.18424047109E+04  0.18424047109E+04  0.25500000920E-02 0. -1.
    10030    2    1    2    0    0  0.00000000000E+00  0.00000000000E+00 -0.17933787503E+04  0.18914306715E+04  0.60108455572E+03 0.  0.
        5    1    3    3  502    0 -0.50670433017E+02 -0.27569831182E+03 -0.12374421579E+04  0.12688034663E+04  0.46999998093E+01 0. -1.
       -5    1    3    3    0  502  0.50670433017E+02  0.27569831182E+03 -0.55593659244E+03  0.62262720526E+03  0.46999998093E+01 0.  1.
</event>
<event>
 5   0  0.3794375E-03  0.5977186E+03  0.7818609E-02  0.9910151E-01
       -3   -1    0    0    0  501  0.00000000000E+00  0.00000000000E+00  0.49912618882E+03  0.49912619904E+03  0.10100000352E+00 0.  1.
        3   -1    0    0  501    0  0.00000000000E+00  0.00000000000E+00 -0.17894646214E+03  0.17894649065E+03  0.10100000352E+00 0. -1.
    10030    2    1    2    0    0  0.00000000000E+00  0.00000000000E+00  0.32017972668E+03  0.67807268969E+03  0.59771859192E+03 0.  0.
        3    1    3    3  502    0 -0.98978415699E+02  0.20036108503E+03 -0.65019187064E+02  0.23274190868E+03  0.10100000352E+00 0. -1.
       -3    1    3    3    0  502  0.98978415699E+02 -0.20036108503E+03  0.38519891374E+03  0.44533078101E+03  0.10100000352E+00 0.  1.
</event>
<event>
 5   0  0.5785798E-03  0.6000699E+03  0.7818609E-02  0.9905261E-01
        1   -1    0    0  501    0  0.00000000000E+00  0.00000000000E+00  0.11368512885E+03  0.11368512896E+03  0.50400001928E-02 0. -1.
       -1   -1    0    0    0  501  0.00000000000E+00  0.00000000000E+00 -0.79184475262E+03  0.79184475264E+03  0.50400001928E-02 0.  1.
    10030    2    1    2    0    0  0.00000000000E+00  0.00000000000E+00 -0.67815962377E+03  0.90552988160E+03  0.60006990523E+03 0.  0.
        1    1    3    3  502    0 -0.21939403314E+03  0.18795405547E+03 -0.21685213919E+03  0.36122751701E+03  0.50400001928E-02 0. -1.
       -1    1    3    3    0  502  0.21939403314E+03 -0.18795405547E+03 -0.46130748458E+03  0.54430236459E+03  0.50400001928E-02 0.  1.
</event>
<event>
 5   0  0.5503975E-03  0.5995329E+03  0.7818609E-02  0.9906376E-01
       -1   -1    0    0    0  501  0.00000000000E+00  0.00000000000E+00  0.12510287066E+03  0.12510287076E+03  0.50400001928E-02 0.  1.
        1   -1    0    0  501    0  0.00000000000E+00  0.00000000000E+00 -0.71828836665E+03  0.71828836667E+03  0.50400001928E-02 0. -1.
    10030    2    1    2    0    0  0.00000000000E+00  0.00000000000E+00 -0.59318549599E+03  0.84339123743E+03  0.59953294049E+03 0.  0.
        4    1    3    3  502    0 -0.12379530060E+03  0.16220175935E+03  0.12327243123E+02  0.20442177235E+03  0.12699999809E+01 0.  1.
       -4    1    3    3    0  502  0.12379530060E+03 -0.16220175935E+03 -0.60551273911E+03  0.63896946508E+03  0.12699999809E+01 0. -1.
</event>
<event>
 5   0  0.5574736E-03  0.6000526E+03  0.7818609E-02  0.9905297E-01
        1   -1    0    0  501    0  0.00000000000E+00  0.00000000000E+00  0.44572662003E+03  0.44572662005E+03  0.50400001928E-02 0. -1.
       -1   -1    0    0    0  501  0.00000000000E+00  0.00000000000E+00 -0.20195290370E+03  0.20195290377E+03  0.50400001928E-02 0.  1.
    10030    2    1    2    0    0  0.00000000000E+00  0.00000000000E+00  0.24377371632E+03  0.64767952382E+03  0.60005261503E+03 0.  0.
        5    1    3    3  502    0 -0.63387971785E+02 -0.29017339250E+03  0.76411339433E+02  0.30672367935E+03  0.46999998093E+01 0.  1.
       -5    1    3    3    0  502  0.63387971785E+02  0.29017339250E+03  0.16736237689E+03  0.34095584447E+03  0.46999998093E+01 0. -1.
</event>
<event>
 5   0  0.3794375E-03  0.6005301E+03  0.7818609E-02  0.9904307E-01
       -3   -1    0    0    0  501  0.00000000000E+00  0.00000000000E+00  0.14546584816E+03  0.14546588322E+03  0.10100000352E+00 0. -1.
        3   -1    0    0  501    0  0.00000000000E+00  0.00000000000E+00 -0.61979551339E+03  0.61979552162E+03  0.10100000352E+00 0.  1.
    10030    2    1    2    0    0  0.00000000000E+00  0.00000000000E+00 -0.47432966523E+03  0.76526140484E+03  0.60053008786E+03 0.  0.
        3    1    3    3  502    0  0.64393200826E+02  0.14352067025E+03  0.88755747391E+02  0.18061633370E+03  0.10100000352E+00 0. -1.
       -3    1    3    3    0  502 -0.64393200826E+02 -0.14352067025E+03 -0.56308541262E+03  0.58464507114E+03  0.10100000352E+00 0.  1.
</event>
<event>
 5   0  0.5503975E-03  0.6001504E+03  0.7818609E-02  0.9905094E-01
        1   -1    0    0  501    0  0.00000000000E+00  0.00000000000E+00  0.96438491404E+02  0.96438491535E+02  0.50400001928E-02 0. -1.
       -1   -1    0    0    0  501  0.00000000000E+00  0.00000000000E+00 -0.93370511383E+03  0.93370511384E+03  0.50400001928E-02 0.  1.
    10030    2    1    2    0    0  0.00000000000E+00  0.00000000000E+00 -0.83726662242E+03  0.10301436054E+04  0.60015035672E+03 0.  0.
        4    1    3    3  502    0 -0.55292828238E+02  0.23935247188E+03 -0.71442845929E+03  0.75548430757E+03  0.12699999809E+01 0.  1.
       -4    1    3    3    0  502  0.55292828238E+02 -0.23935247188E+03 -0.12283816314E+03  0.27465929780E+03  0.12699999809E+01 0. -1.
</event>
<event>
 5   0  0.5785798E-03  0.6034556E+03  0.7818609E-02  0.9898263E-01
        1   -1    0    0  501    0  0.00000000000E+00  0.00000000000E+00  0.45439141605E+03  0.45439141608E+03  0.50400001928E-02 0. -1.
       -1   -1    0    0    0  501  0.00000000000E+00  0.00000000000E+00 -0.20035516157E+03  0.20035516163E+03  0.50400001928E-02 0.  1.
    10030    2    1    2    0    0  0.00000000000E+00  0.00000000000E+00  0.25403625448E+03  0.65474657771E+03  0.60345560104E+03 0.  0.
        1    1    3    3  502    0  0.25582862940E+02  0.24949934043E+03  0.30901058709E+03  0.39798485739E+03  0.50400001928E-02 0. -1.
       -1    1    3    3    0  502 -0.25582862940E+02 -0.24949934043E+03 -0.54974332608E+02  0.25676172032E+03  0.50400001928E-02 0.  1.
</event>
<event>
 5   0  0.9681801E-03  0.5987597E+03  0.7818609E-02  0.9907983E-01
        2   -1    0    0  501    0  0.00000000000E+00  0.00000000000E+00  0.11310500343E+04  0.11310500343E+04  0.25500000920E-02 0. -1.
       -2   -1    0    0    0  501  0.00000000000E+00  0.00000000000E+00 -0.79243448113E+02  0.79243448154E+02  0.25500000920E-02 0.  1.
    10030    2    1    2    0    0  0.00000000000E+00  0.00000000000E+00  0.10518065862E+04  0.12102934825E+04  0.59875973390E+03 0.  0.
        4    1    3    3  502    0 -0.21219021970E+03  0.10627373023E+03  0.89480589034E+03  0.92574185892E+03  0.12699999809E+01 0. -1.
       -4    1    3    3    0  502  0.21219021970E+03 -0.10627373023E+03  0.15700069589E+03  0.28455162358E+03  0.12699999809E+01 0.  1.
</event>
<event>
 5   0  0.5503975E-03  0.5998789E+03  0.7818609E-02  0.9905657E-01
        1   -1    0    0  501    0  0.00000000000E+00  0.00000000000E+00  0.14668633384E+04  0.14668633384E+04  0.50400001928E-02 0.  1.
       -1   -1    0    0    0  501  0.00000000000E+00  0.00000000000E+00 -0.61330645870E+02  0.61330646077E+02  0.50400001928E-02 0. -1.
    10030    2    1    2    0    0  0.00000000000E+00  0.00000000000E+00  0.14055326925E+04  0.15281939845E+04  0.59987890815E+03 0.  0.
        4    1    3    3  502    0  0.42037806838E+01 -0.25372421996E+03  0.11101154530E+04  0.11387500092E+04  0.12699999809E+01 0.  1.
       -4    1    3    3    0  502 -0.42037806838E+01  0.25372421996E+03  0.29541723949E+03  0.38944397524E+03  0.12699999809E+01 0. -1.
</event>
<event>
 5   0  0.5503975E-03  0.5979783E+03  0.7818609E-02  0.9909609E-01
        1   -1    0    0  501    0  0.00000000000E+00  0.00000000000E+00  0.43188936580E+03  0.43188936583E+03  0.50400001928E-02 0. -1.
       -1   -1    0    0    0  501  0.00000000000E+00  0.00000000000E+00 -0.20698473737E+03  0.20698473743E+03  0.50400001928E-02 0.  1.
    10030    2    1    2    0    0  0.00000000000E+00  0.00000000000E+00  0.22490462843E+03  0.63887410326E+03  0.59797828383E+03 0.  0.
        4    1    3    3  502    0  0.49396978070E+02 -0.55794501018E+02  0.42180579363E+03  0.42833961786E+03  0.12699999809E+01 0. -1.
       -4    1    3    3    0  502 -0.49396978070E+02  0.55794501018E+02 -0.19690116520E+03  0.21053448540E+03  0.12699999809E+01 0.  1.
</event>
<event>
 5   0  0.5491236E-03  0.5992644E+03  0.7818609E-02  0.9906933E-01
       -1   -1    0    0    0  501  0.00000000000E+00  0.00000000000E+00  0.70908779346E+03  0.70908779348E+03  0.50400001928E-02 0.  1.
        1   -1    0    0  501    0  0.00000000000E+00  0.00000000000E+00 -0.12661261339E+03  0.12661261349E+03  0.50400001928E-02 0. -1.
    10030    2    1    2    0    0  0.00000000000E+00  0.00000000000E+00  0.58247518007E+03  0.83570040697E+03  0.59926441144E+03 0.  0.
        3    1    3    3  502    0  0.21830678628E+03  0.37721210748E+02  0.57257172305E+03  0.61393739983E+03  0.10100000352E+00 0.  1.
       -3    1    3    3    0  502 -0.21830678628E+03 -0.37721210748E+02  0.99034570236E+01  0.22176300714E+03  0.10100000352E+00 0. -1.
</event>
<event>
 5   0  0.5491236E-03  0.5983670E+03  0.7818609E-02  0.9908800E-01
       -1   -1    0    0    0  501  0.00000000000E+00  0.00000000000E+00  0.79351446246E+02  0.79351446406E+02  0.50400001928E-02 0.  1.
        1   -1    0    0  501    0  0.00000000000E+00  0.00000000000E+00 -0.11280293925E+04  0.11280293925E+04  0.50400001928E-02 0. -1.
    10030    2    1    2    0    0  0.00000000000E+00  0.00000000000E+00 -0.10486779462E+04  0.12073808389E+04  0.59836699041E+03 0.  0.
        3    1    3    3  502    0  0.23448137681E+03  0.81325538803E+02 -0.86146985388E+03  0.89650748947E+03  0.10100000352E+00 0.  1.
       -3    1    3    3    0  502 -0.23448137681E+03 -0.81325538803E+02 -0.18720809233E+03  0.31087334940E+03  0.10100000352E+00 0. -1.
</event>
<event>
 5   0  0.3794375E-03  0.5995485E+03  0.7818609E-02  0.9906343E-01
        3   -1    0    0  501    0  0.00000000000E+00  0.00000000000E+00  0.20045240350E+03  0.20045242895E+03  0.10100000352E+00 0.  1.
       -3   -1    0    0    0  501  0.00000000000E+00  0.00000000000E+00 -0.44830890087E+03  0.44830891225E+03  0.10100000352E+00 0. -1.
    10030    2    1    2    0    0  0.00000000000E+00  0.00000000000E+00 -0.24785649737E+03  0.64876134120E+03  0.59954852560E+03 0.  0.
        1    1    3    3  502    0 -0.28270740330E+03  0.96944314566E+02 -0.14914177475E+03  0.33401339046E+03  0.50400001928E-02 0. -1.
       -1    1    3    3    0  502  0.28270740330E+03 -0.96944314566E+02 -0.98714722626E+02  0.31474795074E+03  0.50400001928E-02 0.  1.
</event>
<event>
 5   0  0.9681801E-03  0.5997111E+03  0.7818609E-02  0.9906006E-01
        2   -1    0    0  501    0  0.00000000000E+00  0.00000000000E+00  0.21409293766E+04  0.21409293766E+04  0.25500000920E-02 0. -1.
       -2   -1    0    0    0  501  0.00000000000E+00  0.00000000000E+00 -0.41997351435E+02  0.41997351512E+02  0.25500000920E-02 0.  1.
    10030    2    1    2    0    0  0.00000000000E+00  0.00000000000E+00  0.20989320251E+04  0.21829267281E+04  0.59971114217E+03 0.  0.
        4    1    3    3  502    0  0.24637246698E+03 -0.19517394032E+02  0.16675252878E+04  0.16857409408E+04  0.12699999809E+01 0. -1.
       -4    1    3    3    0  502 -0.24637246698E+03  0.19517394032E+02  0.43140673734E+03  0.49718578728E+03  0.12699999809E+01 0.  1.
</event>
<event>
 5   0  0.5653633E-03  0.6005607E+03  0.7818609E-02  0.9904243E-01
       -1   -1    0    0    0  501  0.00000000000E+00  0.00000000000E+00  0.91904623579E+03  0.91904623581E+03  0.50400001928E-02 0. -1.
        1   -1    0    0  501    0  0.00000000000E+00  0.00000000000E+00 -0.98110723670E+02  0.98110723800E+02  0.50400001928E-02 0.  1.
    10030    2    1    2    0    0  0.00000000000E+00  0.00000000000E+00  0.82093551212E+03  0.10171569596E+04  0.60056070918E+03 0.  0.
        2    1    3    3  502    0  0.19148298799E+03 -0.87618159587E+01  0.80194500205E+03  0.82453519659E+03  0.25500000920E-02 0. -1.
       -2    1    3    3    0  502 -0.19148298799E+03  0.87618159587E+01  0.18990510077E+02  0.19262176301E+03  0.25500000920E-02 0.  1.
</event>
<event>
 5   0  0.5503975E-03  0.6003525E+03  0.7818609E-02  0.9904675E-01
       -1   -1    0    0    0  501  0.00000000000E+00  0.00000000000E+00  0.64232095220E+03  0.64232095222E+03  0.50400001928E-02 0. -1.
        1   -1    0    0  501    0  0.00000000000E+00  0.00000000000E+00 -0.14028154581E+03  0.14028154590E+03  0.50400001928E-02 0.  1.
    10030    2    1    2    0    0  0.00000000000E+00  0.00000000000E+00  0.50203940640E+03  0.78260249812E+03  0.60035248354E+03 0.  0.
        4    1    3    3  502    0  0.89659204109E+02 -0.95004696201E+02  0.60332064830E+03  0.61730226206E+03  0.12699999809E+01 0. -1.
       -4    1    3    3    0  502 -0.89659204109E+02  0.95004696201E+02 -0.10128124190E+03  0.16530023606E+03  0.12699999809E+01 0.  1.
</event>
<event>
 5   0  0.9681801E-03  0.6000604E+03  0.7818609E-02  0.9905281E-01
        2   -1    0    0  501    0  0.00000000000E+00  0.00000000000E+00  0.24655636276E+03  0.24655636277E+03  0.25500000920E-02 0. -1.
       -2   -1    0    0    0  501  0.00000000000E+00  0.00000000000E+00 -0.36510159356E+03  0.36510159356E+03  0.25500000920E-02 0.  1.
    10030    2    1    2    0    0  0.00000000000E+00  0.00000000000E+00 -0.11854523080E+03  0.61165795634E+03  0.60006040013E+03 0.  0.
        4    1    3    3  502    0 -0.83269831013E+02  0.21334095313E+03 -0.25684412762E+03  0.34412024909E+03  0.12699999809E+01 0.  1.
       -4    1    3    3    0  502  0.83269831013E+02 -0.21334095313E+03  0.13829889682E+03  0.26753770725E+03  0.12699999809E+01 0. -1.
</event>
<event>
 5   0  0.9571790E-03  0.5993343E+03  0.7818609E-02  0.9906788E-01
        2   -1    0    0  501    0  0.00000000000E+00  0.00000000000E+00  0.23323971959E+03  0.23323971960E+03  0.25500000920E-02 0. -1.
       -2   -1    0    0    0  501  0.00000000000E+00  0.00000000000E+00 -0.38501333879E+03  0.38501333880E+03  0.25500000920E-02 0.  1.
    10030    2    1    2    0    0  0.00000000000E+00  0.00000000000E+00 -0.15177361921E+03  0.61825305840E+03  0.59933430799E+03 0.  0.
        5    1    3    3  502    0  0.16241029536E+03  0.24274161443E+03 -0.14491484176E+03  0.32607207298E+03  0.46999998093E+01 0. -1.
       -5    1    3    3    0  502 -0.16241029536E+03 -0.24274161443E+03 -0.68587774425E+01  0.29218098542E+03  0.46999998093E+01 0.  1.
</event>
<event>
 5   0  0.5503975E-03  0.5998345E+03  0.7818609E-02  0.9905749E-01
        1   -1    0    0  501    0  0.00000000000E+00  0.00000000000E+00  0.71128567712E+03  0.71128567714E+03  0.50400001928E-02 0.  1.
       -1   -1    0    0    0  501  0.00000000000E+00  0.00000000000E+00 -0.12646165890E+03  0.12646165901E+03  0.50400001928E-02 0. -1.
    10030    2    1    2    0    0  0.00000000000E+00  0.00000000000E+00  0.58482401821E+03  0.83774733614E+03  0.59983453296E+03 0.  0.
        4    1    3    3  502    0 -0.29833217913E+03 -0.19019106864E-01  0.24944059896E+03  0.38887570608E+03  0.12699999809E+01 0.  1.
       -4    1    3    3    0  502  0.29833217913E+03  0.19019106864E-01  0.33538341925E+03  0.44887163006E+03  0.12699999809E+01 0. -1.
</event>
<event>
 5   0  0.9681801E-03  0.5994377E+03  0.7818609E-02  0.9906573E-01
       -2   -1    0    0    0  501  0.00000000000E+00  0.00000000000E+00  0.23467618066E+03  0.23467618067E+03  0.25500000920E-02 0.  1.
        2   -1    0    0  501    0  0.00000000000E+00  0.00000000000E+00 -0.38278871799E+03  0.38278871800E+03  0.25500000920E-02 0. -1.
    10030    2    1    2    0    0  0.00000000000E+00  0.00000000000E+00 -0.14811253734E+03  0.61746489867E+03  0.59943771768E+03 0.  0.
        4    1    3    3  502    0 -0.15210470929E+03 -0.22863224498E+03 -0.19775619505E+03  0.33840459751E+03  0.12699999809E+01 0. -1.
       -4    1    3    3    0  502  0.15210470929E+03  0.22863224498E+03  0.49643657716E+02  0.27906030116E+03  0.12699999809E+01 0.  1.
</event>
<event>
 5   0  0.9428629E-03  0.5993341E+03  0.7818609E-02  0.9906789E-01
        2   -1    0    0  501    0  0.00000000000E+00  0.00000000000E+00  0.53237840448E+03  0.53237840449E+03  0.25500000920E-02 0.  1.
       -2   -1    0    0    0  501  0.00000000000E+00  0.00000000000E+00 -0.16867766081E+03  0.16867766083E+03  0.25500000920E-02 0. -1.
    10030    2    1    2    0    0  0.00000000000E+00  0.00000000000E+00  0.36370074367E+03  0.70105606531E+03  0.59933411030E+03 0.  0.
        3    1    3    3  502    0 -0.14979757058E+02  0.26288299784E+03  0.34920065302E+03  0.43734765342E+03  0.10100000352E+00 0.  1.
       -3    1    3    3    0  502  0.14979757058E+02 -0.26288299784E+03  0.14500090650E+02  0.26370841190E+03  0.10100000352E+00 0. -1.
</event>
<event>
 5   0  0.5574736E-03  0.6014876E+03  0.7818609E-02  0.9902324E-01
       -1   -1    0    0    0  501  0.00000000000E+00  0.00000000000E+00  0.28149284721E+03  0.28149284725E+03  0.50400001928E-02 0. -1.
        1   -1    0    0  501    0  0.00000000000E+00  0.00000000000E+00 -0.32131133993E+03  0.32131133997E+03  0.50400001928E-02 0.  1.
    10030    2    1    2    0    0  0.00000000000E+00  0.00000000000E+00 -0.39818492720E+02  0.60280418722E+03  0.60148763559E+03 0.  0.
        5    1    3    3  502    0  0.22924225911E+02 -0.25739728630E+03 -0.17401796605E+03  0.31158181210E+03  0.46999998093E+01 0.  1.
       -5    1    3    3    0  502 -0.22924225911E+02  0.25739728630E+03  0.13419947333E+03  0.29122237512E+03  0.46999998093E+01 0. -1.
</event>
<event>
 5   0  0.9530666E-03  0.5992477E+03  0.7818609E-02  0.9906968E-01
       -2   -1    0    0    0  501  0.00000000000E+00  0.00000000000E+00  0.20137517050E+03  0.20137517052E+03  0.25500000920E-02 0.  1.
        2   -1    0    0  501    0  0.00000000000E+00  0.00000000000E+00 -0.44580691042E+03  0.44580691043E+03  0.25500000920E-02 0. -1.
    10030    2    1    2    0    0  0.00000000000E+00  0.00000000000E+00 -0.24443173992E+03  0.64718208094E+03  0.59924767034E+03 0.  0.
        2    1    3    3  502    0  0.29951553193E+02  0.22267336801E+02 -0.44328669586E+03  0.44485506017E+03  0.25500000920E-02 0. -1.
       -2    1    3    3    0  502 -0.29951553193E+02 -0.22267336801E+02  0.19885495594E+03  0.20232702077E+03  0.25500000920E-02 0.  1.
</event>
<event>
 5   0  0.5574736E-03  0.6030061E+03  0.7818609E-02  0.9899189E-01
        1   -1    0    0  501    0  0.00000000000E+00  0.00000000000E+00  0.93509451108E+03  0.93509451109E+03  0.50400001928E-02 0. -1.
       -1   -1    0    0    0  501  0.00000000000E+00  0.00000000000E+00 -0.97213803529E+02  0.97213803659E+02  0.50400001928E-02 0.  1.
    10030    2    1    2    0    0  0.00000000000E+00  0.00000000000E+00  0.83788070755E+03  0.10323083147E+04  0.60300611657E+03 0.  0.
        5    1    3    3  502    0 -0.90877077999E+02  0.17160890810E+03  0.81370324963E+03  0.83656639253E+03  0.46999998093E+01 0. -1.
       -5    1    3    3    0  502  0.90877077999E+02 -0.17160890810E+03  0.24177457916E+02  0.19574192222E+03  0.46999998093E+01 0.  1.
</event>
<event>
 5   0  0.9530666E-03  0.5992805E+03  0.7818609E-02  0.9906900E-01
        2   -1    0    0  501    0  0.00000000000E+00  0.00000000000E+00  0.32843270691E+03  0.32843270692E+03  0.25500000920E-02 0.  1.
       -2   -1    0    0    0  501  0.00000000000E+00  0.00000000000E+00 -0.27337194737E+03  0.27337194738E+03  0.25500000920E-02 0. -1.
    10030    2    1    2    0    0  0.00000000000E+00  0.00000000000E+00  0.55060759541E+02  0.60180465431E+03  0.59928053089E+03 0.  0.
        2    1    3    3  502    0  0.21002366923E+03  0.16028747367E+03  0.16948443887E+03  0.31389009363E+03  0.25500000920E-02 0. -1.
       -2    1    3    3    0  502 -0.21002366923E+03 -0.16028747367E+03 -0.11442367933E+03  0.28791456068E+03  0.25500000920E-02 0.  1.
</event>
<event>
 5   0  0.5491236E-03  0.6009004E+03  0.7818609E-02  0.9903540E-01
        1   -1    0    0  501    0  0.00000000000E+00  0.00000000000E+00  0.12262750181E+04  0.12262750181E+04  0.50400001928E-02 0.  1.
       -1   -1    0    0    0  501  0.00000000000E+00  0.00000000000E+00 -0.73613444425E+02  0.73613444597E+02  0.50400001928E-02 0. -1.
    10030    2    1    2    0    0  0.00000000000E+00  0.00000000000E+00  0.11526615736E+04  0.12998884627E+04  0.60090041774E+03 0.  0.
        3    1    3    3  502    0  0.20976768254E+03 -0.19869251470E+03  0.39808864898E+03  0.49189000669E+03  0.10100000352E+00 0. -1.
       -3    1    3    3    0  502 -0.20976768254E+03  0.19869251470E+03  0.75457292467E+03  0.80799845599E+03  0.10100000352E+00 0.  1.
</event>
<event>
 5   0  0.9428629E-03  0.6001103E+03  0.7818609E-02  0.9905177E-01
       -2   -1    0    0    0  501  0.00000000000E+00  0.00000000000E+00  0.64567527826E+03  0.64567527826E+03  0.25500000920E-02 0. -1.
        2   -1    0    0  501    0  0.00000000000E+00  0.00000000000E+00 -0.13944018856E+03  0.13944018859E+03  0.25500000920E-02 0.  1.
    10030    2    1    2    0    0  0.00000000000E+00  0.00000000000E+00  0.50623508969E+03  0.78511546685E+03  0.60011026507E+03 0.  0.
        3    1    3    3  502    0 -0.12954477030E+03 -0.15624919025E+02  0.60661393804E+03  0.62048889243E+03  0.10100000352E+00 0. -1.
       -3    1    3    3    0  502  0.12954477030E+03  0.15624919025E+02 -0.10037884835E+03  0.16462657441E+03  0.10100000352E+00 0.  1.
</event>
<event>
 5   0  0.5653633E-03  0.6007607E+03  0.7818609E-02  0.9903829E-01
        1   -1    0    0  501    0  0.00000000000E+00  0.00000000000E+00  0.56296650548E+03  0.56296650550E+03  0.50400001928E-02 0.  1.
       -1   -1    0    0    0  501  0.00000000000E+00  0.00000000000E+00 -0.16027302858E+03  0.16027302866E+03  0.50400001928E-02 0. -1.
    10030    2    1    2    0    0  0.00000000000E+00  0.00000000000E+00  0.40269347690E+03  0.72323953416E+03  0.60076067401E+03 0.  0.
        2    1    3    3  502    0  0.25743158574E+02  0.82203240961E+02 -0.14508486305E+03  0.16872966702E+03  0.25500000920E-02 0. -1.
       -2    1    3    3    0  502 -0.25743158574E+02 -0.82203240961E+02  0.54777833995E+03  0.55450986715E+03  0.25500000920E-02 0.  1.
</event>
<event>
 5   0  0.5785798E-03  0.5999687E+03  0.7818609E-02  0.9905471E-01
       -1   -1    0    0    0  501  0.00000000000E+00  0.00000000000E+00  0.10516107376E+03  0.10516107388E+03  0.50400001928E-02 0. -1.
        1   -1    0    0  501    0  0.00000000000E+00  0.00000000000E+00 -0.85574071607E+03  0.85574071609E+03  0.50400001928E-02 0.  1.
    10030    2    1    2    0    0  0.00000000000E+00  0.00000000000E+00 -0.75057964231E+03  0.96090178997E+03  0.59996870795E+03 0.  0.
        1    1    3    3  502    0 -0.77660710648E+02 -0.23699539250E+03 -0.10828747748E+03  0.27189001425E+03  0.50400001928E-02 0. -1.
       -1    1    3    3    0  502  0.77660710648E+02  0.23699539250E+03 -0.64229216483E+03  0.68901177572E+03  0.50400001928E-02 0.  1.
</event>
<event>
 5   0  0.9530666E-03  0.6184075E+03  0.7818609E-02  0.9867935E-01
       -2   -1    0    0    0  501  0.00000000000E+00  0.00000000000E+00  0.90280560289E+02  0.90280560325E+02  0.25500000920E-02 0.  1.
        2   -1    0    0  501    0  0.00000000000E+00  0.00000000000E+00 -0.10589983702E+04  0.10589983702E+04  0.25500000920E-02 0. -1.
    10030    2    1    2    0    0  0.00000000000E+00  0.00000000000E+00 -0.96871780995E+03  0.11492789306E+04  0.61840752335E+03 0.  0.
        2    1    3    3  502    0 -0.30749111845E+03 -0.30542998707E+02 -0.46372229098E+03  0.55724503214E+03  0.25500000920E-02 0. -1.
       -2    1    3    3    0  502  0.30749111845E+03  0.30542998707E+02 -0.50499551897E+03  0.59203389842E+03  0.25500000920E-02 0.  1.
</event>
<event>
 5   0  0.5491236E-03  0.5998186E+03  0.7818609E-02  0.9905782E-01
        1   -1    0    0  501    0  0.00000000000E+00  0.00000000000E+00  0.56573477271E+03  0.56573477273E+03  0.50400001928E-02 0. -1.
       -1   -1    0    0    0  501  0.00000000000E+00  0.00000000000E+00 -0.15898897286E+03  0.15898897294E+03  0.50400001928E-02 0.  1.
    10030    2    1    2    0    0  0.00000000000E+00  0.00000000000E+00  0.40674579985E+03  0.72472374567E+03  0.59981860745E+03 0.  0.
        3    1    3    3  502    0  0.10971410830E+03  0.37752589158E+02 -0.13077243518E+03  0.17482529437E+03  0.10100000352E+00 0. -1.
       -3    1    3    3    0  502 -0.10971410830E+03 -0.37752589158E+02  0.53751823503E+03  0.54989845130E+03  0.10100000352E+00 0.  1.
</event>
<event>
 5   0  0.9681801E-03  0.5998788E+03  0.7818609E-02  0.9905658E-01
        2   -1    0    0  501    0  0.00000000000E+00  0.00000000000E+00  0.10074010645E+04  0.10074010645E+04  0.25500000920E-02 0. -1.
       -2   -1    0    0    0  501  0.00000000000E+00  0.00000000000E+00 -0.89302700215E+02  0.89302700252E+02  0.25500000920E-02 0.  1.
    10030    2    1    2    0    0  0.00000000000E+00  0.00000000000E+00  0.91809836424E+03  0.10967037647E+04  0.59987877201E+03 0.  0.
        4    1    3    3  502    0  0.18934730234E+03 -0.96047572653E+02  0.71725577424E+02  0.22410646682E+03  0.12699999809E+01 0.  1.
       -4    1    3    3    0  502 -0.18934730234E+03  0.96047572653E+02  0.84637278682E+03  0.87259729789E+03  0.12699999809E+01 0. -1.
</event>
<event>
 5   0  0.9428629E-03  0.6000522E+03  0.7818609E-02  0.9905298E-01
       -2   -1    0    0    0  501  0.00000000000E+00  0.00000000000E+00  0.13278741451E+03  0.13278741453E+03  0.25500000920E-02 0.  1.
        2   -1    0    0  501    0  0.00000000000E+00  0.00000000000E+00 -0.67789300948E+03  0.67789300948E+03  0.25500000920E-02 0. -1.
    10030    2    1    2    0    0  0.00000000000E+00  0.00000000000E+00 -0.54510559497E+03  0.81068042402E+03  0.60005219791E+03 0.  0.
        3    1    3    3  502    0 -0.90865116713E+01  0.27115602028E+03 -0.44560687348E+03  0.52170264320E+03  0.10100000352E+00 0. -1.
       -3    1    3    3    0  502  0.90865116713E+01 -0.27115602028E+03 -0.99498721490E+02  0.28897778082E+03  0.10100000352E+00 0.  1.
</event>
<event>
 5   0  0.3794375E-03  0.6010327E+03  0.7818609E-02  0.9903266E-01
        4   -1    0    0  501    0  0.00000000000E+00  0.00000000000E+00  0.25262324101E+03  0.25262643330E+03  0.12699999809E+01 0. -1.
       -4   -1    0    0    0  501  0.00000000000E+00  0.00000000000E+00 -0.35748263925E+03  0.35748489516E+03  0.12699999809E+01 0.  1.
    10030    2    1    2    0    0  0.00000000000E+00  0.00000000000E+00 -0.10485939824E+03  0.61011132846E+03  0.60103272765E+03 0.  0.
        2    1    3    3  502    0 -0.26482353658E+02 -0.78429421428E+02 -0.34568367073E+03  0.35545701487E+03  0.25500000920E-02 0.  1.
       -2    1    3    3    0  502  0.26482353658E+02  0.78429421428E+02  0.24082427249E+03  0.25465431359E+03  0.25500000920E-02 0. -1.
</event>
<event>
 5   0  0.5503975E-03  0.6006552E+03  0.7818609E-02  0.9904048E-01
        1   -1    0    0  501    0  0.00000000000E+00  0.00000000000E+00  0.19804986928E+03  0.19804986934E+03  0.50400001928E-02 0. -1.
       -1   -1    0    0    0  501  0.00000000000E+00  0.00000000000E+00 -0.45542409149E+03  0.45542409151E+03  0.50400001928E-02 0.  1.
    10030    2    1    2    0    0  0.00000000000E+00  0.00000000000E+00 -0.25737422221E+03  0.65347396085E+03  0.60065524825E+03 0.  0.
        4    1    3    3  502    0  0.89746195747E+02 -0.44862855627E+02  0.17927351832E+03  0.20544503581E+03  0.12699999809E+01 0. -1.
       -4    1    3    3    0  502 -0.89746195747E+02  0.44862855627E+02 -0.43664774053E+03  0.44802892505E+03  0.12699999809E+01 0.  1.
</event>
<event>
 5   0  0.5785798E-03  0.6013841E+03  0.7818609E-02  0.9902539E-01
        1   -1    0    0  501    0  0.00000000000E+00  0.00000000000E+00  0.12348118152E+03  0.12348118162E+03  0.50400001928E-02 0. -1.
       -1   -1    0    0    0  501  0.00000000000E+00  0.00000000000E+00 -0.73222252017E+03  0.73222252019E+03  0.50400001928E-02 0.  1.
    10030    2    1    2    0    0  0.00000000000E+00  0.00000000000E+00 -0.60874133865E+03  0.85570370181E+03  0.60138407687E+03 0.  0.
        1    1    3    3  502    0  0.17012220039E+03  0.14085182542E+03 -0.59470624876E+03  0.63439445310E+03  0.50400001928E-02 0.  1.
       -1    1    3    3    0  502 -0.17012220039E+03 -0.14085182542E+03 -0.14035089891E+02  0.22130924871E+03  0.50400001928E-02 0. -1.
</event>
<event>
 5   0  0.5574736E-03  0.5998042E+03  0.7818609E-02  0.9905812E-01
       -1   -1    0    0    0  501  0.00000000000E+00  0.00000000000E+00  0.33728467619E+03  0.33728467623E+03  0.50400001928E-02 0. -1.
        1   -1    0    0  501    0  0.00000000000E+00  0.00000000000E+00 -0.26666278987E+03  0.26666278992E+03  0.50400001928E-02 0.  1.
    10030    2    1    2    0    0  0.00000000000E+00  0.00000000000E+00  0.70621886323E+02  0.60394746614E+03  0.59980421058E+03 0.  0.
        5    1    3    3  502    0  0.21022835645E+02 -0.19329275942E+03  0.26517526911E+03  0.32885264756E+03  0.46999998093E+01 0. -1.
       -5    1    3    3    0  502 -0.21022835645E+02  0.19329275942E+03 -0.19455338279E+03  0.27509481859E+03  0.46999998093E+01 0.  1.
</event>
<event>
 5   0  0.9681801E-03  0.6005526E+03  0.7818609E-02  0.9904260E-01
       -2   -1    0    0    0  501  0.00000000000E+00  0.00000000000E+00  0.62946667815E+02  0.62946667867E+02  0.25500000920E-02 0.  1.
        2   -1    0    0  501    0  0.00000000000E+00  0.00000000000E+00 -0.14324166371E+04  0.14324166371E+04  0.25500000920E-02 0. -1.
    10030    2    1    2    0    0  0.00000000000E+00  0.00000000000E+00 -0.13694699693E+04  0.14953633050E+04  0.60055259310E+03 0.  0.
        4    1    3    3  502    0  0.17332843110E+03 -0.15005710122E+03 -0.20188214570E+03  0.30547977398E+03  0.12699999809E+01 0.  1.
       -4    1    3    3    0  502 -0.17332843110E+03  0.15005710122E+03 -0.11675878236E+04  0.11898835310E+04  0.12699999809E+01 0. -1.
</event>
<event>
 5   0  0.9866317E-03  0.5999643E+03  0.7818609E-02  0.9905480E-01
        2   -1    0    0  501    0  0.00000000000E+00  0.00000000000E+00  0.41368690928E+03  0.41368690929E+03  0.25500000920E-02 0.  1.
       -2   -1    0    0    0  501  0.00000000000E+00  0.00000000000E+00 -0.21752993836E+03  0.21752993837E+03  0.25500000920E-02 0. -1.
    10030    2    1    2    0    0  0.00000000000E+00  0.00000000000E+00  0.19615697093E+03  0.63121684766E+03  0.59996429188E+03 0.  0.
        1    1    3    3  502    0 -0.11124130475E+03 -0.92869210308E+02  0.37442001437E+03  0.40148432757E+03  0.50400001928E-02 0.  1.
       -1    1    3    3    0  502  0.11124130475E+03  0.92869210308E+02 -0.17826304344E+03  0.22973252009E+03  0.50400001928E-02 0. -1.
</event>
<event>
 5   0  0.9571790E-03  0.5985931E+03  0.7818609E-02  0.9908329E-01
       -2   -1    0    0    0  501  0.00000000000E+00  0.00000000000E+00  0.19044649685E+03  0.19044649687E+03  0.25500000920E-02 0.  1.
        2   -1    0    0  501    0  0.00000000000E+00  0.00000000000E+00 -0.47036003105E+03  0.47036003106E+03  0.25500000920E-02 0. -1.
    10030    2    1    2    0    0  0.00000000000E+00  0.00000000000E+00 -0.27991353420E+03  0.66080652793E+03  0.59859308443E+03 0.  0.
        5    1    3    3  502    0  0.28694087433E+03 -0.80933956142E+02 -0.16855181340E+03  0.34251594768E+03  0.46999998093E+01 0. -1.
       -5    1    3    3    0  502 -0.28694087433E+03  0.80933956142E+02 -0.11136172080E+03  0.31829058025E+03  0.46999998093E+01 0.  1.
</event>
<event>
 5   0  0.9681801E-03  0.6011426E+03  0.7818609E-02  0.9903038E-01
       -2   -1    0    0    0  501  0.00000000000E+00  0.00000000000E+00  0.14762479804E+03  0.14762479806E+03  0.25500000920E-02 0.  1.
        2   -1    0    0  501    0  0.00000000000E+00  0.00000000000E+00 -0.61197792024E+03  0.61197792025E+03  0.25500000920E-02 0. -1.
    10030    2    1    2    0    0  0.00000000000E+00  0.00000000000E+00 -0.46435312220E+03  0.75960271831E+03  0.60114263495E+03 0.  0.
        4    1    3    3  502    0 -0.12852768002E+03  0.26947217528E+03 -0.18827882314E+03  0.35296621074E+03  0.12699999809E+01 0.  1.
       -4    1    3    3    0  502  0.12852768002E+03 -0.26947217528E+03 -0.27607429906E+03  0.40663650756E+03  0.12699999809E+01 0. -1.
</event>
<event>
 5   0  0.9530666E-03  0.6005014E+03  0.7818609E-02  0.9904366E-01
       -2   -1    0    0    0  501  0.00000000000E+00  0.00000000000E+00  0.14309569776E+03  0.14309569778E+03  0.25500000920E-02 0. -1.
        2   -1    0    0  501    0  0.00000000000E+00  0.00000000000E+00 -0.63000131989E+03  0.63000131990E+03  0.25500000920E-02 0.  1.
    10030    2    1    2    0    0  0.00000000000E+00  0.00000000000E+00 -0.48690562213E+03  0.77309701768E+03  0.60050138541E+03 0.  0.
        2    1    3    3  502    0 -0.16669740906E+03 -0.86806138503E+02  0.57998936806E+02  0.19669064174E+03  0.25500000920E-02 0. -1.
       -2    1    3    3    0  502  0.16669740906E+03  0.86806138503E+02 -0.54490455894E+03  0.57640637594E+03  0.25500000920E-02 0.  1.
</event>
<event>
 5   0  0.9571790E-03  0.5997760E+03  0.7818609E-02  0.9905871E-01
        2   -1    0    0  501    0  0.00000000000E+00  0.00000000000E+00  0.48078593970E+03  0.48078593971E+03  0.25500000920E-02 0.  1.
       -2   -1    0    0    0  501  0.00000000000E+00  0.00000000000E+00 -0.18705375989E+03  0.18705375991E+03  0.25500000920E-02 0. -1.
    10030    2    1    2    0    0  0.00000000000E+00  0.00000000000E+00  0.29373217981E+03  0.66783969962E+03  0.59977601730E+03 0.  0.
        5    1    3    3  502    0  0.11818289753E+03  0.65782043157E+02  0.44484733754E+03  0.46497926640E+03  0.46999998093E+01 0.  1.
       -5    1    3    3    0  502 -0.11818289753E+03 -0.65782043157E+02 -0.15111515773E+03  0.20286043322E+03  0.46999998093E+01 0. -1.
</event>
<event>
 5   0  0.9571790E-03  0.6002824E+03  0.7818609E-02  0.9904820E-01
        2   -1    0    0  501    0  0.00000000000E+00  0.00000000000E+00  0.42413437434E+03  0.42413437435E+03  0.25500000920E-02 0. -1.
       -2   -1    0    0    0  501  0.00000000000E+00  0.00000000000E+00 -0.21239666411E+03  0.21239666413E+03  0.25500000920E-02 0.  1.
    10030    2    1    2    0    0  0.00000000000E+00  0.00000000000E+00  0.21173771023E+03  0.63653103848E+03  0.60028235441E+03 0.  0.
        5    1    3    3  502    0  0.36710721303E+02 -0.62439743870E+02  0.41468749792E+03  0.42099193531E+03  0.46999998093E+01 0. -1.
       -5    1    3    3    0  502 -0.36710721303E+02  0.62439743870E+02 -0.20294978769E+03  0.21553910317E+03  0.46999998093E+01 0.  1.
</event>
<event>
 5   0  0.5653633E-03  0.6097813E+03  0.7818609E-02  0.9885318E-01
       -1   -1    0    0    0  501  0.00000000000E+00  0.00000000000E+00  0.34103557381E+03  0.34103557384E+03  0.50400001928E-02 0. -1.
        1   -1    0    0  501    0  0.00000000000E+00  0.00000000000E+00 -0.27257660157E+03  0.27257660162E+03  0.50400001928E-02 0.  1.
    10030    2    1    2    0    0  0.00000000000E+00  0.00000000000E+00  0.68458972234E+02  0.61361217546E+03  0.60978133048E+03 0.  0.
        2    1    3    3  502    0  0.21342064454E+03 -0.90213060625E+01 -0.18468852845E+03  0.28238202498E+03  0.25500000920E-02 0.  1.
       -2    1    3    3    0  502 -0.21342064454E+03  0.90213060625E+01  0.25314750069E+03  0.33123015049E+03  0.25500000920E-02 0. -1.
</event>
<event>
 5   0  0.5653633E-03  0.6020754E+03  0.7818609E-02  0.9901110E-01
       -1   -1    0    0    0  501  0.00000000000E+00  0.00000000000E+00  0.15996839388E+03  0.15996839396E+03  0.50400001928E-02 0.  1.
        1   -1    0    0  501    0  0.00000000000E+00  0.00000000000E+00 -0.56651007565E+03  0.56651007567E+03  0.50400001928E-02 0. -1.
    10030    2    1    2    0    0  0.00000000000E+00  0.00000000000E+00 -0.40654168177E+03  0.72647846963E+03  0.60207543366E+03 0.  0.
        2    1    3    3  502    0 -0.23650132842E+03 -0.13566192043E+03 -0.49282437853E+02  0.27706640663E+03  0.25500000920E-02 0.  1.
       -2    1    3    3    0  502  0.23650132842E+03  0.13566192043E+03 -0.35725924391E+03  0.44941206299E+03  0.25500000920E-02 0. -1.
</event>
<event>
 5   0  0.3794375E-03  0.6001310E+03  0.7818609E-02  0.9905134E-01
        4   -1    0    0  501    0  0.00000000000E+00  0.00000000000E+00  0.10694129280E+03  0.10694883358E+03  0.12699999809E+01 0.  1.
       -4   -1    0    0    0  501  0.00000000000E+00  0.00000000000E+00 -0.84191318199E+03  0.84191413987E+03  0.12699999809E+01 0. -1.
    10030    2    1    2    0    0  0.00000000000E+00  0.00000000000E+00 -0.73497188920E+03  0.94886297345E+03  0.60013103942E+03 0.  0.
        1    1    3    3  502    0 -0.15220381032E+02  0.25843712245E+03 -0.12760798136E+03  0.28862640764E+03  0.50400001928E-02 0.  1.
       -1    1    3    3    0  502  0.15220381032E+02 -0.25843712245E+03 -0.60736390784E+03  0.66023656581E+03  0.50400001928E-02 0. -1.
</event>
<event>
 5   0  0.5491236E-03  0.5991479E+03  0.7818609E-02  0.9907176E-01
        1   -1    0    0  501    0  0.00000000000E+00  0.00000000000E+00  0.17318587004E+03  0.17318587011E+03  0.50400001928E-02 0.  1.
       -1   -1    0    0    0  501  0.00000000000E+00  0.00000000000E+00 -0.51819780858E+03  0.51819780861E+03  0.50400001928E-02 0. -1.
    10030    2    1    2    0    0  0.00000000000E+00  0.00000000000E+00 -0.34501193854E+03  0.69138367872E+03  0.59914785609E+03 0.  0.
        3    1    3    3  502    0 -0.28296406358E+03  0.41947649847E+02 -0.27517635200E+03  0.39692606554E+03  0.10100000352E+00 0.  1.
       -3    1    3    3    0  502  0.28296406358E+03 -0.41947649847E+02 -0.69835586541E+02  0.29445761317E+03  0.10100000352E+00 0. -1.
</event>
<event>
 5   0  0.9428629E-03  0.6000482E+03  0.7818609E-02  0.9905306E-01
       -2   -1    0    0    0  501  0.00000000000E+00  0.00000000000E+00  0.19414487704E+03  0.19414487706E+03  0.25500000920E-02 0.  1.
        2   -1    0    0  501    0  0.00000000000E+00  0.00000000000E+00 -0.46364585717E+03  0.46364585717E+03  0.25500000920E-02 0. -1.
    10030    2    1    2    0    0  0.00000000000E+00  0.00000000000E+00 -0.26950098012E+03  0.65779073423E+03  0.60004822453E+03 0.  0.
        3    1    3    3  502    0 -0.59260762139E+02  0.24174835428E+03 -0.31838240442E+03  0.40413051156E+03  0.10100000352E+00 0. -1.
       -3    1    3    3    0  502  0.59260762139E+02 -0.24174835428E+03  0.48881424296E+02  0.25366022268E+03  0.10100000352E+00 0.  1.
</event>
<event>
 5   0  0.5785798E-03  0.6002708E+03  0.7818609E-02  0.9904844E-01
        1   -1    0    0  501    0  0.00000000000E+00  0.00000000000E+00  0.41833378938E+03  0.41833378941E+03  0.50400001928E-02 0.  1.
       -1   -1    0    0    0  501  0.00000000000E+00  0.00000000000E+00 -0.21533344394E+03  0.21533344400E+03  0.50400001928E-02 0. -1.
    10030    2    1    2    0    0  0.00000000000E+00  0.00000000000E+00  0.20300034544E+03  0.63366723341E+03  0.60027079093E+03 0.  0.
        1    1    3    3  502    0 -0.10395385700E+02 -0.20494518817E+03 -0.12970731383E+03  0.24276445680E+03  0.50400001928E-02 0. -1.
       -1    1    3    3    0  502  0.10395385700E+02  0.20494518817E+03  0.33270765927E+03  0.39090277661E+03  0.50400001928E-02 0.  1.
</event>
<event>
 5   0  0.5653633E-03  0.5984089E+03  0.7818609E-02  0.9908713E-01
       -1   -1    0    0    0  501  0.00000000000E+00  0.00000000000E+00  0.21037804411E+03  0.21037804417E+03  0.50400001928E-02 0. -1.
        1   -1    0    0  501    0  0.00000000000E+00  0.00000000000E+00 -0.42553532650E+03  0.42553532653E+03  0.50400001928E-02 0.  1.
    10030    2    1    2    0    0  0.00000000000E+00  0.00000000000E+00 -0.21515728239E+03  0.63591337070E+03  0.59840885594E+03 0.  0.
        2    1    3    3  502    0  0.62617319839E+02  0.27166277893E+03 -0.22302284882E+03  0.35701650564E+03  0.25500000920E-02 0.  1.
       -2    1    3    3    0  502 -0.62617319839E+02 -0.27166277893E+03  0.78655664378E+01  0.27889686506E+03  0.25500000920E-02 0. -1.
</event>
<event>
 5   0  0.5574736E-03  0.5995936E+03  0.7818609E-02  0.9906250E-01
        1   -1    0    0  501    0  0.00000000000E+00  0.00000000000E+00  0.36172159464E+03  0.36172159468E+03  0.50400001928E-02 0.  1.
       -1   -1    0    0    0  501  0.00000000000E+00  0.00000000000E+00 -0.24847318799E+03  0.24847318804E+03  0.50400001928E-02 0. -1.
    10030    2    1    2    0    0  0.00000000000E+00  0.00000000000E+00  0.11324840665E+03  0.61019478271E+03  0.59959358839E+03 0.  0.
        5    1    3    3  502    0 -0.15744643263E+03 -0.19013341439E+03  0.22967759590E+03  0.33721503892E+03  0.46999998093E+01 0.  1.
       -5    1    3    3    0  502  0.15744643263E+03  0.19013341439E+03 -0.11642918925E+03  0.27297974380E+03  0.46999998093E+01 0. -1.
</event>
<event>
 5   0  0.9530666E-03  0.6001008E+03  0.7818609E-02  0.9905197E-01
       -2   -1    0    0    0  501  0.00000000000E+00  0.00000000000E+00  0.20847443368E+03  0.20847443370E+03  0.25500000920E-02 0. -1.
        2   -1    0    0  501    0  0.00000000000E+00  0.00000000000E+00 -0.43185273777E+03  0.43185273778E+03  0.25500000920E-02 0.  1.
    10030    2    1    2    0    0  0.00000000000E+00  0.00000000000E+00 -0.22337830409E+03  0.64032717148E+03  0.60010084135E+03 0.  0.
        2    1    3    3  502    0  0.19678172646E+03  0.18392675700E+03  0.29377867333E+02  0.27095231851E+03  0.25500000920E-02 0. -1.
       -2    1    3    3    0  502 -0.19678172646E+03 -0.18392675700E+03 -0.25275617142E+03  0.36937485297E+03  0.25500000920E-02 0.  1.
</event>
<event>
 5   0  0.9681801E-03  0.6001009E+03  0.7818609E-02  0.9905197E-01
        2   -1    0    0  501    0  0.00000000000E+00  0.00000000000E+00  0.78961615179E+03  0.78961615179E+03  0.25500000920E-02 0.  1.
       -2   -1    0    0    0  501  0.00000000000E+00  0.00000000000E+00 -0.11401776283E+03  0.11401776286E+03  0.25500000920E-02 0. -1.
    10030    2    1    2    0    0  0.00000000000E+00  0.00000000000E+00  0.67559838896E+03  0.90363391466E+03  0.60010088199E+03 0.  0.
        4    1    3    3  502    0  0.16970765474E+03 -0.33497213720E+02 -0.31371160931E+02  0.17580817399E+03  0.12699999809E+01 0. -1.
       -4    1    3    3    0  502 -0.16970765474E+03  0.33497213720E+02  0.70696954989E+03  0.72782574066E+03  0.12699999809E+01 0.  1.
</event>
<event>
 5   0  0.5491236E-03  0.5994529E+03  0.7818609E-02  0.9906542E-01
       -1   -1    0    0    0  501  0.00000000000E+00  0.00000000000E+00  0.19105432476E+03  0.19105432483E+03  0.50400001928E-02 0. -1.
        1   -1    0    0  501    0  0.00000000000E+00  0.00000000000E+00 -0.47021152310E+03  0.47021152313E+03  0.50400001928E-02 0.  1.
    10030    2    1    2    0    0  0.00000000000E+00  0.00000000000E+00 -0.27915719834E+03  0.66126584796E+03  0.59945290081E+03 0.  0.
        3    1    3    3  502    0 -0.19368795343E+03 -0.47830280299E+02  0.10716736767E+03  0.22646768844E+03  0.10100000352E+00 0. -1.
       -3    1    3    3    0  502  0.19368795343E+03  0.47830280299E+02 -0.38632456601E+03  0.43479815952E+03  0.10100000352E+00 0.  1.
</event>
<event>
 5   0  0.9530666E-03  0.6010147E+03  0.7818609E-02  0.9903303E-01
        2   -1    0    0  501    0  0.00000000000E+00  0.00000000000E+00  0.75546213668E+03  0.75546213669E+03  0.25500000920E-02 0. -1.
       -2   -1    0    0    0  501  0.00000000000E+00  0.00000000000E+00 -0.11953566166E+03  0.11953566169E+03  0.25500000920E-02 0.  1.
    10030    2    1    2    0    0  0.00000000000E+00  0.00000000000E+00  0.63592647502E+03  0.87499779838E+03  0.60101469660E+03 0.  0.
        2    1    3    3  502    0  0.18565277023E+03 -0.19415705986E+03  0.12187592057E+03  0.29498755060E+03  0.25500000920E-02 0.  1.
       -2    1    3    3    0  502 -0.18565277023E+03  0.19415705986E+03  0.51405055445E+03  0.58001024777E+03  0.25500000920E-02 0. -1.
</event>
<event>
 5   0  0.5574736E-03  0.5971742E+03  0.7818609E-02  0.9911286E-01
       -1   -1    0    0    0  501  0.00000000000E+00  0.00000000000E+00  0.35687877880E+03  0.35687877884E+03  0.50400001928E-02 0. -1.
        1   -1    0    0  501    0  0.00000000000E+00  0.00000000000E+00 -0.24981659798E+03  0.24981659803E+03  0.50400001928E-02 0.  1.
    10030    2    1    2    0    0  0.00000000000E+00  0.00000000000E+00  0.10706218083E+03  0.60669537687E+03  0.59717415362E+03 0.  0.
        5    1    3    3  502    0 -0.21535504624E+03  0.18091182876E+03 -0.48191556083E+02  0.28539691975E+03  0.46999998093E+01 0. -1.
       -5    1    3    3    0  502  0.21535504624E+03 -0.18091182876E+03  0.15525373691E+03  0.32129845712E+03  0.46999998093E+01 0.  1.
</event>
<event>
 5   0  0.5574736E-03  0.5983559E+03  0.7818609E-02  0.9908823E-01
        1   -1    0    0  501    0  0.00000000000E+00  0.00000000000E+00  0.35273898585E+03  0.35273898588E+03  0.50400001928E-02 0. -1.
       -1   -1    0    0    0  501  0.00000000000E+00  0.00000000000E+00 -0.25374976139E+03  0.25374976144E+03  0.50400001928E-02 0.  1.
    10030    2    1    2    0    0  0.00000000000E+00  0.00000000000E+00  0.98989224458E+02  0.60648874732E+03  0.59835585906E+03 0.  0.
        5    1    3    3  502    0 -0.23657535869E+03 -0.18012690497E+03  0.82677041732E+02  0.30866030755E+03  0.46999998093E+01 0.  1.
       -5    1    3    3    0  502  0.23657535869E+03  0.18012690497E+03  0.16312182727E+02  0.29782843977E+03  0.46999998093E+01 0. -1.
</event>
<event>
 5   0  0.5503975E-03  0.5997298E+03  0.7818609E-02  0.9905967E-01
        1   -1    0    0  501    0  0.00000000000E+00  0.00000000000E+00  0.13260494092E+03  0.13260494102E+03  0.50400001928E-02 0. -1.
       -1   -1    0    0    0  501  0.00000000000E+00  0.00000000000E+00 -0.67809656222E+03  0.67809656224E+03  0.50400001928E-02 0.  1.
    10030    2    1    2    0    0  0.00000000000E+00  0.00000000000E+00 -0.54549162130E+03  0.81070150326E+03  0.59972978789E+03 0.  0.
        4    1    3    3  502    0  0.54476750217E+02 -0.11031114120E+03  0.96913132364E+02  0.15662066375E+03  0.12699999809E+01 0. -1.
       -4    1    3    3    0  502 -0.54476750217E+02  0.11031114120E+03 -0.64240475366E+03  0.65408083951E+03  0.12699999809E+01 0.  1.
</event>
<event>
 5   0  0.5653633E-03  0.6013391E+03  0.7818609E-02  0.9902632E-01
        1   -1    0    0  501    0  0.00000000000E+00  0.00000000000E+00  0.16526318093E+04  0.16526318094E+04  0.50400001928E-02 0. -1.
       -1   -1    0    0    0  501  0.00000000000E+00  0.00000000000E+00 -0.54701949571E+02  0.54701949804E+02  0.50400001928E-02 0.  1.
    10030    2    1    2    0    0  0.00000000000E+00  0.00000000000E+00  0.15979298598E+04  0.17073337592E+04  0.60133911265E+03 0.  0.
        2    1    3    3  502    0  0.14783024509E+03 -0.26173664031E+02  0.59331400396E+02  0.16142817949E+03  0.25500000920E-02 0.  1.
       -2    1    3    3    0  502 -0.14783024509E+03  0.26173664031E+02  0.15385984594E+04  0.15459055797E+04  0.25500000920E-02 0. -1.
</event>
<event>
 5   0  0.5574736E-03  0.5995452E+03  0.7818609E-02  0.9906350E-01
       -1   -1    0    0    0  501  0.00000000000E+00  0.00000000000E+00  0.92115865400E+03  0.92115865402E+03  0.50400001928E-02 0.  1.
        1   -1    0    0  501    0  0.00000000000E+00  0.00000000000E+00 -0.97554964503E+02  0.97554964634E+02  0.50400001928E-02 0. -1.
    10030    2    1    2    0    0  0.00000000000E+00  0.00000000000E+00  0.82360368950E+03  0.10187136187E+04  0.59954516049E+03 0.  0.
        5    1    3    3  502    0  0.19965294479E+03  0.16621775390E+02  0.79061544824E+03  0.81561783869E+03  0.46999998093E+01 0.  1.
       -5    1    3    3    0  502 -0.19965294479E+03 -0.16621775390E+02  0.32988241257E+02  0.20309577997E+03  0.46999998093E+01 0. -1.
</event>
<event>
 5   0  0.5785798E-03  0.5983843E+03  0.7818609E-02  0.9908764E-01
        1   -1    0    0  501    0  0.00000000000E+00  0.00000000000E+00  0.76118080125E+03  0.76118080127E+03  0.50400001928E-02 0.  1.
       -1   -1    0    0    0  501  0.00000000000E+00  0.00000000000E+00 -0.11760141705E+03  0.11760141716E+03  0.50400001928E-02 0. -1.
    10030    2    1    2    0    0  0.00000000000E+00  0.00000000000E+00  0.64357938420E+03  0.87878221843E+03  0.59838429430E+03 0.  0.
        1    1    3    3  502    0  0.18171971777E+03 -0.10984353339E+02 -0.26898732575E+02  0.18402786116E+03  0.50400001928E-02 0. -1.
       -1    1    3    3    0  502 -0.18171971777E+03  0.10984353339E+02  0.67047811677E+03  0.69475435727E+03  0.50400001928E-02 0.  1.
</event>
<event>
 5   0  0.9428629E-03  0.6032457E+03  0.7818609E-02  0.9898695E-01
        2   -1    0    0  501    0  0.00000000000E+00  0.00000000000E+00  0.25310952909E+03  0.25310952910E+03  0.25500000920E-02 0.  1.
       -2   -1    0    0    0  501  0.00000000000E+00  0.00000000000E+00 -0.35943466991E+03  0.35943466992E+03  0.25500000920E-02 0. -1.
    10030    2    1    2    0    0  0.00000000000E+00  0.00000000000E+00 -0.10632514082E+03  0.61254419902E+03  0.60324568808E+03 0.  0.
        3    1    3    3  502    0  0.21258623021E+03 -0.13799905918E+02  0.16365387926E+03  0.26863719973E+03  0.10100000352E+00 0.  1.
       -3    1    3    3    0  502 -0.21258623021E+03  0.13799905918E+02 -0.26997902008E+03  0.34390699929E+03  0.10100000352E+00 0. -1.
</event>
<event>
 5   0  0.9428629E-03  0.5995645E+03  0.7818609E-02  0.9906310E-01
        2   -1    0    0  501    0  0.00000000000E+00  0.00000000000E+00  0.60608965280E+03  0.60608965281E+03  0.25500000920E-02 0. -1.
       -2   -1    0    0    0  501  0.00000000000E+00  0.00000000000E+00 -0.14827742276E+03  0.14827742278E+03  0.25500000920E-02 0.  1.
    10030    2    1    2    0    0  0.00000000000E+00  0.00000000000E+00  0.45781223005E+03  0.75436707559E+03  0.59956454761E+03 0.  0.
        3    1    3    3  502    0  0.22788572924E+03  0.17759722627E+03  0.32953565532E+03  0.43825385189E+03  0.10100000352E+00 0. -1.
       -3    1    3    3    0  502 -0.22788572924E+03 -0.17759722627E+03  0.12827657472E+03  0.31611322369E+03  0.10100000352E+00 0.  1.
</event>
<event>
 5   0  0.5574736E-03  0.5976089E+03  0.7818609E-02  0.9910379E-01
        1   -1    0    0  501    0  0.00000000000E+00  0.00000000000E+00  0.11666348495E+04  0.11666348495E+04  0.50400001928E-02 0.  1.
       -1   -1    0    0    0  501  0.00000000000E+00  0.00000000000E+00 -0.76531307921E+02  0.76531308086E+02  0.50400001928E-02 0. -1.
    10030    2    1    2    0    0  0.00000000000E+00  0.00000000000E+00  0.10901035416E+04  0.12431661576E+04  0.59760887212E+03 0.  0.
        5    1    3    3  502    0 -0.28807812967E+03  0.50920944735E+02  0.41885769164E+03  0.51092642058E+03  0.46999998093E+01 0. -1.
       -5    1    3    3    0  502  0.28807812967E+03 -0.50920944735E+02  0.67124584994E+03  0.73223973702E+03  0.46999998093E+01 0.  1.
</event>
<event>
 5   0  0.5785798E-03  0.5992746E+03  0.7818609E-02  0.9906912E-01
       -1   -1    0    0    0  501  0.00000000000E+00  0.00000000000E+00  0.18985321949E+03  0.18985321956E+03  0.50400001928E-02 0.  1.
        1   -1    0    0  501    0  0.00000000000E+00  0.00000000000E+00 -0.47290489850E+03  0.47290489853E+03  0.50400001928E-02 0. -1.
    10030    2    1    2    0    0  0.00000000000E+00  0.00000000000E+00 -0.28305167901E+03  0.66275811808E+03  0.59927461993E+03 0.  0.
        1    1    3    3  502    0  0.12891801840E+03  0.80046774084E+02 -0.42726623633E+03  0.45341347383E+03  0.50400001928E-02 0. -1.
       -1    1    3    3    0  502 -0.12891801840E+03 -0.80046774084E+02  0.14421455732E+03  0.20934464426E+03  0.50400001928E-02 0.  1.
</event>
<event>
 5   0  0.5491236E-03  0.6020758E+03  0.7818609E-02  0.9901109E-01
        1   -1    0    0  501    0  0.00000000000E+00  0.00000000000E+00  0.12096006053E+04  0.12096006053E+04  0.50400001928E-02 0.  1.
       -1   -1    0    0    0  501  0.00000000000E+00  0.00000000000E+00 -0.74920448537E+02  0.74920448707E+02  0.50400001928E-02 0. -1.
    10030    2    1    2    0    0  0.00000000000E+00  0.00000000000E+00  0.11346801568E+04  0.12845210540E+04  0.60207580924E+03 0.  0.
        3    1    3    3  502    0  0.92558684594E+02  0.27117697556E+03  0.37041391736E+03  0.46830603514E+03  0.10100000352E+00 0. -1.
       -3    1    3    3    0  502 -0.92558684594E+02 -0.27117697556E+03  0.76426623943E+03  0.81621501891E+03  0.10100000352E+00 0.  1.
</event>
<event>
 5   0  0.9530666E-03  0.5994315E+03  0.7818609E-02  0.9906586E-01
        2   -1    0    0  501    0  0.00000000000E+00  0.00000000000E+00  0.86404316101E+03  0.86404316101E+03  0.25500000920E-02 0.  1.
       -2   -1    0    0    0  501  0.00000000000E+00  0.00000000000E+00 -0.10396417923E+03  0.10396417926E+03  0.25500000920E-02 0. -1.
    10030    2    1    2    0    0  0.00000000000E+00  0.00000000000E+00  0.76007898178E+03  0.96800734027E+03  0.59943152425E+03 0.  0.
        2    1    3    3  502    0  0.26843472561E+03 -0.28771945901E+02  0.59024959883E+03  0.64906056398E+03  0.25500000920E-02 0.  1.
       -2    1    3    3    0  502 -0.26843472561E+03  0.28771945901E+02  0.16982938295E+03  0.31894677629E+03  0.25500000920E-02 0. -1.
</event>
<event>
 5   0  0.9530666E-03  0.6090588E+03  0.7818609E-02  0.9886788E-01
       -2   -1    0    0    0  501  0.00000000000E+00  0.00000000000E+00  0.17323745589E+03  0.17323745590E+03  0.25500000920E-02 0. -1.
        2   -1    0    0  501    0  0.00000000000E+00  0.00000000000E+00 -0.53532391580E+03  0.53532391580E+03  0.25500000920E-02 0.  1.
    10030    2    1    2    0    0  0.00000000000E+00  0.00000000000E+00 -0.36208645991E+03  0.70856137171E+03  0.60905879275E+03 0.  0.
        2    1    3    3  502    0  0.16265657393E+03  0.39420791995E+02  0.11493582021E+03  0.20303054612E+03  0.25500000920E-02 0. -1.
       -2    1    3    3    0  502 -0.16265657393E+03 -0.39420791995E+02 -0.47702228012E+03  0.50553082559E+03  0.25500000920E-02 0.  1.
</event>
<event>
 5   0  0.5503975E-03  0.6000410E+03  0.7818609E-02  0.9905321E-01
       -1   -1    0    0    0  501  0.00000000000E+00  0.00000000000E+00  0.61102085175E+03  0.61102085177E+03  0.50400001928E-02 0.  1.
        1   -1    0    0  501    0  0.00000000000E+00  0.00000000000E+00 -0.14731463038E+03  0.14731463047E+03  0.50400001928E-02 0. -1.
    10030    2    1    2    0    0  0.00000000000E+00  0.00000000000E+00  0.46370622137E+03  0.75833548223E+03  0.60004103516E+03 0.  0.
        4    1    3    3  502    0  0.22625999285E+03 -0.89563456926E+02  0.10072251561E+02  0.24355340345E+03  0.12699999809E+01 0. -1.
       -4    1    3    3    0  502 -0.22625999285E+03  0.89563456926E+02  0.45363396981E+03  0.51478207879E+03  0.12699999809E+01 0.  1.
</event>
<event>
 5   0  0.9866317E-03  0.6021038E+03  0.7818609E-02  0.9901051E-01
        2   -1    0    0  501    0  0.00000000000E+00  0.00000000000E+00  0.15878790855E+04  0.15878790855E+04  0.25500000920E-02 0.  1.
       -2   -1    0    0    0  501  0.00000000000E+00  0.00000000000E+00 -0.57077549871E+02  0.57077549928E+02  0.25500000920E-02 0. -1.
    10030    2    1    2    0    0  0.00000000000E+00  0.00000000000E+00  0.15308015356E+04  0.16449566354E+04  0.60210380414E+03 0.  0.
        1    1    3    3  502    0  0.86992806270E+02 -0.25531246458E+03  0.11307156659E+04  0.11624414480E+04  0.50400001928E-02 0.  1.
       -1    1    3    3    0  502 -0.86992806270E+02  0.25531246458E+03  0.40008586977E+03  0.48251518746E+03  0.50400001928E-02 0. -1.
</event>
<event>
 5   0  0.5574736E-03  0.5999887E+03  0.7818609E-02  0.9905430E-01
        1   -1    0    0  501    0  0.00000000000E+00  0.00000000000E+00  0.11826293590E+04  0.11826293590E+04  0.50400001928E-02 0. -1.
       -1   -1    0    0    0  501  0.00000000000E+00  0.00000000000E+00 -0.76098735389E+02  0.76098735556E+02  0.50400001928E-02 0.  1.
    10030    2    1    2    0    0  0.00000000000E+00  0.00000000000E+00  0.11065306236E+04  0.12587280946E+04  0.59998866245E+03 0.  0.
        5    1    3    3  502    0 -0.26997400361E+03 -0.76434047350E+02  0.77574753101E+03  0.82494511823E+03  0.46999998093E+01 0.  1.
       -5    1    3    3    0  502  0.26997400361E+03  0.76434047350E+02  0.33078309263E+03  0.43378297637E+03  0.46999998093E+01 0. -1.
</event>
<event>
 5   0  0.3794375E-03  0.6002584E+03  0.7818609E-02  0.9904870E-01
       -4   -1    0    0    0  501  0.00000000000E+00  0.00000000000E+00  0.53758516889E+02  0.53773516140E+02  0.12699999809E+01 0. -1.
        4   -1    0    0  501    0  0.00000000000E+00  0.00000000000E+00 -0.16753465104E+04  0.16753469918E+04  0.12699999809E+01 0.  1.
    10030    2    1    2    0    0  0.00000000000E+00  0.00000000000E+00 -0.16215879935E+04  0.17291205079E+04  0.60025836950E+03 0.  0.
        2    1    3    3  502    0  0.81259907247E+02  0.38894848058E+02  0.13898622536E+02  0.91154558011E+02  0.25500000920E-02 0. -1.
       -2    1    3    3    0  502 -0.81259907247E+02 -0.38894848058E+02 -0.16354866160E+04  0.16379659499E+04  0.25500000920E-02 0.  1.
</event>
<event>
 5   0  0.3794375E-03  0.6002605E+03  0.7818609E-02  0.9904866E-01
       -4   -1    0    0    0  501  0.00000000000E+00  0.00000000000E+00  0.18470280212E+03  0.18470716827E+03  0.12699999809E+01 0.  1.
        4   -1    0    0  501    0  0.00000000000E+00  0.00000000000E+00 -0.48768155524E+03  0.48768320888E+03  0.12699999809E+01 0. -1.
    10030    2    1    2    0    0  0.00000000000E+00  0.00000000000E+00 -0.30297875313E+03  0.67239037715E+03  0.60026052214E+03 0.  0.
        2    1    3    3  502    0  0.15693202341E+03  0.68183119660E+02  0.12472045015E+03  0.21173518477E+03  0.25500000920E-02 0.  1.
       -2    1    3    3    0  502 -0.15693202341E+03 -0.68183119660E+02 -0.42769920328E+03  0.46065519238E+03  0.25500000920E-02 0. -1.
</event>
<event>
 5   0  0.3794375E-03  0.6011151E+03  0.7818609E-02  0.9903095E-01
       -3   -1    0    0    0  501  0.00000000000E+00  0.00000000000E+00  0.27699688638E+03  0.27699690479E+03  0.10100000352E+00 0. -1.
        3   -1    0    0  501    0  0.00000000000E+00  0.00000000000E+00 -0.32612218040E+03  0.32612219604E+03  0.10100000352E+00 0.  1.
    10030    2    1    2    0    0  0.00000000000E+00  0.00000000000E+00 -0.49125294015E+02  0.60311910083E+03  0.60111509320E+03 0.  0.
        4    1    3    3  502    0  0.18617157245E+03  0.50606143866E+02  0.20666692291E+03  0.28272542529E+03  0.12699999809E+01 0. -1.
       -4    1    3    3    0  502 -0.18617157245E+03 -0.50606143866E+02 -0.25579221692E+03  0.32039367553E+03  0.12699999809E+01 0.  1.
</event>
<event>
 5   0  0.9530666E-03  0.5989275E+03  0.7818609E-02  0.9907634E-01
       -2   -1    0    0    0  501  0.00000000000E+00  0.00000000000E+00  0.19308466622E+03  0.19308466624E+03  0.25500000920E-02 0. -1.
        2   -1    0    0  501    0  0.00000000000E+00  0.00000000000E+00 -0.46445187939E+03  0.46445187940E+03  0.25500000920E-02 0.  1.
    10030    2    1    2    0    0  0.00000000000E+00  0.00000000000E+00 -0.27136721317E+03  0.65753654564E+03  0.59892749516E+03 0.  0.
        2    1    3    3  502    0  0.28617239314E+03  0.41617054909E+02 -0.50276861356E+02  0.29352066477E+03  0.25500000920E-02 0. -1.
       -2    1    3    3    0  502 -0.28617239314E+03 -0.41617054909E+02 -0.22109035181E+03  0.36401588087E+03  0.25500000920E-02 0.  1.
</event>
<event>
 5   0  0.5574736E-03  0.5943241E+03  0.7818609E-02  0.9917252E-01
       -1   -1    0    0    0  501  0.00000000000E+00  0.00000000000E+00  0.22427381504E+03  0.22427381510E+03  0.50400001928E-02 0. -1.
        1   -1    0    0  501    0  0.00000000000E+00  0.00000000000E+00 -0.39373872308E+03  0.39373872311E+03  0.50400001928E-02 0.  1.
    10030    2    1    2    0    0  0.00000000000E+00  0.00000000000E+00 -0.16946490804E+03  0.61801253821E+03  0.59432410546E+03 0.  0.
        5    1    3    3  502    0  0.11639971135E+03 -0.21638053951E+03  0.89000877986E+02  0.26136693930E+03  0.46999998093E+01 0. -1.
       -5    1    3    3    0  502 -0.11639971135E+03  0.21638053951E+03 -0.25846578602E+03  0.35664559891E+03  0.46999998093E+01 0.  1.
</event>
<event>
 5   0  0.9571790E-03  0.6018652E+03  0.7818609E-02  0.9901544E-01
        2   -1    0    0  501    0  0.00000000000E+00  0.00000000000E+00  0.43271355998E+03  0.43271355999E+03  0.25500000920E-02 0. -1.
       -2   -1    0    0    0  501  0.00000000000E+00  0.00000000000E+00 -0.20928491813E+03  0.20928491815E+03  0.25500000920E-02 0.  1.
    10030    2    1    2    0    0  0.00000000000E+00  0.00000000000E+00  0.22342864185E+03  0.64199847813E+03  0.60186517421E+03 0.  0.
        5    1    3    3  502    0  0.42338743060E+02  0.10437461065E+02  0.42928607871E+03  0.43152072618E+03  0.46999998093E+01 0. -1.
       -5    1    3    3    0  502 -0.42338743060E+02 -0.10437461065E+02 -0.20585743686E+03  0.21047775195E+03  0.46999998093E+01 0.  1.
</event>
<event>
 5   0  0.5491236E-03  0.5986704E+03  0.7818609E-02  0.9908168E-01
       -1   -1    0    0    0  501  0.00000000000E+00  0.00000000000E+00  0.17489748344E+03  0.17489748351E+03  0.50400001928E-02 0.  1.
        1   -1    0    0  501    0  0.00000000000E+00  0.00000000000E+00 -0.51230903866E+03  0.51230903869E+03  0.50400001928E-02 0. -1.
    10030    2    1    2    0    0  0.00000000000E+00  0.00000000000E+00 -0.33741155523E+03  0.68720652219E+03  0.59867039892E+03 0.  0.
        3    1    3    3  502    0 -0.15518798753E+03  0.12994396419E+02  0.12473484944E+03  0.19952683699E+03  0.10100000352E+00 0.  1.
       -3    1    3    3    0  502  0.15518798753E+03 -0.12994396419E+02 -0.46214640467E+03  0.48767968520E+03  0.10100000352E+00 0. -1.
</event>
<event>
 5   0  0.9681801E-03  0.5942442E+03  0.7818609E-02  0.9917420E-01
       -2   -1    0    0    0  501  0.00000000000E+00  0.00000000000E+00  0.13544589493E+04  0.13544589493E+04  0.25500000920E-02 0. -1.
        2   -1    0    0  501    0  0.00000000000E+00  0.00000000000E+00 -0.65178460983E+02  0.65178461033E+02  0.25500000920E-02 0.  1.
    10030    2    1    2    0    0  0.00000000000E+00  0.00000000000E+00  0.12892804883E+04  0.14196374104E+04  0.59424422528E+03 0.  0.
        4    1    3    3  502    0 -0.13833515500E+03  0.22886502509E+03  0.33532389687E+03  0.42890505188E+03  0.12699999809E+01 0.  1.
       -4    1    3    3    0  502  0.13833515500E+03 -0.22886502509E+03  0.95395659148E+03  0.99073235848E+03  0.12699999809E+01 0. -1.
</event>
<event>
 5   0  0.5653633E-03  0.6000482E+03  0.7818609E-02  0.9905306E-01
       -1   -1    0    0    0  501  0.00000000000E+00  0.00000000000E+00  0.84339846559E+02  0.84339846709E+02  0.50400001928E-02 0. -1.
        1   -1    0    0  501    0  0.00000000000E+00  0.00000000000E+00 -0.10672826788E+04  0.10672826788E+04  0.50400001928E-02 0.  1.
    10030    2    1    2    0    0  0.00000000000E+00  0.00000000000E+00 -0.98294283227E+03  0.11516225256E+04  0.60004818960E+03 0.  0.
        2    1    3    3  502    0  0.26268206603E+03 -0.14267335691E+03 -0.54066116455E+03  0.61779612287E+03  0.25500000920E-02 0. -1.
       -2    1    3    3    0  502 -0.26268206603E+03  0.14267335691E+03 -0.44228166773E+03  0.53382640268E+03  0.25500000920E-02 0.  1.
</event>
<event>
 5   0  0.5785798E-03  0.6014937E+03  0.7818609E-02  0.9902312E-01
        1   -1    0    0  501    0  0.00000000000E+00  0.00000000000E+00  0.41905687756E+03  0.41905687759E+03  0.50400001928E-02 0. -1.
       -1   -1    0    0    0  501  0.00000000000E+00  0.00000000000E+00 -0.21583866048E+03  0.21583866054E+03  0.50400001928E-02 0.  1.
    10030    2    1    2    0    0  0.00000000000E+00  0.00000000000E+00  0.20321821709E+03  0.63489553813E+03  0.60149372448E+03 0.  0.
        1    1    3    3  502    0 -0.32455774819E+02  0.24323113104E+03  0.28514388453E+03  0.37619382682E+03  0.50400001928E-02 0. -1.
       -1    1    3    3    0  502  0.32455774819E+02 -0.24323113104E+03 -0.81925667446E+02  0.25870171131E+03  0.50400001928E-02 0.  1.
</event>
<event>
 5   0  0.9571790E-03  0.5997527E+03  0.7818609E-02  0.9905919E-01
       -2   -1    0    0    0  501  0.00000000000E+00  0.00000000000E+00  0.30430332982E+03  0.30430332983E+03  0.25500000920E-02 0.  1.
        2   -1    0    0  501    0  0.00000000000E+00  0.00000000000E+00 -0.29551372433E+03  0.29551372434E+03  0.25500000920E-02 0. -1.
    10030    2    1    2    0    0  0.00000000000E+00  0.00000000000E+00  0.87896054853E+01  0.59981705417E+03  0.59975265010E+03 0.  0.
        5    1    3    3  502    0 -0.11712979677E+03 -0.25503909028E+03  0.10994946152E+03  0.30145530506E+03  0.46999998093E+01 0. -1.
       -5    1    3    3    0  502  0.11712979677E+03  0.25503909028E+03 -0.10115985603E+03  0.29836174911E+03  0.46999998093E+01 0.  1.
</event>
<event>
 5   0  0.5491236E-03  0.6001396E+03  0.7818609E-02  0.9905116E-01
        1   -1    0    0  501    0  0.00000000000E+00  0.00000000000E+00  0.10481034001E+04  0.10481034001E+04  0.50400001928E-02 0.  1.
       -1   -1    0    0    0  501  0.00000000000E+00  0.00000000000E+00 -0.85909354613E+02  0.85909354761E+02  0.50400001928E-02 0. -1.
    10030    2    1    2    0    0  0.00000000000E+00  0.00000000000E+00  0.96219404548E+03  0.11340127549E+04  0.60013960629E+03 0.  0.
        3    1    3    3  502    0  0.83303430699E+02 -0.14771981413E+03  0.13330072054E+02  0.17011262761E+03  0.10100000352E+00 0. -1.
       -3    1    3    3    0  502 -0.83303430699E+02  0.14771981413E+03  0.94886397342E+03  0.96390012725E+03  0.10100000352E+00 0.  1.
</event>
<event>
 5   0  0.9428629E-03  0.5998823E+03  0.7818609E-02  0.9905650E-01
        2   -1    0    0  501    0  0.00000000000E+00  0.00000000000E+00  0.76800752513E+03  0.76800752514E+03  0.25500000920E-02 0.  1.
       -2   -1    0    0    0  501  0.00000000000E+00  0.00000000000E+00 -0.11714038654E+03  0.11714038657E+03  0.25500000920E-02 0. -1.
    10030    2    1    2    0    0  0.00000000000E+00  0.00000000000E+00  0.65086713859E+03  0.88514791171E+03  0.59988231638E+03 0.  0.
        3    1    3    3  502    0  0.56500008162E+02 -0.21119658089E+03  0.22432916415E+02  0.21977145548E+03  0.10100000352E+00 0. -1.
       -3    1    3    3    0  502 -0.56500008162E+02  0.21119658089E+03  0.62843422217E+03  0.66537645623E+03  0.10100000352E+00 0.  1.
</event>
<event>
 5   0  0.9866317E-03  0.5998550E+03  0.7818609E-02  0.9905707E-01
        2   -1    0    0  501    0  0.00000000000E+00  0.00000000000E+00  0.20104381326E+03  0.20104381328E+03  0.25500000920E-02 0. -1.
       -2   -1    0    0    0  501  0.00000000000E+00  0.00000000000E+00 -0.44744721146E+03  0.44744721147E+03  0.25500000920E-02 0.  1.
    10030    2    1    2    0    0  0.00000000000E+00  0.00000000000E+00 -0.24640339820E+03  0.64849102475E+03  0.59985496125E+03 0.  0.
        1    1    3    3  502    0  0.27936051860E+01  0.18581018986E+03 -0.37771105916E+03  0.42094996749E+03  0.50400001928E-02 0.  1.
       -1    1    3    3    0  502 -0.27936051860E+01 -0.18581018986E+03  0.13130766096E+03  0.22754105726E+03  0.50400001928E-02 0. -1.
</event>
<event>
 5   0  0.5653633E-03  0.6068938E+03  0.7818609E-02  0.9891206E-01
       -1   -1    0    0    0  501  0.00000000000E+00  0.00000000000E+00  0.47970679511E+03  0.47970679514E+03  0.50400001928E-02 0.  1.
        1   -1    0    0  501    0  0.00000000000E+00  0.00000000000E+00 -0.19195062184E+03  0.19195062191E+03  0.50400001928E-02 0. -1.
    10030    2    1    2    0    0  0.00000000000E+00  0.00000000000E+00  0.28775617327E+03  0.67165741705E+03  0.60689378858E+03 0.  0.
        2    1    3    3  502    0 -0.68191855291E+02  0.37670985250E+02  0.46845048081E+03  0.47488428615E+03  0.25500000920E-02 0.  1.
       -2    1    3    3    0  502  0.68191855291E+02 -0.37670985250E+02 -0.18069430754E+03  0.19677313089E+03  0.25500000920E-02 0. -1.
</event>
<event>
 5   0  0.5653633E-03  0.5989749E+03  0.7818609E-02  0.9907535E-01
        1   -1    0    0  501    0  0.00000000000E+00  0.00000000000E+00  0.38611572139E+03  0.38611572142E+03  0.50400001928E-02 0.  1.
       -1   -1    0    0    0  501  0.00000000000E+00  0.00000000000E+00 -0.23229492383E+03  0.23229492388E+03  0.50400001928E-02 0. -1.
    10030    2    1    2    0    0  0.00000000000E+00  0.00000000000E+00  0.15382079757E+03  0.61841064531E+03  0.59897486463E+03 0.  0.
        2    1    3    3  502    0  0.87535313521E+02 -0.20912920044E+03 -0.12513125672E+03  0.25895035239E+03  0.25500000920E-02 0. -1.
       -2    1    3    3    0  502 -0.87535313521E+02  0.20912920044E+03  0.27895205428E+03  0.35946029292E+03  0.25500000920E-02 0.  1.
</event>
<event>
 5   0  0.9428629E-03  0.6021255E+03  0.7818609E-02  0.9901006E-01
       -2   -1    0    0    0  501  0.00000000000E+00  0.00000000000E+00  0.84367594375E+02  0.84367594413E+02  0.25500000920E-02 0. -1.
        2   -1    0    0  501    0  0.00000000000E+00  0.00000000000E+00 -0.10743315386E+04  0.10743315386E+04  0.25500000920E-02 0.  1.
    10030    2    1    2    0    0  0.00000000000E+00  0.00000000000E+00 -0.98996394424E+03  0.11586991330E+04  0.60212546034E+03 0.  0.
        3    1    3    3  502    0  0.21044874053E+03 -0.63588115743E+02 -0.99170898893E+02  0.24117835360E+03  0.10100000352E+00 0. -1.
       -3    1    3    3    0  502 -0.21044874053E+03  0.63588115743E+02 -0.89079304535E+03  0.91752077944E+03  0.10100000352E+00 0.  1.
</event>
<event>
 5   0  0.9571790E-03  0.5987568E+03  0.7818609E-02  0.9907989E-01
       -2   -1    0    0    0  501  0.00000000000E+00  0.00000000000E+00  0.58319083456E+03  0.58319083456E+03  0.25500000920E-02 0.  1.
        2   -1    0    0  501    0  0.00000000000E+00  0.00000000000E+00 -0.15368457762E+03  0.15368457764E+03  0.25500000920E-02 0. -1.
    10030    2    1    2    0    0  0.00000000000E+00  0.00000000000E+00  0.42950625694E+03  0.73687541221E+03  0.59875683576E+03 0.  0.
        5    1    3    3  502    0  0.23480498121E+02  0.19095289804E+03  0.49698061748E+03  0.53294105416E+03  0.46999998093E+01 0.  1.
       -5    1    3    3    0  502 -0.23480498121E+02 -0.19095289804E+03 -0.67474360543E+02  0.20393435804E+03  0.46999998093E+01 0. -1.
</event>
<event>
 5   0  0.5503975E-03  0.5998857E+03  0.7818609E-02  0.9905643E-01
        1   -1    0    0  501    0  0.00000000000E+00  0.00000000000E+00  0.54956889356E+02  0.54956889588E+02  0.50400001928E-02 0. -1.
       -1   -1    0    0    0  501  0.00000000000E+00  0.00000000000E+00 -0.16370233676E+04  0.16370233676E+04  0.50400001928E-02 0.  1.
    10030    2    1    2    0    0  0.00000000000E+00  0.00000000000E+00 -0.15820664782E+04  0.16919802572E+04  0.59988569674E+03 0.  0.
        4    1    3    3  502    0 -0.36850954808E+02  0.83880930202E+02 -0.15965828107E+04  0.15992098948E+04  0.12699999809E+01 0.  1.
       -4    1    3    3    0  502  0.36850954808E+02 -0.83880930202E+02  0.14516332494E+02  0.92770362352E+02  0.12699999809E+01 0. -1.
</event>
<event>
 5   0  0.5503975E-03  0.6003684E+03  0.7818609E-02  0.9904642E-01
       -1   -1    0    0    0  501  0.00000000000E+00  0.00000000000E+00  0.21187747173E+03  0.21187747179E+03  0.50400001928E-02 0.  1.
        1   -1    0    0  501    0  0.00000000000E+00  0.00000000000E+00 -0.42529558257E+03  0.42529558260E+03  0.50400001928E-02 0. -1.
    10030    2    1    2    0    0  0.00000000000E+00  0.00000000000E+00 -0.21341811084E+03  0.63717305439E+03  0.60036839624E+03 0.  0.
        4    1    3    3  502    0 -0.96886207734E+02 -0.52418756598E+02  0.18964798978E+03  0.21932313198E+03  0.12699999809E+01 0.  1.
       -4    1    3    3    0  502  0.96886207734E+02  0.52418756598E+02 -0.40306610062E+03  0.41784992241E+03  0.12699999809E+01 0. -1.
</event>
<event>
 5   0  0.5785798E-03  0.6016094E+03  0.7818609E-02  0.9902073E-01
       -1   -1    0    0    0  501  0.00000000000E+00  0.00000000000E+00  0.89686998565E+02  0.89686998706E+02  0.50400001928E-02 0. -1.
        1   -1    0    0  501    0  0.00000000000E+00  0.00000000000E+00 -0.10088806185E+04  0.10088806185E+04  0.50400001928E-02 0.  1.
    10030    2    1    2    0    0  0.00000000000E+00  0.00000000000E+00 -0.91919361991E+03  0.10985676172E+04  0.60160942368E+03 0.  0.
        1    1    3    3  502    0  0.14017762990E+03 -0.20439077328E+03 -0.14832061579E+03  0.28883275649E+03  0.50400001928E-02 0. -1.
       -1    1    3    3    0  502 -0.14017762990E+03  0.20439077328E+03 -0.77087300412E+03  0.80973486070E+03  0.50400001928E-02 0.  1.
</event>
<event>
 5   0  0.5785798E-03  0.6015476E+03  0.7818609E-02  0.9902200E-01
       -1   -1    0    0    0  501  0.00000000000E+00  0.00000000000E+00  0.41843849749E+03  0.41843849752E+03  0.50400001928E-02 0.  1.
        1   -1    0    0  501    0  0.00000000000E+00  0.00000000000E+00 -0.21619636775E+03  0.21619636780E+03  0.50400001928E-02 0. -1.
    10030    2    1    2    0    0  0.00000000000E+00  0.00000000000E+00  0.20224212974E+03  0.63463486532E+03  0.60154761511E+03 0.  0.
        1    1    3    3  502    0 -0.20027490682E+03 -0.94995710191E+02 -0.11336055875E+03  0.24896754721E+03  0.50400001928E-02 0. -1.
       -1    1    3    3    0  502  0.20027490682E+03  0.94995710191E+02  0.31560268849E+03  0.38566731812E+03  0.50400001928E-02 0.  1.
</event>
<event>
 5   0  0.5653633E-03  0.6001040E+03  0.7818609E-02  0.9905190E-01
        1   -1    0    0  501    0  0.00000000000E+00  0.00000000000E+00  0.20103333273E+03  0.20103333279E+03  0.50400001928E-02 0. -1.
       -1   -1    0    0    0  501  0.00000000000E+00  0.00000000000E+00 -0.44784212691E+03  0.44784212694E+03  0.50400001928E-02 0.  1.
    10030    2    1    2    0    0  0.00000000000E+00  0.00000000000E+00 -0.24680879418E+03  0.64887545974E+03  0.60010397546E+03 0.  0.
        2    1    3    3  502    0  0.86680005947E+02 -0.14292284520E+03 -0.39283603188E+03  0.42691979464E+03  0.25500000920E-02 0.  1.
       -2    1    3    3    0  502 -0.86680005947E+02  0.14292284520E+03  0.14602723769E+03  0.22195566509E+03  0.25500000920E-02 0. -1.
</event>
<event>
 5   0  0.5574736E-03  0.5983521E+03  0.7818609E-02  0.9908831E-01
        1   -1    0    0  501    0  0.00000000000E+00  0.00000000000E+00  0.66710021331E+03  0.66710021333E+03  0.50400001928E-02 0.  1.
       -1   -1    0    0    0  501  0.00000000000E+00  0.00000000000E+00 -0.13417218869E+03  0.13417218878E+03  0.50400001928E-02 0. -1.
    10030    2    1    2    0    0  0.00000000000E+00  0.00000000000E+00  0.53292802462E+03  0.80127240211E+03  0.59835205603E+03 0.  0.
        5    1    3    3  502    0  0.66783123086E+02  0.97915899943E+02 -0.10133853155E+03  0.15600992586E+03  0.46999998093E+01 0. -1.
       -5    1    3    3    0  502 -0.66783123086E+02 -0.97915899943E+02  0.63426655617E+03  0.64526247626E+03  0.46999998093E+01 0.  1.
</event>
<event>
 5   0  0.3794375E-03  0.6000037E+03  0.7818609E-02  0.9905398E-01
        3   -1    0    0  501    0  0.00000000000E+00  0.00000000000E+00  0.60578133990E+03  0.60578134832E+03  0.10100000352E+00 0. -1.
       -3   -1    0    0    0  501  0.00000000000E+00  0.00000000000E+00 -0.14857028396E+03  0.14857031829E+03  0.10100000352E+00 0.  1.
    10030    2    1    2    0    0  0.00000000000E+00  0.00000000000E+00  0.45721105594E+03  0.75435166661E+03  0.60000373936E+03 0.  0.
        4    1    3    3  502    0 -0.13358762505E+01 -0.19833205659E+03  0.51158932879E+03  0.54869175634E+03  0.12699999809E+01 0. -1.
       -4    1    3    3    0  502  0.13358762505E+01  0.19833205659E+03 -0.54378272852E+02  0.20565991028E+03  0.12699999809E+01 0.  1.
</event>
<event>
 5   0  0.5653633E-03  0.5993618E+03  0.7818609E-02  0.9906731E-01
       -1   -1    0    0    0  501  0.00000000000E+00  0.00000000000E+00  0.14606045224E+03  0.14606045233E+03  0.50400001928E-02 0.  1.
        1   -1    0    0  501    0  0.00000000000E+00  0.00000000000E+00 -0.61487301715E+03  0.61487301718E+03  0.50400001928E-02 0. -1.
    10030    2    1    2    0    0  0.00000000000E+00  0.00000000000E+00 -0.46881256491E+03  0.76093346950E+03  0.59936176387E+03 0.  0.
        2    1    3    3  502    0  0.67176830318E+02  0.17117152566E+03 -0.53483191381E+03  0.56555954043E+03  0.25500000920E-02 0. -1.
       -2    1    3    3    0  502 -0.67176830318E+02 -0.17117152566E+03  0.66019348899E+02  0.19537392908E+03  0.25500000920E-02 0.  1.
</event>
<event>
 5   0  0.9866317E-03  0.6010826E+03  0.7818609E-02  0.9903163E-01
        2   -1    0    0  501    0  0.00000000000E+00  0.00000000000E+00  0.22198740488E+03  0.22198740489E+03  0.25500000920E-02 0. -1.
       -2   -1    0    0    0  501  0.00000000000E+00  0.00000000000E+00 -0.40689275072E+03  0.40689275073E+03  0.25500000920E-02 0.  1.
    10030    2    1    2    0    0  0.00000000000E+00  0.00000000000E+00 -0.18490534585E+03  0.62888015562E+03  0.60108257603E+03 0.  0.
        1    1    3    3  502    0  0.19194827075E+03 -0.15099364772E+03 -0.27571554604E+03  0.36832361131E+03  0.50400001928E-02 0.  1.
       -1    1    3    3    0  502 -0.19194827075E+03  0.15099364772E+03  0.90810200199E+02  0.26055654431E+03  0.50400001928E-02 0. -1.
</event>
<event>
 5   0  0.9866317E-03  0.6000077E+03  0.7818609E-02  0.9905390E-01
       -2   -1    0    0    0  501  0.00000000000E+00  0.00000000000E+00  0.37885961975E+03  0.37885961976E+03  0.25500000920E-02 0. -1.
        2   -1    0    0  501    0  0.00000000000E+00  0.00000000000E+00 -0.23756110226E+03  0.23756110227E+03  0.25500000920E-02 0.  1.
    10030    2    1    2    0    0  0.00000000000E+00  0.00000000000E+00  0.14129851750E+03  0.61642072203E+03  0.60000769620E+03 0.  0.
        1    1    3    3  502    0 -0.79853538112E+01  0.57567850558E+02 -0.23172216373E+03  0.23889952800E+03  0.50400001928E-02 0.  1.
       -1    1    3    3    0  502  0.79853538112E+01 -0.57567850558E+02  0.37302068123E+03  0.37752119403E+03  0.50400001928E-02 0. -1.
</event>
<event>
 5   0  0.9530666E-03  0.6001266E+03  0.7818609E-02  0.9905144E-01
       -2   -1    0    0    0  501  0.00000000000E+00  0.00000000000E+00  0.13434973346E+03  0.13434973349E+03  0.25500000920E-02 0. -1.
        2   -1    0    0  501    0  0.00000000000E+00  0.00000000000E+00 -0.67017604499E+03  0.67017604500E+03  0.25500000920E-02 0.  1.
    10030    2    1    2    0    0  0.00000000000E+00  0.00000000000E+00 -0.53582631153E+03  0.80452577848E+03  0.60012656342E+03 0.  0.
        2    1    3    3  502    0 -0.76865023194E+02  0.51939111672E+02 -0.65046900880E+03  0.65705086144E+03  0.25500000920E-02 0.  1.
       -2    1    3    3    0  502  0.76865023194E+02 -0.51939111672E+02  0.11464269727E+03  0.14747491704E+03  0.25500000920E-02 0. -1.
</event>
<event>
 5   0  0.5503975E-03  0.6093238E+03  0.7818609E-02  0.9886249E-01
        1   -1    0    0  501    0  0.00000000000E+00  0.00000000000E+00  0.69417450196E+03  0.69417450198E+03  0.50400001928E-02 0.  1.
       -1   -1    0    0    0  501  0.00000000000E+00  0.00000000000E+00 -0.13371113590E+03  0.13371113600E+03  0.50400001928E-02 0. -1.
    10030    2    1    2    0    0  0.00000000000E+00  0.00000000000E+00  0.56046336606E+03  0.82788563797E+03  0.60932376030E+03 0.  0.
        4    1    3    3  502    0 -0.29044406384E+03 -0.44289569643E+02  0.17070758473E+03  0.33979701674E+03  0.12699999809E+01 0. -1.
       -4    1    3    3    0  502  0.29044406384E+03  0.44289569643E+02  0.38975578132E+03  0.48808862123E+03  0.12699999809E+01 0.  1.
</event>
<event>
 5   0  0.5503975E-03  0.5999366E+03  0.7818609E-02  0.9905538E-01
       -1   -1    0    0    0  501  0.00000000000E+00  0.00000000000E+00  0.24120438070E+03  0.24120438075E+03  0.50400001928E-02 0.  1.
        1   -1    0    0  501    0  0.00000000000E+00  0.00000000000E+00 -0.37304868157E+03  0.37304868161E+03  0.50400001928E-02 0. -1.
    10030    2    1    2    0    0  0.00000000000E+00  0.00000000000E+00 -0.13184430087E+03  0.61425306236E+03  0.59993658410E+03 0.  0.
        4    1    3    3  502    0  0.26385923350E+03 -0.40890708321E+02 -0.20587950333E+03  0.33716721063E+03  0.12699999809E+01 0. -1.
       -4    1    3    3    0  502 -0.26385923350E+03  0.40890708321E+02  0.74035202456E+02  0.27708585173E+03  0.12699999809E+01 0.  1.
</event>
<event>
 5   0  0.5785798E-03  0.6011016E+03  0.7818609E-02  0.9903123E-01
       -1   -1    0    0    0  501  0.00000000000E+00  0.00000000000E+00  0.46522752466E+02  0.46522752739E+02  0.50400001928E-02 0. -1.
        1   -1    0    0  501    0  0.00000000000E+00  0.00000000000E+00 -0.19416475831E+04  0.19416475831E+04  0.50400001928E-02 0.  1.
    10030    2    1    2    0    0  0.00000000000E+00  0.00000000000E+00 -0.18951248306E+04  0.19881703358E+04  0.60110162257E+03 0.  0.
        1    1    3    3  502    0 -0.56667714908E+02 -0.77901491469E+02 -0.18892018937E+04  0.18916563291E+04  0.50400001928E-02 0.  1.
       -1    1    3    3    0  502  0.56667714908E+02  0.77901491469E+02 -0.59229369209E+01  0.96514006720E+02  0.50400001928E-02 0. -1.
</event>
<event>
 5   0  0.5653633E-03  0.5998325E+03  0.7818609E-02  0.9905754E-01
       -1   -1    0    0    0  501  0.00000000000E+00  0.00000000000E+00  0.18649163388E+03  0.18649163395E+03  0.50400001928E-02 0. -1.
        1   -1    0    0  501    0  0.00000000000E+00  0.00000000000E+00 -0.48232592320E+03  0.48232592322E+03  0.50400001928E-02 0.  1.
    10030    2    1    2    0    0  0.00000000000E+00  0.00000000000E+00 -0.29583428932E+03  0.66881755717E+03  0.59983247499E+03 0.  0.
        2    1    3    3  502    0  0.29544567679E+03  0.46581528674E+01 -0.20520620386E+03  0.35974912429E+03  0.25500000920E-02 0.  1.
       -2    1    3    3    0  502 -0.29544567679E+03 -0.46581528674E+01 -0.90628085458E+02  0.30906843288E+03  0.25500000920E-02 0. -1.
</event>
<event>
 5   0  0.3794375E-03  0.5989428E+03  0.7818609E-02  0.9907602E-01
       -4   -1    0    0    0  501  0.00000000000E+00  0.00000000000E+00  0.69079852078E+03  0.69079968820E+03  0.12699999809E+01 0.  1.
        4   -1    0    0  501    0  0.00000000000E+00  0.00000000000E+00 -0.12982092180E+03  0.12982713367E+03  0.12699999809E+01 0. -1.
    10030    2    1    2    0    0  0.00000000000E+00  0.00000000000E+00  0.56097759898E+03  0.82062682187E+03  0.59894283051E+03 0.  0.
        5    1    3    3  502    0  0.88105339342E+02 -0.28590944248E+03  0.29750697315E+03  0.42194697438E+03  0.46999998093E+01 0. -1.
       -5    1    3    3    0  502 -0.88105339342E+02  0.28590944248E+03  0.26347062583E+03  0.39867984749E+03  0.46999998093E+01 0.  1.
</event>
<event>
 5   0  0.9428629E-03  0.6006981E+03  0.7818609E-02  0.9903959E-01
        2   -1    0    0  501    0  0.00000000000E+00  0.00000000000E+00  0.60792824980E+03  0.60792824981E+03  0.25500000920E-02 0. -1.
       -2   -1    0    0    0  501  0.00000000000E+00  0.00000000000E+00 -0.14838849702E+03  0.14838849704E+03  0.25500000920E-02 0.  1.
    10030    2    1    2    0    0  0.00000000000E+00  0.00000000000E+00  0.45953975278E+03  0.75631674685E+03  0.60069812483E+03 0.  0.
        3    1    3    3  502    0  0.19114981874E+03  0.62831769266E+02  0.51052528515E+03  0.54874598989E+03  0.10100000352E+00 0. -1.
       -3    1    3    3    0  502 -0.19114981874E+03 -0.62831769266E+02 -0.50985532372E+02  0.20757075696E+03  0.10100000352E+00 0.  1.
</event>
<event>
 5   0  0.9866317E-03  0.6004411E+03  0.7818609E-02  0.9904491E-01
       -2   -1    0    0    0  501  0.00000000000E+00  0.00000000000E+00  0.42063073769E+03  0.42063073770E+03  0.25500000920E-02 0. -1.
        2   -1    0    0  501    0  0.00000000000E+00  0.00000000000E+00 -0.21427908529E+03  0.21427908530E+03  0.25500000920E-02 0.  1.
    10030    2    1    2    0    0  0.00000000000E+00  0.00000000000E+00  0.20635165240E+03  0.63490982300E+03  0.60044107029E+03 0.  0.
        1    1    3    3  502    0  0.22771863906E+03  0.19563674170E+03  0.10138871101E+03  0.31687408229E+03  0.50400001928E-02 0.  1.
       -1    1    3    3    0  502 -0.22771863906E+03 -0.19563674170E+03  0.10496294139E+03  0.31803574071E+03  0.50400001928E-02 0. -1.
</event>
<event>
 5   0  0.9428629E-03  0.5930810E+03  0.7818609E-02  0.9919866E-01
       -2   -1    0    0    0  501  0.00000000000E+00  0.00000000000E+00  0.18576905303E+03  0.18576905305E+03  0.25500000920E-02 0. -1.
        2   -1    0    0  501    0  0.00000000000E+00  0.00000000000E+00 -0.47336335098E+03  0.47336335099E+03  0.25500000920E-02 0.  1.
    10030    2    1    2    0    0  0.00000000000E+00  0.00000000000E+00 -0.28759429795E+03  0.65913240404E+03  0.59308097748E+03 0.  0.
        3    1    3    3  502    0 -0.18044732995E+03 -0.22325749160E+03 -0.22645128918E+03  0.36563006306E+03  0.10100000352E+00 0. -1.
       -3    1    3    3    0  502  0.18044732995E+03  0.22325749160E+03 -0.61143008771E+02  0.29350234098E+03  0.10100000352E+00 0.  1.
</event>
<event>
 5   0  0.5503975E-03  0.5997209E+03  0.7818609E-02  0.9905985E-01
       -1   -1    0    0    0  501  0.00000000000E+00  0.00000000000E+00  0.48837665506E+03  0.48837665508E+03  0.50400001928E-02 0. -1.
        1   -1    0    0  501    0  0.00000000000E+00  0.00000000000E+00 -0.18411259512E+03  0.18411259519E+03  0.50400001928E-02 0.  1.
    10030    2    1    2    0    0  0.00000000000E+00  0.00000000000E+00  0.30426405993E+03  0.67248925027E+03  0.59972091306E+03 0.  0.
        4    1    3    3  502    0 -0.25003472109E+02 -0.23266019997E+03 -0.58126098014E+02  0.24111449238E+03  0.12699999809E+01 0.  1.
       -4    1    3    3    0  502  0.25003472109E+02  0.23266019997E+03  0.36239015795E+03  0.43137475789E+03  0.12699999809E+01 0. -1.
</event>
<event>
 5   0  0.9530666E-03  0.6028127E+03  0.7818609E-02  0.9899588E-01
       -2   -1    0    0    0  501  0.00000000000E+00  0.00000000000E+00  0.84479191649E+02  0.84479191687E+02  0.25500000920E-02 0.  1.
        2   -1    0    0  501    0  0.00000000000E+00  0.00000000000E+00 -0.10753629718E+04  0.10753629718E+04  0.25500000920E-02 0. -1.
    10030    2    1    2    0    0  0.00000000000E+00  0.00000000000E+00 -0.99088378020E+03  0.11598421635E+04  0.60281272254E+03 0.  0.
        2    1    3    3  502    0  0.13036653303E+03 -0.24492840465E+03 -0.72196106153E+03  0.77344239004E+03  0.25500000920E-02 0. -1.
       -2    1    3    3    0  502 -0.13036653303E+03  0.24492840465E+03 -0.26892271867E+03  0.38639977350E+03  0.25500000920E-02 0.  1.
</event>
<event>
 5   0  0.9530666E-03  0.5999275E+03  0.7818609E-02  0.9905556E-01
       -2   -1    0    0    0  501  0.00000000000E+00  0.00000000000E+00  0.12010390289E+03  0.12010390292E+03  0.25500000920E-02 0. -1.
        2   -1    0    0  501    0  0.00000000000E+00  0.00000000000E+00 -0.74917007145E+03  0.74917007146E+03  0.25500000920E-02 0.  1.
    10030    2    1    2    0    0  0.00000000000E+00  0.00000000000E+00 -0.62906616856E+03  0.86927397437E+03  0.59992749403E+03 0.  0.
        2    1    3    3  502    0  0.19855182409E+03  0.18160196154E+03 -0.12243643498E+03  0.29562269856E+03  0.25500000920E-02 0. -1.
       -2    1    3    3    0  502 -0.19855182409E+03 -0.18160196154E+03 -0.50662973359E+03  0.57365127582E+03  0.25500000920E-02 0.  1.
</event>
<event>
 5   0  0.5503975E-03  0.6013231E+03  0.7818609E-02  0.9902665E-01
       -1   -1    0    0    0  501  0.00000000000E+00  0.00000000000E+00  0.32635236445E+03  0.32635236449E+03  0.50400001928E-02 0. -1.
        1   -1    0    0  501    0  0.00000000000E+00  0.00000000000E+00 -0.27699316379E+03  0.27699316383E+03  0.50400001928E-02 0.  1.
    10030    2    1    2    0    0  0.00000000000E+00  0.00000000000E+00  0.49359200664E+02  0.60334552832E+03  0.60132312100E+03 0.  0.
        4    1    3    3  502    0  0.29223625256E+03 -0.66514686457E+02  0.48624696635E+02  0.30363169276E+03  0.12699999809E+01 0. -1.
       -4    1    3    3    0  502 -0.29223625256E+03  0.66514686457E+02  0.73450402923E+00  0.29971383556E+03  0.12699999809E+01 0.  1.
</event>
<event>
 5   0  0.5653633E-03  0.5989025E+03  0.7818609E-02  0.9907686E-01
        1   -1    0    0  501    0  0.00000000000E+00  0.00000000000E+00  0.12291093832E+04  0.12291093833E+04  0.50400001928E-02 0. -1.
       -1   -1    0    0    0  501  0.00000000000E+00  0.00000000000E+00 -0.72956109649E+02  0.72956109823E+02  0.50400001928E-02 0.  1.
    10030    2    1    2    0    0  0.00000000000E+00  0.00000000000E+00  0.11561532736E+04  0.13020654931E+04  0.59890245969E+03 0.  0.
        2    1    3    3  502    0 -0.15644851347E+03 -0.34787573515E+02  0.11280161076E+04  0.11393448344E+04  0.25500000920E-02 0. -1.
       -2    1    3    3    0  502  0.15644851347E+03  0.34787573515E+02  0.28137165960E+02  0.16272065865E+03  0.25500000920E-02 0.  1.
</event>
<event>
 5   0  0.5574736E-03  0.5997511E+03  0.7818609E-02  0.9905923E-01
       -1   -1    0    0    0  501  0.00000000000E+00  0.00000000000E+00  0.14135643707E+03  0.14135643716E+03  0.50400001928E-02 0.  1.
        1   -1    0    0  501    0  0.00000000000E+00  0.00000000000E+00 -0.63616018845E+03  0.63616018847E+03  0.50400001928E-02 0. -1.
    10030    2    1    2    0    0  0.00000000000E+00  0.00000000000E+00 -0.49480375137E+03  0.77751662563E+03  0.59975107399E+03 0.  0.
        5    1    3    3  502    0  0.99687373673E+02 -0.11021844014E+03 -0.58500757088E+03  0.60360717773E+03  0.46999998093E+01 0. -1.
       -5    1    3    3    0  502 -0.99687373673E+02  0.11021844014E+03  0.90203819507E+02  0.17390944790E+03  0.46999998093E+01 0.  1.
</event>
<event>
 5   0  0.9681801E-03  0.5997616E+03  0.7818609E-02  0.9905901E-01
       -2   -1    0    0    0  501  0.00000000000E+00  0.00000000000E+00  0.85548514923E+02  0.85548514961E+02  0.25500000920E-02 0.  1.
        2   -1    0    0  501    0  0.00000000000E+00  0.00000000000E+00 -0.10511986093E+04  0.10511986093E+04  0.25500000920E-02 0. -1.
    10030    2    1    2    0    0  0.00000000000E+00  0.00000000000E+00 -0.96565009438E+03  0.11367471243E+04  0.59976155241E+03 0.  0.
        4    1    3    3  502    0  0.22357934671E+03  0.78925202477E+02 -0.83081309667E+03  0.86398433224E+03  0.12699999809E+01 0. -1.
       -4    1    3    3    0  502 -0.22357934671E+03 -0.78925202477E+02 -0.13483699771E+03  0.27276279202E+03  0.12699999809E+01 0.  1.
</event>
<event>
 5   0  0.5574736E-03  0.6001331E+03  0.7818609E-02  0.9905130E-01
       -1   -1    0    0    0  501  0.00000000000E+00  0.00000000000E+00  0.44187053114E+03  0.44187053117E+03  0.50400001928E-02 0.  1.
        1   -1    0    0  501    0  0.00000000000E+00  0.00000000000E+00 -0.20376997340E+03  0.20376997346E+03  0.50400001928E-02 0. -1.
    10030    2    1    2    0    0  0.00000000000E+00  0.00000000000E+00  0.23810055774E+03  0.64564050463E+03  0.60013313992E+03 0.  0.
        5    1    3    3  502    0  0.11212426418E+03 -0.26850767141E+03  0.40362863077E+02  0.29380175448E+03  0.46999998093E+01 0. -1.
       -5    1    3    3    0  502 -0.11212426418E+03  0.26850767141E+03  0.19773769466E+03  0.35183875015E+03  0.46999998093E+01 0.  1.
</event>
<event>
 5   0  0.9428629E-03  0.6001684E+03  0.7818609E-02  0.9905057E-01
       -2   -1    0    0    0  501  0.00000000000E+00  0.00000000000E+00  0.32398230037E+03  0.32398230038E+03  0.25500000920E-02 0. -1.
        2   -1    0    0  501    0  0.00000000000E+00  0.00000000000E+00 -0.27794895210E+03  0.27794895211E+03  0.25500000920E-02 0.  1.
    10030    2    1    2    0    0  0.00000000000E+00  0.00000000000E+00  0.46033348267E+02  0.60193125249E+03  0.60016844600E+03 0.  0.
        3    1    3    3  502    0  0.14704612162E+03 -0.66127785981E+02 -0.23081776160E+03  0.28155336125E+03  0.10100000352E+00 0.  1.
       -3    1    3    3    0  502 -0.14704612162E+03  0.66127785981E+02  0.27685110987E+03  0.32037789124E+03  0.10100000352E+00 0. -1.
</event>
<event>
 5   0  0.5574736E-03  0.6008706E+03  0.7818609E-02  0.9903602E-01
        1   -1    0    0  501    0  0.00000000000E+00  0.00000000000E+00  0.66105665684E+03  0.66105665686E+03  0.50400001928E-02 0.  1.
       -1   -1    0    0    0  501  0.00000000000E+00  0.00000000000E+00 -0.13654104195E+03  0.13654104205E+03  0.50400001928E-02 0. -1.
    10030    2    1    2    0    0  0.00000000000E+00  0.00000000000E+00  0.52451561489E+03  0.79759769891E+03  0.60087058427E+03 0.  0.
        5    1    3    3  502    0 -0.10039089404E+03 -0.86280416376E+02 -0.95690101142E+02  0.16340540784E+03  0.46999998093E+01 0. -1.
       -5    1    3    3    0  502  0.10039089404E+03  0.86280416376E+02  0.62020571603E+03  0.63419229107E+03  0.46999998093E+01 0.  1.
</event>
<event>
 5   0  0.5785798E-03  0.5997099E+03  0.7818609E-02  0.9906008E-01
       -1   -1    0    0    0  501  0.00000000000E+00  0.00000000000E+00  0.34901204277E+03  0.34901204280E+03  0.50400001928E-02 0. -1.
        1   -1    0    0  501    0  0.00000000000E+00  0.00000000000E+00 -0.25762148590E+03  0.25762148595E+03  0.50400001928E-02 0.  1.
    10030    2    1    2    0    0  0.00000000000E+00  0.00000000000E+00  0.91390556861E+02  0.60663352876E+03  0.59970993349E+03 0.  0.
        1    1    3    3  502    0 -0.87872597197E+02 -0.28514950069E+03  0.15668066269E+02  0.29879310469E+03  0.50400001928E-02 0.  1.
       -1    1    3    3    0  502  0.87872597197E+02  0.28514950069E+03  0.75722490592E+02  0.30784042407E+03  0.50400001928E-02 0. -1.
</event>
<event>
 5   0  0.5491236E-03  0.6003087E+03  0.7818609E-02  0.9904766E-01
        1   -1    0    0  501    0  0.00000000000E+00  0.00000000000E+00  0.25222392381E+03  0.25222392386E+03  0.50400001928E-02 0. -1.
       -1   -1    0    0    0  501  0.00000000000E+00  0.00000000000E+00 -0.35719303547E+03  0.35719303551E+03  0.50400001928E-02 0.  1.
    10030    2    1    2    0    0  0.00000000000E+00  0.00000000000E+00 -0.10496911166E+03  0.60941695937E+03  0.60030868390E+03 0.  0.
        3    1    3    3  502    0 -0.18310155908E+02  0.39511617971E+02  0.24899982684E+03  0.25277925891E+03  0.10100000352E+00 0. -1.
       -3    1    3    3    0  502  0.18310155908E+02 -0.39511617971E+02 -0.35396893850E+03  0.35663770046E+03  0.10100000352E+00 0.  1.
</event>
<event>
 5   0  0.5574736E-03  0.5995138E+03  0.7818609E-02  0.9906415E-01
        1   -1    0    0  501    0  0.00000000000E+00  0.00000000000E+00  0.12506933322E+04  0.12506933322E+04  0.50400001928E-02 0. -1.
       -1   -1    0    0    0  501  0.00000000000E+00  0.00000000000E+00 -0.71843515767E+02  0.71843515944E+02  0.50400001928E-02 0.  1.
    10030    2    1    2    0    0  0.00000000000E+00  0.00000000000E+00  0.11788498165E+04  0.13225368482E+04  0.59951382389E+03 0.  0.
        5    1    3    3  502    0 -0.57428487445E+02 -0.27249318794E+03  0.83390028693E+03  0.87918277234E+03  0.46999998093E+01 0. -1.
       -5    1    3    3    0  502  0.57428487445E+02  0.27249318794E+03  0.34494952954E+03  0.44335407585E+03  0.46999998093E+01 0.  1.
</event>
<event>
 5   0  0.9681801E-03  0.6001661E+03  0.7818609E-02  0.9905062E-01
       -2   -1    0    0    0  501  0.00000000000E+00  0.00000000000E+00  0.22808135406E+03  0.22808135407E+03  0.25500000920E-02 0.  1.
        2   -1    0    0  501    0  0.00000000000E+00  0.00000000000E+00 -0.39481451579E+03  0.39481451580E+03  0.25500000920E-02 0. -1.
    10030    2    1    2    0    0  0.00000000000E+00  0.00000000000E+00 -0.16673316173E+03  0.62289586987E+03  0.60016607492E+03 0.  0.
        4    1    3    3  502    0 -0.10670051582E+03  0.62264947828E+02  0.20046127138E+03  0.23547453797E+03  0.12699999809E+01 0.  1.
       -4    1    3    3    0  502  0.10670051582E+03 -0.62264947828E+02 -0.36719443311E+03  0.38742133190E+03  0.12699999809E+01 0. -1.
</event>
<event>
 5   0  0.9428629E-03  0.5997797E+03  0.7818609E-02  0.9905863E-01
        2   -1    0    0  501    0  0.00000000000E+00  0.00000000000E+00  0.11972878529E+03  0.11972878532E+03  0.25500000920E-02 0.  1.
       -2   -1    0    0    0  501  0.00000000000E+00  0.00000000000E+00 -0.75114711186E+03  0.75114711187E+03  0.25500000920E-02 0. -1.
    10030    2    1    2    0    0  0.00000000000E+00  0.00000000000E+00 -0.63141832657E+03  0.87087589719E+03  0.59977973054E+03 0.  0.
        3    1    3    3  502    0 -0.22859434523E+03  0.15558979485E+03 -0.48423020003E+03  0.55762214425E+03  0.10100000352E+00 0. -1.
       -3    1    3    3    0  502  0.22859434523E+03 -0.15558979485E+03 -0.14718812654E+03  0.31325375294E+03  0.10100000352E+00 0.  1.
</event>
<event>
 5   0  0.9530666E-03  0.6039748E+03  0.7818609E-02  0.9897194E-01
        2   -1    0    0  501    0  0.00000000000E+00  0.00000000000E+00  0.15235745535E+03  0.15235745538E+03  0.25500000920E-02 0.  1.
       -2   -1    0    0    0  501  0.00000000000E+00  0.00000000000E+00 -0.59856851579E+03  0.59856851580E+03  0.25500000920E-02 0. -1.
    10030    2    1    2    0    0  0.00000000000E+00  0.00000000000E+00 -0.44621106044E+03  0.75092597117E+03  0.60397475421E+03 0.  0.
        2    1    3    3  502    0  0.18606243766E+03 -0.14199438188E+03 -0.46036139149E+03  0.51644384590E+03  0.25500000920E-02 0. -1.
       -2    1    3    3    0  502 -0.18606243766E+03  0.14199438188E+03  0.14150331050E+02  0.23448212527E+03  0.25500000920E-02 0.  1.
</event>
<event>
 5   0  0.9866317E-03  0.6004358E+03  0.7818609E-02  0.9904502E-01
       -2   -1    0    0    0  501  0.00000000000E+00  0.00000000000E+00  0.27271196952E+03  0.27271196953E+03  0.25500000920E-02 0. -1.
        2   -1    0    0  501    0  0.00000000000E+00  0.00000000000E+00 -0.33049814750E+03  0.33049814750E+03  0.25500000920E-02 0.  1.
    10030    2    1    2    0    0  0.00000000000E+00  0.00000000000E+00 -0.57786177977E+02  0.60321011703E+03  0.60043584414E+03 0.  0.
        1    1    3    3  502    0  0.45832016355E+02  0.18914702166E+03  0.20075362968E+03  0.27960541729E+03  0.50400001928E-02 0. -1.
       -1    1    3    3    0  502 -0.45832016355E+02 -0.18914702166E+03 -0.25853980766E+03  0.32360469974E+03  0.50400001928E-02 0.  1.
</event>
<event>
 5   0  0.9571790E-03  0.6038195E+03  0.7818609E-02  0.9897513E-01
        2   -1    0    0  501    0  0.00000000000E+00  0.00000000000E+00  0.20878702558E+04  0.20878702558E+04  0.25500000920E-02 0.  1.
       -2   -1    0    0    0  501  0.00000000000E+00  0.00000000000E+00 -0.43656692448E+02  0.43656692522E+02  0.25500000920E-02 0. -1.
    10030    2    1    2    0    0  0.00000000000E+00  0.00000000000E+00  0.20442135633E+04  0.21315269483E+04  0.60381954161E+03 0.  0.
        5    1    3    3  502    0  0.11345506718E+03 -0.25400838103E+02  0.20055356812E+04  0.20089083387E+04  0.46999998093E+01 0.  1.
       -5    1    3    3    0  502 -0.11345506718E+03  0.25400838103E+02  0.38677882098E+02  0.12261860954E+03  0.46999998093E+01 0. -1.
</event>
<event>
 5   0  0.9428629E-03  0.5999441E+03  0.7818609E-02  0.9905522E-01
        2   -1    0    0  501    0  0.00000000000E+00  0.00000000000E+00  0.52312291903E+03  0.52312291904E+03  0.25500000920E-02 0. -1.
       -2   -1    0    0    0  501  0.00000000000E+00  0.00000000000E+00 -0.17201164666E+03  0.17201164668E+03  0.25500000920E-02 0.  1.
    10030    2    1    2    0    0  0.00000000000E+00  0.00000000000E+00  0.35111127237E+03  0.69513456572E+03  0.59994411313E+03 0.  0.
        3    1    3    3  502    0 -0.13462661159E+03  0.23317938660E+03  0.32877255459E+03  0.42495688456E+03  0.10100000352E+00 0. -1.
       -3    1    3    3    0  502  0.13462661159E+03 -0.23317938660E+03  0.22338717775E+02  0.27017768116E+03  0.10100000352E+00 0.  1.
</event>
<event>
 5   0  0.5785798E-03  0.5992622E+03  0.7818609E-02  0.9906938E-01
        1   -1    0    0  501    0  0.00000000000E+00  0.00000000000E+00  0.14414921221E+04  0.14414921221E+04  0.50400001928E-02 0.  1.
       -1   -1    0    0    0  501  0.00000000000E+00  0.00000000000E+00 -0.62281845521E+02  0.62281845725E+02  0.50400001928E-02 0. -1.
    10030    2    1    2    0    0  0.00000000000E+00  0.00000000000E+00  0.13792102766E+04  0.15037739678E+04  0.59926217910E+03 0.  0.
        1    1    3    3  502    0  0.11355748112E+03 -0.15012019050E+03  0.10460610833E+03  0.21534579410E+03  0.50400001928E-02 0. -1.
       -1    1    3    3    0  502 -0.11355748112E+03  0.15012019050E+03  0.12746041682E+04  0.12884281737E+04  0.50400001928E-02 0.  1.
</event>
<event>
 5   0  0.5491236E-03  0.6009667E+03  0.7818609E-02  0.9903402E-01
       -1   -1    0    0    0  501  0.00000000000E+00  0.00000000000E+00  0.29940734159E+03  0.29940734163E+03  0.50400001928E-02 0. -1.
        1   -1    0    0  501    0  0.00000000000E+00  0.00000000000E+00 -0.30156326037E+03  0.30156326042E+03  0.50400001928E-02 0.  1.
    10030    2    1    2    0    0  0.00000000000E+00  0.00000000000E+00 -0.21559187892E+01  0.60097060205E+03  0.60096673497E+03 0.  0.
        3    1    3    3  502    0  0.91729157107E+02 -0.13625063837E+03  0.25054196034E+03  0.29958264104E+03  0.10100000352E+00 0. -1.
       -3    1    3    3    0  502 -0.91729157107E+02  0.13625063837E+03 -0.25269787913E+03  0.30138796100E+03  0.10100000352E+00 0.  1.
</event>
<event>
 5   0  0.5574736E-03  0.6008254E+03  0.7818609E-02  0.9903695E-01
       -1   -1    0    0    0  501  0.00000000000E+00  0.00000000000E+00  0.88331581806E+02  0.88331581949E+02  0.50400001928E-02 0. -1.
        1   -1    0    0  501    0  0.00000000000E+00  0.00000000000E+00 -0.10216934182E+04  0.10216934182E+04  0.50400001928E-02 0.  1.
    10030    2    1    2    0    0  0.00000000000E+00  0.00000000000E+00 -0.93336183641E+03  0.11100250002E+04  0.60082541837E+03 0.  0.
        5    1    3    3  502    0  0.34091588569E+02  0.23365638891E+03 -0.12368139112E+03  0.26660217741E+03  0.46999998093E+01 0. -1.
       -5    1    3    3    0  502 -0.34091588569E+02 -0.23365638891E+03 -0.80968044529E+03  0.84342282278E+03  0.46999998093E+01 0.  1.
</event>
<event>
 5   0  0.5491236E-03  0.6001903E+03  0.7818609E-02  0.9905011E-01
        1   -1    0    0  501    0  0.00000000000E+00  0.00000000000E+00  0.53764226379E+03  0.53764226381E+03  0.50400001928E-02 0. -1.
       -1   -1    0    0    0  501  0.00000000000E+00  0.00000000000E+00 -0.16750376808E+03  0.16750376816E+03  0.50400001928E-02 0.  1.
    10030    2    1    2    0    0  0.00000000000E+00  0.00000000000E+00  0.37013849571E+03  0.70514603197E+03  0.60019032015E+03 0.  0.
        3    1    3    3  502    0  0.76622079475E+02  0.85726415326E+02  0.51073767521E+03  0.52351976508E+03  0.10100000352E+00 0. -1.
       -3    1    3    3    0  502 -0.76622079475E+02 -0.85726415326E+02 -0.14059917950E+03  0.18162626689E+03  0.10100000352E+00 0.  1.
</event>
<event>
 5   0  0.9530666E-03  0.6007023E+03  0.7818609E-02  0.9903950E-01
        2   -1    0    0  501    0  0.00000000000E+00  0.00000000000E+00  0.24373661483E+03  0.24373661485E+03  0.25500000920E-02 0.  1.
       -2   -1    0    0    0  501  0.00000000000E+00  0.00000000000E+00 -0.37011594132E+03  0.37011594133E+03  0.25500000920E-02 0. -1.
    10030    2    1    2    0    0  0.00000000000E+00  0.00000000000E+00 -0.12637932649E+03  0.61385255618E+03  0.60070227781E+03 0.  0.
        2    1    3    3  502    0 -0.32000346115E+02  0.17334054110E+03  0.18532090777E+03  0.25576317992E+03  0.25500000920E-02 0.  1.
       -2    1    3    3    0  502  0.32000346115E+02 -0.17334054110E+03 -0.31170023426E+03  0.35808937626E+03  0.25500000920E-02 0. -1.
</event>
<event>
 5   0  0.9428629E-03  0.6010290E+03  0.7818609E-02  0.9903274E-01
        2   -1    0    0  501    0  0.00000000000E+00  0.00000000000E+00  0.60493074029E+03  0.60493074030E+03  0.25500000920E-02 0.  1.
       -2   -1    0    0    0  501  0.00000000000E+00  0.00000000000E+00 -0.14928808354E+03  0.14928808357E+03  0.25500000920E-02 0. -1.
    10030    2    1    2    0    0  0.00000000000E+00  0.00000000000E+00  0.45564265675E+03  0.75421882387E+03  0.60102895406E+03 0.  0.
        3    1    3    3  502    0  0.13991026464E+03  0.11961708009E+03  0.52590685153E+03  0.55719041152E+03  0.10100000352E+00 0.  1.
       -3    1    3    3    0  502 -0.13991026464E+03 -0.11961708009E+03 -0.70264194785E+02  0.19702841234E+03  0.10100000352E+00 0. -1.
</event>
<event>
 5   0  0.5491236E-03  0.6005116E+03  0.7818609E-02  0.9904345E-01
        1   -1    0    0  501    0  0.00000000000E+00  0.00000000000E+00  0.21208954939E+03  0.21208954945E+03  0.50400001928E-02 0. -1.
       -1   -1    0    0    0  501  0.00000000000E+00  0.00000000000E+00 -0.42507305558E+03  0.42507305561E+03  0.50400001928E-02 0.  1.
    10030    2    1    2    0    0  0.00000000000E+00  0.00000000000E+00 -0.21298350619E+03  0.63716260506E+03  0.60051162469E+03 0.  0.
        3    1    3    3  502    0  0.17379246134E+03  0.23918010128E+03 -0.16205789821E+03  0.33715532479E+03  0.10100000352E+00 0.  1.
       -3    1    3    3    0  502 -0.17379246134E+03 -0.23918010128E+03 -0.50925607986E+02  0.30000728027E+03  0.10100000352E+00 0. -1.
</event>
<event>
 5   0  0.5653633E-03  0.6002581E+03  0.7818609E-02  0.9904871E-01
        1   -1    0    0  501    0  0.00000000000E+00  0.00000000000E+00  0.80455505070E+03  0.80455505071E+03  0.50400001928E-02 0.  1.
       -1   -1    0    0    0  501  0.00000000000E+00  0.00000000000E+00 -0.11195932223E+03  0.11195932234E+03  0.50400001928E-02 0. -1.
    10030    2    1    2    0    0  0.00000000000E+00  0.00000000000E+00  0.69259572847E+03  0.91651437306E+03  0.60025807194E+03 0.  0.
        2    1    3    3  502    0 -0.16548054264E+03  0.22210865281E+03  0.52279060237E+03  0.59163001748E+03  0.25500000920E-02 0.  1.
       -2    1    3    3    0  502  0.16548054264E+03 -0.22210865281E+03  0.16980512609E+03  0.32488435558E+03  0.25500000920E-02 0. -1.
</event>
<event>
 5   0  0.9530666E-03  0.5995842E+03  0.7818609E-02  0.9906269E-01
       -2   -1    0    0    0  501  0.00000000000E+00  0.00000000000E+00  0.96658566099E+02  0.96658566133E+02  0.25500000920E-02 0.  1.
        2   -1    0    0  501    0  0.00000000000E+00  0.00000000000E+00 -0.92982256731E+03  0.92982256732E+03  0.25500000920E-02 0. -1.
    10030    2    1    2    0    0  0.00000000000E+00  0.00000000000E+00 -0.83316400121E+03  0.10264811334E+04  0.59958424296E+03 0.  0.
        2    1    3    3  502    0  0.11699109324E+02  0.44670489166E+02 -0.92369761857E+03  0.92485112981E+03  0.25500000920E-02 0. -1.
       -2    1    3    3    0  502 -0.11699109324E+02 -0.44670489166E+02  0.90533617354E+02  0.10163000364E+03  0.25500000920E-02 0.  1.
</event>
<event>
 5   0  0.5653633E-03  0.5997619E+03  0.7818609E-02  0.9905900E-01
        1   -1    0    0  501    0  0.00000000000E+00  0.00000000000E+00  0.28014789706E+03  0.28014789711E+03  0.50400001928E-02 0. -1.
       -1   -1    0    0    0  501  0.00000000000E+00  0.00000000000E+00 -0.32100395879E+03  0.32100395883E+03  0.50400001928E-02 0.  1.
    10030    2    1    2    0    0  0.00000000000E+00  0.00000000000E+00 -0.40856061730E+02  0.60115185594E+03  0.59976189952E+03 0.  0.
        2    1    3    3  502    0  0.23582926109E+03 -0.16390107070E+03  0.66082960852E+02  0.29469638458E+03  0.25500000920E-02 0.  1.
       -2    1    3    3    0  502 -0.23582926109E+03  0.16390107070E+03 -0.10693902258E+03  0.30645547135E+03  0.25500000920E-02 0. -1.
</event>
<event>
 5   0  0.5574736E-03  0.6018321E+03  0.7818609E-02  0.9901612E-01
        1   -1    0    0  501    0  0.00000000000E+00  0.00000000000E+00  0.44843291371E+02  0.44843291654E+02  0.50400001928E-02 0.  1.
       -1   -1    0    0    0  501  0.00000000000E+00  0.00000000000E+00 -0.20192647166E+04  0.20192647166E+04  0.50400001928E-02 0. -1.
    10030    2    1    2    0    0  0.00000000000E+00  0.00000000000E+00 -0.19744214252E+04  0.20641080082E+04  0.60183212389E+03 0.  0.
        5    1    3    3  502    0  0.49631091748E+02 -0.13867306037E+03 -0.87378636607E+02  0.17132010703E+03  0.46999998093E+01 0.  1.
       -5    1    3    3    0  502 -0.49631091748E+02  0.13867306037E+03 -0.18870427886E+04  0.18927879012E+04  0.46999998093E+01 0. -1.
</event>
<event>
 5   0  0.9866317E-03  0.6000830E+03  0.7818609E-02  0.9905234E-01
        2   -1    0    0  501    0  0.00000000000E+00  0.00000000000E+00  0.56249926708E+03  0.56249926708E+03  0.25500000920E-02 0. -1.
       -2   -1    0    0    0  501  0.00000000000E+00  0.00000000000E+00 -0.16004445176E+03  0.16004445178E+03  0.25500000920E-02 0.  1.
    10030    2    1    2    0    0  0.00000000000E+00  0.00000000000E+00  0.40245481532E+03  0.72254371886E+03  0.60008295034E+03 0.  0.
        1    1    3    3  502    0  0.10637001337E+03 -0.21085542137E+02  0.53807899530E+03  0.54889724452E+03  0.50400001928E-02 0. -1.
       -1    1    3    3    0  502 -0.10637001337E+03  0.21085542137E+02 -0.13562417998E+03  0.17364647434E+03  0.50400001928E-02 0.  1.
</event>
<event>
 5   0  0.5503975E-03  0.5972189E+03  0.7818609E-02  0.9911193E-01
       -1   -1    0    0    0  501  0.00000000000E+00  0.00000000000E+00  0.70763978577E+02  0.70763978756E+02  0.50400001928E-02 0. -1.
        1   -1    0    0  501    0  0.00000000000E+00  0.00000000000E+00 -0.12600704888E+04  0.12600704888E+04  0.50400001928E-02 0.  1.
    10030    2    1    2    0    0  0.00000000000E+00  0.00000000000E+00 -0.11893065102E+04  0.13308344676E+04  0.59721889187E+03 0.  0.
        4    1    3    3  502    0  0.11153925597E+03 -0.13317712349E+03 -0.53431285006E+02  0.18175166289E+03  0.12699999809E+01 0. -1.
       -4    1    3    3    0  502 -0.11153925597E+03  0.13317712349E+03 -0.11358752252E+04  0.11490828047E+04  0.12699999809E+01 0.  1.
</event>
<event>
 5   0  0.5785798E-03  0.5997606E+03  0.7818609E-02  0.9905903E-01
       -1   -1    0    0    0  501  0.00000000000E+00  0.00000000000E+00  0.48870128184E+02  0.48870128444E+02  0.50400001928E-02 0. -1.
        1   -1    0    0  501    0  0.00000000000E+00  0.00000000000E+00 -0.18401466740E+04  0.18401466740E+04  0.50400001928E-02 0.  1.
    10030    2    1    2    0    0  0.00000000000E+00  0.00000000000E+00 -0.17912765458E+04  0.18890168024E+04  0.59976063254E+03 0.  0.
        1    1    3    3  502    0  0.11828025440E+03  0.11248747743E+03 -0.16879694098E+04  0.16958432651E+04  0.50400001928E-02 0.  1.
       -1    1    3    3    0  502 -0.11828025440E+03 -0.11248747743E+03 -0.10330713592E+03  0.19317353731E+03  0.50400001928E-02 0. -1.
</event>
<event>
 5   0  0.5653633E-03  0.5994987E+03  0.7818609E-02  0.9906447E-01
        1   -1    0    0  501    0  0.00000000000E+00  0.00000000000E+00  0.39738680139E+03  0.39738680142E+03  0.50400001928E-02 0.  1.
       -1   -1    0    0    0  501  0.00000000000E+00  0.00000000000E+00 -0.22610129535E+03  0.22610129541E+03  0.50400001928E-02 0. -1.
    10030    2    1    2    0    0  0.00000000000E+00  0.00000000000E+00  0.17128550604E+03  0.62348809683E+03  0.59949869250E+03 0.  0.
        2    1    3    3  502    0  0.11593800402E+03  0.36050215192E+02  0.37066861881E+03  0.39004674562E+03  0.25500000920E-02 0.  1.
       -2    1    3    3    0  502 -0.11593800402E+03 -0.36050215192E+02 -0.19938311277E+03  0.23344135121E+03  0.25500000920E-02 0. -1.
</event>
<event>
 5   0  0.9866317E-03  0.5981278E+03  0.7818609E-02  0.9909298E-01
       -2   -1    0    0    0  501  0.00000000000E+00  0.00000000000E+00  0.36957453516E+03  0.36957453517E+03  0.25500000920E-02 0.  1.
        2   -1    0    0  501    0  0.00000000000E+00  0.00000000000E+00 -0.24200591143E+03  0.24200591145E+03  0.25500000920E-02 0. -1.
    10030    2    1    2    0    0  0.00000000000E+00  0.00000000000E+00  0.12756862372E+03  0.61158044661E+03  0.59812781989E+03 0.  0.
        1    1    3    3  502    0 -0.29425508803E+03  0.46746437661E+02  0.37358581692E+02  0.30027812094E+03  0.50400001928E-02 0.  1.
       -1    1    3    3    0  502  0.29425508803E+03 -0.46746437661E+02  0.90210042032E+02  0.31130232568E+03  0.50400001928E-02 0. -1.
</event>
<event>
 5   0  0.9571790E-03  0.5996147E+03  0.7818609E-02  0.9906206E-01
       -2   -1    0    0    0  501  0.00000000000E+00  0.00000000000E+00  0.11251685237E+03  0.11251685240E+03  0.25500000920E-02 0. -1.
        2   -1    0    0  501    0  0.00000000000E+00  0.00000000000E+00 -0.79885325494E+03  0.79885325495E+03  0.25500000920E-02 0.  1.
    10030    2    1    2    0    0  0.00000000000E+00  0.00000000000E+00 -0.68633640257E+03  0.91137010734E+03  0.59961472218E+03 0.  0.
        5    1    3    3  502    0  0.47199417735E+02  0.59235030614E+02 -0.78401436900E+03  0.78767835738E+03  0.46999998093E+01 0.  1.
       -5    1    3    3    0  502 -0.47199417735E+02 -0.59235030614E+02  0.97677966424E+02  0.12369174996E+03  0.46999998093E+01 0. -1.
</event>
<event>
 5   0  0.5491236E-03  0.6005563E+03  0.7818609E-02  0.9904253E-01
       -1   -1    0    0    0  501  0.00000000000E+00  0.00000000000E+00  0.10659277509E+03  0.10659277521E+03  0.50400001928E-02 0. -1.
        1   -1    0    0  501    0  0.00000000000E+00  0.00000000000E+00 -0.84590119884E+03  0.84590119886E+03  0.50400001928E-02 0.  1.
    10030    2    1    2    0    0  0.00000000000E+00  0.00000000000E+00 -0.73930842375E+03  0.95249397407E+03  0.60055626315E+03 0.  0.
        3    1    3    3  502    0 -0.22220822537E+03  0.12790087768E+03 -0.61755985466E+03  0.66866681854E+03  0.10100000352E+00 0.  1.
       -3    1    3    3    0  502  0.22220822537E+03 -0.12790087768E+03 -0.12174856909E+03  0.28382715552E+03  0.10100000352E+00 0. -1.
</event>
<event>
 5   0  0.9681801E-03  0.6000783E+03  0.7818609E-02  0.9905244E-01
        2   -1    0    0  501    0  0.00000000000E+00  0.00000000000E+00  0.14505383249E+04  0.14505383249E+04  0.25500000920E-02 0. -1.
       -2   -1    0    0    0  501  0.00000000000E+00  0.00000000000E+00 -0.62062133191E+02  0.62062133243E+02  0.25500000920E-02 0.  1.
    10030    2    1    2    0    0  0.00000000000E+00  0.00000000000E+00  0.13884761918E+04  0.15126004582E+04  0.60007833743E+03 0.  0.
        4    1    3    3  502    0 -0.13104536325E+03 -0.23551064555E+03  0.10265821154E+04  0.10613720384E+04  0.12699999809E+01 0. -1.
       -4    1    3    3    0  502  0.13104536325E+03  0.23551064555E+03  0.36189407634E+03  0.45122841975E+03  0.12699999809E+01 0.  1.
</event>
<event>
 5   0  0.5503975E-03  0.6002001E+03  0.7818609E-02  0.9904991E-01
        1   -1    0    0  501    0  0.00000000000E+00  0.00000000000E+00  0.87758993783E+03  0.87758993785E+03  0.50400001928E-02 0. -1.
       -1   -1    0    0    0  501  0.00000000000E+00  0.00000000000E+00 -0.10262201373E+03  0.10262201386E+03  0.50400001928E-02 0.  1.
    10030    2    1    2    0    0  0.00000000000E+00  0.00000000000E+00  0.77496792410E+03  0.98021195170E+03  0.60020012235E+03 0.  0.
        4    1    3    3  502    0 -0.48619292040E+02 -0.15257611397E+03  0.80197758190E+03  0.81780985619E+03  0.12699999809E+01 0. -1.
       -4    1    3    3    0  502  0.48619292040E+02  0.15257611397E+03 -0.27009657802E+02  0.16240209551E+03  0.12699999809E+01 0.  1.
</event>
<event>
 5   0  0.5574736E-03  0.5997235E+03  0.7818609E-02  0.9905980E-01
        1   -1    0    0  501    0  0.00000000000E+00  0.00000000000E+00  0.95103543165E+03  0.95103543166E+03  0.50400001928E-02 0. -1.
       -1   -1    0    0    0  501  0.00000000000E+00  0.00000000000E+00 -0.94546496048E+02  0.94546496182E+02  0.50400001928E-02 0.  1.
    10030    2    1    2    0    0  0.00000000000E+00  0.00000000000E+00  0.85648893560E+03  0.10455819278E+04  0.59972349548E+03 0.  0.
        5    1    3    3  502    0  0.14830603781E+03  0.25352325698E+03  0.32325730976E+03  0.43679068327E+03  0.46999998093E+01 0.  1.
       -5    1    3    3    0  502 -0.14830603781E+03 -0.25352325698E+03  0.53323162584E+03  0.60879124458E+03  0.46999998093E+01 0. -1.
</event>
<event>
 5   0  0.5653633E-03  0.6010030E+03  0.7818609E-02  0.9903327E-01
        1   -1    0    0  501    0  0.00000000000E+00  0.00000000000E+00  0.65945253019E+03  0.65945253020E+03  0.50400001928E-02 0. -1.
       -1   -1    0    0    0  501  0.00000000000E+00  0.00000000000E+00 -0.13693350881E+03  0.13693350890E+03  0.50400001928E-02 0.  1.
    10030    2    1    2    0    0  0.00000000000E+00  0.00000000000E+00  0.52251902137E+03  0.79638603911E+03  0.60100299133E+03 0.  0.
        2    1    3    3  502    0  0.10948779714E+02  0.29545836993E+03  0.33244097731E+03  0.44489608622E+03  0.25500000920E-02 0.  1.
       -2    1    3    3    0  502 -0.10948779714E+02 -0.29545836993E+03  0.19007804407E+03  0.35148995289E+03  0.25500000920E-02 0. -1.
</event>
<event>
 5   0  0.5653633E-03  0.5977269E+03  0.7818609E-02  0.9910133E-01
        1   -1    0    0  501    0  0.00000000000E+00  0.00000000000E+00  0.56539950193E+03  0.56539950195E+03  0.50400001928E-02 0. -1.
       -1   -1    0    0    0  501  0.00000000000E+00  0.00000000000E+00 -0.15797568277E+03  0.15797568286E+03  0.50400001928E-02 0.  1.
    10030    2    1    2    0    0  0.00000000000E+00  0.00000000000E+00  0.40742381915E+03  0.72337518481E+03  0.59772693563E+03 0.  0.
        2    1    3    3  502    0  0.15054931560E+03 -0.15950786221E+03 -0.41968249340E+02  0.22331410277E+03  0.25500000920E-02 0.  1.
       -2    1    3    3    0  502 -0.15054931560E+03  0.15950786221E+03  0.44939206849E+03  0.50006108204E+03  0.25500000920E-02 0. -1.
</event>
<event>
 5   0  0.5574736E-03  0.6040943E+03  0.7818609E-02  0.9896948E-01
       -1   -1    0    0    0  501  0.00000000000E+00  0.00000000000E+00  0.13974011153E+03  0.13974011162E+03  0.50400001928E-02 0.  1.
        1   -1    0    0  501    0  0.00000000000E+00  0.00000000000E+00 -0.65287254629E+03  0.65287254631E+03  0.50400001928E-02 0. -1.
    10030    2    1    2    0    0  0.00000000000E+00  0.00000000000E+00 -0.51313243476E+03  0.79261265794E+03  0.60409430549E+03 0.  0.
        5    1    3    3  502    0 -0.25218054765E+03  0.13122061408E+03 -0.12278346101E+03  0.30969621643E+03  0.46999998093E+01 0.  1.
       -5    1    3    3    0  502  0.25218054765E+03 -0.13122061408E+03 -0.39034897375E+03  0.48291644151E+03  0.46999998093E+01 0. -1.
</event>
<event>
 5   0  0.5574736E-03  0.5973959E+03  0.7818609E-02  0.9910823E-01
        1   -1    0    0  501    0  0.00000000000E+00  0.00000000000E+00  0.26687995117E+03  0.26687995122E+03  0.50400001928E-02 0.  1.
       -1   -1    0    0    0  501  0.00000000000E+00  0.00000000000E+00 -0.33430940827E+03  0.33430940830E+03  0.50400001928E-02 0. -1.
    10030    2    1    2    0    0  0.00000000000E+00  0.00000000000E+00 -0.67429457098E+02  0.60118935952E+03  0.59739594434E+03 0.  0.
        5    1    3    3  502    0 -0.59232287447E+02  0.16043392358E+02  0.26042972267E+03  0.26760340947E+03  0.46999998093E+01 0.  1.
       -5    1    3    3    0  502  0.59232287447E+02 -0.16043392358E+02 -0.32785917976E+03  0.33358595005E+03  0.46999998093E+01 0. -1.
</event>
<event>
 5   0  0.5653633E-03  0.6014060E+03  0.7818609E-02  0.9902493E-01
        1   -1    0    0  501    0  0.00000000000E+00  0.00000000000E+00  0.68247884741E+03  0.68247884743E+03  0.50400001928E-02 0.  1.
       -1   -1    0    0    0  501  0.00000000000E+00  0.00000000000E+00 -0.13249098602E+03  0.13249098611E+03  0.50400001928E-02 0. -1.
    10030    2    1    2    0    0  0.00000000000E+00  0.00000000000E+00  0.54998786139E+03  0.81496983354E+03  0.60140600422E+03 0.  0.
        2    1    3    3  502    0 -0.70837711120E+02 -0.17720630304E+03 -0.39911146220E+02  0.19496911230E+03  0.25500000920E-02 0. -1.
       -2    1    3    3    0  502  0.70837711120E+02  0.17720630304E+03  0.58989900761E+03  0.62000072124E+03  0.25500000920E-02 0.  1.
</event>
<event>
 5   0  0.5653633E-03  0.6007260E+03  0.7818609E-02  0.9903901E-01
        1   -1    0    0  501    0  0.00000000000E+00  0.00000000000E+00  0.23346270536E+03  0.23346270542E+03  0.50400001928E-02 0. -1.
       -1   -1    0    0    0  501  0.00000000000E+00  0.00000000000E+00 -0.38643403078E+03  0.38643403082E+03  0.50400001928E-02 0.  1.
    10030    2    1    2    0    0  0.00000000000E+00  0.00000000000E+00 -0.15297132542E+03  0.61989673623E+03  0.60072600842E+03 0.  0.
        2    1    3    3  502    0 -0.10203851365E+03 -0.40508712693E+02 -0.36498805237E+03  0.38114182721E+03  0.25500000920E-02 0.  1.
       -2    1    3    3    0  502  0.10203851365E+03  0.40508712693E+02  0.21201672694E+03  0.23875490902E+03  0.25500000920E-02 0. -1.
</event>
<event>
 5   0  0.3794375E-03  0.6008118E+03  0.7818609E-02  0.9903723E-01
        3   -1    0    0  501    0  0.00000000000E+00  0.00000000000E+00  0.49630986071E+03  0.49630987098E+03  0.10100000352E+00 0. -1.
       -3   -1    0    0    0  501  0.00000000000E+00  0.00000000000E+00 -0.18182935274E+03  0.18182938079E+03  0.10100000352E+00 0.  1.
    10030    2    1    2    0    0  0.00000000000E+00  0.00000000000E+00  0.31448050797E+03  0.67813925177E+03  0.60081182986E+03 0.  0.
        3    1    3    3  502    0  0.26685505146E+03  0.44735256214E+02  0.99417059200E+01  0.27076135130E+03  0.10100000352E+00 0.  1.
       -3    1    3    3    0  502 -0.26685505146E+03 -0.44735256214E+02  0.30453880205E+03  0.40737790047E+03  0.10100000352E+00 0. -1.
</event>
<event>
 5   0  0.3794375E-03  0.5966954E+03  0.7818609E-02  0.9912286E-01
       -4   -1    0    0    0  501  0.00000000000E+00  0.00000000000E+00  0.36401761255E+03  0.36401982796E+03  0.12699999809E+01 0.  1.
        4   -1    0    0  501    0  0.00000000000E+00  0.00000000000E+00 -0.24452023653E+03  0.24452353460E+03  0.12699999809E+01 0. -1.
    10030    2    1    2    0    0  0.00000000000E+00  0.00000000000E+00  0.11949737602E+03  0.60854336256E+03  0.59669540072E+03 0.  0.
        1    1    3    3  502    0 -0.26003557894E+03 -0.10798071202E+03  0.16036363649E+03  0.32402906107E+03  0.50400001928E-02 0. -1.
       -1    1    3    3    0  502  0.26003557894E+03  0.10798071202E+03 -0.40866260467E+02  0.28451430149E+03  0.50400001928E-02 0.  1.
</event>
<event>
 5   0  0.9866317E-03  0.6008644E+03  0.7818609E-02  0.9903614E-01
       -2   -1    0    0    0  501  0.00000000000E+00  0.00000000000E+00  0.67437432870E+02  0.67437432918E+02  0.25500000920E-02 0. -1.
        2   -1    0    0  501    0  0.00000000000E+00  0.00000000000E+00 -0.13384184912E+04  0.13384184912E+04  0.25500000920E-02 0.  1.
    10030    2    1    2    0    0  0.00000000000E+00  0.00000000000E+00 -0.12709810583E+04  0.14058559241E+04  0.60086440130E+03 0.  0.
        1    1    3    3  502    0 -0.16335273355E+03  0.21184794397E+03 -0.31557388555E+03  0.41370344957E+03  0.50400001928E-02 0. -1.
       -1    1    3    3    0  502  0.16335273355E+03 -0.21184794397E+03 -0.95540717278E+03  0.99215247454E+03  0.50400001928E-02 0.  1.
</event>
<event>
 5   0  0.5574736E-03  0.5988400E+03  0.7818609E-02  0.9907816E-01
        1   -1    0    0  501    0  0.00000000000E+00  0.00000000000E+00  0.82870884632E+03  0.82870884634E+03  0.50400001928E-02 0. -1.
       -1   -1    0    0    0  501  0.00000000000E+00  0.00000000000E+00 -0.10818314343E+03  0.10818314355E+03  0.50400001928E-02 0.  1.
    10030    2    1    2    0    0  0.00000000000E+00  0.00000000000E+00  0.72052570289E+03  0.93689198989E+03  0.59883997211E+03 0.  0.
        5    1    3    3  502    0 -0.36757706938E+02 -0.62856543858E+02 -0.94060507661E+02  0.11904429102E+03  0.46999998093E+01 0.  1.
       -5    1    3    3    0  502  0.36757706938E+02  0.62856543858E+02  0.81458621055E+03  0.81784769887E+03  0.46999998093E+01 0. -1.
</event>
<event>
 5   0  0.5653633E-03  0.5981805E+03  0.7818609E-02  0.9909188E-01
        1   -1    0    0  501    0  0.00000000000E+00  0.00000000000E+00  0.78343998672E+03  0.78343998673E+03  0.50400001928E-02 0.  1.
       -1   -1    0    0    0  501  0.00000000000E+00  0.00000000000E+00 -0.11418229717E+03  0.11418229728E+03  0.50400001928E-02 0. -1.
    10030    2    1    2    0    0  0.00000000000E+00  0.00000000000E+00  0.66925768955E+03  0.89762228402E+03  0.59818049930E+03 0.  0.
        2    1    3    3  502    0  0.24907250609E+02  0.21162963895E+03  0.19693054655E+02  0.21399834491E+03  0.25500000920E-02 0. -1.
       -2    1    3    3    0  502 -0.24907250609E+02 -0.21162963895E+03  0.64956463489E+03  0.68362393911E+03  0.25500000920E-02 0.  1.
</event>
<event>
 5   0  0.5785798E-03  0.6002455E+03  0.7818609E-02  0.9904897E-01
        1   -1    0    0  501    0  0.00000000000E+00  0.00000000000E+00  0.10238365615E+03  0.10238365628E+03  0.50400001928E-02 0.  1.
       -1   -1    0    0    0  501  0.00000000000E+00  0.00000000000E+00 -0.87976616038E+03  0.87976616040E+03  0.50400001928E-02 0. -1.
    10030    2    1    2    0    0  0.00000000000E+00  0.00000000000E+00 -0.77738250423E+03  0.98214981668E+03  0.60024553685E+03 0.  0.
        1    1    3    3  502    0  0.66422264475E+02  0.18828430870E+03 -0.75533752591E+03  0.78127951221E+03  0.50400001928E-02 0. -1.
       -1    1    3    3    0  502 -0.66422264475E+02 -0.18828430870E+03 -0.22044978318E+02  0.20087030446E+03  0.50400001928E-02 0.  1.
</event>
<event>
 5   0  0.9571790E-03  0.5993060E+03  0.7818609E-02  0.9906847E-01
       -2   -1    0    0    0  501  0.00000000000E+00  0.00000000000E+00  0.65213636313E+02  0.65213636363E+02  0.25500000920E-02 0.  1.
        2   -1    0    0  501    0  0.00000000000E+00  0.00000000000E+00 -0.13768887103E+04  0.13768887103E+04  0.25500000920E-02 0. -1.
    10030    2    1    2    0    0  0.00000000000E+00  0.00000000000E+00 -0.13116750739E+04  0.14421023466E+04  0.59930599741E+03 0.  0.
        5    1    3    3  502    0 -0.26278022419E+03 -0.12551245496E+03 -0.82535713196E+03  0.87523900042E+03  0.46999998093E+01 0. -1.
       -5    1    3    3    0  502  0.26278022419E+03  0.12551245496E+03 -0.48631794199E+03  0.56686334621E+03  0.46999998093E+01 0.  1.
</event>
<event>
 5   0  0.9571790E-03  0.6004687E+03  0.7818609E-02  0.9904434E-01
       -2   -1    0    0    0  501  0.00000000000E+00  0.00000000000E+00  0.23263288046E+03  0.23263288048E+03  0.25500000920E-02 0. -1.
        2   -1    0    0  501    0  0.00000000000E+00  0.00000000000E+00 -0.38748037046E+03  0.38748037047E+03  0.25500000920E-02 0.  1.
    10030    2    1    2    0    0  0.00000000000E+00  0.00000000000E+00 -0.15484749000E+03  0.62011325095E+03  0.60046873261E+03 0.  0.
        5    1    3    3  502    0 -0.12266555212E+03 -0.25317158355E+03  0.30769615876E+02  0.28303983404E+03  0.46999998093E+01 0. -1.
       -5    1    3    3    0  502  0.12266555212E+03  0.25317158355E+03 -0.18561710588E+03  0.33707341691E+03  0.46999998093E+01 0.  1.
</event>
<event>
 5   0  0.9681801E-03  0.5997348E+03  0.7818609E-02  0.9905956E-01
        2   -1    0    0  501    0  0.00000000000E+00  0.00000000000E+00  0.63153160778E+03  0.63153160778E+03  0.25500000920E-02 0. -1.
       -2   -1    0    0    0  501  0.00000000000E+00  0.00000000000E+00 -0.14238471215E+03  0.14238471217E+03  0.25500000920E-02 0.  1.
    10030    2    1    2    0    0  0.00000000000E+00  0.00000000000E+00  0.48914689563E+03  0.77391631995E+03  0.59973476203E+03 0.  0.
        4    1    3    3  502    0 -0.62885440789E+02  0.17042539507E+03 -0.63294934339E+02  0.19237269963E+03  0.12699999809E+01 0.  1.
       -4    1    3    3    0  502  0.62885440789E+02 -0.17042539507E+03  0.55244182996E+03  0.58154362033E+03  0.12699999809E+01 0. -1.
</event>
<event>
 5   0  0.5574736E-03  0.5996039E+03  0.7818609E-02  0.9906228E-01
       -1   -1    0    0    0  501  0.00000000000E+00  0.00000000000E+00  0.25399237357E+03  0.25399237362E+03  0.50400001928E-02 0. -1.
        1   -1    0    0  501    0  0.00000000000E+00  0.00000000000E+00 -0.35387368676E+03  0.35387368680E+03  0.50400001928E-02 0.  1.
    10030    2    1    2    0    0  0.00000000000E+00  0.00000000000E+00 -0.99881313185E+02  0.60786606042E+03  0.59960392818E+03 0.  0.
        5    1    3    3  502    0 -0.14276616145E+03  0.14876123945E+03 -0.27053271001E+03  0.34017954142E+03  0.46999998093E+01 0.  1.
       -5    1    3    3    0  502  0.14276616145E+03 -0.14876123945E+03  0.17065139682E+03  0.26768651900E+03  0.46999998093E+01 0. -1.
</event>
<event>
 5   0  0.9530666E-03  0.5999770E+03  0.7818609E-02  0.9905454E-01
       -2   -1    0    0    0  501  0.00000000000E+00  0.00000000000E+00  0.45027915338E+03  0.45027915339E+03  0.25500000920E-02 0.  1.
        2   -1    0    0  501    0  0.00000000000E+00  0.00000000000E+00 -0.19986071784E+03  0.19986071785E+03  0.25500000920E-02 0. -1.
    10030    2    1    2    0    0  0.00000000000E+00  0.00000000000E+00  0.25041843555E+03  0.65013987124E+03  0.59997704899E+03 0.  0.
        2    1    3    3  502    0  0.25148201639E+03  0.64803446471E+02 -0.37513996881E+02  0.26239281852E+03  0.25500000920E-02 0. -1.
       -2    1    3    3    0  502 -0.25148201639E+03 -0.64803446471E+02  0.28793243243E+03  0.38774705272E+03  0.25500000920E-02 0.  1.
</event>
<event>
 5   0  0.5653633E-03  0.6038971E+03  0.7818609E-02  0.9897354E-01
        1   -1    0    0  501    0  0.00000000000E+00  0.00000000000E+00  0.14293171532E+04  0.14293171532E+04  0.50400001928E-02 0.  1.
       -1   -1    0    0    0  501  0.00000000000E+00  0.00000000000E+00 -0.63787759989E+02  0.63787760188E+02  0.50400001928E-02 0. -1.
    10030    2    1    2    0    0  0.00000000000E+00  0.00000000000E+00  0.13655293932E+04  0.14931049134E+04  0.60389714248E+03 0.  0.
        2    1    3    3  502    0  0.12240037691E+03 -0.36559974315E+01  0.36105128931E+00  0.12245549784E+03  0.25500000920E-02 0. -1.
       -2    1    3    3    0  502 -0.12240037691E+03  0.36559974315E+01  0.13651683419E+04  0.13706494156E+04  0.25500000920E-02 0.  1.
</event>
<event>
 5   0  0.9530666E-03  0.6000198E+03  0.7818609E-02  0.9905365E-01
       -2   -1    0    0    0  501  0.00000000000E+00  0.00000000000E+00  0.89104350470E+03  0.89104350470E+03  0.25500000920E-02 0. -1.
        2   -1    0    0  501    0  0.00000000000E+00  0.00000000000E+00 -0.10101184966E+03  0.10101184969E+03  0.25500000920E-02 0.  1.
    10030    2    1    2    0    0  0.00000000000E+00  0.00000000000E+00  0.79003165504E+03  0.99205535440E+03  0.60001984153E+03 0.  0.
        2    1    3    3  502    0 -0.13796964432E+03 -0.24530591109E+03  0.22322955684E+03  0.35922423056E+03  0.25500000920E-02 0.  1.
       -2    1    3    3    0  502  0.13796964432E+03  0.24530591109E+03  0.56680209819E+03  0.63283112383E+03  0.25500000920E-02 0. -1.
</event>
<event>
 5   0  0.5574736E-03  0.6002495E+03  0.7818609E-02  0.9904889E-01
        1   -1    0    0  501    0  0.00000000000E+00  0.00000000000E+00  0.22174486939E+03  0.22174486945E+03  0.50400001928E-02 0. -1.
       -1   -1    0    0    0  501  0.00000000000E+00  0.00000000000E+00 -0.40620944584E+03  0.40620944587E+03  0.50400001928E-02 0.  1.
    10030    2    1    2    0    0  0.00000000000E+00  0.00000000000E+00 -0.18446457645E+03  0.62795431532E+03  0.60024948327E+03 0.  0.
        5    1    3    3  502    0 -0.14221823345E+03  0.72331287749E+02  0.17365371051E+03  0.23587187684E+03  0.46999998093E+01 0. -1.
       -5    1    3    3    0  502  0.14221823345E+03 -0.72331287749E+02 -0.35811828695E+03  0.39208243848E+03  0.46999998093E+01 0.  1.
</event>
<event>
 5   0  0.9681801E-03  0.5997288E+03  0.7818609E-02  0.9905969E-01
       -2   -1    0    0    0  501  0.00000000000E+00  0.00000000000E+00  0.10630729214E+03  0.10630729217E+03  0.25500000920E-02 0. -1.
        2   -1    0    0  501    0  0.00000000000E+00  0.00000000000E+00 -0.84583725341E+03  0.84583725342E+03  0.25500000920E-02 0.  1.
    10030    2    1    2    0    0  0.00000000000E+00  0.00000000000E+00 -0.73952996127E+03  0.95214454559E+03  0.59972883211E+03 0.  0.
        4    1    3    3  502    0 -0.30807164391E+02 -0.28428597916E+03 -0.51308678259E+03  0.58739020991E+03  0.12699999809E+01 0. -1.
       -4    1    3    3    0  502  0.30807164391E+02  0.28428597916E+03 -0.22644317868E+03  0.36475433568E+03  0.12699999809E+01 0.  1.
</event>
<event>
 5   0  0.5785798E-03  0.5995346E+03  0.7818609E-02  0.9906372E-01
        1   -1    0    0  501    0  0.00000000000E+00  0.00000000000E+00  0.75226360433E+03  0.75226360435E+03  0.50400001928E-02 0. -1.
       -1   -1    0    0    0  501  0.00000000000E+00  0.00000000000E+00 -0.11945337236E+03  0.11945337246E+03  0.50400001928E-02 0.  1.
    10030    2    1    2    0    0  0.00000000000E+00  0.00000000000E+00  0.63281023198E+03  0.87171697681E+03  0.59953456779E+03 0.  0.
        1    1    3    3  502    0  0.17588611571E+03 -0.20884546281E+01 -0.36528600908E+02  0.17965140147E+03  0.50400001928E-02 0.  1.
       -1    1    3    3    0  502 -0.17588611571E+03  0.20884546281E+01  0.66933883288E+03  0.69206557534E+03  0.50400001928E-02 0. -1.
</event>
<event>
 5   0  0.5574736E-03  0.6014337E+03  0.7818609E-02  0.9902436E-01
       -1   -1    0    0    0  501  0.00000000000E+00  0.00000000000E+00  0.58626968368E+02  0.58626968585E+02  0.50400001928E-02 0. -1.
        1   -1    0    0  501    0  0.00000000000E+00  0.00000000000E+00 -0.15424747493E+04  0.15424747494E+04  0.50400001928E-02 0.  1.
    10030    2    1    2    0    0  0.00000000000E+00  0.00000000000E+00 -0.14838477810E+04  0.16011017179E+04  0.60143368219E+03 0.  0.
        5    1    3    3  502    0 -0.21099506913E+03 -0.95909622305E+02 -0.23199375630E+03  0.32796458316E+03  0.46999998093E+01 0. -1.
       -5    1    3    3    0  502  0.21099506913E+03  0.95909622305E+02 -0.12518540247E+04  0.12731371348E+04  0.46999998093E+01 0.  1.
</event>
<event>
 5   0  0.5503975E-03  0.5994276E+03  0.7818609E-02  0.9906594E-01
       -1   -1    0    0    0  501  0.00000000000E+00  0.00000000000E+00  0.41672223730E+03  0.41672223733E+03  0.50400001928E-02 0. -1.
        1   -1    0    0  501    0  0.00000000000E+00  0.00000000000E+00 -0.21555934252E+03  0.21555934258E+03  0.50400001928E-02 0.  1.
    10030    2    1    2    0    0  0.00000000000E+00  0.00000000000E+00  0.20116289478E+03  0.63228157991E+03  0.59942763204E+03 0.  0.
        4    1    3    3  502    0  0.14240703531E+03 -0.89769527901E+02  0.36214092518E+03  0.39935697619E+03  0.12699999809E+01 0. -1.
       -4    1    3    3    0  502 -0.14240703531E+03  0.89769527901E+02 -0.16097803039E+03  0.23292460371E+03  0.12699999809E+01 0.  1.
</event>
<event>
 5   0  0.9530666E-03  0.5966841E+03  0.7818609E-02  0.9912310E-01
       -2   -1    0    0    0  501  0.00000000000E+00  0.00000000000E+00  0.21185297427E+03  0.21185297428E+03  0.25500000920E-02 0. -1.
        2   -1    0    0  501    0  0.00000000000E+00  0.00000000000E+00 -0.42014028829E+03  0.42014028830E+03  0.25500000920E-02 0.  1.
    10030    2    1    2    0    0  0.00000000000E+00  0.00000000000E+00 -0.20828731402E+03  0.63199326259E+03  0.59668406948E+03 0.  0.
        2    1    3    3  502    0  0.10676618442E+03  0.74994817735E+02  0.18003286327E+03  0.22233999344E+03  0.25500000920E-02 0. -1.
       -2    1    3    3    0  502 -0.10676618442E+03 -0.74994817735E+02 -0.38832017729E+03  0.40965326914E+03  0.25500000920E-02 0.  1.
</event>
<event>
 5   0  0.9428629E-03  0.5995100E+03  0.7818609E-02  0.9906423E-01
        2   -1    0    0  501    0  0.00000000000E+00  0.00000000000E+00  0.14897266308E+04  0.14897266308E+04  0.25500000920E-02 0.  1.
       -2   -1    0    0    0  501  0.00000000000E+00  0.00000000000E+00 -0.60315127434E+02  0.60315127488E+02  0.25500000920E-02 0. -1.
    10030    2    1    2    0    0  0.00000000000E+00  0.00000000000E+00  0.14294115034E+04  0.15500417583E+04  0.59950997198E+03 0.  0.
        3    1    3    3  502    0  0.22392203086E+03  0.19758679451E+03  0.78170122621E+03  0.83680250629E+03  0.10100000352E+00 0. -1.
       -3    1    3    3    0  502 -0.22392203086E+03 -0.19758679451E+03  0.64771027719E+03  0.71323925203E+03  0.10100000352E+00 0.  1.
</event>
<event>
 5   0  0.5491236E-03  0.5995453E+03  0.7818609E-02  0.9906350E-01
        1   -1    0    0  501    0  0.00000000000E+00  0.00000000000E+00  0.52662364998E+03  0.52662365001E+03  0.50400001928E-02 0.  1.
       -1   -1    0    0    0  501  0.00000000000E+00  0.00000000000E+00 -0.17064112569E+03  0.17064112577E+03  0.50400001928E-02 0. -1.
    10030    2    1    2    0    0  0.00000000000E+00  0.00000000000E+00  0.35598252429E+03  0.69726477577E+03  0.59954533601E+03 0.  0.
        3    1    3    3  502    0 -0.11963485714E+03 -0.14563481967E+03 -0.93116578570E+02  0.21022061542E+03  0.10100000352E+00 0. -1.
       -3    1    3    3    0  502  0.11963485714E+03  0.14563481967E+03  0.44909910286E+03  0.48704416035E+03  0.10100000352E+00 0.  1.
</event>
<event>
 5   0  0.9571790E-03  0.6001033E+03  0.7818609E-02  0.9905192E-01
        2   -1    0    0  501    0  0.00000000000E+00  0.00000000000E+00  0.69517810461E+03  0.69517810461E+03  0.25500000920E-02 0. -1.
       -2   -1    0    0    0  501  0.00000000000E+00  0.00000000000E+00 -0.12950780657E+03  0.12950780659E+03  0.25500000920E-02 0.  1.
    10030    2    1    2    0    0  0.00000000000E+00  0.00000000000E+00  0.56567029804E+03  0.82468591120E+03  0.60010329615E+03 0.  0.
        5    1    3    3  502    0  0.28748680751E+03  0.19470764472E+02  0.39765720323E+03  0.49110194099E+03  0.46999998093E+01 0. -1.
       -5    1    3    3    0  502 -0.28748680751E+03 -0.19470764472E+02  0.16801309481E+03  0.33358397022E+03  0.46999998093E+01 0.  1.
</event>
<event>
 5   0  0.9571790E-03  0.6006022E+03  0.7818609E-02  0.9904158E-01
       -2   -1    0    0    0  501  0.00000000000E+00  0.00000000000E+00  0.21589556259E+03  0.21589556261E+03  0.25500000920E-02 0.  1.
        2   -1    0    0  501    0  0.00000000000E+00  0.00000000000E+00 -0.41770539351E+03  0.41770539351E+03  0.25500000920E-02 0. -1.
    10030    2    1    2    0    0  0.00000000000E+00  0.00000000000E+00 -0.20180983091E+03  0.63360095612E+03  0.60060216762E+03 0.  0.
        5    1    3    3  502    0 -0.20406696067E+03 -0.21600568569E+03 -0.55445933296E+02  0.30232122355E+03  0.46999998093E+01 0.  1.
       -5    1    3    3    0  502  0.20406696067E+03  0.21600568569E+03 -0.14636389762E+03  0.33127973257E+03  0.46999998093E+01 0. -1.
</event>
<event>
 5   0  0.9571790E-03  0.6000750E+03  0.7818609E-02  0.9905250E-01
        2   -1    0    0  501    0  0.00000000000E+00  0.00000000000E+00  0.35292386463E+03  0.35292386464E+03  0.25500000920E-02 0. -1.
       -2   -1    0    0    0  501  0.00000000000E+00  0.00000000000E+00 -0.25507630192E+03  0.25507630194E+03  0.25500000920E-02 0.  1.
    10030    2    1    2    0    0  0.00000000000E+00  0.00000000000E+00  0.97847562702E+02  0.60800016657E+03  0.60007504283E+03 0.  0.
        5    1    3    3  502    0  0.26212817777E+03 -0.14459433845E+03  0.29128094625E+02  0.30081429518E+03  0.46999998093E+01 0.  1.
       -5    1    3    3    0  502 -0.26212817777E+03  0.14459433845E+03  0.68719468077E+02  0.30718587139E+03  0.46999998093E+01 0. -1.
</event>
<event>
 5   0  0.5503975E-03  0.6012955E+03  0.7818609E-02  0.9902722E-01
       -1   -1    0    0    0  501  0.00000000000E+00  0.00000000000E+00  0.47194827106E+02  0.47194827375E+02  0.50400001928E-02 0.  1.
        1   -1    0    0  501    0  0.00000000000E+00  0.00000000000E+00 -0.19152327112E+04  0.19152327112E+04  0.50400001928E-02 0. -1.
    10030    2    1    2    0    0  0.00000000000E+00  0.00000000000E+00 -0.18680378841E+04  0.19624275386E+04  0.60129552450E+03 0.  0.
        4    1    3    3  502    0  0.27879559248E+03  0.69170453837E+02 -0.12236576366E+04  0.12569213017E+04  0.12699999809E+01 0. -1.
       -4    1    3    3    0  502 -0.27879559248E+03 -0.69170453837E+02 -0.64438024754E+03  0.70550623696E+03  0.12699999809E+01 0.  1.
</event>
<event>
 5   0  0.9681801E-03  0.6006534E+03  0.7818609E-02  0.9904051E-01
       -2   -1    0    0    0  501  0.00000000000E+00  0.00000000000E+00  0.13091648186E+03  0.13091648188E+03  0.25500000920E-02 0.  1.
        2   -1    0    0  501    0  0.00000000000E+00  0.00000000000E+00 -0.68895923476E+03  0.68895923477E+03  0.25500000920E-02 0. -1.
    10030    2    1    2    0    0  0.00000000000E+00  0.00000000000E+00 -0.55804275291E+03  0.81987571665E+03  0.60065337481E+03 0.  0.
        4    1    3    3  502    0 -0.11416027498E+03  0.15967222632E+03 -0.58928405648E+03  0.62111601200E+03  0.12699999809E+01 0. -1.
       -4    1    3    3    0  502  0.11416027498E+03 -0.15967222632E+03  0.31241303579E+02  0.19875970464E+03  0.12699999809E+01 0.  1.
</event>
<event>
 5   0  0.5785798E-03  0.5998384E+03  0.7818609E-02  0.9905741E-01
        1   -1    0    0  501    0  0.00000000000E+00  0.00000000000E+00  0.13394808845E+04  0.13394808846E+04  0.50400001928E-02 0.  1.
       -1   -1    0    0    0  501  0.00000000000E+00  0.00000000000E+00 -0.67154020443E+02  0.67154020632E+02  0.50400001928E-02 0. -1.
    10030    2    1    2    0    0  0.00000000000E+00  0.00000000000E+00  0.12723268641E+04  0.14066349052E+04  0.59983840105E+03 0.  0.
        1    1    3    3  502    0 -0.25547751328E+03 -0.10172449505E+03  0.35539752588E+03  0.44935958220E+03  0.50400001928E-02 0. -1.
       -1    1    3    3    0  502  0.25547751328E+03  0.10172449505E+03  0.91692933822E+03  0.95727532298E+03  0.50400001928E-02 0.  1.
</event>
<event>
 5   0  0.3794375E-03  0.5979558E+03  0.7818609E-02  0.9909656E-01
       -3   -1    0    0    0  501  0.00000000000E+00  0.00000000000E+00  0.10434922377E+03  0.10434927265E+03  0.10100000352E+00 0.  1.
        3   -1    0    0  501    0  0.00000000000E+00  0.00000000000E+00 -0.85662121274E+03  0.85662121869E+03  0.10100000352E+00 0. -1.
    10030    2    1    2    0    0  0.00000000000E+00  0.00000000000E+00 -0.75227198897E+03  0.96097049134E+03  0.59795580092E+03 0.  0.
        4    1    3    3  502    0 -0.25618115344E+03  0.24197905079E+02 -0.13149945575E+03  0.28897758001E+03  0.12699999809E+01 0.  1.
       -4    1    3    3    0  502  0.25618115344E+03 -0.24197905079E+02 -0.62077253321E+03  0.67199291133E+03  0.12699999809E+01 0. -1.
</event>
<event>
 5   0  0.5785798E-03  0.5865279E+03  0.7818609E-02  0.9933757E-01
       -1   -1    0    0    0  501  0.00000000000E+00  0.00000000000E+00  0.90075107003E+02  0.90075107144E+02  0.50400001928E-02 0. -1.
        1   -1    0    0  501    0  0.00000000000E+00  0.00000000000E+00 -0.95480027385E+03  0.95480027387E+03  0.50400001928E-02 0.  1.
    10030    2    1    2    0    0  0.00000000000E+00  0.00000000000E+00 -0.86472516685E+03  0.10448753810E+04  0.58652787458E+03 0.  0.
        1    1    3    3  502    0 -0.11399664532E+02 -0.24555995066E+02  0.87844159490E+02  0.91921410058E+02  0.50400001928E-02 0. -1.
       -1    1    3    3    0  502  0.11399664532E+02  0.24555995066E+02 -0.95256932634E+03  0.95295397095E+03  0.50400001928E-02 0.  1.
</event>
<event>
 5   0  0.5653633E-03  0.5986348E+03  0.7818609E-02  0.9908243E-01
       -1   -1    0    0    0  501  0.00000000000E+00  0.00000000000E+00  0.13639703529E+03  0.13639703538E+03  0.50400001928E-02 0.  1.
        1   -1    0    0  501    0  0.00000000000E+00  0.00000000000E+00 -0.65683905313E+03  0.65683905315E+03  0.50400001928E-02 0. -1.
    10030    2    1    2    0    0  0.00000000000E+00  0.00000000000E+00 -0.52044201784E+03  0.79323608853E+03  0.59863477865E+03 0.  0.
        2    1    3    3  502    0  0.88498070542E+02  0.28592719672E+03 -0.25737002336E+03  0.39474751328E+03  0.25500000920E-02 0. -1.
       -2    1    3    3    0  502 -0.88498070542E+02 -0.28592719672E+03 -0.26307199449E+03  0.39848857525E+03  0.25500000920E-02 0.  1.
</event>
<event>
 5   0  0.9681801E-03  0.5989178E+03  0.7818609E-02  0.9907654E-01
       -2   -1    0    0    0  501  0.00000000000E+00  0.00000000000E+00  0.70908446183E+02  0.70908446228E+02  0.25500000920E-02 0.  1.
        2   -1    0    0  501    0  0.00000000000E+00  0.00000000000E+00 -0.12646678685E+04  0.12646678685E+04  0.25500000920E-02 0. -1.
    10030    2    1    2    0    0  0.00000000000E+00  0.00000000000E+00 -0.11937594223E+04  0.13355763147E+04  0.59891780246E+03 0.  0.
        4    1    3    3  502    0  0.13387741326E+03 -0.19148314546E+03 -0.17918149380E+03  0.29444282535E+03  0.12699999809E+01 0.  1.
       -4    1    3    3    0  502 -0.13387741326E+03  0.19148314546E+03 -0.10145779285E+04  0.10411334894E+04  0.12699999809E+01 0. -1.
</event>
<event>
 5   0  0.5503975E-03  0.6001092E+03  0.7818609E-02  0.9905180E-01
       -1   -1    0    0    0  501  0.00000000000E+00  0.00000000000E+00  0.74618493054E+02  0.74618493224E+02  0.50400001928E-02 0.  1.
        1   -1    0    0  501    0  0.00000000000E+00  0.00000000000E+00 -0.12065744120E+04  0.12065744120E+04  0.50400001928E-02 0. -1.
    10030    2    1    2    0    0  0.00000000000E+00  0.00000000000E+00 -0.11319559189E+04  0.12811929052E+04  0.60010920504E+03 0.  0.
        4    1    3    3  502    0  0.69620505671E+02 -0.20607304011E+03 -0.10072332141E+04  0.10304530426E+04  0.12699999809E+01 0. -1.
       -4    1    3    3    0  502 -0.69620505671E+02  0.20607304011E+03 -0.12472270483E+03  0.25073986255E+03  0.12699999809E+01 0.  1.
</event>
<event>
 5   0  0.5785798E-03  0.6001816E+03  0.7818609E-02  0.9905029E-01
       -1   -1    0    0    0  501  0.00000000000E+00  0.00000000000E+00  0.12484460695E+03  0.12484460705E+03  0.50400001928E-02 0. -1.
        1   -1    0    0  501    0  0.00000000000E+00  0.00000000000E+00 -0.72133271105E+03  0.72133271107E+03  0.50400001928E-02 0.  1.
    10030    2    1    2    0    0  0.00000000000E+00  0.00000000000E+00 -0.59648810410E+03  0.84617731813E+03  0.60018163532E+03 0.  0.
        1    1    3    3  502    0  0.41104567310E+01 -0.13041706129E+03 -0.67924524341E+03  0.69166437413E+03  0.50400001928E-02 0.  1.
       -1    1    3    3    0  502 -0.41104567310E+01  0.13041706129E+03  0.82757139305E+02  0.15451294399E+03  0.50400001928E-02 0. -1.
</event>
<event>
 5   0  0.9866317E-03  0.6012113E+03  0.7818609E-02  0.9902896E-01
       -2   -1    0    0    0  501  0.00000000000E+00  0.00000000000E+00  0.10855226086E+03  0.10855226089E+03  0.25500000920E-02 0.  1.
        2   -1    0    0  501    0  0.00000000000E+00  0.00000000000E+00 -0.83244473013E+03  0.83244473013E+03  0.25500000920E-02 0. -1.
    10030    2    1    2    0    0  0.00000000000E+00  0.00000000000E+00 -0.72389246926E+03  0.94099699102E+03  0.60121130234E+03 0.  0.
        1    1    3    3  502    0 -0.15785100183E+03 -0.41315599915E+02 -0.75710041660E+03  0.77448367214E+03  0.50400001928E-02 0. -1.
       -1    1    3    3    0  502  0.15785100183E+03  0.41315599915E+02  0.33207947333E+02  0.16651331888E+03  0.50400001928E-02 0.  1.
</event>
<event>
 5   0  0.3794375E-03  0.6051594E+03  0.7818609E-02  0.9894759E-01
        3   -1    0    0  501    0  0.00000000000E+00  0.00000000000E+00  0.13322044192E+03  0.13322048021E+03  0.10100000352E+00 0. -1.
       -3   -1    0    0    0  501  0.00000000000E+00  0.00000000000E+00 -0.68724040068E+03  0.68724040810E+03  0.10100000352E+00 0.  1.
    10030    2    1    2    0    0  0.00000000000E+00  0.00000000000E+00 -0.55401995876E+03  0.82046088831E+03  0.60515944555E+03 0.  0.
        3    1    3    3  502    0 -0.27442386727E+03 -0.52190572848E+02 -0.11935374114E+03  0.30377234987E+03  0.10100000352E+00 0. -1.
       -3    1    3    3    0  502  0.27442386727E+03  0.52190572848E+02 -0.43466621762E+03  0.51668853844E+03  0.10100000352E+00 0.  1.
</event>
<event>
 5   0  0.9571790E-03  0.6005889E+03  0.7818609E-02  0.9904185E-01
       -2   -1    0    0    0  501  0.00000000000E+00  0.00000000000E+00  0.25959237265E+03  0.25959237267E+03  0.25500000920E-02 0.  1.
        2   -1    0    0  501    0  0.00000000000E+00  0.00000000000E+00 -0.34737835183E+03  0.34737835184E+03  0.25500000920E-02 0. -1.
    10030    2    1    2    0    0  0.00000000000E+00  0.00000000000E+00 -0.87785979177E+02  0.60697072451E+03  0.60058894618E+03 0.  0.
        5    1    3    3  502    0  0.14404100710E+03 -0.26228866674E+03 -0.18901208194E+02  0.29987080901E+03  0.46999998093E+01 0. -1.
       -5    1    3    3    0  502 -0.14404100710E+03  0.26228866674E+03 -0.68884770982E+02  0.30709991550E+03  0.46999998093E+01 0.  1.
</event>
<event>
 5   0  0.5503975E-03  0.6001473E+03  0.7818609E-02  0.9905101E-01
        1   -1    0    0  501    0  0.00000000000E+00  0.00000000000E+00  0.45004957219E+03  0.45004957222E+03  0.50400001928E-02 0.  1.
       -1   -1    0    0    0  501  0.00000000000E+00  0.00000000000E+00 -0.20007615219E+03  0.20007615225E+03  0.50400001928E-02 0. -1.
    10030    2    1    2    0    0  0.00000000000E+00  0.00000000000E+00  0.24997342000E+03  0.65012572447E+03  0.60014727102E+03 0.  0.
        4    1    3    3  502    0  0.19401122458E+03  0.21945857080E+02  0.37182319749E+03  0.41997152165E+03  0.12699999809E+01 0.  1.
       -4    1    3    3    0  502 -0.19401122458E+03 -0.21945857080E+02 -0.12184977748E+03  0.23015420282E+03  0.12699999809E+01 0. -1.
</event>
<event>
 5   0  0.9681801E-03  0.6006146E+03  0.7818609E-02  0.9904132E-01
       -2   -1    0    0    0  501  0.00000000000E+00  0.00000000000E+00  0.19513675349E+03  0.19513675351E+03  0.25500000920E-02 0.  1.
        2   -1    0    0  501    0  0.00000000000E+00  0.00000000000E+00 -0.46216043590E+03  0.46216043590E+03  0.25500000920E-02 0. -1.
    10030    2    1    2    0    0  0.00000000000E+00  0.00000000000E+00 -0.26702368240E+03  0.65729718941E+03  0.60061464205E+03 0.  0.
        4    1    3    3  502    0  0.68189985547E+02 -0.28345691547E+02  0.18504228696E+03  0.19923757985E+03  0.12699999809E+01 0.  1.
       -4    1    3    3    0  502 -0.68189985547E+02  0.28345691547E+02 -0.45206596937E+03  0.45805960957E+03  0.12699999809E+01 0. -1.
</event>
<event>
 5   0  0.9530666E-03  0.6011170E+03  0.7818609E-02  0.9903091E-01
       -2   -1    0    0    0  501  0.00000000000E+00  0.00000000000E+00  0.16480922424E+03  0.16480922426E+03  0.25500000920E-02 0.  1.
        2   -1    0    0  501    0  0.00000000000E+00  0.00000000000E+00 -0.54812115219E+03  0.54812115219E+03  0.25500000920E-02 0. -1.
    10030    2    1    2    0    0  0.00000000000E+00  0.00000000000E+00 -0.38331192795E+03  0.71293037645E+03  0.60111703316E+03 0.  0.
        2    1    3    3  502    0 -0.14461261975E+03  0.54319579103E+02  0.11412288620E+03  0.19206108306E+03  0.25500000920E-02 0.  1.
       -2    1    3    3    0  502  0.14461261975E+03 -0.54319579103E+02 -0.49743481415E+03  0.52086929339E+03  0.25500000920E-02 0. -1.
</event>
<event>
 5   0  0.5785798E-03  0.6020529E+03  0.7818609E-02  0.9901156E-01
       -1   -1    0    0    0  501  0.00000000000E+00  0.00000000000E+00  0.11392225502E+03  0.11392225513E+03  0.50400001928E-02 0.  1.
        1   -1    0    0  501    0  0.00000000000E+00  0.00000000000E+00 -0.79542765351E+03  0.79542765352E+03  0.50400001928E-02 0. -1.
    10030    2    1    2    0    0  0.00000000000E+00  0.00000000000E+00 -0.68150539848E+03  0.90934990866E+03  0.60205286164E+03 0.  0.
        1    1    3    3  502    0  0.11903727357E+02  0.18117005029E+03  0.21912555623E+02  0.18287822715E+03  0.50400001928E-02 0.  1.
       -1    1    3    3    0  502 -0.11903727357E+02 -0.18117005029E+03 -0.70341795411E+03  0.72647168151E+03  0.50400001928E-02 0. -1.
</event>
<event>
 5   0  0.9530666E-03  0.6006330E+03  0.7818609E-02  0.9904094E-01
        2   -1    0    0  501    0  0.00000000000E+00  0.00000000000E+00  0.43534300830E+03  0.43534300831E+03  0.25500000920E-02 0. -1.
       -2   -1    0    0    0  501  0.00000000000E+00  0.00000000000E+00 -0.20716998051E+03  0.20716998053E+03  0.25500000920E-02 0.  1.
    10030    2    1    2    0    0  0.00000000000E+00  0.00000000000E+00  0.22817302779E+03  0.64251298884E+03  0.60063300793E+03 0.  0.
        2    1    3    3  502    0 -0.10257631990E+02  0.15676101058E+03 -0.15971072577E+03  0.22402399288E+03  0.25500000920E-02 0.  1.
       -2    1    3    3    0  502  0.10257631990E+02 -0.15676101058E+03  0.38788375356E+03  0.41848899596E+03  0.25500000920E-02 0. -1.
</event>
<event>
 5   0  0.5653633E-03  0.5980595E+03  0.7818609E-02  0.9909440E-01
        1   -1    0    0  501    0  0.00000000000E+00  0.00000000000E+00  0.35169455555E+03  0.35169455558E+03  0.50400001928E-02 0.  1.
       -1   -1    0    0    0  501  0.00000000000E+00  0.00000000000E+00 -0.25425126473E+03  0.25425126478E+03  0.50400001928E-02 0. -1.
    10030    2    1    2    0    0  0.00000000000E+00  0.00000000000E+00  0.97443290819E+02  0.60594582036E+03  0.59805948056E+03 0.  0.
        2    1    3    3  502    0 -0.66050044396E+01  0.29853781285E+03  0.32691068907E+02  0.30039500292E+03  0.25500000920E-02 0.  1.
       -2    1    3    3    0  502  0.66050044396E+01 -0.29853781285E+03  0.64752221912E+02  0.30555081744E+03  0.25500000920E-02 0. -1.
</event>
<event>
 5   0  0.5503975E-03  0.5997113E+03  0.7818609E-02  0.9906005E-01
       -1   -1    0    0    0  501  0.00000000000E+00  0.00000000000E+00  0.65949825574E+03  0.65949825576E+03  0.50400001928E-02 0.  1.
        1   -1    0    0  501    0  0.00000000000E+00  0.00000000000E+00 -0.13633608946E+03  0.13633608955E+03  0.50400001928E-02 0. -1.
    10030    2    1    2    0    0  0.00000000000E+00  0.00000000000E+00  0.52316216627E+03  0.79583434531E+03  0.59971130801E+03 0.  0.
        4    1    3    3  502    0  0.25496785840E+03  0.12713453633E+03  0.13751982366E+03  0.31636231436E+03  0.12699999809E+01 0.  1.
       -4    1    3    3    0  502 -0.25496785840E+03 -0.12713453633E+03  0.38564234262E+03  0.47947203095E+03  0.12699999809E+01 0. -1.
</event>
<event>
 5   0  0.9866317E-03  0.5996838E+03  0.7818609E-02  0.9906062E-01
       -2   -1    0    0    0  501  0.00000000000E+00  0.00000000000E+00  0.65963020662E+02  0.65963020711E+02  0.25500000920E-02 0.  1.
        2   -1    0    0  501    0  0.00000000000E+00  0.00000000000E+00 -0.13629632709E+04  0.13629632709E+04  0.25500000920E-02 0. -1.
    10030    2    1    2    0    0  0.00000000000E+00  0.00000000000E+00 -0.12970002503E+04  0.14289262917E+04  0.59968383150E+03 0.  0.
        1    1    3    3  502    0 -0.77515616519E+02 -0.28457140528E+03 -0.51983736422E+03  0.59767921226E+03  0.50400001928E-02 0.  1.
       -1    1    3    3    0  502  0.77515616519E+02  0.28457140528E+03 -0.77716288606E+03  0.83124707940E+03  0.50400001928E-02 0. -1.
</event>
<event>
 5   0  0.9530666E-03  0.5995280E+03  0.7818609E-02  0.9906386E-01
       -2   -1    0    0    0  501  0.00000000000E+00  0.00000000000E+00  0.18715745774E+03  0.18715745776E+03  0.25500000920E-02 0. -1.
        2   -1    0    0  501    0  0.00000000000E+00  0.00000000000E+00 -0.48012215309E+03  0.48012215309E+03  0.25500000920E-02 0.  1.
    10030    2    1    2    0    0  0.00000000000E+00  0.00000000000E+00 -0.29296469534E+03  0.66727961086E+03  0.59952795293E+03 0.  0.
        2    1    3    3  502    0  0.20177825251E+02  0.10696702440E+03  0.16438260011E+03  0.19715660822E+03  0.25500000920E-02 0. -1.
       -2    1    3    3    0  502 -0.20177825251E+02 -0.10696702440E+03 -0.45734729545E+03  0.47012300263E+03  0.25500000920E-02 0.  1.
</event>
<event>
 5   0  0.5785798E-03  0.6007275E+03  0.7818609E-02  0.9903898E-01
        1   -1    0    0  501    0  0.00000000000E+00  0.00000000000E+00  0.13129157911E+03  0.13129157921E+03  0.50400001928E-02 0. -1.
       -1   -1    0    0    0  501  0.00000000000E+00  0.00000000000E+00 -0.68716055658E+03  0.68716055660E+03  0.50400001928E-02 0.  1.
    10030    2    1    2    0    0  0.00000000000E+00  0.00000000000E+00 -0.55586897747E+03  0.81845213580E+03  0.60072754098E+03 0.  0.
        1    1    3    3  502    0 -0.24404634176E+03  0.11240046226E+03 -0.46085583443E+03  0.53346094608E+03  0.50400001928E-02 0.  1.
       -1    1    3    3    0  502  0.24404634176E+03 -0.11240046226E+03 -0.95013143041E+02  0.28499118972E+03  0.50400001928E-02 0. -1.
</event>
<event>
 5   0  0.5653633E-03  0.6006070E+03  0.7818609E-02  0.9904148E-01
       -1   -1    0    0    0  501  0.00000000000E+00  0.00000000000E+00  0.95638760292E+03  0.95638760293E+03  0.50400001928E-02 0.  1.
        1   -1    0    0  501    0  0.00000000000E+00  0.00000000000E+00 -0.94294609586E+02  0.94294609721E+02  0.50400001928E-02 0. -1.
    10030    2    1    2    0    0  0.00000000000E+00  0.00000000000E+00  0.86209299333E+03  0.10506822127E+04  0.60060701197E+03 0.  0.
        2    1    3    3  502    0 -0.69537772475E+02  0.20042657593E+03  0.59225166774E+02  0.22025878989E+03  0.25500000920E-02 0. -1.
       -2    1    3    3    0  502  0.69537772475E+02 -0.20042657593E+03  0.80286782656E+03  0.83042342276E+03  0.25500000920E-02 0.  1.
</event>
<event>
 5   0  0.9866317E-03  0.5995343E+03  0.7818609E-02  0.9906373E-01
        2   -1    0    0  501    0  0.00000000000E+00  0.00000000000E+00  0.84940868687E+03  0.84940868687E+03  0.25500000920E-02 0. -1.
       -2   -1    0    0    0  501  0.00000000000E+00  0.00000000000E+00 -0.10579163793E+03  0.10579163797E+03  0.25500000920E-02 0.  1.
    10030    2    1    2    0    0  0.00000000000E+00  0.00000000000E+00  0.74361704894E+03  0.95520032484E+03  0.59953427350E+03 0.  0.
        1    1    3    3  502    0  0.20339388834E+03 -0.21177755088E+03  0.46795258817E+03  0.55244767144E+03  0.50400001928E-02 0.  1.
       -1    1    3    3    0  502 -0.20339388834E+03  0.21177755088E+03  0.27566446076E+03  0.40275265341E+03  0.50400001928E-02 0. -1.
</event>
<event>
 5   0  0.5653633E-03  0.6005341E+03  0.7818609E-02  0.9904299E-01
        1   -1    0    0  501    0  0.00000000000E+00  0.00000000000E+00  0.58330606191E+03  0.58330606193E+03  0.50400001928E-02 0. -1.
       -1   -1    0    0    0  501  0.00000000000E+00  0.00000000000E+00 -0.15456775827E+03  0.15456775836E+03  0.50400001928E-02 0.  1.
    10030    2    1    2    0    0  0.00000000000E+00  0.00000000000E+00  0.42873830364E+03  0.73787382029E+03  0.60053413031E+03 0.  0.
        2    1    3    3  502    0 -0.20362288173E+03  0.14591408281E+03  0.10957394708E+02  0.25074541278E+03  0.25500000920E-02 0.  1.
       -2    1    3    3    0  502  0.20362288173E+03 -0.14591408281E+03  0.41778090893E+03  0.48712840750E+03  0.25500000920E-02 0. -1.
</event>
<event>
 5   0  0.5785798E-03  0.5980902E+03  0.7818609E-02  0.9909376E-01
        1   -1    0    0  501    0  0.00000000000E+00  0.00000000000E+00  0.86744837654E+03  0.86744837655E+03  0.50400001928E-02 0. -1.
       -1   -1    0    0    0  501  0.00000000000E+00  0.00000000000E+00 -0.10309314321E+03  0.10309314333E+03  0.50400001928E-02 0.  1.
    10030    2    1    2    0    0  0.00000000000E+00  0.00000000000E+00  0.76435523333E+03  0.97054151989E+03  0.59809022656E+03 0.  0.
        1    1    3    3  502    0  0.19948809942E+02 -0.15142994813E+02 -0.10138825642E+03  0.10443583616E+03  0.50400001928E-02 0.  1.
       -1    1    3    3    0  502 -0.19948809942E+02  0.15142994813E+02  0.86574348975E+03  0.86610568372E+03  0.50400001928E-02 0. -1.
</event>
<event>
 5   0  0.3794375E-03  0.6005889E+03  0.7818609E-02  0.9904185E-01
       -3   -1    0    0    0  501  0.00000000000E+00  0.00000000000E+00  0.10174158293E+04  0.10174158343E+04  0.10100000352E+00 0.  1.
        3   -1    0    0  501    0  0.00000000000E+00  0.00000000000E+00 -0.88633116489E+02  0.88633174036E+02  0.10100000352E+00 0. -1.
    10030    2    1    2    0    0  0.00000000000E+00  0.00000000000E+00  0.92878271282E+03  0.11060490084E+04  0.60058894533E+03 0.  0.
        3    1    3    3  502    0  0.19535018084E+03  0.18663970492E+03  0.22300245074E+03  0.35032295935E+03  0.10100000352E+00 0.  1.
       -3    1    3    3    0  502 -0.19535018084E+03 -0.18663970492E+03  0.70578026208E+03  0.75572604901E+03  0.10100000352E+00 0. -1.
</event>
<event>
 5   0  0.9866317E-03  0.5997999E+03  0.7818609E-02  0.9905821E-01
        2   -1    0    0  501    0  0.00000000000E+00  0.00000000000E+00  0.12341723351E+04  0.12341723351E+04  0.25500000920E-02 0.  1.
       -2   -1    0    0    0  501  0.00000000000E+00  0.00000000000E+00 -0.72874724005E+02  0.72874724050E+02  0.25500000920E-02 0. -1.
    10030    2    1    2    0    0  0.00000000000E+00  0.00000000000E+00  0.11612976111E+04  0.13070470592E+04  0.59979986104E+03 0.  0.
        1    1    3    3  502    0  0.17542472362E+03 -0.22719537902E+03  0.76997563200E+03  0.82173843029E+03  0.50400001928E-02 0.  1.
       -1    1    3    3    0  502 -0.17542472362E+03  0.22719537902E+03  0.39132197909E+03  0.48530862886E+03  0.50400001928E-02 0. -1.
</event>
<event>
 5   0  0.9681801E-03  0.6002654E+03  0.7818609E-02  0.9904856E-01
       -2   -1    0    0    0  501  0.00000000000E+00  0.00000000000E+00  0.20006396068E+03  0.20006396070E+03  0.25500000920E-02 0.  1.
        2   -1    0    0  501    0  0.00000000000E+00  0.00000000000E+00 -0.45025412550E+03  0.45025412550E+03  0.25500000920E-02 0. -1.
    10030    2    1    2    0    0  0.00000000000E+00  0.00000000000E+00 -0.25019016482E+03  0.65031808620E+03  0.60026535355E+03 0.  0.
        4    1    3    3  502    0  0.20526678780E+03  0.18671880893E+03 -0.11924594718E+01  0.27749126588E+03  0.12699999809E+01 0.  1.
       -4    1    3    3    0  502 -0.20526678780E+03 -0.18671880893E+03 -0.24899770534E+03  0.37282682032E+03  0.12699999809E+01 0. -1.
</event>
<event>
 5   0  0.9681801E-03  0.6004660E+03  0.7818609E-02  0.9904440E-01
       -2   -1    0    0    0  501  0.00000000000E+00  0.00000000000E+00  0.73214706813E+02  0.73214706858E+02  0.25500000920E-02 0.  1.
        2   -1    0    0  501    0  0.00000000000E+00  0.00000000000E+00 -0.12311715275E+04  0.12311715275E+04  0.25500000920E-02 0. -1.
    10030    2    1    2    0    0  0.00000000000E+00  0.00000000000E+00 -0.11579568206E+04  0.13043862343E+04  0.60046602718E+03 0.  0.
        4    1    3    3  502    0 -0.26598026418E+03  0.55887631060E+02 -0.30190012977E+03  0.40621943515E+03  0.12699999809E+01 0.  1.
       -4    1    3    3    0  502  0.26598026418E+03 -0.55887631060E+02 -0.85605669087E+03  0.89816679917E+03  0.12699999809E+01 0. -1.
</event>
<event>
 5   0  0.9428629E-03  0.6013498E+03  0.7818609E-02  0.9902610E-01
       -2   -1    0    0    0  501  0.00000000000E+00  0.00000000000E+00  0.17870811687E+03  0.17870811689E+03  0.25500000920E-02 0.  1.
        2   -1    0    0  501    0  0.00000000000E+00  0.00000000000E+00 -0.50588304999E+03  0.50588304999E+03  0.25500000920E-02 0. -1.
    10030    2    1    2    0    0  0.00000000000E+00  0.00000000000E+00 -0.32717493311E+03  0.68459116688E+03  0.60134983904E+03 0.  0.
        3    1    3    3  502    0  0.29880991945E+03  0.22019912200E+02 -0.19223308925E+03  0.35598569535E+03  0.10100000352E+00 0.  1.
       -3    1    3    3    0  502 -0.29880991945E+03 -0.22019912200E+02 -0.13494184386E+03  0.32860547153E+03  0.10100000352E+00 0. -1.
</event>
<event>
 5   0  0.5785798E-03  0.6124736E+03  0.7818609E-02  0.9879860E-01
       -1   -1    0    0    0  501  0.00000000000E+00  0.00000000000E+00  0.35542353275E+02  0.35542353633E+02  0.50400001928E-02 0. -1.
        1   -1    0    0  501    0  0.00000000000E+00  0.00000000000E+00 -0.26385701229E+04  0.26385701229E+04  0.50400001928E-02 0.  1.
    10030    2    1    2    0    0  0.00000000000E+00  0.00000000000E+00 -0.26030277697E+04  0.26741124766E+04  0.61247364657E+03 0.  0.
        1    1    3    3  502    0 -0.85098211148E+01 -0.30004593558E+03 -0.10366176139E+04  0.10792015836E+04  0.50400001928E-02 0. -1.
       -1    1    3    3    0  502  0.85098211148E+01  0.30004593558E+03 -0.15664101557E+04  0.15949108930E+04  0.50400001928E-02 0.  1.
</event>
<event>
 5   0  0.9530666E-03  0.6007139E+03  0.7818609E-02  0.9903926E-01
        2   -1    0    0  501    0  0.00000000000E+00  0.00000000000E+00  0.94427896423E+03  0.94427896423E+03  0.25500000920E-02 0.  1.
       -2   -1    0    0    0  501  0.00000000000E+00  0.00000000000E+00 -0.95537760249E+02  0.95537760283E+02  0.25500000920E-02 0. -1.
    10030    2    1    2    0    0  0.00000000000E+00  0.00000000000E+00  0.84874120398E+03  0.10398167245E+04  0.60071389966E+03 0.  0.
        2    1    3    3  502    0 -0.10493560208E+03 -0.10453328965E+03 -0.27924521920E+02  0.15072646801E+03  0.25500000920E-02 0. -1.
       -2    1    3    3    0  502  0.10493560208E+03  0.10453328965E+03  0.87666572590E+03  0.88909025650E+03  0.25500000920E-02 0.  1.
</event>
<event>
 5   0  0.9866317E-03  0.5998742E+03  0.7818609E-02  0.9905667E-01
       -2   -1    0    0    0  501  0.00000000000E+00  0.00000000000E+00  0.71162818915E+02  0.71162818961E+02  0.25500000920E-02 0.  1.
        2   -1    0    0  501    0  0.00000000000E+00  0.00000000000E+00 -0.12641751535E+04  0.12641751535E+04  0.25500000920E-02 0. -1.
    10030    2    1    2    0    0  0.00000000000E+00  0.00000000000E+00 -0.11930123346E+04  0.13353379725E+04  0.59987421201E+03 0.  0.
        1    1    3    3  502    0 -0.12062221168E+03 -0.20263714857E+03 -0.18393485412E+03  0.29907116631E+03  0.50400001928E-02 0.  1.
       -1    1    3    3    0  502  0.12062221168E+03  0.20263714857E+03 -0.10090774805E+04  0.10362668062E+04  0.50400001928E-02 0. -1.
</event>
<event>
 5   0  0.5653633E-03  0.6006864E+03  0.7818609E-02  0.9903983E-01
       -1   -1    0    0    0  501  0.00000000000E+00  0.00000000000E+00  0.96328288211E+03  0.96328288212E+03  0.50400001928E-02 0.  1.
        1   -1    0    0  501    0  0.00000000000E+00  0.00000000000E+00 -0.93644389818E+02  0.93644389954E+02  0.50400001928E-02 0. -1.
    10030    2    1    2    0    0  0.00000000000E+00  0.00000000000E+00  0.86963849229E+03  0.10569272721E+04  0.60068640003E+03 0.  0.
        2    1    3    3  502    0 -0.16123652497E+03  0.24593081766E+03  0.32740336908E+03  0.44008198117E+03  0.25500000920E-02 0. -1.
       -2    1    3    3    0  502  0.16123652497E+03 -0.24593081766E+03  0.54223512320E+03  0.61684529090E+03  0.25500000920E-02 0.  1.
</event>
<event>
 5   0  0.5653633E-03  0.6001162E+03  0.7818609E-02  0.9905165E-01
        1   -1    0    0  501    0  0.00000000000E+00  0.00000000000E+00  0.57929623735E+03  0.57929623737E+03  0.50400001928E-02 0.  1.
       -1   -1    0    0    0  501  0.00000000000E+00  0.00000000000E+00 -0.15542109616E+03  0.15542109624E+03  0.50400001928E-02 0. -1.
    10030    2    1    2    0    0  0.00000000000E+00  0.00000000000E+00  0.42387514118E+03  0.73471733361E+03  0.60011617625E+03 0.  0.
        2    1    3    3  502    0  0.13122534956E+03  0.52734883575E+02 -0.11205778572E+03  0.18043837635E+03  0.25500000920E-02 0. -1.
       -2    1    3    3    0  502 -0.13122534956E+03 -0.52734883575E+02  0.53593292691E+03  0.55427895726E+03  0.25500000920E-02 0.  1.
</event>
<event>
 5   0  0.9866317E-03  0.6007454E+03  0.7818609E-02  0.9903861E-01
       -2   -1    0    0    0  501  0.00000000000E+00  0.00000000000E+00  0.78743505744E+02  0.78743505785E+02  0.25500000920E-02 0.  1.
        2   -1    0    0  501    0  0.00000000000E+00  0.00000000000E+00 -0.11457928409E+04  0.11457928409E+04  0.25500000920E-02 0. -1.
    10030    2    1    2    0    0  0.00000000000E+00  0.00000000000E+00 -0.10670493351E+04  0.12245363467E+04  0.60074535429E+03 0.  0.
        1    1    3    3  502    0  0.67688030451E+02  0.56824089990E+02  0.51641731780E+02  0.10235973406E+03  0.50400001928E-02 0.  1.
       -1    1    3    3    0  502 -0.67688030451E+02 -0.56824089990E+02 -0.11186910669E+04  0.11221766126E+04  0.50400001928E-02 0. -1.
</event>
<event>
 5   0  0.9681801E-03  0.5994326E+03  0.7818609E-02  0.9906584E-01
       -2   -1    0    0    0  501  0.00000000000E+00  0.00000000000E+00  0.99403291207E+02  0.99403291240E+02  0.25500000920E-02 0.  1.
        2   -1    0    0  501    0  0.00000000000E+00  0.00000000000E+00 -0.90369115379E+03  0.90369115379E+03  0.25500000920E-02 0. -1.
    10030    2    1    2    0    0  0.00000000000E+00  0.00000000000E+00 -0.80428786258E+03  0.10030944450E+04  0.59943264823E+03 0.  0.
        4    1    3    3  502    0 -0.24376364548E+03 -0.89565220965E+02 -0.15177180359E+03  0.30079716908E+03  0.12699999809E+01 0.  1.
       -4    1    3    3    0  502  0.24376364548E+03  0.89565220965E+02 -0.65251605900E+03  0.70229727595E+03  0.12699999809E+01 0. -1.
</event>
<event>
 5   0  0.9681801E-03  0.6002713E+03  0.7818609E-02  0.9904843E-01
        2   -1    0    0  501    0  0.00000000000E+00  0.00000000000E+00  0.10862746647E+04  0.10862746647E+04  0.25500000920E-02 0. -1.
       -2   -1    0    0    0  501  0.00000000000E+00  0.00000000000E+00 -0.82926914840E+02  0.82926914879E+02  0.25500000920E-02 0.  1.
    10030    2    1    2    0    0  0.00000000000E+00  0.00000000000E+00  0.10033477499E+04  0.11692015796E+04  0.60027129412E+03 0.  0.
        4    1    3    3  502    0 -0.24671398169E+03 -0.94401542332E+02  0.77919344974E+03  0.82275359918E+03  0.12699999809E+01 0. -1.
       -4    1    3    3    0  502  0.24671398169E+03  0.94401542332E+02  0.22415430012E+03  0.34644798040E+03  0.12699999809E+01 0.  1.
</event>
<event>
 5   0  0.5491236E-03  0.6034450E+03  0.7818609E-02  0.9898284E-01
        1   -1    0    0  501    0  0.00000000000E+00  0.00000000000E+00  0.34418632381E+03  0.34418632385E+03  0.50400001928E-02 0. -1.
       -1   -1    0    0    0  501  0.00000000000E+00  0.00000000000E+00 -0.26449763945E+03  0.26449763950E+03  0.50400001928E-02 0.  1.
    10030    2    1    2    0    0  0.00000000000E+00  0.00000000000E+00  0.79688684365E+02  0.60868396335E+03  0.60344501060E+03 0.  0.
        3    1    3    3  502    0  0.14746836559E+03  0.23704755433E+03 -0.75595738385E+02  0.28922860807E+03  0.10100000352E+00 0.  1.
       -3    1    3    3    0  502 -0.14746836559E+03 -0.23704755433E+03  0.15528442275E+03  0.31945535528E+03  0.10100000352E+00 0. -1.
</event>
<event>
 5   0  0.3794375E-03  0.5990490E+03  0.7818609E-02  0.9907381E-01
        3   -1    0    0  501    0  0.00000000000E+00  0.00000000000E+00  0.57992467923E+03  0.57992468803E+03  0.10100000352E+00 0.  1.
       -3   -1    0    0    0  501  0.00000000000E+00  0.00000000000E+00 -0.15470095737E+03  0.15470099034E+03  0.10100000352E+00 0. -1.
    10030    2    1    2    0    0  0.00000000000E+00  0.00000000000E+00  0.42522372186E+03  0.73462567837E+03  0.59904897437E+03 0.  0.
        2    1    3    3  502    0 -0.10270025931E+03  0.28053534479E+03  0.18609680903E+03  0.35196511940E+03  0.25500000920E-02 0. -1.
       -2    1    3    3    0  502  0.10270025931E+03 -0.28053534479E+03  0.23912691283E+03  0.38266055896E+03  0.25500000920E-02 0.  1.
</event>
<event>
 5   0  0.5491236E-03  0.5991671E+03  0.7818609E-02  0.9907136E-01
        1   -1    0    0  501    0  0.00000000000E+00  0.00000000000E+00  0.62056944798E+03  0.62056944800E+03  0.50400001928E-02 0. -1.
       -1   -1    0    0    0  501  0.00000000000E+00  0.00000000000E+00 -0.14462573142E+03  0.14462573151E+03  0.50400001928E-02 0.  1.
    10030    2    1    2    0    0  0.00000000000E+00  0.00000000000E+00  0.47594371656E+03  0.76519517951E+03  0.59916712311E+03 0.  0.
        3    1    3    3  502    0  0.12687392536E+03 -0.21856745425E+03  0.44342822430E+03  0.51038938596E+03  0.10100000352E+00 0. -1.
       -3    1    3    3    0  502 -0.12687392536E+03  0.21856745425E+03  0.32515492264E+02  0.25480579355E+03  0.10100000352E+00 0.  1.
</event>
<event>
 5   0  0.9530666E-03  0.5954541E+03  0.7818609E-02  0.9914882E-01
        2   -1    0    0  501    0  0.00000000000E+00  0.00000000000E+00  0.80160486853E+03  0.80160486854E+03  0.25500000920E-02 0. -1.
       -2   -1    0    0    0  501  0.00000000000E+00  0.00000000000E+00 -0.11057991843E+03  0.11057991846E+03  0.25500000920E-02 0.  1.
    10030    2    1    2    0    0  0.00000000000E+00  0.00000000000E+00  0.69102495010E+03  0.91218478700E+03  0.59545411576E+03 0.  0.
        2    1    3    3  502    0  0.24658337530E+03 -0.75314664220E+02  0.11743854071E+03  0.28331514338E+03  0.25500000920E-02 0.  1.
       -2    1    3    3    0  502 -0.24658337530E+03  0.75314664220E+02  0.57358640939E+03  0.62886964362E+03  0.25500000920E-02 0. -1.
</event>
<event>
 5   0  0.5653633E-03  0.6011849E+03  0.7818609E-02  0.9902951E-01
       -1   -1    0    0    0  501  0.00000000000E+00  0.00000000000E+00  0.11755936176E+03  0.11755936187E+03  0.50400001928E-02 0.  1.
        1   -1    0    0  501    0  0.00000000000E+00  0.00000000000E+00 -0.76859735360E+03  0.76859735361E+03  0.50400001928E-02 0. -1.
    10030    2    1    2    0    0  0.00000000000E+00  0.00000000000E+00 -0.65103799183E+03  0.88615671548E+03  0.60118487804E+03 0.  0.
        2    1    3    3  502    0  0.20985009098E+03  0.18938833303E+02 -0.95148023061E+01  0.21091768906E+03  0.25500000920E-02 0.  1.
       -2    1    3    3    0  502 -0.20985009098E+03 -0.18938833303E+02 -0.64152318953E+03  0.67523902642E+03  0.25500000920E-02 0. -1.
</event>
<event>
 5   0  0.5653633E-03  0.5988181E+03  0.7818609E-02  0.9907861E-01
       -1   -1    0    0    0  501  0.00000000000E+00  0.00000000000E+00  0.82643593670E+02  0.82643593824E+02  0.50400001928E-02 0. -1.
        1   -1    0    0  501    0  0.00000000000E+00  0.00000000000E+00 -0.10847273583E+04  0.10847273583E+04  0.50400001928E-02 0.  1.
    10030    2    1    2    0    0  0.00000000000E+00  0.00000000000E+00 -0.10020837646E+04  0.11673709521E+04  0.59881805964E+03 0.  0.
        2    1    3    3  502    0 -0.82915271293E+02  0.14634959516E+03 -0.98391224775E+03  0.99818658451E+03  0.25500000920E-02 0.  1.
       -2    1    3    3    0  502  0.82915271293E+02 -0.14634959516E+03 -0.18171516876E+02  0.16918436762E+03  0.25500000920E-02 0. -1.
</event>
<event>
 5   0  0.5785798E-03  0.6012233E+03  0.7818609E-02  0.9902871E-01
        1   -1    0    0  501    0  0.00000000000E+00  0.00000000000E+00  0.94803311182E+03  0.94803311183E+03  0.50400001928E-02 0. -1.
       -1   -1    0    0    0  501  0.00000000000E+00  0.00000000000E+00 -0.95320906678E+02  0.95320906811E+02  0.50400001928E-02 0.  1.
    10030    2    1    2    0    0  0.00000000000E+00  0.00000000000E+00  0.85271220514E+03  0.10433540186E+04  0.60122333905E+03 0.  0.
        1    1    3    3  502    0 -0.20321671941E+02  0.29442811821E+03  0.52553892010E+03  0.60273712653E+03  0.50400001928E-02 0. -1.
       -1    1    3    3    0  502  0.20321671941E+02 -0.29442811821E+03  0.32717328505E+03  0.44061689211E+03  0.50400001928E-02 0.  1.
</event>
<event>
 5   0  0.9530666E-03  0.5994116E+03  0.7818609E-02  0.9906627E-01
        2   -1    0    0  501    0  0.00000000000E+00  0.00000000000E+00  0.21451124005E+03  0.21451124007E+03  0.25500000920E-02 0.  1.
       -2   -1    0    0    0  501  0.00000000000E+00  0.00000000000E+00 -0.41873600541E+03  0.41873600542E+03  0.25500000920E-02 0. -1.
    10030    2    1    2    0    0  0.00000000000E+00  0.00000000000E+00 -0.20422476536E+03  0.63324724549E+03  0.59941164414E+03 0.  0.
        2    1    3    3  502    0  0.16579264118E+03  0.14223441766E+03  0.11466743146E+03  0.24671126704E+03  0.25500000920E-02 0.  1.
       -2    1    3    3    0  502 -0.16579264118E+03 -0.14223441766E+03 -0.31889219682E+03  0.38653597845E+03  0.25500000920E-02 0. -1.
</event>
<event>
 5   0  0.9681801E-03  0.5997100E+03  0.7818609E-02  0.9906008E-01
        2   -1    0    0  501    0  0.00000000000E+00  0.00000000000E+00  0.26550764909E+03  0.26550764910E+03  0.25500000920E-02 0. -1.
       -2   -1    0    0    0  501  0.00000000000E+00  0.00000000000E+00 -0.33864569247E+03  0.33864569248E+03  0.25500000920E-02 0.  1.
    10030    2    1    2    0    0  0.00000000000E+00  0.00000000000E+00 -0.73138043382E+02  0.60415334159E+03  0.59971000222E+03 0.  0.
        4    1    3    3  502    0 -0.24295490502E+03  0.13336697993E+03 -0.15186158103E+03  0.31603384297E+03  0.12699999809E+01 0. -1.
       -4    1    3    3    0  502  0.24295490502E+03 -0.13336697993E+03  0.78723537646E+02  0.28811949862E+03  0.12699999809E+01 0.  1.
</event>
<event>
 5   0  0.5785798E-03  0.5996692E+03  0.7818609E-02  0.9906093E-01
       -1   -1    0    0    0  501  0.00000000000E+00  0.00000000000E+00  0.57861558257E+02  0.57861558477E+02  0.50400001928E-02 0. -1.
        1   -1    0    0  501    0  0.00000000000E+00  0.00000000000E+00 -0.15537221183E+04  0.15537221183E+04  0.50400001928E-02 0.  1.
    10030    2    1    2    0    0  0.00000000000E+00  0.00000000000E+00 -0.14958605600E+04  0.16115836768E+04  0.59966918562E+03 0.  0.
        1    1    3    3  502    0 -0.19445293751E+03 -0.15541256773E+00 -0.13457323009E+03  0.23647816673E+03  0.50400001928E-02 0. -1.
       -1    1    3    3    0  502  0.19445293751E+03  0.15541256773E+00 -0.13612873299E+04  0.13751055100E+04  0.50400001928E-02 0.  1.
</event>
<event>
 5   0  0.9866317E-03  0.5985903E+03  0.7818609E-02  0.9908335E-01
        2   -1    0    0  501    0  0.00000000000E+00  0.00000000000E+00  0.22487030942E+04  0.22487030942E+04  0.25500000920E-02 0. -1.
       -2   -1    0    0    0  501  0.00000000000E+00  0.00000000000E+00 -0.39835219458E+02  0.39835219539E+02  0.25500000920E-02 0.  1.
    10030    2    1    2    0    0  0.00000000000E+00  0.00000000000E+00  0.22088678748E+04  0.22885383138E+04  0.59859028174E+03 0.  0.
        1    1    3    3  502    0 -0.75219945456E+02 -0.14740051845E+03  0.20578840651E+04  0.20645270109E+04  0.50400001928E-02 0. -1.
       -1    1    3    3    0  502  0.75219945456E+02  0.14740051845E+03  0.15098380967E+03  0.22401130294E+03  0.50400001928E-02 0.  1.
</event>
<event>
 5   0  0.5653633E-03  0.5996885E+03  0.7818609E-02  0.9906053E-01
       -1   -1    0    0    0  501  0.00000000000E+00  0.00000000000E+00  0.35680512720E+03  0.35680512724E+03  0.50400001928E-02 0.  1.
        1   -1    0    0  501    0  0.00000000000E+00  0.00000000000E+00 -0.25197669335E+03  0.25197669340E+03  0.50400001928E-02 0. -1.
    10030    2    1    2    0    0  0.00000000000E+00  0.00000000000E+00  0.10482843386E+03  0.60878182064E+03  0.59968850630E+03 0.  0.
        2    1    3    3  502    0 -0.70467910200E+02  0.24170525532E+03  0.21773138426E+03  0.33285749581E+03  0.25500000920E-02 0.  1.
       -2    1    3    3    0  502  0.70467910200E+02 -0.24170525532E+03 -0.11290295040E+03  0.27592432483E+03  0.25500000920E-02 0. -1.
</event>
<event>
 5   0  0.5503975E-03  0.5997343E+03  0.7818609E-02  0.9905957E-01
       -1   -1    0    0    0  501  0.00000000000E+00  0.00000000000E+00  0.53913552923E+02  0.53913553158E+02  0.50400001928E-02 0. -1.
        1   -1    0    0  501    0  0.00000000000E+00  0.00000000000E+00 -0.16678610475E+04  0.16678610475E+04  0.50400001928E-02 0.  1.
    10030    2    1    2    0    0  0.00000000000E+00  0.00000000000E+00 -0.16139474946E+04  0.17217746007E+04  0.59973432472E+03 0.  0.
        4    1    3    3  502    0  0.26717947870E+03  0.25044248614E+02 -0.11911443478E+04  0.12209990001E+04  0.12699999809E+01 0.  1.
       -4    1    3    3    0  502 -0.26717947870E+03 -0.25044248614E+02 -0.42280314682E+03  0.50077560053E+03  0.12699999809E+01 0. -1.
</event>
<event>
 5   0  0.5785798E-03  0.6005836E+03  0.7818609E-02  0.9904196E-01
        1   -1    0    0  501    0  0.00000000000E+00  0.00000000000E+00  0.28031595247E+04  0.28031595247E+04  0.50400001928E-02 0. -1.
       -1   -1    0    0    0  501  0.00000000000E+00  0.00000000000E+00 -0.32169114568E+02  0.32169114962E+02  0.50400001928E-02 0.  1.
    10030    2    1    2    0    0  0.00000000000E+00  0.00000000000E+00  0.27709904102E+04  0.28353286397E+04  0.60058358442E+03 0.  0.
        1    1    3    3  502    0 -0.25901296034E+03  0.12726653762E+03  0.99360822251E+03  0.10346698918E+04  0.50400001928E-02 0. -1.
       -1    1    3    3    0  502  0.25901296034E+03 -0.12726653762E+03  0.17773821876E+04  0.18006587478E+04  0.50400001928E-02 0.  1.
</event>
<event>
 5   0  0.5785798E-03  0.6007582E+03  0.7818609E-02  0.9903834E-01
        1   -1    0    0  501    0  0.00000000000E+00  0.00000000000E+00  0.11424256134E+03  0.11424256145E+03  0.50400001928E-02 0. -1.
       -1   -1    0    0    0  501  0.00000000000E+00  0.00000000000E+00 -0.78978977028E+03  0.78978977029E+03  0.50400001928E-02 0.  1.
    10030    2    1    2    0    0  0.00000000000E+00  0.00000000000E+00 -0.67554720894E+03  0.90403233175E+03  0.60075820872E+03 0.  0.
        1    1    3    3  502    0 -0.12975882314E+03  0.41795261953E+02 -0.74055775620E+03  0.75300065498E+03  0.50400001928E-02 0.  1.
       -1    1    3    3    0  502  0.12975882314E+03 -0.41795261953E+02  0.65010547266E+02  0.15103167676E+03  0.50400001928E-02 0. -1.
</event>
<event>
 5   0  0.5785798E-03  0.6005929E+03  0.7818609E-02  0.9904177E-01
        1   -1    0    0  501    0  0.00000000000E+00  0.00000000000E+00  0.85043679703E+03  0.85043679705E+03  0.50400001928E-02 0.  1.
       -1   -1    0    0    0  501  0.00000000000E+00  0.00000000000E+00 -0.10603721305E+03  0.10603721317E+03  0.50400001928E-02 0. -1.
    10030    2    1    2    0    0  0.00000000000E+00  0.00000000000E+00  0.74439958398E+03  0.95647401022E+03  0.60059286676E+03 0.  0.
        1    1    3    3  502    0  0.44906459816E+02  0.25243728292E+02  0.84334725867E+03  0.84491918826E+03  0.50400001928E-02 0.  1.
       -1    1    3    3    0  502 -0.44906459816E+02 -0.25243728292E+02 -0.98947674692E+02  0.11155482197E+03  0.50400001928E-02 0. -1.
</event>
<event>
 5   0  0.3794375E-03  0.5999917E+03  0.7818609E-02  0.9905423E-01
       -3   -1    0    0    0  501  0.00000000000E+00  0.00000000000E+00  0.17189666637E+03  0.17189669604E+03  0.10100000352E+00 0. -1.
        3   -1    0    0  501    0  0.00000000000E+00  0.00000000000E+00 -0.52355587798E+03  0.52355588773E+03  0.10100000352E+00 0.  1.
    10030    2    1    2    0    0  0.00000000000E+00  0.00000000000E+00 -0.35165921161E+03  0.69545258377E+03  0.59999174591E+03 0.  0.
        3    1    3    3  502    0  0.21057596176E+03 -0.60445663228E+02  0.61720465426E+02  0.22760786438E+03  0.10100000352E+00 0. -1.
       -3    1    3    3    0  502 -0.21057596176E+03  0.60445663228E+02 -0.41337967704E+03  0.46784471939E+03  0.10100000352E+00 0.  1.
</event>
<event>
 5   0  0.5653633E-03  0.6000614E+03  0.7818609E-02  0.9905279E-01
        1   -1    0    0  501    0  0.00000000000E+00  0.00000000000E+00  0.27452626118E+03  0.27452626123E+03  0.50400001928E-02 0.  1.
       -1   -1    0    0    0  501  0.00000000000E+00  0.00000000000E+00 -0.32790453631E+03  0.32790453635E+03  0.50400001928E-02 0. -1.
    10030    2    1    2    0    0  0.00000000000E+00  0.00000000000E+00 -0.53378275126E+02  0.60243079758E+03  0.60006135154E+03 0.  0.
        2    1    3    3  502    0  0.12689201270E+03 -0.25110914239E+02 -0.29847246150E+03  0.32529671252E+03  0.25500000920E-02 0. -1.
       -2    1    3    3    0  502 -0.12689201270E+03  0.25110914239E+02  0.24509418637E+03  0.27713408505E+03  0.25500000920E-02 0.  1.
</event>
<event>
 5   0  0.5503975E-03  0.5993703E+03  0.7818609E-02  0.9906713E-01
       -1   -1    0    0    0  501  0.00000000000E+00  0.00000000000E+00  0.11694147575E+03  0.11694147586E+03  0.50400001928E-02 0.  1.
        1   -1    0    0  501    0  0.00000000000E+00  0.00000000000E+00 -0.76800115219E+03  0.76800115221E+03  0.50400001928E-02 0. -1.
    10030    2    1    2    0    0  0.00000000000E+00  0.00000000000E+00 -0.65105967644E+03  0.88494262807E+03  0.59937029680E+03 0.  0.
        4    1    3    3  502    0  0.90652244128E+02 -0.17521131318E+03 -0.65860927589E+03  0.68752063592E+03  0.12699999809E+01 0. -1.
       -4    1    3    3    0  502 -0.90652244128E+02  0.17521131318E+03  0.75495994483E+01  0.19742199215E+03  0.12699999809E+01 0.  1.
</event>
<event>
 5   0  0.9530666E-03  0.6008374E+03  0.7818609E-02  0.9903670E-01
       -2   -1    0    0    0  501  0.00000000000E+00  0.00000000000E+00  0.14048383467E+03  0.14048383469E+03  0.25500000920E-02 0. -1.
        2   -1    0    0  501    0  0.00000000000E+00  0.00000000000E+00 -0.64243266405E+03  0.64243266406E+03  0.25500000920E-02 0.  1.
    10030    2    1    2    0    0  0.00000000000E+00  0.00000000000E+00 -0.50194882939E+03  0.78291649875E+03  0.60083742950E+03 0.  0.
        2    1    3    3  502    0  0.73096426717E+02  0.28992832836E+03 -0.21298719385E+03  0.36710362016E+03  0.25500000920E-02 0. -1.
       -2    1    3    3    0  502 -0.73096426717E+02 -0.28992832836E+03 -0.28896163554E+03  0.41581287859E+03  0.25500000920E-02 0.  1.
</event>
<event>
 5   0  0.5653633E-03  0.6004306E+03  0.7818609E-02  0.9904513E-01
        1   -1    0    0  501    0  0.00000000000E+00  0.00000000000E+00  0.79580811600E+03  0.79580811602E+03  0.50400001928E-02 0. -1.
       -1   -1    0    0    0  501  0.00000000000E+00  0.00000000000E+00 -0.11325497549E+03  0.11325497560E+03  0.50400001928E-02 0.  1.
    10030    2    1    2    0    0  0.00000000000E+00  0.00000000000E+00  0.68255314052E+03  0.90906309162E+03  0.60043060791E+03 0.  0.
        2    1    3    3  502    0  0.89329550342E+02 -0.24052506652E+03  0.57727488008E+03  0.63172649411E+03  0.25500000920E-02 0. -1.
       -2    1    3    3    0  502 -0.89329550342E+02  0.24052506652E+03  0.10527826044E+03  0.27733659751E+03  0.25500000920E-02 0.  1.
</event>
<event>
 5   0  0.5491236E-03  0.5998019E+03  0.7818609E-02  0.9905817E-01
        1   -1    0    0  501    0  0.00000000000E+00  0.00000000000E+00  0.83840029994E+03  0.83840029996E+03  0.50400001928E-02 0.  1.
       -1   -1    0    0    0  501  0.00000000000E+00  0.00000000000E+00 -0.10727640685E+03  0.10727640697E+03  0.50400001928E-02 0. -1.
    10030    2    1    2    0    0  0.00000000000E+00  0.00000000000E+00  0.73112389309E+03  0.94567670692E+03  0.59980187310E+03 0.  0.
        3    1    3    3  502    0 -0.29322784872E+03  0.28631272568E+01  0.26647372581E+03  0.39623102543E+03  0.10100000352E+00 0. -1.
       -3    1    3    3    0  502  0.29322784872E+03 -0.28631272568E+01  0.46465016728E+03  0.54944568150E+03  0.10100000352E+00 0.  1.
</event>
<event>
 5   0  0.9866317E-03  0.6014372E+03  0.7818609E-02  0.9902429E-01
       -2   -1    0    0    0  501  0.00000000000E+00  0.00000000000E+00  0.49868146603E+03  0.49868146604E+03  0.25500000920E-02 0.  1.
        2   -1    0    0  501    0  0.00000000000E+00  0.00000000000E+00 -0.18134158605E+03  0.18134158607E+03  0.25500000920E-02 0. -1.
    10030    2    1    2    0    0  0.00000000000E+00  0.00000000000E+00  0.31733987998E+03  0.68002305211E+03  0.60143723860E+03 0.  0.
        1    1    3    3  502    0 -0.18668625126E+03 -0.23217134484E+03  0.11237623786E+03  0.31840808507E+03  0.50400001928E-02 0.  1.
       -1    1    3    3    0  502  0.18668625126E+03  0.23217134484E+03  0.20496364212E+03  0.36161496705E+03  0.50400001928E-02 0. -1.
</event>
<event>
 5   0  0.9866317E-03  0.6001479E+03  0.7818609E-02  0.9905099E-01
        2   -1    0    0  501    0  0.00000000000E+00  0.00000000000E+00  0.61712465434E+03  0.61712465434E+03  0.25500000920E-02 0.  1.
       -2   -1    0    0    0  501  0.00000000000E+00  0.00000000000E+00 -0.14590956216E+03  0.14590956218E+03  0.25500000920E-02 0. -1.
    10030    2    1    2    0    0  0.00000000000E+00  0.00000000000E+00  0.47121509218E+03  0.76303421652E+03  0.60014794217E+03 0.  0.
        1    1    3    3  502    0  0.16027954207E+03  0.18876975440E+03  0.20138825480E+02  0.24845346466E+03  0.50400001928E-02 0. -1.
       -1    1    3    3    0  502 -0.16027954207E+03 -0.18876975440E+03  0.45107626670E+03  0.51458075187E+03  0.50400001928E-02 0.  1.
</event>
<event>
 5   0  0.9530666E-03  0.6032729E+03  0.7818609E-02  0.9898639E-01
       -2   -1    0    0    0  501  0.00000000000E+00  0.00000000000E+00  0.36325426194E+03  0.36325426195E+03  0.25500000920E-02 0.  1.
        2   -1    0    0  501    0  0.00000000000E+00  0.00000000000E+00 -0.25047073679E+03  0.25047073680E+03  0.25500000920E-02 0. -1.
    10030    2    1    2    0    0  0.00000000000E+00  0.00000000000E+00  0.11278352515E+03  0.61372499875E+03  0.60327294863E+03 0.  0.
        2    1    3    3  502    0 -0.84015106966E+02  0.54773214756E+01 -0.23827465974E+03  0.25271199562E+03  0.25500000920E-02 0. -1.
       -2    1    3    3    0  502  0.84015106966E+02 -0.54773214756E+01  0.35105818489E+03  0.36101300314E+03  0.25500000920E-02 0.  1.
</event>
<event>
 5   0  0.9571790E-03  0.5995689E+03  0.7818609E-02  0.9906301E-01
       -2   -1    0    0    0  501  0.00000000000E+00  0.00000000000E+00  0.58956388882E+02  0.58956388938E+02  0.25500000920E-02 0.  1.
        2   -1    0    0  501    0  0.00000000000E+00  0.00000000000E+00 -0.15243593102E+04  0.15243593102E+04  0.25500000920E-02 0. -1.
    10030    2    1    2    0    0  0.00000000000E+00  0.00000000000E+00 -0.14654029213E+04  0.15833156991E+04  0.59956891291E+03 0.  0.
        5    1    3    3  502    0 -0.10824939027E+03  0.26527435643E+03 -0.50007168260E+03  0.57635248973E+03  0.46999998093E+01 0. -1.
       -5    1    3    3    0  502  0.10824939027E+03 -0.26527435643E+03 -0.96533123870E+03  0.10069632094E+04  0.46999998093E+01 0.  1.
</event>
<event>
 5   0  0.5653633E-03  0.6035401E+03  0.7818609E-02  0.9898089E-01
       -1   -1    0    0    0  501  0.00000000000E+00  0.00000000000E+00  0.23149242349E+03  0.23149242355E+03  0.50400001928E-02 0.  1.
        1   -1    0    0  501    0  0.00000000000E+00  0.00000000000E+00 -0.39338286401E+03  0.39338286405E+03  0.50400001928E-02 0. -1.
    10030    2    1    2    0    0  0.00000000000E+00  0.00000000000E+00 -0.16189044052E+03  0.62487528759E+03  0.60354006521E+03 0.  0.
        2    1    3    3  502    0 -0.39204172373E+02  0.21386753618E+03  0.13570995902E+03  0.25630739971E+03  0.25500000920E-02 0.  1.
       -2    1    3    3    0  502  0.39204172373E+02 -0.21386753618E+03 -0.29760039954E+03  0.36856788788E+03  0.25500000920E-02 0. -1.
</event>
<event>
 5   0  0.9866317E-03  0.5993647E+03  0.7818609E-02  0.9906725E-01
       -2   -1    0    0    0  501  0.00000000000E+00  0.00000000000E+00  0.18475564452E+03  0.18475564454E+03  0.25500000920E-02 0. -1.
        2   -1    0    0  501    0  0.00000000000E+00  0.00000000000E+00 -0.48609893173E+03  0.48609893173E+03  0.25500000920E-02 0.  1.
    10030    2    1    2    0    0  0.00000000000E+00  0.00000000000E+00 -0.30134328721E+03  0.67085457627E+03  0.59936473517E+03 0.  0.
        1    1    3    3  502    0  0.12001025395E+03  0.48261997616E+02 -0.45324455970E+03  0.47134097253E+03  0.50400001928E-02 0.  1.
       -1    1    3    3    0  502 -0.12001025395E+03 -0.48261997616E+02  0.15190127249E+03  0.19951360374E+03  0.50400001928E-02 0. -1.
</event>
<event>
 5   0  0.5785798E-03  0.5998513E+03  0.7818609E-02  0.9905715E-01
        1   -1    0    0  501    0  0.00000000000E+00  0.00000000000E+00  0.62045447188E+03  0.62045447190E+03  0.50400001928E-02 0.  1.
       -1   -1    0    0    0  501  0.00000000000E+00  0.00000000000E+00 -0.14498305740E+03  0.14498305749E+03  0.50400001928E-02 0. -1.
    10030    2    1    2    0    0  0.00000000000E+00  0.00000000000E+00  0.47547141448E+03  0.76543752939E+03  0.59985126941E+03 0.  0.
        1    1    3    3  502    0  0.41976711403E+02 -0.21171043757E+03  0.50348435151E+03  0.54779544168E+03  0.50400001928E-02 0.  1.
       -1    1    3    3    0  502 -0.41976711403E+02  0.21171043757E+03 -0.28012937034E+02  0.21764208771E+03  0.50400001928E-02 0. -1.
</event>
<event>
 5   0  0.3794375E-03  0.5996321E+03  0.7818609E-02  0.9906170E-01
        4   -1    0    0  501    0  0.00000000000E+00  0.00000000000E+00  0.31119066799E+03  0.31119325947E+03  0.12699999809E+01 0. -1.
       -4   -1    0    0    0  501  0.00000000000E+00  0.00000000000E+00 -0.28885198997E+03  0.28885478188E+03  0.12699999809E+01 0.  1.
    10030    2    1    2    0    0  0.00000000000E+00  0.00000000000E+00  0.22338678012E+02  0.60004804135E+03  0.59963208336E+03 0.  0.
        3    1    3    3  502    0  0.21688229859E+03 -0.20700062197E+03  0.12738773073E+02  0.30008244780E+03  0.10100000352E+00 0. -1.
       -3    1    3    3    0  502 -0.21688229859E+03  0.20700062197E+03  0.95999049392E+01  0.29996559355E+03  0.10100000352E+00 0.  1.
</event>
<event>
 5   0  0.3794375E-03  0.6013326E+03  0.7818609E-02  0.9902645E-01
       -3   -1    0    0    0  501  0.00000000000E+00  0.00000000000E+00  0.18630233522E+03  0.18630236260E+03  0.10100000352E+00 0.  1.
        3   -1    0    0  501    0  0.00000000000E+00  0.00000000000E+00 -0.48523385133E+03  0.48523386184E+03  0.10100000352E+00 0. -1.
    10030    2    1    2    0    0  0.00000000000E+00  0.00000000000E+00 -0.29893151611E+03  0.67153622445E+03  0.60133256142E+03 0.  0.
        5    1    3    3  502    0 -0.17837026040E+02 -0.82538723626E+02 -0.47167638451E+03  0.47919881271E+03  0.46999998093E+01 0. -1.
       -5    1    3    3    0  502  0.17837026040E+02  0.82538723626E+02  0.17274486840E+03  0.19233741174E+03  0.46999998093E+01 0.  1.
</event>
<event>
 5   0  0.5785798E-03  0.6006261E+03  0.7818609E-02  0.9904108E-01
       -1   -1    0    0    0  501  0.00000000000E+00  0.00000000000E+00  0.21856486662E+03  0.21856486668E+03  0.50400001928E-02 0. -1.
        1   -1    0    0  501    0  0.00000000000E+00  0.00000000000E+00 -0.41263683910E+03  0.41263683914E+03  0.50400001928E-02 0.  1.
    10030    2    1    2    0    0  0.00000000000E+00  0.00000000000E+00 -0.19407197249E+03  0.63120170581E+03  0.60062605914E+03 0.  0.
        1    1    3    3  502    0  0.50331634568E+02  0.28490942056E+03 -0.12431408853E+02  0.28958796817E+03  0.50400001928E-02 0. -1.
       -1    1    3    3    0  502 -0.50331634568E+02 -0.28490942056E+03 -0.18164056363E+03  0.34161373764E+03  0.50400001928E-02 0.  1.
</event>
<event>
 5   0  0.5574736E-03  0.5997860E+03  0.7818609E-02  0.9905850E-01
        1   -1    0    0  501    0  0.00000000000E+00  0.00000000000E+00  0.35308178635E+03  0.35308178639E+03  0.50400001928E-02 0. -1.
       -1   -1    0    0    0  501  0.00000000000E+00  0.00000000000E+00 -0.25471663464E+03  0.25471663469E+03  0.50400001928E-02 0.  1.
    10030    2    1    2    0    0  0.00000000000E+00  0.00000000000E+00  0.98365151709E+02  0.60779842108E+03  0.59978597649E+03 0.  0.
        5    1    3    3  502    0 -0.70322897024E+02 -0.25214423430E+03  0.19739540760E+03  0.32788574485E+03  0.46999998093E+01 0. -1.
       -5    1    3    3    0  502  0.70322897024E+02  0.25214423430E+03 -0.99030255889E+02  0.27991267623E+03  0.46999998093E+01 0.  1.
</event>
<event>
 5   0  0.3794375E-03  0.5997430E+03  0.7818609E-02  0.9905939E-01
       -4   -1    0    0    0  501  0.00000000000E+00  0.00000000000E+00  0.75481340794E+03  0.75481447635E+03  0.12699999809E+01 0. -1.
        4   -1    0    0  501    0  0.00000000000E+00  0.00000000000E+00 -0.11912809500E+03  0.11913486441E+03  0.12699999809E+01 0.  1.
    10030    2    1    2    0    0  0.00000000000E+00  0.00000000000E+00  0.63568531294E+03  0.87394934076E+03  0.59974297256E+03 0.  0.
        5    1    3    3  502    0  0.18914294434E+02  0.15806263354E+03  0.68809720478E+03  0.70628705204E+03  0.46999998093E+01 0. -1.
       -5    1    3    3    0  502 -0.18914294434E+02 -0.15806263354E+03 -0.52411891836E+02  0.16766228872E+03  0.46999998093E+01 0.  1.
</event>
<event>
 5   0  0.9866317E-03  0.5976214E+03  0.7818609E-02  0.9910353E-01
       -2   -1    0    0    0  501  0.00000000000E+00  0.00000000000E+00  0.12736816941E+03  0.12736816944E+03  0.25500000920E-02 0.  1.
        2   -1    0    0  501    0  0.00000000000E+00  0.00000000000E+00 -0.70102155402E+03  0.70102155402E+03  0.25500000920E-02 0. -1.
    10030    2    1    2    0    0  0.00000000000E+00  0.00000000000E+00 -0.57365338461E+03  0.82838972346E+03  0.59762139208E+03 0.  0.
        1    1    3    3  502    0  0.18729758076E+03  0.21119483598E+03 -0.15098317156E+03  0.32012428934E+03  0.50400001928E-02 0.  1.
       -1    1    3    3    0  502 -0.18729758076E+03 -0.21119483598E+03 -0.42267021304E+03  0.50826543412E+03  0.50400001928E-02 0. -1.
</event>
<event>
 5   0  0.9428629E-03  0.5989148E+03  0.7818609E-02  0.9907660E-01
        2   -1    0    0  501    0  0.00000000000E+00  0.00000000000E+00  0.31226513216E+03  0.31226513217E+03  0.25500000920E-02 0. -1.
       -2   -1    0    0    0  501  0.00000000000E+00  0.00000000000E+00 -0.28717499556E+03  0.28717499557E+03  0.25500000920E-02 0.  1.
    10030    2    1    2    0    0  0.00000000000E+00  0.00000000000E+00  0.25090136603E+02  0.59944012775E+03  0.59891481180E+03 0.  0.
        3    1    3    3  502    0 -0.18303025161E+03  0.70591477312E+02 -0.21390876565E+03  0.29024162330E+03  0.10100000352E+00 0.  1.
       -3    1    3    3    0  502  0.18303025161E+03 -0.70591477312E+02  0.23899890225E+03  0.30919850445E+03  0.10100000352E+00 0. -1.
</event>
<event>
 5   0  0.5785798E-03  0.6011257E+03  0.7818609E-02  0.9903073E-01
       -1   -1    0    0    0  501  0.00000000000E+00  0.00000000000E+00  0.84125692203E+02  0.84125692353E+02  0.50400001928E-02 0.  1.
        1   -1    0    0  501    0  0.00000000000E+00  0.00000000000E+00 -0.10738460264E+04  0.10738460264E+04  0.50400001928E-02 0. -1.
    10030    2    1    2    0    0  0.00000000000E+00  0.00000000000E+00 -0.98972033421E+03  0.11579717188E+04  0.60112574520E+03 0.  0.
        1    1    3    3  502    0  0.50426980382E+02 -0.17851029048E+03 -0.95042696885E+03  0.96835955476E+03  0.50400001928E-02 0. -1.
       -1    1    3    3    0  502 -0.50426980382E+02  0.17851029048E+03 -0.39293365366E+02  0.18961216402E+03  0.50400001928E-02 0.  1.
</event>
<event>
 5   0  0.5653633E-03  0.6002560E+03  0.7818609E-02  0.9904875E-01
        1   -1    0    0  501    0  0.00000000000E+00  0.00000000000E+00  0.14132468397E+04  0.14132468397E+04  0.50400001928E-02 0. -1.
       -1   -1    0    0    0  501  0.00000000000E+00  0.00000000000E+00 -0.63737488829E+02  0.63737489029E+02  0.50400001928E-02 0.  1.
    10030    2    1    2    0    0  0.00000000000E+00  0.00000000000E+00  0.13495093509E+04  0.14769843288E+04  0.60025596145E+03 0.  0.
        2    1    3    3  502    0  0.23329782019E+03 -0.18632823517E+03  0.59968767073E+03  0.66990401295E+03  0.25500000920E-02 0.  1.
       -2    1    3    3    0  502 -0.23329782019E+03  0.18632823517E+03  0.74982168018E+03  0.80708031583E+03  0.25500000920E-02 0. -1.
</event>
<event>
 5   0  0.5574736E-03  0.5992540E+03  0.7818609E-02  0.9906955E-01
        1   -1    0    0  501    0  0.00000000000E+00  0.00000000000E+00  0.58783338135E+03  0.58783338137E+03  0.50400001928E-02 0.  1.
       -1   -1    0    0    0  501  0.00000000000E+00  0.00000000000E+00 -0.15272411358E+03  0.15272411366E+03  0.50400001928E-02 0. -1.
    10030    2    1    2    0    0  0.00000000000E+00  0.00000000000E+00  0.43510926777E+03  0.74055749504E+03  0.59925397667E+03 0.  0.
        5    1    3    3  502    0  0.21265872466E+03 -0.20433361492E+03  0.28269288295E+03  0.40855026059E+03  0.46999998093E+01 0. -1.
       -5    1    3    3    0  502 -0.21265872466E+03  0.20433361492E+03  0.15241638483E+03  0.33200723444E+03  0.46999998093E+01 0.  1.
</event>
<event>
 5   0  0.5503975E-03  0.5893632E+03  0.7818609E-02  0.9927723E-01
        1   -1    0    0  501    0  0.00000000000E+00  0.00000000000E+00  0.17217297248E+04  0.17217297249E+04  0.50400001928E-02 0.  1.
       -1   -1    0    0    0  501  0.00000000000E+00  0.00000000000E+00 -0.50436053402E+02  0.50436053653E+02  0.50400001928E-02 0. -1.
    10030    2    1    2    0    0  0.00000000000E+00  0.00000000000E+00  0.16712936714E+04  0.17721657785E+04  0.58936322442E+03 0.  0.
        4    1    3    3  502    0 -0.18624798188E+03  0.15388299380E+03  0.13429818742E+04  0.13645402940E+04  0.12699999809E+01 0.  1.
       -4    1    3    3    0  502  0.18624798188E+03 -0.15388299380E+03  0.32831179724E+03  0.40762548453E+03  0.12699999809E+01 0. -1.
</event>
<event>
 5   0  0.5653633E-03  0.5996731E+03  0.7818609E-02  0.9906084E-01
       -1   -1    0    0    0  501  0.00000000000E+00  0.00000000000E+00  0.46234679582E+03  0.46234679585E+03  0.50400001928E-02 0.  1.
        1   -1    0    0  501    0  0.00000000000E+00  0.00000000000E+00 -0.19444703107E+03  0.19444703114E+03  0.50400001928E-02 0. -1.
    10030    2    1    2    0    0  0.00000000000E+00  0.00000000000E+00  0.26789976475E+03  0.65679382699E+03  0.59967311697E+03 0.  0.
        2    1    3    3  502    0  0.62778954081E+02  0.10516240288E+03  0.43370052823E+03  0.45066226406E+03  0.25500000920E-02 0.  1.
       -2    1    3    3    0  502 -0.62778954081E+02 -0.10516240288E+03 -0.16580076348E+03  0.20613156293E+03  0.25500000920E-02 0. -1.
</event>
<event>
 5   0  0.5491236E-03  0.6006334E+03  0.7818609E-02  0.9904093E-01
        1   -1    0    0  501    0  0.00000000000E+00  0.00000000000E+00  0.27986396965E+03  0.27986396970E+03  0.50400001928E-02 0. -1.
       -1   -1    0    0    0  501  0.00000000000E+00  0.00000000000E+00 -0.32226416779E+03  0.32226416783E+03  0.50400001928E-02 0.  1.
    10030    2    1    2    0    0  0.00000000000E+00  0.00000000000E+00 -0.42400198135E+02  0.60212813753E+03  0.60063342997E+03 0.  0.
        3    1    3    3  502    0 -0.14803691122E+03  0.23070205623E+03  0.10179079744E+03  0.29240338999E+03  0.10100000352E+00 0. -1.
       -3    1    3    3    0  502  0.14803691122E+03 -0.23070205623E+03 -0.14419099558E+03  0.30972474754E+03  0.10100000352E+00 0.  1.
</event>
<event>
 5   0  0.9866317E-03  0.5994351E+03  0.7818609E-02  0.9906579E-01
        2   -1    0    0  501    0  0.00000000000E+00  0.00000000000E+00  0.10060291565E+04  0.10060291565E+04  0.25500000920E-02 0.  1.
       -2   -1    0    0    0  501  0.00000000000E+00  0.00000000000E+00 -0.89292255228E+02  0.89292255264E+02  0.25500000920E-02 0. -1.
    10030    2    1    2    0    0  0.00000000000E+00  0.00000000000E+00  0.91673690131E+03  0.10953214118E+04  0.59943510819E+03 0.  0.
        1    1    3    3  502    0  0.22147636686E+03 -0.19562102233E+03  0.36680037309E+03  0.47102216421E+03  0.50400001928E-02 0. -1.
       -1    1    3    3    0  502 -0.22147636686E+03  0.19562102233E+03  0.54993652822E+03  0.62429924760E+03  0.50400001928E-02 0.  1.
</event>
<event>
 5   0  0.5574736E-03  0.6036015E+03  0.7818609E-02  0.9897962E-01
       -1   -1    0    0    0  501  0.00000000000E+00  0.00000000000E+00  0.24328963684E+03  0.24328963690E+03  0.50400001928E-02 0.  1.
        1   -1    0    0  501    0  0.00000000000E+00  0.00000000000E+00 -0.37438376319E+03  0.37438376322E+03  0.50400001928E-02 0. -1.
    10030    2    1    2    0    0  0.00000000000E+00  0.00000000000E+00 -0.13109412635E+03  0.61767340012E+03  0.60360149043E+03 0.  0.
        5    1    3    3  502    0  0.19136182355E+03 -0.23043059150E+03 -0.10306227391E+03  0.31679887518E+03  0.46999998093E+01 0. -1.
       -5    1    3    3    0  502 -0.19136182355E+03  0.23043059150E+03 -0.28031852433E+02  0.30087452494E+03  0.46999998093E+01 0.  1.
</event>
<event>
 5   0  0.9530666E-03  0.5997415E+03  0.7818609E-02  0.9905943E-01
        2   -1    0    0  501    0  0.00000000000E+00  0.00000000000E+00  0.86563415878E+03  0.86563415879E+03  0.25500000920E-02 0. -1.
       -2   -1    0    0    0  501  0.00000000000E+00  0.00000000000E+00 -0.10388044597E+03  0.10388044600E+03  0.25500000920E-02 0.  1.
    10030    2    1    2    0    0  0.00000000000E+00  0.00000000000E+00  0.76175371281E+03  0.96951460479E+03  0.59974148591E+03 0.  0.
        2    1    3    3  502    0 -0.75636545261E+02  0.18665794386E+03  0.21723818284E+02  0.20256850513E+03  0.25500000920E-02 0.  1.
       -2    1    3    3    0  502  0.75636545261E+02 -0.18665794386E+03  0.74002989453E+03  0.76694609966E+03  0.25500000920E-02 0. -1.
</event>
<event>
 5   0  0.5653633E-03  0.6004139E+03  0.7818609E-02  0.9904548E-01
       -1   -1    0    0    0  501  0.00000000000E+00  0.00000000000E+00  0.41287935435E+03  0.41287935438E+03  0.50400001928E-02 0. -1.
        1   -1    0    0  501    0  0.00000000000E+00  0.00000000000E+00 -0.21828223026E+03  0.21828223032E+03  0.50400001928E-02 0.  1.
    10030    2    1    2    0    0  0.00000000000E+00  0.00000000000E+00  0.19459712409E+03  0.63116158470E+03  0.60041394496E+03 0.  0.
        2    1    3    3  502    0 -0.22920913736E+02 -0.22550042798E+03  0.30422537019E+03  0.37937960828E+03  0.25500000920E-02 0. -1.
       -2    1    3    3    0  502  0.22920913736E+02  0.22550042798E+03 -0.10962824610E+03  0.25178197643E+03  0.25500000920E-02 0.  1.
</event>
<event>
 5   0  0.9428629E-03  0.6025253E+03  0.7818609E-02  0.9900181E-01
        2   -1    0    0  501    0  0.00000000000E+00  0.00000000000E+00  0.92149631656E+03  0.92149631657E+03  0.25500000920E-02 0.  1.
       -2   -1    0    0    0  501  0.00000000000E+00  0.00000000000E+00 -0.98491093860E+02  0.98491093893E+02  0.25500000920E-02 0. -1.
    10030    2    1    2    0    0  0.00000000000E+00  0.00000000000E+00  0.82300522270E+03  0.10199874105E+04  0.60252528652E+03 0.  0.
        3    1    3    3  502    0 -0.23316344862E+03  0.18101348519E+03  0.30953580328E+03  0.42771894897E+03  0.10100000352E+00 0.  1.
       -3    1    3    3    0  502  0.23316344862E+03 -0.18101348519E+03  0.51346941942E+03  0.59226846149E+03  0.10100000352E+00 0. -1.
</event>
<event>
 5   0  0.5785798E-03  0.6001738E+03  0.7818609E-02  0.9905046E-01
       -1   -1    0    0    0  501  0.00000000000E+00  0.00000000000E+00  0.51440133698E+02  0.51440133945E+02  0.50400001928E-02 0. -1.
        1   -1    0    0  501    0  0.00000000000E+00  0.00000000000E+00 -0.17506203229E+04  0.17506203229E+04  0.50400001928E-02 0.  1.
    10030    2    1    2    0    0  0.00000000000E+00  0.00000000000E+00 -0.16991801892E+04  0.18020604569E+04  0.60017378714E+03 0.  0.
        1    1    3    3  502    0  0.57789926781E+02 -0.69900527167E+02 -0.17084829975E+04  0.17108886322E+04  0.50400001928E-02 0.  1.
       -1    1    3    3    0  502 -0.57789926781E+02  0.69900527167E+02  0.93028082496E+01  0.91171824608E+02  0.50400001928E-02 0. -1.
</event>
<event>
 5   0  0.9428629E-03  0.5956506E+03  0.7818609E-02  0.9914471E-01
        2   -1    0    0  501    0  0.00000000000E+00  0.00000000000E+00  0.15256402519E+04  0.15256402519E+04  0.25500000920E-02 0. -1.
       -2   -1    0    0    0  501  0.00000000000E+00  0.00000000000E+00 -0.58139459675E+02  0.58139459731E+02  0.25500000920E-02 0.  1.
    10030    2    1    2    0    0  0.00000000000E+00  0.00000000000E+00  0.14675007923E+04  0.15837797117E+04  0.59565056854E+03 0.  0.
        3    1    3    3  502    0  0.52008708378E+00 -0.90442711648E+02  0.14882419520E+04  0.14909876835E+04  0.10100000352E+00 0. -1.
       -3    1    3    3    0  502 -0.52008708378E+00  0.90442711648E+02 -0.20741159716E+02  0.92792028150E+02  0.10100000352E+00 0.  1.
</event>
<event>
 5   0  0.5491236E-03  0.5997188E+03  0.7818609E-02  0.9905990E-01
        1   -1    0    0  501    0  0.00000000000E+00  0.00000000000E+00  0.82839517003E+03  0.82839517005E+03  0.50400001928E-02 0. -1.
       -1   -1    0    0    0  501  0.00000000000E+00  0.00000000000E+00 -0.10854198640E+03  0.10854198652E+03  0.50400001928E-02 0.  1.
    10030    2    1    2    0    0  0.00000000000E+00  0.00000000000E+00  0.71985318363E+03  0.93693715657E+03  0.59971879191E+03 0.  0.
        3    1    3    3  502    0  0.16346793511E+03 -0.85373962108E+02  0.72931969534E+03  0.75227502114E+03  0.10100000352E+00 0. -1.
       -3    1    3    3    0  502 -0.16346793511E+03  0.85373962108E+02 -0.94665117104E+01  0.18466213543E+03  0.10100000352E+00 0.  1.
</event>
<event>
 5   0  0.5574736E-03  0.6000318E+03  0.7818609E-02  0.9905340E-01
        1   -1    0    0  501    0  0.00000000000E+00  0.00000000000E+00  0.40872421225E+03  0.40872421228E+03  0.50400001928E-02 0.  1.
       -1   -1    0    0    0  501  0.00000000000E+00  0.00000000000E+00 -0.22022069502E+03  0.22022069508E+03  0.50400001928E-02 0. -1.
    10030    2    1    2    0    0  0.00000000000E+00  0.00000000000E+00  0.18850351723E+03  0.62894490735E+03  0.60003176623E+03 0.  0.
        5    1    3    3  502    0  0.61219291674E+02 -0.22352973150E+03 -0.10538323512E+03  0.25463907552E+03  0.46999998093E+01 0. -1.
       -5    1    3    3    0  502 -0.61219291674E+02  0.22352973150E+03  0.29388675235E+03  0.37430583183E+03  0.46999998093E+01 0.  1.
</event>
<event>
 5   0  0.5491236E-03  0.5994396E+03  0.7818609E-02  0.9906569E-01
        1   -1    0    0  501    0  0.00000000000E+00  0.00000000000E+00  0.43906710622E+03  0.43906710625E+03  0.50400001928E-02 0. -1.
       -1   -1    0    0    0  501  0.00000000000E+00  0.00000000000E+00 -0.20459730634E+03  0.20459730640E+03  0.50400001928E-02 0.  1.
    10030    2    1    2    0    0  0.00000000000E+00  0.00000000000E+00  0.23446979988E+03  0.64366441265E+03  0.59943956247E+03 0.  0.
        3    1    3    3  502    0 -0.27194267772E+03  0.11394240485E+03  0.59447682897E+02  0.30078186247E+03  0.10100000352E+00 0.  1.
       -3    1    3    3    0  502  0.27194267772E+03 -0.11394240485E+03  0.17502211698E+03  0.34288255018E+03  0.10100000352E+00 0. -1.
</event>
<event>
 5   0  0.9571790E-03  0.6009407E+03  0.7818609E-02  0.9903456E-01
        2   -1    0    0  501    0  0.00000000000E+00  0.00000000000E+00  0.13058389253E+04  0.13058389253E+04  0.25500000920E-02 0.  1.
       -2   -1    0    0    0  501  0.00000000000E+00  0.00000000000E+00 -0.69137492030E+02  0.69137492077E+02  0.25500000920E-02 0. -1.
    10030    2    1    2    0    0  0.00000000000E+00  0.00000000000E+00  0.12367014333E+04  0.13749764174E+04  0.60094069034E+03 0.  0.
        5    1    3    3  502    0  0.19237554118E+03  0.20826364383E+03  0.39094388062E+03  0.48295062064E+03  0.46999998093E+01 0. -1.
       -5    1    3    3    0  502 -0.19237554118E+03 -0.20826364383E+03  0.84575755266E+03  0.89202579675E+03  0.46999998093E+01 0.  1.
</event>
<event>
 5   0  0.9866317E-03  0.5991258E+03  0.7818609E-02  0.9907221E-01
        2   -1    0    0  501    0  0.00000000000E+00  0.00000000000E+00  0.78327822535E+03  0.78327822535E+03  0.25500000920E-02 0.  1.
       -2   -1    0    0    0  501  0.00000000000E+00  0.00000000000E+00 -0.11456712312E+03  0.11456712315E+03  0.25500000920E-02 0. -1.
    10030    2    1    2    0    0  0.00000000000E+00  0.00000000000E+00  0.66871110223E+03  0.89784534850E+03  0.59912580614E+03 0.  0.
        1    1    3    3  502    0  0.17080986048E+03 -0.11154570605E+03  0.56220440707E+01  0.20408346425E+03  0.50400001928E-02 0. -1.
       -1    1    3    3    0  502 -0.17080986048E+03  0.11154570605E+03  0.66308905815E+03  0.69376188425E+03  0.50400001928E-02 0.  1.
</event>
<event>
 5   0  0.9866317E-03  0.6002691E+03  0.7818609E-02  0.9904848E-01
       -2   -1    0    0    0  501  0.00000000000E+00  0.00000000000E+00  0.19777480655E+03  0.19777480657E+03  0.25500000920E-02 0.  1.
        2   -1    0    0  501    0  0.00000000000E+00  0.00000000000E+00 -0.45547122603E+03  0.45547122604E+03  0.25500000920E-02 0. -1.
    10030    2    1    2    0    0  0.00000000000E+00  0.00000000000E+00 -0.25769641948E+03  0.65324603260E+03  0.60026905176E+03 0.  0.
        1    1    3    3  502    0 -0.95726302436E+02  0.15583637798E+03  0.13012966753E+03  0.22445986740E+03  0.50400001928E-02 0.  1.
       -1    1    3    3    0  502  0.95726302436E+02 -0.15583637798E+03 -0.38782608701E+03  0.42878616520E+03  0.50400001928E-02 0. -1.
</event>
<event>
 5   0  0.5653633E-03  0.5995423E+03  0.7818609E-02  0.9906356E-01
       -1   -1    0    0    0  501  0.00000000000E+00  0.00000000000E+00  0.14904670673E+03  0.14904670681E+03  0.50400001928E-02 0. -1.
        1   -1    0    0  501    0  0.00000000000E+00  0.00000000000E+00 -0.60291659608E+03  0.60291659610E+03  0.50400001928E-02 0.  1.
    10030    2    1    2    0    0  0.00000000000E+00  0.00000000000E+00 -0.45386988935E+03  0.75196330291E+03  0.59954226912E+03 0.  0.
        2    1    3    3  502    0 -0.26291228464E+03 -0.14298494977E+03 -0.20538672698E+03  0.36297558169E+03  0.25500000920E-02 0.  1.
       -2    1    3    3    0  502  0.26291228464E+03  0.14298494977E+03 -0.24848316237E+03  0.38898772122E+03  0.25500000920E-02 0. -1.
</event>
<event>
 5   0  0.3794375E-03  0.5999562E+03  0.7818609E-02  0.9905497E-01
        4   -1    0    0  501    0  0.00000000000E+00  0.00000000000E+00  0.24927412026E+03  0.24927735543E+03  0.12699999809E+01 0. -1.
       -4   -1    0    0    0  501  0.00000000000E+00  0.00000000000E+00 -0.36098888046E+03  0.36099111445E+03  0.12699999809E+01 0.  1.
    10030    2    1    2    0    0  0.00000000000E+00  0.00000000000E+00 -0.11171476020E+03  0.61026846988E+03  0.59995617980E+03 0.  0.
        4    1    3    3  502    0  0.26811277524E+03 -0.13409505971E+03 -0.44747361765E+02  0.30310045293E+03  0.12699999809E+01 0.  1.
       -4    1    3    3    0  502 -0.26811277524E+03  0.13409505971E+03 -0.66967398434E+02  0.30716801695E+03  0.12699999809E+01 0. -1.
</event>
<event>
 5   0  0.9530666E-03  0.6003987E+03  0.7818609E-02  0.9904579E-01
        2   -1    0    0  501    0  0.00000000000E+00  0.00000000000E+00  0.50106507580E+03  0.50106507580E+03  0.25500000920E-02 0.  1.
       -2   -1    0    0    0  501  0.00000000000E+00  0.00000000000E+00 -0.17985619869E+03  0.17985619871E+03  0.25500000920E-02 0. -1.
    10030    2    1    2    0    0  0.00000000000E+00  0.00000000000E+00  0.32120887711E+03  0.68092127451E+03  0.60039873363E+03 0.  0.
        2    1    3    3  502    0  0.20231352517E+03 -0.14298987731E+02 -0.90402769568E+02  0.22205378688E+03  0.25500000920E-02 0. -1.
       -2    1    3    3    0  502 -0.20231352517E+03  0.14298987731E+02  0.41161164667E+03  0.45886748763E+03  0.25500000920E-02 0.  1.
</event>
<event>
 5   0  0.5574736E-03  0.6011108E+03  0.7818609E-02  0.9903104E-01
        1   -1    0    0  501    0  0.00000000000E+00  0.00000000000E+00  0.17748862501E+03  0.17748862508E+03  0.50400001928E-02 0. -1.
       -1   -1    0    0    0  501  0.00000000000E+00  0.00000000000E+00 -0.50895405543E+03  0.50895405545E+03  0.50400001928E-02 0.  1.
    10030    2    1    2    0    0  0.00000000000E+00  0.00000000000E+00 -0.33146543042E+03  0.68644268053E+03  0.60111082347E+03 0.  0.
        5    1    3    3  502    0 -0.12755930668E+03 -0.13408326499E+03  0.10465261249E+03  0.21265925320E+03  0.46999998093E+01 0. -1.
       -5    1    3    3    0  502  0.12755930668E+03  0.13408326499E+03 -0.43611804291E+03  0.47378342734E+03  0.46999998093E+01 0.  1.
</event>
<event>
 5   0  0.5503975E-03  0.6000635E+03  0.7818609E-02  0.9905274E-01
       -1   -1    0    0    0  501  0.00000000000E+00  0.00000000000E+00  0.29543081079E+03  0.29543081083E+03  0.50400001928E-02 0. -1.
        1   -1    0    0  501    0  0.00000000000E+00  0.00000000000E+00 -0.30470431765E+03  0.30470431769E+03  0.50400001928E-02 0.  1.
    10030    2    1    2    0    0  0.00000000000E+00  0.00000000000E+00 -0.92735068619E+01  0.60013512852E+03  0.60006347544E+03 0.  0.
        4    1    3    3  502    0 -0.24752778839E+03 -0.74054390689E+02 -0.15717831493E+03  0.30242469210E+03  0.12699999809E+01 0.  1.
       -4    1    3    3    0  502  0.24752778839E+03  0.74054390689E+02  0.14790480807E+03  0.29771043642E+03  0.12699999809E+01 0. -1.
</event>
<event>
 5   0  0.5491236E-03  0.6014789E+03  0.7818609E-02  0.9902343E-01
       -1   -1    0    0    0  501  0.00000000000E+00  0.00000000000E+00  0.33599907112E+03  0.33599907115E+03  0.50400001928E-02 0. -1.
        1   -1    0    0  501    0  0.00000000000E+00  0.00000000000E+00 -0.26917994141E+03  0.26917994146E+03  0.50400001928E-02 0.  1.
    10030    2    1    2    0    0  0.00000000000E+00  0.00000000000E+00  0.66819129702E+02  0.60517901262E+03  0.60147887845E+03 0.  0.
        3    1    3    3  502    0  0.46805082172E+02 -0.15535373846E+03  0.28818399130E+03  0.33071970430E+03  0.10100000352E+00 0. -1.
       -3    1    3    3    0  502 -0.46805082172E+02  0.15535373846E+03 -0.22136486159E+03  0.27445930832E+03  0.10100000352E+00 0.  1.
</event>
<event>
 5   0  0.5491236E-03  0.6084560E+03  0.7818609E-02  0.9888016E-01
        1   -1    0    0  501    0  0.00000000000E+00  0.00000000000E+00  0.15599102503E+03  0.15599102512E+03  0.50400001928E-02 0.  1.
       -1   -1    0    0    0  501  0.00000000000E+00  0.00000000000E+00 -0.59333324572E+03  0.59333324574E+03  0.50400001928E-02 0. -1.
    10030    2    1    2    0    0  0.00000000000E+00  0.00000000000E+00 -0.43734222068E+03  0.74932427085E+03  0.60845595149E+03 0.  0.
        3    1    3    3  502    0 -0.19149266255E+03 -0.60538061466E+02  0.62752521541E+02  0.21040956694E+03  0.10100000352E+00 0.  1.
       -3    1    3    3    0  502  0.19149266255E+03  0.60538061466E+02 -0.50009474222E+03  0.53891470392E+03  0.10100000352E+00 0. -1.
</event>
<event>
 5   0  0.9530666E-03  0.5997846E+03  0.7818609E-02  0.9905853E-01
       -2   -1    0    0    0  501  0.00000000000E+00  0.00000000000E+00  0.20736022286E+03  0.20736022288E+03  0.25500000920E-02 0.  1.
        2   -1    0    0  501    0  0.00000000000E+00  0.00000000000E+00 -0.43371570514E+03  0.43371570515E+03  0.25500000920E-02 0. -1.
    10030    2    1    2    0    0  0.00000000000E+00  0.00000000000E+00 -0.22635548228E+03  0.64107592803E+03  0.59978457894E+03 0.  0.
        2    1    3    3  502    0  0.28769319069E+03  0.62478452387E+02 -0.52108910559E+02  0.29897536278E+03  0.25500000920E-02 0.  1.
       -2    1    3    3    0  502 -0.28769319069E+03 -0.62478452387E+02 -0.17424657172E+03  0.34210056525E+03  0.25500000920E-02 0. -1.
</event>
<event>
 5   0  0.9530666E-03  0.5982210E+03  0.7818609E-02  0.9909104E-01
        2   -1    0    0  501    0  0.00000000000E+00  0.00000000000E+00  0.43706237481E+03  0.43706237482E+03  0.25500000920E-02 0. -1.
       -2   -1    0    0    0  501  0.00000000000E+00  0.00000000000E+00 -0.20470094200E+03  0.20470094201E+03  0.25500000920E-02 0.  1.
    10030    2    1    2    0    0  0.00000000000E+00  0.00000000000E+00  0.23236143281E+03  0.64176331683E+03  0.59822096200E+03 0.  0.
        2    1    3    3  502    0  0.11408242342E+03  0.46846566930E+02  0.40851782668E+03  0.42672733084E+03  0.25500000920E-02 0. -1.
       -2    1    3    3    0  502 -0.11408242342E+03 -0.46846566930E+02 -0.17615639386E+03  0.21503598599E+03  0.25500000920E-02 0.  1.
</event>
<event>
 5   0  0.5503975E-03  0.6001280E+03  0.7818609E-02  0.9905141E-01
       -1   -1    0    0    0  501  0.00000000000E+00  0.00000000000E+00  0.38396397087E+02  0.38396397418E+02  0.50400001928E-02 0.  1.
        1   -1    0    0  501    0  0.00000000000E+00  0.00000000000E+00 -0.23449702312E+04  0.23449702312E+04  0.50400001928E-02 0. -1.
    10030    2    1    2    0    0  0.00000000000E+00  0.00000000000E+00 -0.23065738341E+04  0.23833666286E+04  0.60012801485E+03 0.  0.
        4    1    3    3  502    0  0.11198771907E+03 -0.10744485499E+03 -0.13338563341E+03  0.20464355887E+03  0.12699999809E+01 0.  1.
       -4    1    3    3    0  502 -0.11198771907E+03  0.10744485499E+03 -0.21731882007E+04  0.21787230697E+04  0.12699999809E+01 0. -1.
</event>
<event>
 5   0  0.5785798E-03  0.6005573E+03  0.7818609E-02  0.9904251E-01
       -1   -1    0    0    0  501  0.00000000000E+00  0.00000000000E+00  0.66916860517E+02  0.66916860707E+02  0.50400001928E-02 0. -1.
        1   -1    0    0  501    0  0.00000000000E+00  0.00000000000E+00 -0.13474520929E+04  0.13474520929E+04  0.50400001928E-02 0.  1.
    10030    2    1    2    0    0  0.00000000000E+00  0.00000000000E+00 -0.12805352324E+04  0.14143689537E+04  0.60055728752E+03 0.  0.
        1    1    3    3  502    0  0.29779100769E+03 -0.32469551471E+02 -0.59123255164E+03  0.66278932261E+03  0.50400001928E-02 0. -1.
       -1    1    3    3    0  502 -0.29779100769E+03  0.32469551471E+02 -0.68930268078E+03  0.75157963104E+03  0.50400001928E-02 0.  1.
</event>
<event>
 5   0  0.3794375E-03  0.6006343E+03  0.7818609E-02  0.9904091E-01
        3   -1    0    0  501    0  0.00000000000E+00  0.00000000000E+00  0.60660697810E+03  0.60660698651E+03  0.10100000352E+00 0. -1.
       -3   -1    0    0    0  501  0.00000000000E+00  0.00000000000E+00 -0.14868007021E+03  0.14868010451E+03  0.10100000352E+00 0.  1.
    10030    2    1    2    0    0  0.00000000000E+00  0.00000000000E+00  0.45792690789E+03  0.75528709102E+03  0.60063427882E+03 0.  0.
        5    1    3    3  502    0 -0.22836782662E+03 -0.12078061101E+03  0.42143828574E+03  0.49434010450E+03  0.46999998093E+01 0. -1.
       -5    1    3    3    0  502  0.22836782662E+03  0.12078061101E+03  0.36488622155E+02  0.26094698653E+03  0.46999998093E+01 0.  1.
</event>
<event>
 5   0  0.5503975E-03  0.6002634E+03  0.7818609E-02  0.9904860E-01
        1   -1    0    0  501    0  0.00000000000E+00  0.00000000000E+00  0.16259164785E+03  0.16259164793E+03  0.50400001928E-02 0.  1.
       -1   -1    0    0    0  501  0.00000000000E+00  0.00000000000E+00 -0.55401999186E+03  0.55401999188E+03  0.50400001928E-02 0. -1.
    10030    2    1    2    0    0  0.00000000000E+00  0.00000000000E+00 -0.39142834401E+03  0.71661163981E+03  0.60026335372E+03 0.  0.
        4    1    3    3  502    0 -0.26135574321E+03 -0.10348554627E+03 -0.32127253888E+03  0.42688843969E+03  0.12699999809E+01 0. -1.
       -4    1    3    3    0  502  0.26135574321E+03  0.10348554627E+03 -0.70155805123E+02  0.28972320012E+03  0.12699999809E+01 0.  1.
</event>
<event>
 5   0  0.3794375E-03  0.5996118E+03  0.7818609E-02  0.9906212E-01
       -3   -1    0    0    0  501  0.00000000000E+00  0.00000000000E+00  0.14711190050E+03  0.14711193517E+03  0.10100000352E+00 0.  1.
        3   -1    0    0  501    0  0.00000000000E+00  0.00000000000E+00 -0.61098762159E+03  0.61098762994E+03  0.10100000352E+00 0. -1.
    10030    2    1    2    0    0  0.00000000000E+00  0.00000000000E+00 -0.46387572109E+03  0.75809956511E+03  0.59961176273E+03 0.  0.
        1    1    3    3  502    0  0.24172632714E+03 -0.17217825143E+03 -0.28567653921E+03  0.41193209705E+03  0.50400001928E-02 0. -1.
       -1    1    3    3    0  502 -0.24172632714E+03  0.17217825143E+03 -0.17819918188E+03  0.34616746807E+03  0.50400001928E-02 0.  1.
</event>
<event>
 5   0  0.3794375E-03  0.5998800E+03  0.7818609E-02  0.9905655E-01
        3   -1    0    0  501    0  0.00000000000E+00  0.00000000000E+00  0.16489291458E+03  0.16489294551E+03  0.10100000352E+00 0.  1.
       -3   -1    0    0    0  501  0.00000000000E+00  0.00000000000E+00 -0.54559032945E+03  0.54559033880E+03  0.10100000352E+00 0. -1.
    10030    2    1    2    0    0  0.00000000000E+00  0.00000000000E+00 -0.38069741487E+03  0.71048328431E+03  0.59987996765E+03 0.  0.
        2    1    3    3  502    0  0.20411797200E+03  0.81272140529E+02  0.51492254722E+02  0.22565628647E+03  0.25500000920E-02 0.  1.
       -2    1    3    3    0  502 -0.20411797200E+03 -0.81272140529E+02 -0.43218966960E+03  0.48482699784E+03  0.25500000920E-02 0. -1.
</event>
<event>
 5   0  0.5491236E-03  0.5998530E+03  0.7818609E-02  0.9905711E-01
        1   -1    0    0  501    0  0.00000000000E+00  0.00000000000E+00  0.52840647907E+03  0.52840647910E+03  0.50400001928E-02 0.  1.
       -1   -1    0    0    0  501  0.00000000000E+00  0.00000000000E+00 -0.17023995930E+03  0.17023995937E+03  0.50400001928E-02 0. -1.
    10030    2    1    2    0    0  0.00000000000E+00  0.00000000000E+00  0.35816651977E+03  0.69864643847E+03  0.59985297374E+03 0.  0.
        3    1    3    3  502    0 -0.28344693332E+03  0.91856644709E+02  0.21902537795E+03  0.36979985610E+03  0.10100000352E+00 0.  1.
       -3    1    3    3    0  502  0.28344693332E+03 -0.91856644709E+02  0.13914114182E+03  0.32884658237E+03  0.10100000352E+00 0. -1.
</event>
<event>
 5   0  0.9866317E-03  0.6010237E+03  0.7818609E-02  0.9903285E-01
        2   -1    0    0  501    0  0.00000000000E+00  0.00000000000E+00  0.13185905291E+04  0.13185905291E+04  0.25500000920E-02 0. -1.
       -2   -1    0    0    0  501  0.00000000000E+00  0.00000000000E+00 -0.68487801073E+02  0.68487801121E+02  0.25500000920E-02 0.  1.
    10030    2    1    2    0    0  0.00000000000E+00  0.00000000000E+00  0.12501027280E+04  0.13870783302E+04  0.60102367968E+03 0.  0.
        1    1    3    3  502    0 -0.87578513458E+02 -0.25573750266E+03  0.92803827096E+03  0.96660576177E+03  0.50400001928E-02 0. -1.
       -1    1    3    3    0  502  0.87578513458E+02  0.25573750266E+03  0.32206445702E+03  0.42047256841E+03  0.50400001928E-02 0.  1.
</event>
<event>
 5   0  0.9428629E-03  0.6003699E+03  0.7818609E-02  0.9904639E-01
        2   -1    0    0  501    0  0.00000000000E+00  0.00000000000E+00  0.16439990428E+04  0.16439990428E+04  0.25500000920E-02 0.  1.
       -2   -1    0    0    0  501  0.00000000000E+00  0.00000000000E+00 -0.54812077071E+02  0.54812077130E+02  0.25500000920E-02 0. -1.
    10030    2    1    2    0    0  0.00000000000E+00  0.00000000000E+00  0.15891869657E+04  0.16988111199E+04  0.60036989362E+03 0.  0.
        3    1    3    3  502    0  0.15212539374E+00 -0.98706906255E+02 -0.75785963706E+01  0.98997584862E+02  0.10100000352E+00 0. -1.
       -3    1    3    3    0  502 -0.15212539374E+00  0.98706906255E+02  0.15967655621E+04  0.15998135351E+04  0.10100000352E+00 0.  1.
</event>
<event>
 5   0  0.9866317E-03  0.5991285E+03  0.7818609E-02  0.9907216E-01
       -2   -1    0    0    0  501  0.00000000000E+00  0.00000000000E+00  0.28897622609E+02  0.28897622722E+02  0.25500000920E-02 0. -1.
        2   -1    0    0  501    0  0.00000000000E+00  0.00000000000E+00 -0.31054017122E+04  0.31054017122E+04  0.25500000920E-02 0.  1.
    10030    2    1    2    0    0  0.00000000000E+00  0.00000000000E+00 -0.30765040896E+04  0.31342993349E+04  0.59912845670E+03 0.  0.
        1    1    3    3  502    0  0.28855800471E+03 -0.21331421536E+02 -0.19440835152E+04  0.19654977654E+04  0.50400001928E-02 0.  1.
       -1    1    3    3    0  502 -0.28855800471E+03  0.21331421536E+02 -0.11324205744E+04  0.11688015695E+04  0.50400001928E-02 0. -1.
</event>
<event>
 5   0  0.3794375E-03  0.6004177E+03  0.7818609E-02  0.9904540E-01
       -3   -1    0    0    0  501  0.00000000000E+00  0.00000000000E+00  0.34080113915E+03  0.34080115412E+03  0.10100000352E+00 0. -1.
        3   -1    0    0  501    0  0.00000000000E+00  0.00000000000E+00 -0.26445138042E+03  0.26445139970E+03  0.10100000352E+00 0.  1.
    10030    2    1    2    0    0  0.00000000000E+00  0.00000000000E+00  0.76349758738E+02  0.60525255382E+03  0.60041766151E+03 0.  0.
        4    1    3    3  502    0 -0.25864847626E+03 -0.11412248884E+03  0.13998695129E+03  0.31546939022E+03  0.12699999809E+01 0.  1.
       -4    1    3    3    0  502  0.25864847626E+03  0.11412248884E+03 -0.63637192553E+02  0.28978316360E+03  0.12699999809E+01 0. -1.
</event>
<event>
 5   0  0.9428629E-03  0.6003378E+03  0.7818609E-02  0.9904705E-01
       -2   -1    0    0    0  501  0.00000000000E+00  0.00000000000E+00  0.47521731095E+03  0.47521731096E+03  0.25500000920E-02 0.  1.
        2   -1    0    0  501    0  0.00000000000E+00  0.00000000000E+00 -0.18960035465E+03  0.18960035467E+03  0.25500000920E-02 0. -1.
    10030    2    1    2    0    0  0.00000000000E+00  0.00000000000E+00  0.28561695630E+03  0.66481766563E+03  0.60033780725E+03 0.  0.
        3    1    3    3  502    0 -0.22675992263E+03 -0.19599404357E+03  0.12469188271E+03  0.32462563583E+03  0.10100000352E+00 0.  1.
       -3    1    3    3    0  502  0.22675992263E+03  0.19599404357E+03  0.16092507358E+03  0.34019202979E+03  0.10100000352E+00 0. -1.
</event>
<event>
 5   0  0.9571790E-03  0.5995997E+03  0.7818609E-02  0.9906237E-01
       -2   -1    0    0    0  501  0.00000000000E+00  0.00000000000E+00  0.47530357748E+02  0.47530357817E+02  0.25500000920E-02 0.  1.
        2   -1    0    0  501    0  0.00000000000E+00  0.00000000000E+00 -0.18910006509E+04  0.18910006509E+04  0.25500000920E-02 0. -1.
    10030    2    1    2    0    0  0.00000000000E+00  0.00000000000E+00 -0.18434702932E+04  0.19385310087E+04  0.59959965814E+03 0.  0.
        5    1    3    3  502    0  0.94394135690E+02 -0.23414202294E+03 -0.39917002326E+03  0.47232566861E+03  0.46999998093E+01 0.  1.
       -5    1    3    3    0  502 -0.94394135690E+02  0.23414202294E+03 -0.14443002699E+04  0.14662053401E+04  0.46999998093E+01 0. -1.
</event>
<event>
 5   0  0.3794375E-03  0.6007669E+03  0.7818609E-02  0.9903816E-01
       -4   -1    0    0    0  501  0.00000000000E+00  0.00000000000E+00  0.51122330897E+03  0.51122488646E+03  0.12699999809E+01 0.  1.
        4   -1    0    0  501    0  0.00000000000E+00  0.00000000000E+00 -0.17649452367E+03  0.17649909287E+03  0.12699999809E+01 0. -1.
    10030    2    1    2    0    0  0.00000000000E+00  0.00000000000E+00  0.33472878530E+03  0.68772397933E+03  0.60076693654E+03 0.  0.
        4    1    3    3  502    0  0.24767336150E+03 -0.10220094840E+03  0.11908884120E+02  0.26819873653E+03  0.12699999809E+01 0. -1.
       -4    1    3    3    0  502 -0.24767336150E+03  0.10220094840E+03  0.32281990118E+03  0.41952524281E+03  0.12699999809E+01 0.  1.
</event>
<event>
 5   0  0.5785798E-03  0.5999749E+03  0.7818609E-02  0.9905458E-01
       -1   -1    0    0    0  501  0.00000000000E+00  0.00000000000E+00  0.24326287056E+03  0.24326287061E+03  0.50400001928E-02 0.  1.
        1   -1    0    0  501    0  0.00000000000E+00  0.00000000000E+00 -0.36993924514E+03  0.36993924517E+03  0.50400001928E-02 0. -1.
    10030    2    1    2    0    0  0.00000000000E+00  0.00000000000E+00 -0.12667637458E+03  0.61320211578E+03  0.59997494191E+03 0.  0.
        1    1    3    3  502    0 -0.11802633886E+03  0.23254242806E+03  0.88208504686E+02  0.27529427498E+03  0.50400001928E-02 0.  1.
       -1    1    3    3    0  502  0.11802633886E+03 -0.23254242806E+03 -0.21488487926E+03  0.33790784080E+03  0.50400001928E-02 0. -1.
</event>
<event>
 5   0  0.9866317E-03  0.5997924E+03  0.7818609E-02  0.9905837E-01
        2   -1    0    0  501    0  0.00000000000E+00  0.00000000000E+00  0.65084725629E+03  0.65084725629E+03  0.25500000920E-02 0.  1.
       -2   -1    0    0    0  501  0.00000000000E+00  0.00000000000E+00 -0.13818559758E+03  0.13818559760E+03  0.25500000920E-02 0. -1.
    10030    2    1    2    0    0  0.00000000000E+00  0.00000000000E+00  0.51266165871E+03  0.78903285389E+03  0.59979235425E+03 0.  0.
        1    1    3    3  502    0 -0.12069953805E+01 -0.30129403128E+02  0.64884798127E+03  0.64954825887E+03  0.50400001928E-02 0.  1.
       -1    1    3    3    0  502  0.12069953805E+01  0.30129403128E+02 -0.13618632257E+03  0.13948459503E+03  0.50400001928E-02 0. -1.
</event>
<event>
 5   0  0.5491236E-03  0.6011673E+03  0.7818609E-02  0.9902987E-01
       -1   -1    0    0    0  501  0.00000000000E+00  0.00000000000E+00  0.26158328312E+03  0.26158328317E+03  0.50400001928E-02 0. -1.
        1   -1    0    0  501    0  0.00000000000E+00  0.00000000000E+00 -0.34539868644E+03  0.34539868647E+03  0.50400001928E-02 0.  1.
    10030    2    1    2    0    0  0.00000000000E+00  0.00000000000E+00 -0.83815403320E+02  0.60698196964E+03  0.60116727259E+03 0.  0.
        3    1    3    3  502    0  0.29793651432E+03  0.36935306677E+02 -0.26927458674E+02  0.30142243061E+03  0.10100000352E+00 0. -1.
       -3    1    3    3    0  502 -0.29793651432E+03 -0.36935306677E+02 -0.56887944646E+02  0.30555953903E+03  0.10100000352E+00 0.  1.
</event>
<event>
 5   0  0.3794375E-03  0.6009302E+03  0.7818609E-02  0.9903478E-01
        3   -1    0    0  501    0  0.00000000000E+00  0.00000000000E+00  0.17895522398E+03  0.17895525249E+03  0.10100000352E+00 0.  1.
       -3   -1    0    0    0  501  0.00000000000E+00  0.00000000000E+00 -0.50447969763E+03  0.50447970774E+03  0.10100000352E+00 0. -1.
    10030    2    1    2    0    0  0.00000000000E+00  0.00000000000E+00 -0.32552447365E+03  0.68343496023E+03  0.60093024713E+03 0.  0.
        5    1    3    3  502    0  0.20992314330E+03  0.19853392991E+03 -0.69159659579E+02  0.29713396967E+03  0.46999998093E+01 0. -1.
       -5    1    3    3    0  502 -0.20992314330E+03 -0.19853392991E+03 -0.25636481407E+03  0.38630099056E+03  0.46999998093E+01 0. -1.
</event>
<event>
 5   0  0.5653633E-03  0.5982270E+03  0.7818609E-02  0.9909091E-01
        1   -1    0    0  501    0  0.00000000000E+00  0.00000000000E+00  0.13341170597E+04  0.13341170597E+04  0.50400001928E-02 0.  1.
       -1   -1    0    0    0  501  0.00000000000E+00  0.00000000000E+00 -0.67062255963E+02  0.67062256152E+02  0.50400001928E-02 0. -1.
    10030    2    1    2    0    0  0.00000000000E+00  0.00000000000E+00  0.12670548038E+04  0.14011793159E+04  0.59822704681E+03 0.  0.
        2    1    3    3  502    0 -0.14377930263E+03  0.24973506457E+03  0.82132626249E+03  0.87041192536E+03  0.25500000920E-02 0.  1.
       -2    1    3    3    0  502  0.14377930263E+03 -0.24973506457E+03  0.44572854126E+03  0.53076739052E+03  0.25500000920E-02 0. -1.
</event>
<event>
 5   0  0.5503975E-03  0.5991512E+03  0.7818609E-02  0.9907169E-01
       -1   -1    0    0    0  501  0.00000000000E+00  0.00000000000E+00  0.64142285300E+02  0.64142285498E+02  0.50400001928E-02 0. -1.
        1   -1    0    0  501    0  0.00000000000E+00  0.00000000000E+00 -0.13991633076E+04  0.13991633076E+04  0.50400001928E-02 0.  1.
    10030    2    1    2    0    0  0.00000000000E+00  0.00000000000E+00 -0.13350210223E+04  0.14633055931E+04  0.59915117361E+03 0.  0.
        4    1    3    3  502    0 -0.28036840275E+03 -0.57379542527E+02 -0.88383063511E+03  0.92900864238E+03  0.12699999809E+01 0.  1.
       -4    1    3    3    0  502  0.28036840275E+03  0.57379542527E+02 -0.45119038720E+03  0.53429695074E+03  0.12699999809E+01 0. -1.
</event>
<event>
 5   0  0.9681801E-03  0.5995022E+03  0.7818609E-02  0.9906439E-01
       -2   -1    0    0    0  501  0.00000000000E+00  0.00000000000E+00  0.77698576738E+02  0.77698576780E+02  0.25500000920E-02 0.  1.
        2   -1    0    0  501    0  0.00000000000E+00  0.00000000000E+00 -0.11564013056E+04  0.11564013056E+04  0.25500000920E-02 0. -1.
    10030    2    1    2    0    0  0.00000000000E+00  0.00000000000E+00 -0.10787027289E+04  0.12340998824E+04  0.59950224558E+03 0.  0.
        4    1    3    3  502    0  0.48060530415E+02 -0.28040219287E+03 -0.34499721242E+03  0.44716875319E+03  0.12699999809E+01 0. -1.
       -4    1    3    3    0  502 -0.48060530415E+02  0.28040219287E+03 -0.73370551648E+03  0.78693112924E+03  0.12699999809E+01 0.  1.
</event>
<event>
 5   0  0.5574736E-03  0.5991769E+03  0.7818609E-02  0.9907115E-01
       -1   -1    0    0    0  501  0.00000000000E+00  0.00000000000E+00  0.26479300143E+03  0.26479300148E+03  0.50400001928E-02 0. -1.
        1   -1    0    0  501    0  0.00000000000E+00  0.00000000000E+00 -0.33895625352E+03  0.33895625355E+03  0.50400001928E-02 0.  1.
    10030    2    1    2    0    0  0.00000000000E+00  0.00000000000E+00 -0.74163252083E+02  0.60374925503E+03  0.59917691460E+03 0.  0.
        5    1    3    3  502    0  0.23097717014E+02  0.67299720463E+02  0.25611718438E+03  0.26585872007E+03  0.46999998093E+01 0. -1.
       -5    1    3    3    0  502 -0.23097717014E+02 -0.67299720463E+02 -0.33028043646E+03  0.33789053496E+03  0.46999998093E+01 0.  1.
</event>
<event>
 5   0  0.3794375E-03  0.6010893E+03  0.7818609E-02  0.9903149E-01
       -3   -1    0    0    0  501  0.00000000000E+00  0.00000000000E+00  0.14642273112E+04  0.14642273147E+04  0.10100000352E+00 0.  1.
        3   -1    0    0  501    0  0.00000000000E+00  0.00000000000E+00 -0.61689198015E+02  0.61689280695E+02  0.10100000352E+00 0. -1.
    10030    2    1    2    0    0  0.00000000000E+00  0.00000000000E+00  0.14025381132E+04  0.15259165954E+04  0.60108925886E+03 0.  0.
        5    1    3    3  502    0 -0.74913324864E+02  0.28729478823E+03  0.58343156454E+03  0.65464859435E+03  0.46999998093E+01 0.  1.
       -5    1    3    3    0  502  0.74913324864E+02 -0.28729478823E+03  0.81910654866E+03  0.87126800104E+03  0.46999998093E+01 0. -1.
</event>
<event>
 5   0  0.5491236E-03  0.5995146E+03  0.7818609E-02  0.9906414E-01
       -1   -1    0    0    0  501  0.00000000000E+00  0.00000000000E+00  0.18644849657E+03  0.18644849664E+03  0.50400001928E-02 0. -1.
        1   -1    0    0  501    0  0.00000000000E+00  0.00000000000E+00 -0.48192632518E+03  0.48192632520E+03  0.50400001928E-02 0.  1.
    10030    2    1    2    0    0  0.00000000000E+00  0.00000000000E+00 -0.29547782861E+03  0.66837482184E+03  0.59951459972E+03 0.  0.
        3    1    3    3  502    0 -0.13744500593E+03 -0.22231630916E+02 -0.44368972701E+03  0.46502253615E+03  0.10100000352E+00 0.  1.
       -3    1    3    3    0  502  0.13744500593E+03  0.22231630916E+02  0.14821189841E+03  0.20335228569E+03  0.10100000352E+00 0. -1.
</event>
<event>
 5   0  0.5574736E-03  0.6001472E+03  0.7818609E-02  0.9905101E-01
       -1   -1    0    0    0  501  0.00000000000E+00  0.00000000000E+00  0.12114974691E+03  0.12114974702E+03  0.50400001928E-02 0. -1.
        1   -1    0    0  501    0  0.00000000000E+00  0.00000000000E+00 -0.74324695246E+03  0.74324695248E+03  0.50400001928E-02 0.  1.
    10030    2    1    2    0    0  0.00000000000E+00  0.00000000000E+00 -0.62209720555E+03  0.86439669950E+03  0.60014724939E+03 0.  0.
        5    1    3    3  502    0 -0.27892101030E+03  0.24708150663E+02 -0.46627253160E+03  0.54391137736E+03  0.46999998093E+01 0. -1.
       -5    1    3    3    0  502  0.27892101030E+03 -0.24708150663E+02 -0.15582467394E+03  0.32048532214E+03  0.46999998093E+01 0.  1.
</event>
<event>
 5   0  0.9571790E-03  0.5979351E+03  0.7818609E-02  0.9909699E-01
        2   -1    0    0  501    0  0.00000000000E+00  0.00000000000E+00  0.10665618798E+04  0.10665618798E+04  0.25500000920E-02 0. -1.
       -2   -1    0    0    0  501  0.00000000000E+00  0.00000000000E+00 -0.83803489324E+02  0.83803489363E+02  0.25500000920E-02 0.  1.
    10030    2    1    2    0    0  0.00000000000E+00  0.00000000000E+00  0.98275839048E+03  0.11503653692E+04  0.59793513739E+03 0.  0.
        5    1    3    3  502    0 -0.10100904070E+03 -0.27403175914E+03  0.36874250823E+03  0.47041402902E+03  0.46999998093E+01 0.  1.
       -5    1    3    3    0  502  0.10100904070E+03  0.27403175914E+03  0.61401588224E+03  0.67995134015E+03  0.46999998093E+01 0. -1.
</event>
<event>
 5   0  0.9428629E-03  0.6004094E+03  0.7818609E-02  0.9904557E-01
        2   -1    0    0  501    0  0.00000000000E+00  0.00000000000E+00  0.96081055426E+03  0.96081055427E+03  0.25500000920E-02 0. -1.
       -2   -1    0    0    0  501  0.00000000000E+00  0.00000000000E+00 -0.93798770203E+02  0.93798770237E+02  0.25500000920E-02 0.  1.
    10030    2    1    2    0    0  0.00000000000E+00  0.00000000000E+00  0.86701178406E+03  0.10546093245E+04  0.60040935505E+03 0.  0.
        3    1    3    3  502    0  0.20039931027E+03  0.92069080982E+02  0.79126952240E+03  0.82142806533E+03  0.10100000352E+00 0. -1.
       -3    1    3    3    0  502 -0.20039931027E+03 -0.92069080982E+02  0.75742261665E+02  0.23318125918E+03  0.10100000352E+00 0.  1.
</event>
<event>
 5   0  0.5653633E-03  0.6003778E+03  0.7818609E-02  0.9904623E-01
       -1   -1    0    0    0  501  0.00000000000E+00  0.00000000000E+00  0.18490633202E+03  0.18490633209E+03  0.50400001928E-02 0. -1.
        1   -1    0    0  501    0  0.00000000000E+00  0.00000000000E+00 -0.48734605697E+03  0.48734605700E+03  0.50400001928E-02 0.  1.
    10030    2    1    2    0    0  0.00000000000E+00  0.00000000000E+00 -0.30243972495E+03  0.67225238908E+03  0.60037778723E+03 0.  0.
        2    1    3    3  502    0  0.98190230572E+02  0.26339553191E+03 -0.33277901832E+02  0.28306526874E+03  0.25500000920E-02 0. -1.
       -2    1    3    3    0  502 -0.98190230572E+02 -0.26339553191E+03 -0.26916182312E+03  0.38918712034E+03  0.25500000920E-02 0.  1.
</event>
<event>
 5   0  0.3794375E-03  0.6010371E+03  0.7818609E-02  0.9903257E-01
       -4   -1    0    0    0  501  0.00000000000E+00  0.00000000000E+00  0.87094778330E+02  0.87104037291E+02  0.12699999809E+01 0.  1.
        4   -1    0    0  501    0  0.00000000000E+00  0.00000000000E+00 -0.10368676913E+04  0.10368684691E+04  0.12699999809E+01 0. -1.
    10030    2    1    2    0    0  0.00000000000E+00  0.00000000000E+00 -0.94977291295E+03  0.11239725063E+04  0.60103711104E+03 0.  0.
        4    1    3    3  502    0 -0.55010691753E+02  0.29518690067E+03 -0.45211268812E+03  0.54274209178E+03  0.12699999809E+01 0.  1.
       -4    1    3    3    0  502  0.55010691753E+02 -0.29518690067E+03 -0.49766022483E+03  0.58123041456E+03  0.12699999809E+01 0. -1.
</event>
<event>
 5   0  0.9866317E-03  0.6002051E+03  0.7818609E-02  0.9904981E-01
       -2   -1    0    0    0  501  0.00000000000E+00  0.00000000000E+00  0.18076876287E+03  0.18076876289E+03  0.25500000920E-02 0. -1.
        2   -1    0    0  501    0  0.00000000000E+00  0.00000000000E+00 -0.49821405754E+03  0.49821405754E+03  0.25500000920E-02 0.  1.
    10030    2    1    2    0    0  0.00000000000E+00  0.00000000000E+00 -0.31744529467E+03  0.67898282043E+03  0.60020509439E+03 0.  0.
        1    1    3    3  502    0 -0.24837284290E+03  0.72754707190E+01 -0.34909425824E+03  0.42849597749E+03  0.50400001928E-02 0.  1.
       -1    1    3    3    0  502  0.24837284290E+03 -0.72754707190E+01  0.31648963573E+02  0.25048684294E+03  0.50400001928E-02 0. -1.
</event>
<event>
 5   0  0.5574736E-03  0.5998534E+03  0.7818609E-02  0.9905710E-01
       -1   -1    0    0    0  501  0.00000000000E+00  0.00000000000E+00  0.15463516219E+03  0.15463516227E+03  0.50400001928E-02 0.  1.
        1   -1    0    0  501    0  0.00000000000E+00  0.00000000000E+00 -0.58173068395E+03  0.58173068397E+03  0.50400001928E-02 0. -1.
    10030    2    1    2    0    0  0.00000000000E+00  0.00000000000E+00 -0.42709552176E+03  0.73636584624E+03  0.59985337775E+03 0.  0.
        5    1    3    3  502    0  0.13415929356E+03  0.26096234037E+03 -0.13753838000E+03  0.32409713839E+03  0.46999998093E+01 0.  1.
       -5    1    3    3    0  502 -0.13415929356E+03 -0.26096234037E+03 -0.28955714176E+03  0.41226870786E+03  0.46999998093E+01 0. -1.
</event>
<event>
 5   0  0.9866317E-03  0.6003224E+03  0.7818609E-02  0.9904737E-01
       -2   -1    0    0    0  501  0.00000000000E+00  0.00000000000E+00  0.71097898206E+02  0.71097898252E+02  0.25500000920E-02 0.  1.
        2   -1    0    0  501    0  0.00000000000E+00  0.00000000000E+00 -0.12672209681E+04  0.12672209681E+04  0.25500000920E-02 0. -1.
    10030    2    1    2    0    0  0.00000000000E+00  0.00000000000E+00 -0.11961230699E+04  0.13383188663E+04  0.60032240480E+03 0.  0.
        1    1    3    3  502    0  0.12429021165E+03  0.17589128496E+03 -0.10641519305E+04  0.10857279273E+04  0.50400001928E-02 0. -1.
       -1    1    3    3    0  502 -0.12429021165E+03 -0.17589128496E+03 -0.13197113933E+03  0.25259093903E+03  0.50400001928E-02 0.  1.
</event>
<event>
 5   0  0.9428629E-03  0.5987145E+03  0.7818609E-02  0.9908077E-01
       -2   -1    0    0    0  501  0.00000000000E+00  0.00000000000E+00  0.84583144778E+02  0.84583144816E+02  0.25500000920E-02 0. -1.
        2   -1    0    0  501    0  0.00000000000E+00  0.00000000000E+00 -0.10594871401E+04  0.10594871401E+04  0.25500000920E-02 0.  1.
    10030    2    1    2    0    0  0.00000000000E+00  0.00000000000E+00 -0.97490399529E+03  0.11440702849E+04  0.59871447012E+03 0.  0.
        3    1    3    3  502    0 -0.29475710321E+03  0.33457475070E+02 -0.56421107460E+03  0.63744435006E+03  0.10100000352E+00 0.  1.
       -3    1    3    3    0  502  0.29475710321E+03 -0.33457475070E+02 -0.41069292069E+03  0.50662593482E+03  0.10100000352E+00 0. -1.
</event>
<event>
 5   0  0.5503975E-03  0.6049687E+03  0.7818609E-02  0.9895151E-01
       -1   -1    0    0    0  501  0.00000000000E+00  0.00000000000E+00  0.73191238071E+02  0.73191238245E+02  0.50400001928E-02 0. -1.
        1   -1    0    0  501    0  0.00000000000E+00  0.00000000000E+00 -0.12501058549E+04  0.12501058549E+04  0.50400001928E-02 0.  1.
    10030    2    1    2    0    0  0.00000000000E+00  0.00000000000E+00 -0.11769146169E+04  0.13232970932E+04  0.60496874419E+03 0.  0.
        4    1    3    3  502    0  0.26973569690E+03  0.49843415113E+02 -0.86732453114E+03  0.90966761371E+03  0.12699999809E+01 0.  1.
       -4    1    3    3    0  502 -0.26973569690E+03 -0.49843415113E+02 -0.30959008571E+03  0.41362947947E+03  0.12699999809E+01 0. -1.
</event>
<event>
 5   0  0.5503975E-03  0.6009638E+03  0.7818609E-02  0.9903409E-01
        1   -1    0    0  501    0  0.00000000000E+00  0.00000000000E+00  0.31393268196E+03  0.31393268200E+03  0.50400001928E-02 0.  1.
       -1   -1    0    0    0  501  0.00000000000E+00  0.00000000000E+00 -0.28760742165E+03  0.28760742169E+03  0.50400001928E-02 0. -1.
    10030    2    1    2    0    0  0.00000000000E+00  0.00000000000E+00  0.26325260306E+02  0.60154010369E+03  0.60096379010E+03 0.  0.
        4    1    3    3  502    0  0.21306877308E+03  0.16337135285E+03  0.14819661707E+03  0.30667955785E+03  0.12699999809E+01 0. -1.
       -4    1    3    3    0  502 -0.21306877308E+03 -0.16337135285E+03 -0.12187135676E+03  0.29486054584E+03  0.12699999809E+01 0.  1.
</event>
<event>
 5   0  0.5785798E-03  0.5994923E+03  0.7818609E-02  0.9906460E-01
       -1   -1    0    0    0  501  0.00000000000E+00  0.00000000000E+00  0.75228471563E+02  0.75228471732E+02  0.50400001928E-02 0. -1.
        1   -1    0    0  501    0  0.00000000000E+00  0.00000000000E+00 -0.11943316591E+04  0.11943316591E+04  0.50400001928E-02 0.  1.
    10030    2    1    2    0    0  0.00000000000E+00  0.00000000000E+00 -0.11191031875E+04  0.12695601308E+04  0.59949226973E+03 0.  0.
        1    1    3    3  502    0 -0.22156689589E+03  0.20183946083E+03 -0.56820271355E+03  0.64240593164E+03  0.50400001928E-02 0. -1.
       -1    1    3    3    0  502  0.22156689589E+03 -0.20183946083E+03 -0.55090047397E+03  0.62715419918E+03  0.50400001928E-02 0.  1.
</event>
<event>
 5   0  0.9571790E-03  0.6003879E+03  0.7818609E-02  0.9904602E-01
       -2   -1    0    0    0  501  0.00000000000E+00  0.00000000000E+00  0.58386622665E+02  0.58386622720E+02  0.25500000920E-02 0. -1.
        2   -1    0    0  501    0  0.00000000000E+00  0.00000000000E+00 -0.15434427804E+04  0.15434427804E+04  0.25500000920E-02 0.  1.
    10030    2    1    2    0    0  0.00000000000E+00  0.00000000000E+00 -0.14850561577E+04  0.16018294031E+04  0.60038791216E+03 0.  0.
        5    1    3    3  502    0  0.28703828119E+03 -0.62910200758E+02 -0.90581375720E+03  0.95229686598E+03  0.46999998093E+01 0.  1.
       -5    1    3    3    0  502 -0.28703828119E+03  0.62910200758E+02 -0.57924240050E+03  0.64953253711E+03  0.46999998093E+01 0. -1.
</event>
<event>
 5   0  0.5785798E-03  0.5997770E+03  0.7818609E-02  0.9905869E-01
        1   -1    0    0  501    0  0.00000000000E+00  0.00000000000E+00  0.98848395432E+03  0.98848395433E+03  0.50400001928E-02 0. -1.
       -1   -1    0    0    0  501  0.00000000000E+00  0.00000000000E+00 -0.90980840907E+02  0.90980841046E+02  0.50400001928E-02 0.  1.
    10030    2    1    2    0    0  0.00000000000E+00  0.00000000000E+00  0.89750311341E+03  0.10794647954E+04  0.59977696344E+03 0.  0.
        1    1    3    3  502    0 -0.71923091358E+00  0.29085797960E+03  0.31730350371E+03  0.43044209260E+03  0.50400001928E-02 0.  1.
       -1    1    3    3    0  502  0.71923091358E+00 -0.29085797960E+03  0.58019960970E+03  0.64902270277E+03  0.50400001928E-02 0. -1.
</event>
<event>
 5   0  0.5574736E-03  0.5999221E+03  0.7818609E-02  0.9905568E-01
        1   -1    0    0  501    0  0.00000000000E+00  0.00000000000E+00  0.50020401399E+03  0.50020401401E+03  0.50400001928E-02 0. -1.
       -1   -1    0    0    0  501  0.00000000000E+00  0.00000000000E+00 -0.17987987923E+03  0.17987987930E+03  0.50400001928E-02 0.  1.
    10030    2    1    2    0    0  0.00000000000E+00  0.00000000000E+00  0.32032413475E+03  0.68008389332E+03  0.59992212048E+03 0.  0.
        5    1    3    3  502    0  0.80803097865E+02 -0.11551426546E+03 -0.13994099577E+03  0.19869136479E+03  0.46999998093E+01 0.  1.
       -5    1    3    3    0  502 -0.80803097865E+02  0.11551426546E+03  0.46026513052E+03  0.48139252852E+03  0.46999998093E+01 0. -1.
</event>
<event>
 5   0  0.3794375E-03  0.6006351E+03  0.7818609E-02  0.9904089E-01
       -4   -1    0    0    0  501  0.00000000000E+00  0.00000000000E+00  0.25068863507E+03  0.25069185199E+03  0.12699999809E+01 0. -1.
        4   -1    0    0  501    0  0.00000000000E+00  0.00000000000E+00 -0.35976486557E+03  0.35976710717E+03  0.12699999809E+01 0.  1.
    10030    2    1    2    0    0  0.00000000000E+00  0.00000000000E+00 -0.10907623051E+03  0.61045895916E+03  0.60063509451E+03 0.  0.
        2    1    3    3  502    0  0.61402939471E+02 -0.24441328797E+03  0.11148120959E+03  0.27556530335E+03  0.25500000920E-02 0. -1.
       -2    1    3    3    0  502 -0.61402939471E+02  0.24441328797E+03 -0.22055744009E+03  0.33489365581E+03  0.25500000920E-02 0.  1.
</event>
<event>
 5   0  0.9866317E-03  0.6000493E+03  0.7818609E-02  0.9905304E-01
        2   -1    0    0  501    0  0.00000000000E+00  0.00000000000E+00  0.46679198323E+03  0.46679198324E+03  0.25500000920E-02 0. -1.
       -2   -1    0    0    0  501  0.00000000000E+00  0.00000000000E+00 -0.19283707145E+03  0.19283707146E+03  0.25500000920E-02 0.  1.
    10030    2    1    2    0    0  0.00000000000E+00  0.00000000000E+00  0.27395491179E+03  0.65962905470E+03  0.60004932807E+03 0.  0.
        1    1    3    3  502    0  0.78438763529E+02 -0.17763893111E+03  0.38839231522E+03  0.43423129784E+03  0.50400001928E-02 0. -1.
       -1    1    3    3    0  502 -0.78438763529E+02  0.17763893111E+03 -0.11443740343E+03  0.22539775687E+03  0.50400001928E-02 0.  1.
</event>
<event>
 5   0  0.9681801E-03  0.6011413E+03  0.7818609E-02  0.9903041E-01
       -2   -1    0    0    0  501  0.00000000000E+00  0.00000000000E+00  0.29824256855E+03  0.29824256856E+03  0.25500000920E-02 0. -1.
        2   -1    0    0  501    0  0.00000000000E+00  0.00000000000E+00 -0.30291691762E+03  0.30291691763E+03  0.25500000920E-02 0.  1.
    10030    2    1    2    0    0  0.00000000000E+00  0.00000000000E+00 -0.46743490739E+01  0.60115948619E+03  0.60114131308E+03 0.  0.
        4    1    3    3  502    0 -0.36719421998E+02  0.29304768908E+03 -0.58158595488E+02  0.30101378566E+03  0.12699999809E+01 0.  1.
       -4    1    3    3    0  502  0.36719421998E+02 -0.29304768908E+03  0.53484246414E+02  0.30014570053E+03  0.12699999809E+01 0. -1.
</event>
<event>
 5   0  0.9571790E-03  0.6001776E+03  0.7818609E-02  0.9905038E-01
       -2   -1    0    0    0  501  0.00000000000E+00  0.00000000000E+00  0.14584448483E+03  0.14584448485E+03  0.25500000920E-02 0. -1.
        2   -1    0    0  501    0  0.00000000000E+00  0.00000000000E+00 -0.61746096886E+03  0.61746096886E+03  0.25500000920E-02 0.  1.
    10030    2    1    2    0    0  0.00000000000E+00  0.00000000000E+00 -0.47161648403E+03  0.76330545371E+03  0.60017756344E+03 0.  0.
        5    1    3    3  502    0  0.21522162287E+03  0.93378838092E+02 -0.47371031682E+03  0.52864308245E+03  0.46999998093E+01 0.  1.
       -5    1    3    3    0  502 -0.21522162287E+03 -0.93378838092E+02  0.20938327951E+01  0.23466237127E+03  0.46999998093E+01 0. -1.
</event>
<event>
 5   0  0.5503975E-03  0.6002417E+03  0.7818609E-02  0.9904905E-01
        1   -1    0    0  501    0  0.00000000000E+00  0.00000000000E+00  0.63162182329E+03  0.63162182331E+03  0.50400001928E-02 0.  1.
       -1   -1    0    0    0  501  0.00000000000E+00  0.00000000000E+00 -0.14260515585E+03  0.14260515594E+03  0.50400001928E-02 0. -1.
    10030    2    1    2    0    0  0.00000000000E+00  0.00000000000E+00  0.48901666743E+03  0.77422697924E+03  0.60024171328E+03 0.  0.
        4    1    3    3  502    0 -0.28325501386E+03 -0.96162900880E+02  0.27584444892E+03  0.40690598334E+03  0.12699999809E+01 0. -1.
       -4    1    3    3    0  502  0.28325501386E+03  0.96162900880E+02  0.21317221852E+03  0.36732099590E+03  0.12699999809E+01 0.  1.
</event>
<event>
 5   0  0.9866317E-03  0.6009192E+03  0.7818609E-02  0.9903501E-01
       -2   -1    0    0    0  501  0.00000000000E+00  0.00000000000E+00  0.48186795460E+03  0.48186795461E+03  0.25500000920E-02 0. -1.
        2   -1    0    0  501    0  0.00000000000E+00  0.00000000000E+00 -0.18734586559E+03  0.18734586561E+03  0.25500000920E-02 0.  1.
    10030    2    1    2    0    0  0.00000000000E+00  0.00000000000E+00  0.29452208901E+03  0.66921382022E+03  0.60091919278E+03 0.  0.
        1    1    3    3  502    0  0.54585892806E+02  0.16607514627E+03  0.41940079431E+03  0.45437605592E+03  0.50400001928E-02 0. -1.
       -1    1    3    3    0  502 -0.54585892806E+02 -0.16607514627E+03 -0.12487870531E+03  0.21483776429E+03  0.50400001928E-02 0.  1.
</event>
<event>
 5   0  0.5503975E-03  0.5953563E+03  0.7818609E-02  0.9915087E-01
       -1   -1    0    0    0  501  0.00000000000E+00  0.00000000000E+00  0.96258586896E+02  0.96258587028E+02  0.50400001928E-02 0. -1.
        1   -1    0    0  501    0  0.00000000000E+00  0.00000000000E+00 -0.92056503584E+03  0.92056503586E+03  0.50400001928E-02 0.  1.
    10030    2    1    2    0    0  0.00000000000E+00  0.00000000000E+00 -0.82430644895E+03  0.10168236229E+04  0.59535632883E+03 0.  0.
        4    1    3    3  502    0  0.25326403317E+03 -0.28388084398E+02 -0.67487465779E+03  0.72139169004E+03  0.12699999809E+01 0.  1.
       -4    1    3    3    0  502 -0.25326403317E+03  0.28388084398E+02 -0.14943179116E+03  0.29543193284E+03  0.12699999809E+01 0. -1.
</event>
<event>
 5   0  0.5653633E-03  0.5994094E+03  0.7818609E-02  0.9906632E-01
        1   -1    0    0  501    0  0.00000000000E+00  0.00000000000E+00  0.57452548706E+03  0.57452548709E+03  0.50400001928E-02 0.  1.
       -1   -1    0    0    0  501  0.00000000000E+00  0.00000000000E+00 -0.15634278485E+03  0.15634278493E+03  0.50400001928E-02 0. -1.
    10030    2    1    2    0    0  0.00000000000E+00  0.00000000000E+00  0.41818270222E+03  0.73086827202E+03  0.59940942486E+03 0.  0.
        2    1    3    3  502    0 -0.24363439800E+03 -0.16672398636E+03  0.14610688537E+03  0.32939615887E+03  0.25500000920E-02 0.  1.
       -2    1    3    3    0  502  0.24363439800E+03  0.16672398636E+03  0.27207581685E+03  0.40147211315E+03  0.25500000920E-02 0. -1.
</event>
<event>
 5   0  0.3794375E-03  0.5993225E+03  0.7818609E-02  0.9906813E-01
        4   -1    0    0  501    0  0.00000000000E+00  0.00000000000E+00  0.37123616966E+03  0.37123834199E+03  0.12699999809E+01 0.  1.
       -4   -1    0    0    0  501  0.00000000000E+00  0.00000000000E+00 -0.24188154070E+03  0.24188487475E+03  0.12699999809E+01 0. -1.
    10030    2    1    2    0    0  0.00000000000E+00  0.00000000000E+00  0.12935462896E+03  0.61312321674E+03  0.59932249988E+03 0.  0.
        3    1    3    3  502    0  0.12429646917E+03  0.54745085903E+02  0.33794283071E+03  0.36421422777E+03  0.10100000352E+00 0.  1.
       -3    1    3    3    0  502 -0.12429646917E+03 -0.54745085903E+02 -0.20858820175E+03  0.24890898897E+03  0.10100000352E+00 0. -1.
</event>
<event>
 5   0  0.5503975E-03  0.5990283E+03  0.7818609E-02  0.9907424E-01
       -1   -1    0    0    0  501  0.00000000000E+00  0.00000000000E+00  0.52079533834E+02  0.52079534078E+02  0.50400001928E-02 0. -1.
        1   -1    0    0  501    0  0.00000000000E+00  0.00000000000E+00 -0.17225333678E+04  0.17225333679E+04  0.50400001928E-02 0.  1.
    10030    2    1    2    0    0  0.00000000000E+00  0.00000000000E+00 -0.16704538340E+04  0.17746129019E+04  0.59902832999E+03 0.  0.
        4    1    3    3  502    0 -0.71468042887E+02  0.90482529782E+02 -0.16313364245E+02  0.11645818178E+03  0.12699999809E+01 0. -1.
       -4    1    3    3    0  502  0.71468042887E+02 -0.90482529782E+02 -0.16541404698E+04  0.16581547202E+04  0.12699999809E+01 0.  1.
</event>
<event>
 5   0  0.5503975E-03  0.5998818E+03  0.7818609E-02  0.9905651E-01
       -1   -1    0    0    0  501  0.00000000000E+00  0.00000000000E+00  0.15780285505E+03  0.15780285513E+03  0.50400001928E-02 0. -1.
        1   -1    0    0  501    0  0.00000000000E+00  0.00000000000E+00 -0.57010714948E+03  0.57010714950E+03  0.50400001928E-02 0.  1.
    10030    2    1    2    0    0  0.00000000000E+00  0.00000000000E+00 -0.41230429443E+03  0.72791000463E+03  0.59988177471E+03 0.  0.
        4    1    3    3  502    0 -0.15348571920E+03 -0.44199462306E+01  0.10649084973E+03  0.18686710759E+03  0.12699999809E+01 0. -1.
       -4    1    3    3    0  502  0.15348571920E+03  0.44199462306E+01 -0.51879514417E+03  0.54104289704E+03  0.12699999809E+01 0.  1.
</event>
<event>
 5   0  0.9681801E-03  0.6018794E+03  0.7818609E-02  0.9901515E-01
       -2   -1    0    0    0  501  0.00000000000E+00  0.00000000000E+00  0.20240441537E+03  0.20240441539E+03  0.25500000920E-02 0. -1.
        2   -1    0    0  501    0  0.00000000000E+00  0.00000000000E+00 -0.44744433709E+03  0.44744433710E+03  0.25500000920E-02 0.  1.
    10030    2    1    2    0    0  0.00000000000E+00  0.00000000000E+00 -0.24503992172E+03  0.64984875248E+03  0.60187942137E+03 0.  0.
        4    1    3    3  502    0  0.21340026768E+03 -0.89909476567E+02 -0.33003497575E+03  0.40317252677E+03  0.12699999809E+01 0. -1.
       -4    1    3    3    0  502 -0.21340026768E+03  0.89909476567E+02  0.84995054027E+02  0.24667622571E+03  0.12699999809E+01 0.  1.
</event>
<event>
 5   0  0.9681801E-03  0.6001824E+03  0.7818609E-02  0.9905028E-01
        2   -1    0    0  501    0  0.00000000000E+00  0.00000000000E+00  0.99391175500E+03  0.99391175501E+03  0.25500000920E-02 0. -1.
       -2   -1    0    0    0  501  0.00000000000E+00  0.00000000000E+00 -0.90606371387E+02  0.90606371423E+02  0.25500000920E-02 0.  1.
    10030    2    1    2    0    0  0.00000000000E+00  0.00000000000E+00  0.90330538362E+03  0.10845181264E+04  0.60018243100E+03 0.  0.
        4    1    3    3  502    0  0.14954933226E+02 -0.27677112546E+03  0.24383246921E+03  0.36916363832E+03  0.12699999809E+01 0.  1.
       -4    1    3    3    0  502 -0.14954933226E+02  0.27677112546E+03  0.65947291441E+03  0.71535448811E+03  0.12699999809E+01 0. -1.
</event>
<event>
 5   0  0.5491236E-03  0.6007680E+03  0.7818609E-02  0.9903814E-01
       -1   -1    0    0    0  501  0.00000000000E+00  0.00000000000E+00  0.13434180153E+03  0.13434180162E+03  0.50400001928E-02 0. -1.
        1   -1    0    0  501    0  0.00000000000E+00  0.00000000000E+00 -0.67164912531E+03  0.67164912533E+03  0.50400001928E-02 0.  1.
    10030    2    1    2    0    0  0.00000000000E+00  0.00000000000E+00 -0.53730732379E+03  0.80599092695E+03  0.60076802023E+03 0.  0.
        3    1    3    3  502    0 -0.76364418932E+02 -0.92267308694E+02 -0.63822943828E+03  0.64937016164E+03  0.10100000352E+00 0.  1.
       -3    1    3    3    0  502  0.76364418932E+02  0.92267308694E+02  0.10092211450E+03  0.15662076532E+03  0.10100000352E+00 0. -1.
</event>
<event>
 5   0  0.9530666E-03  0.6007634E+03  0.7818609E-02  0.9903823E-01
        2   -1    0    0  501    0  0.00000000000E+00  0.00000000000E+00  0.46585634943E+03  0.46585634943E+03  0.25500000920E-02 0.  1.
       -2   -1    0    0    0  501  0.00000000000E+00  0.00000000000E+00 -0.19368453699E+03  0.19368453700E+03  0.25500000920E-02 0. -1.
    10030    2    1    2    0    0  0.00000000000E+00  0.00000000000E+00  0.27217181244E+03  0.65954088644E+03  0.60076341882E+03 0.  0.
        2    1    3    3  502    0  0.59596166344E+02  0.29148811076E+03  0.18151238729E+03  0.34851652544E+03  0.25500000920E-02 0.  1.
       -2    1    3    3    0  502 -0.59596166344E+02 -0.29148811076E+03  0.90659425150E+02  0.31102436100E+03  0.25500000920E-02 0. -1.
</event>
<event>
 5   0  0.5574736E-03  0.5987944E+03  0.7818609E-02  0.9907910E-01
        1   -1    0    0  501    0  0.00000000000E+00  0.00000000000E+00  0.41347842690E+03  0.41347842693E+03  0.50400001928E-02 0. -1.
       -1   -1    0    0    0  501  0.00000000000E+00  0.00000000000E+00 -0.21679170005E+03  0.21679170011E+03  0.50400001928E-02 0.  1.
    10030    2    1    2    0    0  0.00000000000E+00  0.00000000000E+00  0.19668672684E+03  0.63027012704E+03  0.59879442593E+03 0.  0.
        5    1    3    3  502    0 -0.31214664697E+02  0.14293943227E+03 -0.17655667237E+03  0.22934773848E+03  0.46999998093E+01 0.  1.
       -5    1    3    3    0  502  0.31214664697E+02 -0.14293943227E+03  0.37324339922E+03  0.40092238856E+03  0.46999998093E+01 0. -1.
</event>
<event>
 5   0  0.9866317E-03  0.5976661E+03  0.7818609E-02  0.9910260E-01
        2   -1    0    0  501    0  0.00000000000E+00  0.00000000000E+00  0.12708404779E+04  0.12708404779E+04  0.25500000920E-02 0. -1.
       -2   -1    0    0    0  501  0.00000000000E+00  0.00000000000E+00 -0.70269398775E+02  0.70269398821E+02  0.25500000920E-02 0.  1.
    10030    2    1    2    0    0  0.00000000000E+00  0.00000000000E+00  0.12005710791E+04  0.13411098767E+04  0.59766611532E+03 0.  0.
        1    1    3    3  502    0  0.14193551604E+03  0.21099614877E+03  0.24808341008E+03  0.35526109257E+03  0.50400001928E-02 0.  1.
       -1    1    3    3    0  502 -0.14193551604E+03 -0.21099614877E+03  0.95248766901E+03  0.98584878412E+03  0.50400001928E-02 0. -1.
</event>
<event>
 5   0  0.9681801E-03  0.5892940E+03  0.7818609E-02  0.9927870E-01
       -2   -1    0    0    0  501  0.00000000000E+00  0.00000000000E+00  0.36222859910E+02  0.36222860000E+02  0.25500000920E-02 0.  1.
        2   -1    0    0  501    0  0.00000000000E+00  0.00000000000E+00 -0.23967423832E+04  0.23967423832E+04  0.25500000920E-02 0. -1.
    10030    2    1    2    0    0  0.00000000000E+00  0.00000000000E+00 -0.23605195233E+04  0.24329652432E+04  0.58929403085E+03 0.  0.
        4    1    3    3  502    0  0.27510624477E+03 -0.74385667933E+01 -0.16147745898E+04  0.16380590242E+04  0.12699999809E+01 0. -1.
       -4    1    3    3    0  502 -0.27510624477E+03  0.74385667933E+01 -0.74574493351E+03  0.79490621896E+03  0.12699999809E+01 0.  1.
</event>
<event>
 5   0  0.5491236E-03  0.5997996E+03  0.7818609E-02  0.9905822E-01
       -1   -1    0    0    0  501  0.00000000000E+00  0.00000000000E+00  0.79919660187E+03  0.79919660189E+03  0.50400001928E-02 0.  1.
        1   -1    0    0  501    0  0.00000000000E+00  0.00000000000E+00 -0.11253787829E+03  0.11253787840E+03  0.50400001928E-02 0. -1.
    10030    2    1    2    0    0  0.00000000000E+00  0.00000000000E+00  0.68665872358E+03  0.91173448029E+03  0.59979959976E+03 0.  0.
        3    1    3    3  502    0 -0.71626110801E+02 -0.11864208355E+03  0.74760279204E+03  0.76033952192E+03  0.10100000352E+00 0.  1.
       -3    1    3    3    0  502  0.71626110801E+02  0.11864208355E+03 -0.60944068452E+02  0.15139495836E+03  0.10100000352E+00 0. -1.
</event>
<event>
 5   0  0.9681801E-03  0.5991752E+03  0.7818609E-02  0.9907119E-01
        2   -1    0    0  501    0  0.00000000000E+00  0.00000000000E+00  0.91012031456E+03  0.91012031456E+03  0.25500000920E-02 0. -1.
       -2   -1    0    0    0  501  0.00000000000E+00  0.00000000000E+00 -0.98616347842E+02  0.98616347875E+02  0.25500000920E-02 0.  1.
    10030    2    1    2    0    0  0.00000000000E+00  0.00000000000E+00  0.81150396672E+03  0.10087366624E+04  0.59917523826E+03 0.  0.
        4    1    3    3  502    0  0.42351890331E+02 -0.10650689469E+03  0.87174267796E+03  0.87924644481E+03  0.12699999809E+01 0. -1.
       -4    1    3    3    0  502 -0.42351890331E+02  0.10650689469E+03 -0.60238711242E+02  0.12949021763E+03  0.12699999809E+01 0.  1.
</event>
<event>
 5   0  0.9571790E-03  0.6016280E+03  0.7818609E-02  0.9902034E-01
        2   -1    0    0  501    0  0.00000000000E+00  0.00000000000E+00  0.95288227157E+02  0.95288227191E+02  0.25500000920E-02 0.  1.
       -2   -1    0    0    0  501  0.00000000000E+00  0.00000000000E+00 -0.94963538487E+03  0.94963538487E+03  0.25500000920E-02 0. -1.
    10030    2    1    2    0    0  0.00000000000E+00  0.00000000000E+00 -0.85434715771E+03  0.10449236121E+04  0.60162803223E+03 0.  0.
        5    1    3    3  502    0  0.34723495270E+02 -0.34095984028E+02  0.88341402897E+02  0.10096806780E+03  0.46999998093E+01 0.  1.
       -5    1    3    3    0  502 -0.34723495270E+02  0.34095984028E+02 -0.94268856061E+03  0.94395554427E+03  0.46999998093E+01 0. -1.
</event>
<event>
 5   0  0.9866317E-03  0.6068136E+03  0.7818609E-02  0.9891370E-01
       -2   -1    0    0    0  501  0.00000000000E+00  0.00000000000E+00  0.12357251320E+04  0.12357251320E+04  0.25500000920E-02 0.  1.
        2   -1    0    0  501    0  0.00000000000E+00  0.00000000000E+00 -0.74495277591E+02  0.74495277635E+02  0.25500000920E-02 0. -1.
    10030    2    1    2    0    0  0.00000000000E+00  0.00000000000E+00  0.11612298544E+04  0.13102204096E+04  0.60681360158E+03 0.  0.
        1    1    3    3  502    0 -0.86693444611E+02  0.74881659159E+02 -0.26006088233E+02  0.11747056171E+03  0.50400001928E-02 0. -1.
       -1    1    3    3    0  502  0.86693444611E+02 -0.74881659159E+02  0.11872359426E+04  0.11927498479E+04  0.50400001928E-02 0.  1.
</event>
<event>
 5   0  0.5503975E-03  0.5988699E+03  0.7818609E-02  0.9907754E-01
       -1   -1    0    0    0  501  0.00000000000E+00  0.00000000000E+00  0.97124559483E+02  0.97124559614E+02  0.50400001928E-02 0.  1.
        1   -1    0    0  501    0  0.00000000000E+00  0.00000000000E+00 -0.92315763316E+03  0.92315763318E+03  0.50400001928E-02 0. -1.
    10030    2    1    2    0    0  0.00000000000E+00  0.00000000000E+00 -0.82603307368E+03  0.10202821928E+04  0.59886986409E+03 0.  0.
        4    1    3    3  502    0  0.29464275960E+03  0.17969578467E+02 -0.32745172912E+03  0.44086677051E+03  0.12699999809E+01 0.  1.
       -4    1    3    3    0  502 -0.29464275960E+03 -0.17969578467E+02 -0.49858134456E+03  0.57941542228E+03  0.12699999809E+01 0. -1.
</event>
<event>
 5   0  0.9866317E-03  0.6024948E+03  0.7818609E-02  0.9900244E-01
        2   -1    0    0  501    0  0.00000000000E+00  0.00000000000E+00  0.62241409862E+03  0.62241409862E+03  0.25500000920E-02 0. -1.
       -2   -1    0    0    0  501  0.00000000000E+00  0.00000000000E+00 -0.14580324353E+03  0.14580324356E+03  0.25500000920E-02 0.  1.
    10030    2    1    2    0    0  0.00000000000E+00  0.00000000000E+00  0.47661085508E+03  0.76821734218E+03  0.60249479470E+03 0.  0.
        1    1    3    3  502    0  0.25260736843E+03 -0.16218819988E+03  0.27042327935E+03  0.40403495493E+03  0.50400001928E-02 0. -1.
       -1    1    3    3    0  502 -0.25260736843E+03  0.16218819988E+03  0.20618757573E+03  0.36418238724E+03  0.50400001928E-02 0.  1.
</event>
<event>
 5   0  0.5653633E-03  0.5998279E+03  0.7818609E-02  0.9905763E-01
       -1   -1    0    0    0  501  0.00000000000E+00  0.00000000000E+00  0.23164289408E+03  0.23164289413E+03  0.50400001928E-02 0.  1.
        1   -1    0    0  501    0  0.00000000000E+00  0.00000000000E+00 -0.38830624768E+03  0.38830624771E+03  0.50400001928E-02 0. -1.
    10030    2    1    2    0    0  0.00000000000E+00  0.00000000000E+00 -0.15666335360E+03  0.61994914185E+03  0.59982791875E+03 0.  0.
        2    1    3    3  502    0 -0.44852612298E+02 -0.18163222009E+03  0.16393788957E+03  0.24875218963E+03  0.25500000920E-02 0.  1.
       -2    1    3    3    0  502  0.44852612298E+02  0.18163222009E+03 -0.32060124317E+03  0.37119695221E+03  0.25500000920E-02 0. -1.
</event>
<event>
 5   0  0.9428629E-03  0.6006245E+03  0.7818609E-02  0.9904111E-01
       -2   -1    0    0    0  501  0.00000000000E+00  0.00000000000E+00  0.65563216972E+02  0.65563217022E+02  0.25500000920E-02 0. -1.
        2   -1    0    0  501    0  0.00000000000E+00  0.00000000000E+00 -0.13755801364E+04  0.13755801364E+04  0.25500000920E-02 0.  1.
    10030    2    1    2    0    0  0.00000000000E+00  0.00000000000E+00 -0.13100169194E+04  0.14411433534E+04  0.60062453823E+03 0.  0.
        3    1    3    3  502    0  0.29015580655E+03 -0.36078128977E+02 -0.81942351406E+03  0.87002697031E+03  0.10100000352E+00 0. -1.
       -3    1    3    3    0  502 -0.29015580655E+03  0.36078128977E+02 -0.49059340534E+03  0.57111638309E+03  0.10100000352E+00 0.  1.
</event>
<event>
 5   0  0.5503975E-03  0.5993644E+03  0.7818609E-02  0.9906726E-01
        1   -1    0    0  501    0  0.00000000000E+00  0.00000000000E+00  0.13431468061E+03  0.13431468071E+03  0.50400001928E-02 0. -1.
       -1   -1    0    0    0  501  0.00000000000E+00  0.00000000000E+00 -0.66864933027E+03  0.66864933029E+03  0.50400001928E-02 0.  1.
    10030    2    1    2    0    0  0.00000000000E+00  0.00000000000E+00 -0.53433464966E+03  0.80296401100E+03  0.59936440096E+03 0.  0.
        4    1    3    3  502    0 -0.42574640883E+02 -0.21946076101E+03  0.20853160239E+00  0.22355599310E+03  0.12699999809E+01 0. -1.
       -4    1    3    3    0  502  0.42574640883E+02  0.21946076101E+03 -0.53454318126E+03  0.57940801789E+03  0.12699999809E+01 0.  1.
</event>
<event>
 5   0  0.5503975E-03  0.6003733E+03  0.7818609E-02  0.9904632E-01
        1   -1    0    0  501    0  0.00000000000E+00  0.00000000000E+00  0.17013758414E+03  0.17013758422E+03  0.50400001928E-02 0. -1.
       -1   -1    0    0    0  501  0.00000000000E+00  0.00000000000E+00 -0.52964215900E+03  0.52964215902E+03  0.50400001928E-02 0.  1.
    10030    2    1    2    0    0  0.00000000000E+00  0.00000000000E+00 -0.35950457485E+03  0.69977974324E+03  0.60037334194E+03 0.  0.
        4    1    3    3  502    0  0.11942846762E+03 -0.17633677511E+03 -0.42632734212E+03  0.47656524493E+03  0.12699999809E+01 0.  1.
       -4    1    3    3    0  502 -0.11942846762E+03  0.17633677511E+03  0.66822767267E+02  0.22321449831E+03  0.12699999809E+01 0. -1.
</event>
<event>
 5   0  0.9428629E-03  0.5999742E+03  0.7818609E-02  0.9905460E-01
       -2   -1    0    0    0  501  0.00000000000E+00  0.00000000000E+00  0.15549547979E+03  0.15549547981E+03  0.25500000920E-02 0. -1.
        2   -1    0    0  501    0  0.00000000000E+00  0.00000000000E+00 -0.57874526225E+03  0.57874526226E+03  0.25500000920E-02 0.  1.
    10030    2    1    2    0    0  0.00000000000E+00  0.00000000000E+00 -0.42324978246E+03  0.73424074207E+03  0.59997424025E+03 0.  0.
        3    1    3    3  502    0  0.22923067234E+03 -0.10365812255E+03 -0.41159542938E+03  0.48239249082E+03  0.10100000352E+00 0.  1.
       -3    1    3    3    0  502 -0.22923067234E+03  0.10365812255E+03 -0.11654353076E+02  0.25184825125E+03  0.10100000352E+00 0. -1.
</event>
<event>
 5   0  0.9681801E-03  0.5995219E+03  0.7818609E-02  0.9906398E-01
        2   -1    0    0  501    0  0.00000000000E+00  0.00000000000E+00  0.13304533202E+04  0.13304533202E+04  0.25500000920E-02 0. -1.
       -2   -1    0    0    0  501  0.00000000000E+00  0.00000000000E+00 -0.67538356825E+02  0.67538356874E+02  0.25500000920E-02 0.  1.
    10030    2    1    2    0    0  0.00000000000E+00  0.00000000000E+00  0.12629149634E+04  0.13979916771E+04  0.59952191325E+03 0.  0.
        4    1    3    3  502    0 -0.81697283567E+02 -0.13296018899E+03  0.34659513881E+02  0.15986166770E+03  0.12699999809E+01 0.  1.
       -4    1    3    3    0  502  0.81697283567E+02  0.13296018899E+03  0.12282554495E+04  0.12381300094E+04  0.12699999809E+01 0. -1.
</event>
<event>
 5   0  0.5574736E-03  0.6004973E+03  0.7818609E-02  0.9904375E-01
        1   -1    0    0  501    0  0.00000000000E+00  0.00000000000E+00  0.10153248727E+04  0.10153248727E+04  0.50400001928E-02 0.  1.
       -1   -1    0    0    0  501  0.00000000000E+00  0.00000000000E+00 -0.88788568004E+02  0.88788568147E+02  0.50400001928E-02 0. -1.
    10030    2    1    2    0    0  0.00000000000E+00  0.00000000000E+00  0.92653630465E+03  0.11041134408E+04  0.60049726590E+03 0.  0.
        5    1    3    3  502    0  0.39250419302E+02  0.28823316918E+03  0.32680752316E+03  0.43754337205E+03  0.46999998093E+01 0.  1.
       -5    1    3    3    0  502 -0.39250419302E+02 -0.28823316918E+03  0.59972878148E+03  0.66657006876E+03  0.46999998093E+01 0. -1.
</event>
<event>
 5   0  0.9866317E-03  0.5975082E+03  0.7818609E-02  0.9910589E-01
        2   -1    0    0  501    0  0.00000000000E+00  0.00000000000E+00  0.72839401171E+03  0.72839401171E+03  0.25500000920E-02 0.  1.
       -2   -1    0    0    0  501  0.00000000000E+00  0.00000000000E+00 -0.12253533540E+03  0.12253533543E+03  0.25500000920E-02 0. -1.
    10030    2    1    2    0    0  0.00000000000E+00  0.00000000000E+00  0.60585867631E+03  0.85092934714E+03  0.59750817415E+03 0.  0.
        1    1    3    3  502    0 -0.23376765881E+03  0.17242469375E+03  0.40237819859E+03  0.49627190939E+03  0.50400001928E-02 0.  1.
       -1    1    3    3    0  502  0.23376765881E+03 -0.17242469375E+03  0.20348047772E+03  0.35465743776E+03  0.50400001928E-02 0. -1.
</event>
<event>
 5   0  0.9428629E-03  0.5988088E+03  0.7818609E-02  0.9907881E-01
       -2   -1    0    0    0  501  0.00000000000E+00  0.00000000000E+00  0.80607617906E+02  0.80607617946E+02  0.25500000920E-02 0. -1.
        2   -1    0    0  501    0  0.00000000000E+00  0.00000000000E+00 -0.11120908483E+04  0.11120908483E+04  0.25500000920E-02 0.  1.
    10030    2    1    2    0    0  0.00000000000E+00  0.00000000000E+00 -0.10314832304E+04  0.11926984663E+04  0.59880879821E+03 0.  0.
        3    1    3    3  502    0  0.13160064042E+03 -0.11928907998E+03 -0.99581708365E+03  0.10115336314E+04  0.10100000352E+00 0.  1.
       -3    1    3    3    0  502 -0.13160064042E+03  0.11928907998E+03 -0.35666146745E+02  0.18116483485E+03  0.10100000352E+00 0. -1.
</event>
<event>
 5   0  0.5785798E-03  0.5997669E+03  0.7818609E-02  0.9905890E-01
        1   -1    0    0  501    0  0.00000000000E+00  0.00000000000E+00  0.18862953264E+03  0.18862953270E+03  0.50400001928E-02 0.  1.
       -1   -1    0    0    0  501  0.00000000000E+00  0.00000000000E+00 -0.47675500525E+03  0.47675500528E+03  0.50400001928E-02 0. -1.
    10030    2    1    2    0    0  0.00000000000E+00  0.00000000000E+00 -0.28812547261E+03  0.66538453798E+03  0.59976686756E+03 0.  0.
        1    1    3    3  502    0 -0.72700131277E+01  0.15631635477E+03  0.13974217228E+03  0.20979878598E+03  0.50400001928E-02 0.  1.
       -1    1    3    3    0  502  0.72700131277E+01 -0.15631635477E+03 -0.42786764489E+03  0.45558575201E+03  0.50400001928E-02 0. -1.
</event>
<event>
 5   0  0.5503975E-03  0.6033884E+03  0.7818609E-02  0.9898401E-01
       -1   -1    0    0    0  501  0.00000000000E+00  0.00000000000E+00  0.69560752735E+03  0.69560752737E+03  0.50400001928E-02 0. -1.
        1   -1    0    0  501    0  0.00000000000E+00  0.00000000000E+00 -0.13084877899E+03  0.13084877908E+03  0.50400001928E-02 0.  1.
    10030    2    1    2    0    0  0.00000000000E+00  0.00000000000E+00  0.56475874837E+03  0.82645630646E+03  0.60338841771E+03 0.  0.
        4    1    3    3  502    0 -0.16566228685E+03 -0.16101548787E+03  0.16617460595E+02  0.23161980381E+03  0.12699999809E+01 0.  1.
       -4    1    3    3    0  502  0.16566228685E+03  0.16101548787E+03  0.54814128777E+03  0.59483650265E+03  0.12699999809E+01 0. -1.
</event>
<event>
 5   0  0.5491236E-03  0.5979956E+03  0.7818609E-02  0.9909573E-01
        1   -1    0    0  501    0  0.00000000000E+00  0.00000000000E+00  0.98271389169E+03  0.98271389171E+03  0.50400001928E-02 0. -1.
       -1   -1    0    0    0  501  0.00000000000E+00  0.00000000000E+00 -0.90972228131E+02  0.90972228270E+02  0.50400001928E-02 0.  1.
    10030    2    1    2    0    0  0.00000000000E+00  0.00000000000E+00  0.89174166356E+03  0.10736861200E+04  0.59799555993E+03 0.  0.
        3    1    3    3  502    0 -0.81205044604E+02  0.27128651849E+03  0.61817122652E+03  0.67994581393E+03  0.10100000352E+00 0. -1.
       -3    1    3    3    0  502  0.81205044604E+02 -0.27128651849E+03  0.27357043704E+03  0.39374030604E+03  0.10100000352E+00 0.  1.
</event>
<event>
 5   0  0.5491236E-03  0.6002067E+03  0.7818609E-02  0.9904977E-01
       -1   -1    0    0    0  501  0.00000000000E+00  0.00000000000E+00  0.14249122851E+03  0.14249122860E+03  0.50400001928E-02 0. -1.
        1   -1    0    0  501    0  0.00000000000E+00  0.00000000000E+00 -0.63205308364E+03  0.63205308366E+03  0.50400001928E-02 0.  1.
    10030    2    1    2    0    0  0.00000000000E+00  0.00000000000E+00 -0.48956185513E+03  0.77454431226E+03  0.60020669911E+03 0.  0.
        3    1    3    3  502    0  0.19524485104E+03 -0.54741028721E+01  0.49239285941E+02  0.20143245801E+03  0.10100000352E+00 0. -1.
       -3    1    3    3    0  502 -0.19524485104E+03  0.54741028721E+01 -0.53880114107E+03  0.57311185425E+03  0.10100000352E+00 0.  1.
</event>
<event>
 5   0  0.3794375E-03  0.6057032E+03  0.7818609E-02  0.9893644E-01
        3   -1    0    0  501    0  0.00000000000E+00  0.00000000000E+00  0.28750932194E+03  0.28750933968E+03  0.10100000352E+00 0.  1.
       -3   -1    0    0    0  501  0.00000000000E+00  0.00000000000E+00 -0.31901250481E+03  0.31901252080E+03  0.10100000352E+00 0. -1.
    10030    2    1    2    0    0  0.00000000000E+00  0.00000000000E+00 -0.31503182871E+02  0.60652186048E+03  0.60570315890E+03 0.  0.
        3    1    3    3  502    0  0.28459697770E+03 -0.72061509436E+01 -0.11919514636E+03  0.30863386309E+03  0.10100000352E+00 0.  1.
       -3    1    3    3    0  502 -0.28459697770E+03  0.72061509436E+01  0.87691963485E+02  0.29788799739E+03  0.10100000352E+00 0. -1.
</event>
<event>
 5   0  0.3794375E-03  0.5998011E+03  0.7818609E-02  0.9905819E-01
        3   -1    0    0  501    0  0.00000000000E+00  0.00000000000E+00  0.14103969990E+03  0.14103973606E+03  0.10100000352E+00 0. -1.
       -3   -1    0    0    0  501  0.00000000000E+00  0.00000000000E+00 -0.63769509154E+03  0.63769509954E+03  0.10100000352E+00 0.  1.
    10030    2    1    2    0    0  0.00000000000E+00  0.00000000000E+00 -0.49665539164E+03  0.77873483560E+03  0.59980110548E+03 0.  0.
        2    1    3    3  502    0 -0.20475295823E+03  0.13864837081E+03 -0.46863418234E+03  0.52987275972E+03  0.25500000920E-02 0.  1.
       -2    1    3    3    0  502  0.20475295823E+03 -0.13864837081E+03 -0.28021209298E+02  0.24886207588E+03  0.25500000920E-02 0. -1.
</event>
<event>
 5   0  0.5491236E-03  0.5990744E+03  0.7818609E-02  0.9907328E-01
        1   -1    0    0  501    0  0.00000000000E+00  0.00000000000E+00  0.54140384640E+03  0.54140384643E+03  0.50400001928E-02 0.  1.
       -1   -1    0    0    0  501  0.00000000000E+00  0.00000000000E+00 -0.16572202368E+03  0.16572202375E+03  0.50400001928E-02 0. -1.
    10030    2    1    2    0    0  0.00000000000E+00  0.00000000000E+00  0.37568182273E+03  0.70712587018E+03  0.59907442305E+03 0.  0.
        3    1    3    3  502    0  0.48322168969E+02 -0.92974353538E+02  0.51906557423E+03  0.52953596949E+03  0.10100000352E+00 0.  1.
       -3    1    3    3    0  502 -0.48322168969E+02  0.92974353538E+02 -0.14338375151E+03  0.17758990069E+03  0.10100000352E+00 0. -1.
</event>
<event>
 5   0  0.9681801E-03  0.6001241E+03  0.7818609E-02  0.9905149E-01
        2   -1    0    0  501    0  0.00000000000E+00  0.00000000000E+00  0.52315385021E+03  0.52315385021E+03  0.25500000920E-02 0.  1.
       -2   -1    0    0    0  501  0.00000000000E+00  0.00000000000E+00 -0.17210468349E+03  0.17210468351E+03  0.25500000920E-02 0. -1.
    10030    2    1    2    0    0  0.00000000000E+00  0.00000000000E+00  0.35104916672E+03  0.69525853372E+03  0.60012407988E+03 0.  0.
        4    1    3    3  502    0  0.19110955802E+03 -0.20548201164E+03  0.52426803701E+02  0.28547487266E+03  0.12699999809E+01 0. -1.
       -4    1    3    3    0  502 -0.19110955802E+03  0.20548201164E+03  0.29862236302E+03  0.40978366106E+03  0.12699999809E+01 0.  1.
</event>
<event>
 5   0  0.9866317E-03  0.5998446E+03  0.7818609E-02  0.9905729E-01
        2   -1    0    0  501    0  0.00000000000E+00  0.00000000000E+00  0.15548100322E+03  0.15548100324E+03  0.25500000920E-02 0. -1.
       -2   -1    0    0    0  501  0.00000000000E+00  0.00000000000E+00 -0.57854903977E+03  0.57854903977E+03  0.25500000920E-02 0.  1.
    10030    2    1    2    0    0  0.00000000000E+00  0.00000000000E+00 -0.42306803655E+03  0.73403004301E+03  0.59984459695E+03 0.  0.
        1    1    3    3  502    0  0.20754942718E+03  0.16415925961E+03 -0.38428114828E+03  0.46658014122E+03  0.50400001928E-02 0. -1.
       -1    1    3    3    0  502 -0.20754942718E+03 -0.16415925961E+03 -0.38786888271E+02  0.26744990178E+03  0.50400001928E-02 0.  1.
</event>
<event>
 5   0  0.5653633E-03  0.6069782E+03  0.7818609E-02  0.9891033E-01
       -1   -1    0    0    0  501  0.00000000000E+00  0.00000000000E+00  0.63475738494E+02  0.63475738694E+02  0.50400001928E-02 0. -1.
        1   -1    0    0  501    0  0.00000000000E+00  0.00000000000E+00 -0.14510366408E+04  0.14510366408E+04  0.50400001928E-02 0.  1.
    10030    2    1    2    0    0  0.00000000000E+00  0.00000000000E+00 -0.13875609023E+04  0.15145123795E+04  0.60697816276E+03 0.  0.
        2    1    3    3  502    0 -0.26805467312E+03  0.85581243563E+02 -0.97748624953E+03  0.10171808222E+04  0.25500000920E-02 0.  1.
       -2    1    3    3    0  502  0.26805467312E+03 -0.85581243563E+02 -0.41007465280E+03  0.49733155732E+03  0.25500000920E-02 0. -1.
</event>
<event>
 5   0  0.9571790E-03  0.5994412E+03  0.7818609E-02  0.9906566E-01
       -2   -1    0    0    0  501  0.00000000000E+00  0.00000000000E+00  0.40378102494E+02  0.40378102575E+02  0.25500000920E-02 0. -1.
        2   -1    0    0  501    0  0.00000000000E+00  0.00000000000E+00 -0.22247809500E+04  0.22247809500E+04  0.25500000920E-02 0.  1.
    10030    2    1    2    0    0  0.00000000000E+00  0.00000000000E+00 -0.21844028476E+04  0.22651590526E+04  0.59944118418E+03 0.  0.
        5    1    3    3  502    0 -0.18959365690E+03  0.54749611738E+02 -0.19444582335E+04  0.19544521448E+04  0.46999998093E+01 0.  1.
       -5    1    3    3    0  502  0.18959365690E+03 -0.54749611738E+02 -0.23994461407E+03  0.31070690778E+03  0.46999998093E+01 0. -1.
</event>
<event>
 5   0  0.3794375E-03  0.6026985E+03  0.7818609E-02  0.9899823E-01
       -3   -1    0    0    0  501  0.00000000000E+00  0.00000000000E+00  0.10309556835E+03  0.10309561782E+03  0.10100000352E+00 0.  1.
        3   -1    0    0  501    0  0.00000000000E+00  0.00000000000E+00 -0.88084615166E+03  0.88084615745E+03  0.10100000352E+00 0. -1.
    10030    2    1    2    0    0  0.00000000000E+00  0.00000000000E+00 -0.77775058331E+03  0.98394177527E+03  0.60269847128E+03 0.  0.
        3    1    3    3  502    0  0.24395898886E+03 -0.11098280217E+03 -0.16397159076E+03  0.31419717281E+03  0.10100000352E+00 0.  1.
       -3    1    3    3    0  502 -0.24395898886E+03  0.11098280217E+03 -0.61377899255E+03  0.66974460246E+03  0.10100000352E+00 0. -1.
</event>
<event>
 5   0  0.3794375E-03  0.5999360E+03  0.7818609E-02  0.9905539E-01
        3   -1    0    0  501    0  0.00000000000E+00  0.00000000000E+00  0.10257455782E+04  0.10257455832E+04  0.10100000352E+00 0.  1.
       -3   -1    0    0    0  501  0.00000000000E+00  0.00000000000E+00 -0.87722293646E+02  0.87722351790E+02  0.10100000352E+00 0. -1.
    10030    2    1    2    0    0  0.00000000000E+00  0.00000000000E+00  0.93802328456E+03  0.11134679350E+04  0.59993596310E+03 0.  0.
        3    1    3    3  502    0  0.33422082017E+02  0.26965754411E+03  0.70486367650E+03  0.75542374818E+03  0.10100000352E+00 0.  1.
       -3    1    3    3    0  502 -0.33422082017E+02 -0.26965754411E+03  0.23315960806E+03  0.35804418679E+03  0.10100000352E+00 0. -1.
</event>
<event>
 5   0  0.5653633E-03  0.5934269E+03  0.7818609E-02  0.9919138E-01
       -1   -1    0    0    0  501  0.00000000000E+00  0.00000000000E+00  0.41613775608E+03  0.41613775611E+03  0.50400001928E-02 0. -1.
        1   -1    0    0  501    0  0.00000000000E+00  0.00000000000E+00 -0.21156180925E+03  0.21156180931E+03  0.50400001928E-02 0.  1.
    10030    2    1    2    0    0  0.00000000000E+00  0.00000000000E+00  0.20457594682E+03  0.62769956542E+03  0.59342685009E+03 0.  0.
        2    1    3    3  502    0  0.12316659525E+03  0.25017133836E+03 -0.49744675805E+01  0.27889147362E+03  0.25500000920E-02 0.  1.
       -2    1    3    3    0  502 -0.12316659525E+03 -0.25017133836E+03  0.20955041440E+03  0.34880809180E+03  0.25500000920E-02 0. -1.
</event>
<event>
 5   0  0.9530666E-03  0.6020732E+03  0.7818609E-02  0.9901114E-01
        2   -1    0    0  501    0  0.00000000000E+00  0.00000000000E+00  0.28732189914E+03  0.28732189915E+03  0.25500000920E-02 0. -1.
       -2   -1    0    0    0  501  0.00000000000E+00  0.00000000000E+00 -0.31540592656E+03  0.31540592657E+03  0.25500000920E-02 0.  1.
    10030    2    1    2    0    0  0.00000000000E+00  0.00000000000E+00 -0.28084027420E+02  0.60272782572E+03  0.60207318434E+03 0.  0.
        2    1    3    3  502    0 -0.82911367963E+02 -0.28939104437E+03 -0.15291698728E+02  0.30142214178E+03  0.25500000920E-02 0. -1.
       -2    1    3    3    0  502  0.82911367963E+02  0.28939104437E+03 -0.12792328692E+02  0.30130568395E+03  0.25500000920E-02 0.  1.
</event>
<event>
 5   0  0.9428629E-03  0.5990867E+03  0.7818609E-02  0.9907303E-01
       -2   -1    0    0    0  501  0.00000000000E+00  0.00000000000E+00  0.11443972539E+03  0.11443972542E+03  0.25500000920E-02 0.  1.
        2   -1    0    0  501    0  0.00000000000E+00  0.00000000000E+00 -0.78404790052E+03  0.78404790052E+03  0.25500000920E-02 0. -1.
    10030    2    1    2    0    0  0.00000000000E+00  0.00000000000E+00 -0.66960817513E+03  0.89848762594E+03  0.59908672642E+03 0.  0.
        3    1    3    3  502    0  0.23437240769E+03  0.13528470302E+03 -0.52741606513E+03  0.59279009128E+03  0.10100000352E+00 0. -1.
       -3    1    3    3    0  502 -0.23437240769E+03 -0.13528470302E+03 -0.14219211000E+03  0.30569753467E+03  0.10100000352E+00 0.  1.
</event>
<event>
 5   0  0.5574736E-03  0.5986862E+03  0.7818609E-02  0.9908135E-01
       -1   -1    0    0    0  501  0.00000000000E+00  0.00000000000E+00  0.48447784977E+02  0.48447785239E+02  0.50400001928E-02 0. -1.
        1   -1    0    0  501    0  0.00000000000E+00  0.00000000000E+00 -0.18495439000E+04  0.18495439000E+04  0.50400001928E-02 0.  1.
    10030    2    1    2    0    0  0.00000000000E+00  0.00000000000E+00 -0.18010961151E+04  0.18979916853E+04  0.59868624648E+03 0.  0.
        5    1    3    3  502    0  0.22334572259E+03  0.16425138807E+02 -0.27102075206E+03  0.35160693257E+03  0.46999998093E+01 0. -1.
       -5    1    3    3    0  502 -0.22334572259E+03 -0.16425138807E+02 -0.15300753630E+04  0.15463847527E+04  0.46999998093E+01 0.  1.
</event>
<event>
 5   0  0.9866317E-03  0.6002951E+03  0.7818609E-02  0.9904794E-01
       -2   -1    0    0    0  501  0.00000000000E+00  0.00000000000E+00  0.90283272887E+02  0.90283272923E+02  0.25500000920E-02 0.  1.
        2   -1    0    0  501    0  0.00000000000E+00  0.00000000000E+00 -0.99784312920E+03  0.99784312921E+03  0.25500000920E-02 0. -1.
    10030    2    1    2    0    0  0.00000000000E+00  0.00000000000E+00 -0.90755985631E+03  0.10881264021E+04  0.60029507262E+03 0.  0.
        1    1    3    3  502    0 -0.29616894011E+03  0.45834936617E+02 -0.48365632643E+03  0.56898183154E+03  0.50400001928E-02 0. -1.
       -1    1    3    3    0  502  0.29616894011E+03 -0.45834936617E+02 -0.42390352989E+03  0.51914457059E+03  0.50400001928E-02 0.  1.
</event>
<event>
 5   0  0.9681801E-03  0.6002627E+03  0.7818609E-02  0.9904861E-01
       -2   -1    0    0    0  501  0.00000000000E+00  0.00000000000E+00  0.11086383737E+03  0.11086383740E+03  0.25500000920E-02 0. -1.
        2   -1    0    0  501    0  0.00000000000E+00  0.00000000000E+00 -0.81251770800E+03  0.81251770801E+03  0.25500000920E-02 0.  1.
    10030    2    1    2    0    0  0.00000000000E+00  0.00000000000E+00 -0.70165387063E+03  0.92338154540E+03  0.60026271267E+03 0.  0.
        4    1    3    3  502    0  0.11123513303E+02 -0.56510656644E+02 -0.80393279017E+03  0.80599424990E+03  0.12699999809E+01 0.  1.
       -4    1    3    3    0  502 -0.11123513303E+02  0.56510656644E+02  0.10227891954E+03  0.11738729550E+03  0.12699999809E+01 0. -1.
</event>
<event>
 5   0  0.5574736E-03  0.6132006E+03  0.7818609E-02  0.9878391E-01
        1   -1    0    0  501    0  0.00000000000E+00  0.00000000000E+00  0.35286691241E+03  0.35286691244E+03  0.50400001928E-02 0. -1.
       -1   -1    0    0    0  501  0.00000000000E+00  0.00000000000E+00 -0.26639996384E+03  0.26639996388E+03  0.50400001928E-02 0.  1.
    10030    2    1    2    0    0  0.00000000000E+00  0.00000000000E+00  0.86466948571E+02  0.61926687633E+03  0.61320056337E+03 0.  0.
        5    1    3    3  502    0  0.21461368100E+03  0.21255535986E+03 -0.96566666027E+01  0.30224849757E+03  0.46999998093E+01 0.  1.
       -5    1    3    3    0  502 -0.21461368100E+03 -0.21255535986E+03  0.96123615174E+02  0.31701837876E+03  0.46999998093E+01 0. -1.
</event>
<event>
 5   0  0.5653633E-03  0.5998719E+03  0.7818609E-02  0.9905672E-01
        1   -1    0    0  501    0  0.00000000000E+00  0.00000000000E+00  0.51450928061E+03  0.51450928063E+03  0.50400001928E-02 0. -1.
       -1   -1    0    0    0  501  0.00000000000E+00  0.00000000000E+00 -0.17484927182E+03  0.17484927190E+03  0.50400001928E-02 0.  1.
    10030    2    1    2    0    0  0.00000000000E+00  0.00000000000E+00  0.33966000878E+03  0.68935855253E+03  0.59987189664E+03 0.  0.
        2    1    3    3  502    0 -0.15919296420E+03 -0.24440553154E+03  0.25015002265E+03  0.38425446976E+03  0.25500000920E-02 0. -1.
       -2    1    3    3    0  502  0.15919296420E+03  0.24440553154E+03  0.89509986137E+02  0.30510408277E+03  0.25500000920E-02 0.  1.
</event>
<event>
 5   0  0.5574736E-03  0.5999368E+03  0.7818609E-02  0.9905537E-01
       -1   -1    0    0    0  501  0.00000000000E+00  0.00000000000E+00  0.44406507224E+02  0.44406507510E+02  0.50400001928E-02 0. -1.
        1   -1    0    0  501    0  0.00000000000E+00  0.00000000000E+00 -0.20263029567E+04  0.20263029567E+04  0.50400001928E-02 0.  1.
    10030    2    1    2    0    0  0.00000000000E+00  0.00000000000E+00 -0.19818964495E+04  0.20707094642E+04  0.59993678730E+03 0.  0.
        5    1    3    3  502    0  0.15869719431E+02  0.47659941221E+02  0.29657253586E+02  0.58523163623E+02  0.46999998093E+01 0. -1.
       -5    1    3    3    0  502 -0.15869719431E+02 -0.47659941221E+02 -0.20115537031E+04  0.20121863006E+04  0.46999998093E+01 0.  1.
</event>
<event>
 5   0  0.9428629E-03  0.6001491E+03  0.7818609E-02  0.9905097E-01
        2   -1    0    0  501    0  0.00000000000E+00  0.00000000000E+00  0.36230088846E+03  0.36230088847E+03  0.25500000920E-02 0.  1.
       -2   -1    0    0    0  501  0.00000000000E+00  0.00000000000E+00 -0.24853578592E+03  0.24853578593E+03  0.25500000920E-02 0. -1.
    10030    2    1    2    0    0  0.00000000000E+00  0.00000000000E+00  0.11376510255E+03  0.61083667440E+03  0.60014910167E+03 0.  0.
        3    1    3    3  502    0  0.56635751108E+02  0.90757039747E+02 -0.22846751829E+03  0.25227339472E+03  0.10100000352E+00 0. -1.
       -3    1    3    3    0  502 -0.56635751108E+02 -0.90757039747E+02  0.34223262084E+03  0.35856327968E+03  0.10100000352E+00 0.  1.
</event>
<event>
 5   0  0.9530666E-03  0.5990175E+03  0.7818609E-02  0.9907446E-01
        2   -1    0    0  501    0  0.00000000000E+00  0.00000000000E+00  0.10018945406E+04  0.10018945406E+04  0.25500000920E-02 0.  1.
       -2   -1    0    0    0  501  0.00000000000E+00  0.00000000000E+00 -0.89535869288E+02  0.89535869324E+02  0.25500000920E-02 0. -1.
    10030    2    1    2    0    0  0.00000000000E+00  0.00000000000E+00  0.91235867129E+03  0.10914304099E+04  0.59901752444E+03 0.  0.
        2    1    3    3  502    0  0.12822679494E+03 -0.90164649237E+02 -0.88276486925E+01  0.15700223661E+03  0.25500000920E-02 0. -1.
       -2    1    3    3    0  502 -0.12822679494E+03  0.90164649237E+02  0.92118631998E+03  0.93442817329E+03  0.25500000920E-02 0.  1.
</event>
<event>
 5   0  0.9571790E-03  0.6008353E+03  0.7818609E-02  0.9903675E-01
       -2   -1    0    0    0  501  0.00000000000E+00  0.00000000000E+00  0.37018740375E+03  0.37018740376E+03  0.25500000920E-02 0. -1.
        2   -1    0    0  501    0  0.00000000000E+00  0.00000000000E+00 -0.24379747223E+03  0.24379747224E+03  0.25500000920E-02 0.  1.
    10030    2    1    2    0    0  0.00000000000E+00  0.00000000000E+00  0.12638993152E+03  0.61398487600E+03  0.60083526292E+03 0.  0.
        5    1    3    3  502    0  0.21338073331E+03 -0.13132327696E+03  0.23250608516E+03  0.34184544762E+03  0.46999998093E+01 0. -1.
       -5    1    3    3    0  502 -0.21338073331E+03  0.13132327696E+03 -0.10611615364E+03  0.27213942838E+03  0.46999998093E+01 0.  1.
</event>
<event>
 5   0  0.3794375E-03  0.6019922E+03  0.7818609E-02  0.9901281E-01
       -3   -1    0    0    0  501  0.00000000000E+00  0.00000000000E+00  0.10897719343E+03  0.10897724023E+03  0.10100000352E+00 0. -1.
        3   -1    0    0  501    0  0.00000000000E+00  0.00000000000E+00 -0.83135399158E+03  0.83135399771E+03  0.10100000352E+00 0.  1.
    10030    2    1    2    0    0  0.00000000000E+00  0.00000000000E+00 -0.72237679815E+03  0.94033123795E+03  0.60199219144E+03 0.  0.
        5    1    3    3  502    0  0.22818709309E+03 -0.10091359968E+03 -0.98304094128E+02  0.26821388662E+03  0.46999998093E+01 0. -1.
       -5    1    3    3    0  502 -0.22818709309E+03  0.10091359968E+03 -0.62407270402E+03  0.67211735133E+03  0.46999998093E+01 0.  1.
</event>
<event>
 5   0  0.5503975E-03  0.6011498E+03  0.7818609E-02  0.9903023E-01
        1   -1    0    0  501    0  0.00000000000E+00  0.00000000000E+00  0.15066282442E+04  0.15066282442E+04  0.50400001928E-02 0.  1.
       -1   -1    0    0    0  501  0.00000000000E+00  0.00000000000E+00 -0.59965206360E+02  0.59965206572E+02  0.50400001928E-02 0. -1.
    10030    2    1    2    0    0  0.00000000000E+00  0.00000000000E+00  0.14466630378E+04  0.15665934508E+04  0.60114981076E+03 0.  0.
        4    1    3    3  502    0  0.26318555495E+03 -0.55522913678E+02  0.37375662673E+03  0.46048350589E+03  0.12699999809E+01 0. -1.
       -4    1    3    3    0  502 -0.26318555495E+03  0.55522913678E+02  0.10729064111E+04  0.11061099449E+04  0.12699999809E+01 0.  1.
</event>
<event>
 5   0  0.5785798E-03  0.6000398E+03  0.7818609E-02  0.9905323E-01
        1   -1    0    0  501    0  0.00000000000E+00  0.00000000000E+00  0.21616075303E+03  0.21616075309E+03  0.50400001928E-02 0.  1.
       -1   -1    0    0    0  501  0.00000000000E+00  0.00000000000E+00 -0.41641205704E+03  0.41641205707E+03  0.50400001928E-02 0. -1.
    10030    2    1    2    0    0  0.00000000000E+00  0.00000000000E+00 -0.20025130401E+03  0.63257281016E+03  0.60003981151E+03 0.  0.
        1    1    3    3  502    0 -0.98919590531E+02  0.19660313728E+03  0.11482645143E+03  0.24823978923E+03  0.50400001928E-02 0.  1.
       -1    1    3    3    0  502  0.98919590531E+02 -0.19660313728E+03 -0.31507775544E+03  0.38433302093E+03  0.50400001928E-02 0. -1.
</event>
<event>
 5   0  0.9530666E-03  0.6001062E+03  0.7818609E-02  0.9905186E-01
        2   -1    0    0  501    0  0.00000000000E+00  0.00000000000E+00  0.25772632634E+04  0.25772632634E+04  0.25500000920E-02 0. -1.
       -2   -1    0    0    0  501  0.00000000000E+00  0.00000000000E+00 -0.34933123134E+02  0.34933123228E+02  0.25500000920E-02 0.  1.
    10030    2    1    2    0    0  0.00000000000E+00  0.00000000000E+00  0.25423301402E+04  0.26121963866E+04  0.60010617411E+03 0.  0.
        2    1    3    3  502    0 -0.19280718957E+03 -0.69781376726E+02  0.22247143867E+04  0.22341437186E+04  0.25500000920E-02 0. -1.
       -2    1    3    3    0  502  0.19280718957E+03  0.69781376726E+02  0.31761575350E+03  0.37805266798E+03  0.25500000920E-02 0.  1.
</event>
<event>
 5   0  0.5574736E-03  0.6009583E+03  0.7818609E-02  0.9903420E-01
        1   -1    0    0  501    0  0.00000000000E+00  0.00000000000E+00  0.68333700776E+03  0.68333700777E+03  0.50400001928E-02 0. -1.
       -1   -1    0    0    0  501  0.00000000000E+00  0.00000000000E+00 -0.13212767015E+03  0.13212767024E+03  0.50400001928E-02 0.  1.
    10030    2    1    2    0    0  0.00000000000E+00  0.00000000000E+00  0.55120933761E+03  0.81546467802E+03  0.60095832404E+03 0.  0.
        5    1    3    3  502    0 -0.33525872872E+02  0.49716057779E+02  0.67508473476E+03  0.67775892444E+03  0.46999998093E+01 0. -1.
       -5    1    3    3    0  502  0.33525872872E+02 -0.49716057779E+02 -0.12387539715E+03  0.13770575358E+03  0.46999998093E+01 0.  1.
</event>
<event>
 5   0  0.5503975E-03  0.6005477E+03  0.7818609E-02  0.9904270E-01
       -1   -1    0    0    0  501  0.00000000000E+00  0.00000000000E+00  0.19413986987E+03  0.19413986994E+03  0.50400001928E-02 0.  1.
        1   -1    0    0  501    0  0.00000000000E+00  0.00000000000E+00 -0.46443009175E+03  0.46443009177E+03  0.50400001928E-02 0. -1.
    10030    2    1    2    0    0  0.00000000000E+00  0.00000000000E+00 -0.27029022188E+03  0.65856996171E+03  0.60054774200E+03 0.  0.
        4    1    3    3  502    0 -0.13314070423E+03  0.16223419660E+03  0.10035010705E+03  0.23263305559E+03  0.12699999809E+01 0.  1.
       -4    1    3    3    0  502  0.13314070423E+03 -0.16223419660E+03 -0.37064032893E+03  0.42593690612E+03  0.12699999809E+01 0. -1.
</event>
<event>
 5   0  0.9681801E-03  0.6008974E+03  0.7818609E-02  0.9903546E-01
        2   -1    0    0  501    0  0.00000000000E+00  0.00000000000E+00  0.49839396972E+03  0.49839396973E+03  0.25500000920E-02 0.  1.
       -2   -1    0    0    0  501  0.00000000000E+00  0.00000000000E+00 -0.18112062362E+03  0.18112062364E+03  0.25500000920E-02 0. -1.
    10030    2    1    2    0    0  0.00000000000E+00  0.00000000000E+00  0.31727334610E+03  0.67951459336E+03  0.60089741758E+03 0.  0.
        4    1    3    3  502    0  0.27279265253E+02 -0.29743330759E+03  0.19540323171E+03  0.35692403483E+03  0.12699999809E+01 0.  1.
       -4    1    3    3    0  502 -0.27279265253E+02  0.29743330759E+03  0.12187011439E+03  0.32259055854E+03  0.12699999809E+01 0. -1.
</event>
<event>
 5   0  0.5574736E-03  0.5998973E+03  0.7818609E-02  0.9905619E-01
       -1   -1    0    0    0  501  0.00000000000E+00  0.00000000000E+00  0.52215342442E+03  0.52215342445E+03  0.50400001928E-02 0. -1.
        1   -1    0    0  501    0  0.00000000000E+00  0.00000000000E+00 -0.17230411627E+03  0.17230411635E+03  0.50400001928E-02 0.  1.
    10030    2    1    2    0    0  0.00000000000E+00  0.00000000000E+00  0.34984930815E+03  0.69445754079E+03  0.59989727250E+03 0.  0.
        5    1    3    3  502    0  0.19671877912E+03  0.14900372483E+03  0.37222018941E+03  0.44662103340E+03  0.46999998093E+01 0. -1.
       -5    1    3    3    0  502 -0.19671877912E+03 -0.14900372483E+03 -0.22370881260E+02  0.24783650739E+03  0.46999998093E+01 0.  1.
</event>
<event>
 5   0  0.9571790E-03  0.5987511E+03  0.7818609E-02  0.9908001E-01
       -2   -1    0    0    0  501  0.00000000000E+00  0.00000000000E+00  0.37213952585E+02  0.37213952672E+02  0.25500000920E-02 0.  1.
        2   -1    0    0  501    0  0.00000000000E+00  0.00000000000E+00 -0.24083901466E+04  0.24083901466E+04  0.25500000920E-02 0. -1.
    10030    2    1    2    0    0  0.00000000000E+00  0.00000000000E+00 -0.23711761941E+04  0.24456040993E+04  0.59875108963E+03 0.  0.
        5    1    3    3  502    0 -0.19708634001E+03  0.20354845550E+02 -0.21020692484E+04  0.21113916170E+04  0.46999998093E+01 0. -1.
       -5    1    3    3    0  502  0.19708634001E+03 -0.20354845550E+02 -0.26910694567E+03  0.33421248236E+03  0.46999998093E+01 0.  1.
</event>
<event>
 5   0  0.9866317E-03  0.6007298E+03  0.7818609E-02  0.9903893E-01
        2   -1    0    0  501    0  0.00000000000E+00  0.00000000000E+00  0.11050689646E+04  0.11050689646E+04  0.25500000920E-02 0. -1.
       -2   -1    0    0    0  501  0.00000000000E+00  0.00000000000E+00 -0.81641123030E+02  0.81641123070E+02  0.25500000920E-02 0.  1.
    10030    2    1    2    0    0  0.00000000000E+00  0.00000000000E+00  0.10234278415E+04  0.11867100876E+04  0.60072979390E+03 0.  0.
        1    1    3    3  502    0  0.27223282510E+03 -0.33218323421E+02  0.75369536344E+03  0.80204168780E+03  0.50400001928E-02 0. -1.
       -1    1    3    3    0  502 -0.27223282510E+03  0.33218323421E+02  0.26973247810E+03  0.38466839985E+03  0.50400001928E-02 0.  1.
</event>
<event>
 5   0  0.5785798E-03  0.5991960E+03  0.7818609E-02  0.9907076E-01
        1   -1    0    0  501    0  0.00000000000E+00  0.00000000000E+00  0.14521590434E+03  0.14521590442E+03  0.50400001928E-02 0.  1.
       -1   -1    0    0    0  501  0.00000000000E+00  0.00000000000E+00 -0.61810690432E+03  0.61810690434E+03  0.50400001928E-02 0. -1.
    10030    2    1    2    0    0  0.00000000000E+00  0.00000000000E+00 -0.47289099998E+03  0.76332280876E+03  0.59919597171E+03 0.  0.
        1    1    3    3  502    0  0.17812946073E+03 -0.23095089854E+03 -0.14919853067E+03  0.32761047587E+03  0.50400001928E-02 0.  1.
       -1    1    3    3    0  502 -0.17812946073E+03  0.23095089854E+03 -0.32369246932E+03  0.43571233290E+03  0.50400001928E-02 0. -1.
</event>
<event>
 5   0  0.3794375E-03  0.6105291E+03  0.7818609E-02  0.9883799E-01
       -3   -1    0    0    0  501  0.00000000000E+00  0.00000000000E+00  0.31411182018E+03  0.31411183641E+03  0.10100000352E+00 0.  1.
        3   -1    0    0  501    0  0.00000000000E+00  0.00000000000E+00 -0.29666643780E+03  0.29666645499E+03  0.10100000352E+00 0. -1.
    10030    2    1    2    0    0  0.00000000000E+00  0.00000000000E+00  0.17445382374E+02  0.61077829141E+03  0.61052909831E+03 0.  0.
        4    1    3    3  502    0  0.19468894697E+03 -0.27946536636E+02  0.24227040699E+03  0.31205986282E+03  0.12699999809E+01 0.  1.
       -4    1    3    3    0  502 -0.19468894697E+03  0.27946536636E+02 -0.22482502462E+03  0.29871842858E+03  0.12699999809E+01 0. -1.
</event>
<event>
 5   0  0.5653633E-03  0.6161628E+03  0.7818609E-02  0.9872429E-01
       -1   -1    0    0    0  501  0.00000000000E+00  0.00000000000E+00  0.29553663944E+03  0.29553663949E+03  0.50400001928E-02 0. -1.
        1   -1    0    0  501    0  0.00000000000E+00  0.00000000000E+00 -0.32115862753E+03  0.32115862757E+03  0.50400001928E-02 0.  1.
    10030    2    1    2    0    0  0.00000000000E+00  0.00000000000E+00 -0.25621988091E+02  0.61669526706E+03  0.61616277569E+03 0.  0.
        2    1    3    3  502    0  0.49336177554E+02  0.22047687518E+03 -0.22244374160E+03  0.31705729622E+03  0.25500000920E-02 0.  1.
       -2    1    3    3    0  502 -0.49336177554E+02 -0.22047687518E+03  0.19682175351E+03  0.29963797084E+03  0.25500000920E-02 0. -1.
</event>
<event>
 5   0  0.5503975E-03  0.5988128E+03  0.7818609E-02  0.9907872E-01
       -1   -1    0    0    0  501  0.00000000000E+00  0.00000000000E+00  0.12131831074E+03  0.12131831084E+03  0.50400001928E-02 0.  1.
        1   -1    0    0  501    0  0.00000000000E+00  0.00000000000E+00 -0.73891727711E+03  0.73891727713E+03  0.50400001928E-02 0. -1.
    10030    2    1    2    0    0  0.00000000000E+00  0.00000000000E+00 -0.61759896637E+03  0.86023558797E+03  0.59881281178E+03 0.  0.
        4    1    3    3  502    0  0.76001091489E+02 -0.44005518951E+02  0.10239532003E+03  0.13490391421E+03  0.12699999809E+01 0.  1.
       -4    1    3    3    0  502 -0.76001091489E+02  0.44005518951E+02 -0.71999428640E+03  0.72533167376E+03  0.12699999809E+01 0. -1.
</event>
<event>
 5   0  0.5503975E-03  0.5926133E+03  0.7818609E-02  0.9920851E-01
        1   -1    0    0  501    0  0.00000000000E+00  0.00000000000E+00  0.14014075234E+04  0.14014075234E+04  0.50400001928E-02 0. -1.
       -1   -1    0    0    0  501  0.00000000000E+00  0.00000000000E+00 -0.62649606696E+02  0.62649606899E+02  0.50400001928E-02 0.  1.
    10030    2    1    2    0    0  0.00000000000E+00  0.00000000000E+00  0.13387579167E+04  0.14640571303E+04  0.59261329825E+03 0.  0.
        4    1    3    3  502    0  0.11691254578E+03 -0.13303920631E+03  0.82519473596E+02  0.19539460126E+03  0.12699999809E+01 0.  1.
       -4    1    3    3    0  502 -0.11691254578E+03  0.13303920631E+03  0.12562384431E+04  0.12686625290E+04  0.12699999809E+01 0. -1.
</event>
<event>
 5   0  0.5785798E-03  0.5992965E+03  0.7818609E-02  0.9906867E-01
        1   -1    0    0  501    0  0.00000000000E+00  0.00000000000E+00  0.15269793655E+03  0.15269793663E+03  0.50400001928E-02 0. -1.
       -1   -1    0    0    0  501  0.00000000000E+00  0.00000000000E+00 -0.58801758813E+03  0.58801758815E+03  0.50400001928E-02 0.  1.
    10030    2    1    2    0    0  0.00000000000E+00  0.00000000000E+00 -0.43531965158E+03  0.74071552478E+03  0.59929649557E+03 0.  0.
        1    1    3    3  502    0  0.89628256233E+02  0.23619747276E+03 -0.18492877445E+02  0.25330704095E+03  0.50400001928E-02 0. -1.
       -1    1    3    3    0  502 -0.89628256233E+02 -0.23619747276E+03 -0.41682677413E+03  0.48740848383E+03  0.50400001928E-02 0.  1.
</event>
<event>
 5   0  0.9571790E-03  0.6011729E+03  0.7818609E-02  0.9902976E-01
       -2   -1    0    0    0  501  0.00000000000E+00  0.00000000000E+00  0.65205565341E+02  0.65205565391E+02  0.25500000920E-02 0. -1.
        2   -1    0    0  501    0  0.00000000000E+00  0.00000000000E+00 -0.13856518178E+04  0.13856518178E+04  0.25500000920E-02 0.  1.
    10030    2    1    2    0    0  0.00000000000E+00  0.00000000000E+00 -0.13204462524E+04  0.14508573832E+04  0.60117288755E+03 0.  0.
        5    1    3    3  502    0  0.21381201842E+03 -0.10782384798E+03 -0.10985589940E+04  0.11243644937E+04  0.46999998093E+01 0.  1.
       -5    1    3    3    0  502 -0.21381201842E+03  0.10782384798E+03 -0.22188725842E+03  0.32649288945E+03  0.46999998093E+01 0. -1.
</event>
<event>
 5   0  0.9530666E-03  0.5998571E+03  0.7818609E-02  0.9905702E-01
       -2   -1    0    0    0  501  0.00000000000E+00  0.00000000000E+00  0.81291464701E+02  0.81291464741E+02  0.25500000920E-02 0.  1.
        2   -1    0    0  501    0  0.00000000000E+00  0.00000000000E+00 -0.11066001842E+04  0.11066001842E+04  0.25500000920E-02 0. -1.
    10030    2    1    2    0    0  0.00000000000E+00  0.00000000000E+00 -0.10253087195E+04  0.11878916490E+04  0.59985714913E+03 0.  0.
        2    1    3    3  502    0  0.56080880870E+02  0.98242636373E+02 -0.10627350748E+04  0.10687387520E+04  0.25500000920E-02 0. -1.
       -2    1    3    3    0  502 -0.56080880870E+02 -0.98242636373E+02  0.37426355214E+02  0.11915289703E+03  0.25500000920E-02 0.  1.
</event>
<event>
 5   0  0.5653633E-03  0.6006797E+03  0.7818609E-02  0.9903997E-01
       -1   -1    0    0    0  501  0.00000000000E+00  0.00000000000E+00  0.68538382671E+02  0.68538382856E+02  0.50400001928E-02 0.  1.
        1   -1    0    0  501    0  0.00000000000E+00  0.00000000000E+00 -0.13161096104E+04  0.13161096104E+04  0.50400001928E-02 0. -1.
    10030    2    1    2    0    0  0.00000000000E+00  0.00000000000E+00 -0.12475712277E+04  0.13846479932E+04  0.60067969584E+03 0.  0.
        2    1    3    3  502    0  0.62217577020E+02  0.14741644097E+03 -0.12096773341E+04  0.12202138692E+04  0.25500000920E-02 0. -1.
       -2    1    3    3    0  502 -0.62217577020E+02 -0.14741644097E+03 -0.37893893560E+02  0.16443412399E+03  0.25500000920E-02 0.  1.
</event>
<event>
 5   0  0.5503975E-03  0.6033565E+03  0.7818609E-02  0.9898467E-01
        1   -1    0    0  501    0  0.00000000000E+00  0.00000000000E+00  0.20510689752E+04  0.20510689752E+04  0.50400001928E-02 0. -1.
       -1   -1    0    0    0  501  0.00000000000E+00  0.00000000000E+00 -0.44371873653E+02  0.44371873939E+02  0.50400001928E-02 0.  1.
    10030    2    1    2    0    0  0.00000000000E+00  0.00000000000E+00  0.20066971015E+04  0.20954408491E+04  0.60335652388E+03 0.  0.
        4    1    3    3  502    0  0.26896929853E+03 -0.13545802336E+03  0.10649682496E+04  0.11067304754E+04  0.12699999809E+01 0.  1.
       -4    1    3    3    0  502 -0.26896929853E+03  0.13545802336E+03  0.94172885191E+03  0.98871037370E+03  0.12699999809E+01 0. -1.
</event>
<event>
 5   0  0.5785798E-03  0.6014299E+03  0.7818609E-02  0.9902444E-01
       -1   -1    0    0    0  501  0.00000000000E+00  0.00000000000E+00  0.81970702681E+02  0.81970702836E+02  0.50400001928E-02 0.  1.
        1   -1    0    0  501    0  0.00000000000E+00  0.00000000000E+00 -0.11031926086E+04  0.11031926087E+04  0.50400001928E-02 0. -1.
    10030    2    1    2    0    0  0.00000000000E+00  0.00000000000E+00 -0.10212219060E+04  0.11851633115E+04  0.60142987429E+03 0.  0.
        1    1    3    3  502    0  0.54966016235E+02 -0.29434826363E+03 -0.45602527930E+03  0.54554671535E+03  0.50400001928E-02 0. -1.
       -1    1    3    3    0  502 -0.54966016235E+02  0.29434826363E+03 -0.56519662666E+03  0.63961659614E+03  0.50400001928E-02 0.  1.
</event>
<event>
 5   0  0.5785798E-03  0.5998779E+03  0.7818609E-02  0.9905659E-01
       -1   -1    0    0    0  501  0.00000000000E+00  0.00000000000E+00  0.58939313399E+03  0.58939313401E+03  0.50400001928E-02 0.  1.
        1   -1    0    0  501    0  0.00000000000E+00  0.00000000000E+00 -0.15263728696E+03  0.15263728705E+03  0.50400001928E-02 0. -1.
    10030    2    1    2    0    0  0.00000000000E+00  0.00000000000E+00  0.43675584703E+03  0.74203042106E+03  0.59987788412E+03 0.  0.
        1    1    3    3  502    0  0.20833338844E+03 -0.13980608770E+03  0.15067358586E+02  0.25134750490E+03  0.50400001928E-02 0. -1.
       -1    1    3    3    0  502 -0.20833338844E+03  0.13980608770E+03  0.42168848844E+03  0.49068291616E+03  0.50400001928E-02 0.  1.
</event>
<event>
 5   0  0.3794375E-03  0.5990701E+03  0.7818609E-02  0.9907337E-01
        3   -1    0    0  501    0  0.00000000000E+00  0.00000000000E+00  0.40356105328E+03  0.40356106592E+03  0.10100000352E+00 0.  1.
       -3   -1    0    0    0  501  0.00000000000E+00  0.00000000000E+00 -0.22232379688E+03  0.22232381983E+03  0.10100000352E+00 0. -1.
    10030    2    1    2    0    0  0.00000000000E+00  0.00000000000E+00  0.18123725640E+03  0.62588488575E+03  0.59907006860E+03 0.  0.
        3    1    3    3  502    0  0.14580455476E+03 -0.14671647268E+03  0.31696438402E+03  0.37848530022E+03  0.10100000352E+00 0.  1.
       -3    1    3    3    0  502 -0.14580455476E+03  0.14671647268E+03 -0.13572712762E+03  0.24739958553E+03  0.10100000352E+00 0. -1.
</event>
<event>
 5   0  0.5653633E-03  0.5993146E+03  0.7818609E-02  0.9906829E-01
        1   -1    0    0  501    0  0.00000000000E+00  0.00000000000E+00  0.17591355769E+03  0.17591355776E+03  0.50400001928E-02 0. -1.
       -1   -1    0    0    0  501  0.00000000000E+00  0.00000000000E+00 -0.51044669738E+03  0.51044669740E+03  0.50400001928E-02 0.  1.
    10030    2    1    2    0    0  0.00000000000E+00  0.00000000000E+00 -0.33453313969E+03  0.68636025517E+03  0.59931459045E+03 0.  0.
        2    1    3    3  502    0 -0.12706196844E+03 -0.66518032457E+02 -0.46858734688E+03  0.49004437975E+03  0.25500000920E-02 0.  1.
       -2    1    3    3    0  502  0.12706196844E+03  0.66518032457E+02  0.13405420719E+03  0.19631587541E+03  0.25500000920E-02 0. -1.
</event>
<event>
 5   0  0.5503975E-03  0.6005696E+03  0.7818609E-02  0.9904225E-01
        1   -1    0    0  501    0  0.00000000000E+00  0.00000000000E+00  0.22953101092E+03  0.22953101098E+03  0.50400001928E-02 0. -1.
       -1   -1    0    0    0  501  0.00000000000E+00  0.00000000000E+00 -0.39284869471E+03  0.39284869475E+03  0.50400001928E-02 0.  1.
    10030    2    1    2    0    0  0.00000000000E+00  0.00000000000E+00 -0.16331768379E+03  0.62237970572E+03  0.60056958985E+03 0.  0.
        4    1    3    3  502    0 -0.39712788825E+02 -0.86933963626E+02 -0.37666268112E+03  0.38860134827E+03  0.12699999809E+01 0.  1.
       -4    1    3    3    0  502  0.39712788825E+02  0.86933963626E+02  0.21334499733E+03  0.23377835745E+03  0.12699999809E+01 0. -1.
</event>
<event>
 5   0  0.5491236E-03  0.5985544E+03  0.7818609E-02  0.9908410E-01
       -1   -1    0    0    0  501  0.00000000000E+00  0.00000000000E+00  0.16781030142E+03  0.16781030150E+03  0.50400001928E-02 0. -1.
        1   -1    0    0  501    0  0.00000000000E+00  0.00000000000E+00 -0.53373859195E+03  0.53373859197E+03  0.50400001928E-02 0.  1.
    10030    2    1    2    0    0  0.00000000000E+00  0.00000000000E+00 -0.36592829053E+03  0.70154889347E+03  0.59855437190E+03 0.  0.
        3    1    3    3  502    0 -0.13721476310E+03 -0.22104435173E+02  0.12769097091E+03  0.18873656646E+03  0.10100000352E+00 0. -1.
       -3    1    3    3    0  502  0.13721476310E+03  0.22104435173E+02 -0.49361926144E+03  0.51281232700E+03  0.10100000352E+00 0.  1.
</event>
<event>
 5   0  0.9530666E-03  0.6002028E+03  0.7818609E-02  0.9904985E-01
       -2   -1    0    0    0  501  0.00000000000E+00  0.00000000000E+00  0.10208387781E+03  0.10208387784E+03  0.25500000920E-02 0.  1.
        2   -1    0    0  501    0  0.00000000000E+00  0.00000000000E+00 -0.88222403406E+03  0.88222403406E+03  0.25500000920E-02 0. -1.
    10030    2    1    2    0    0  0.00000000000E+00  0.00000000000E+00 -0.78014015625E+03  0.98430791190E+03  0.60020280076E+03 0.  0.
        2    1    3    3  502    0  0.47509741504E+02  0.22805017802E+03 -0.79789202750E+02  0.24623236204E+03  0.25500000920E-02 0.  1.
       -2    1    3    3    0  502 -0.47509741504E+02 -0.22805017802E+03 -0.70035095350E+03  0.73807554987E+03  0.25500000920E-02 0. -1.
</event>
<event>
 5   0  0.5574736E-03  0.5992743E+03  0.7818609E-02  0.9906913E-01
       -1   -1    0    0    0  501  0.00000000000E+00  0.00000000000E+00  0.28435732542E+03  0.28435732546E+03  0.50400001928E-02 0.  1.
        1   -1    0    0  501    0  0.00000000000E+00  0.00000000000E+00 -0.31573798497E+03  0.31573798501E+03  0.50400001928E-02 0. -1.
    10030    2    1    2    0    0  0.00000000000E+00  0.00000000000E+00 -0.31380659552E+02  0.60009531047E+03  0.59927425763E+03 0.  0.
        5    1    3    3  502    0 -0.29374211487E+03  0.40778080217E+02  0.26947781098E+02  0.29781798935E+03  0.46999998093E+01 0. -1.
       -5    1    3    3    0  502  0.29374211487E+03 -0.40778080217E+02 -0.58328440650E+02  0.30227732112E+03  0.46999998093E+01 0.  1.
</event>
<event>
 5   0  0.9866317E-03  0.5995361E+03  0.7818609E-02  0.9906369E-01
       -2   -1    0    0    0  501  0.00000000000E+00  0.00000000000E+00  0.13193500462E+03  0.13193500464E+03  0.25500000920E-02 0.  1.
        2   -1    0    0  501    0  0.00000000000E+00  0.00000000000E+00 -0.68109962086E+03  0.68109962086E+03  0.25500000920E-02 0. -1.
    10030    2    1    2    0    0  0.00000000000E+00  0.00000000000E+00 -0.54916461624E+03  0.81303462550E+03  0.59953609277E+03 0.  0.
        1    1    3    3  502    0 -0.24130169775E+03  0.25707306087E+02 -0.51324739726E+03  0.56772375830E+03  0.50400001928E-02 0. -1.
       -1    1    3    3    0  502  0.24130169775E+03 -0.25707306087E+02 -0.35917218982E+02  0.24531086720E+03  0.50400001928E-02 0.  1.
</event>
<event>
 5   0  0.5491236E-03  0.5996936E+03  0.7818609E-02  0.9906042E-01
        1   -1    0    0  501    0  0.00000000000E+00  0.00000000000E+00  0.44590598439E+03  0.44590598442E+03  0.50400001928E-02 0. -1.
       -1   -1    0    0    0  501  0.00000000000E+00  0.00000000000E+00 -0.20163015471E+03  0.20163015477E+03  0.50400001928E-02 0.  1.
    10030    2    1    2    0    0  0.00000000000E+00  0.00000000000E+00  0.24427582968E+03  0.64753613919E+03  0.59969356391E+03 0.  0.
        3    1    3    3  502    0 -0.21478616005E+03  0.12039585137E+02  0.34767990627E+03  0.40885128542E+03  0.10100000352E+00 0. -1.
       -3    1    3    3    0  502  0.21478616005E+03 -0.12039585137E+02 -0.10340407660E+03  0.23868485377E+03  0.10100000352E+00 0.  1.
</event>
<event>
 5   0  0.9866317E-03  0.5984563E+03  0.7818609E-02  0.9908614E-01
       -2   -1    0    0    0  501  0.00000000000E+00  0.00000000000E+00  0.22494666964E+03  0.22494666965E+03  0.25500000920E-02 0. -1.
        2   -1    0    0  501    0  0.00000000000E+00  0.00000000000E+00 -0.39803872625E+03  0.39803872626E+03  0.25500000920E-02 0.  1.
    10030    2    1    2    0    0  0.00000000000E+00  0.00000000000E+00 -0.17309205662E+03  0.62298539591E+03  0.59845630037E+03 0.  0.
        1    1    3    3  502    0 -0.28799372248E+03  0.30273665324E+02 -0.80870246594E+01  0.28969342242E+03  0.50400001928E-02 0. -1.
       -1    1    3    3    0  502  0.28799372248E+03 -0.30273665324E+02 -0.16500503196E+03  0.33329197350E+03  0.50400001928E-02 0.  1.
</event>
<event>
 5   0  0.5785798E-03  0.6022933E+03  0.7818609E-02  0.9900660E-01
        1   -1    0    0  501    0  0.00000000000E+00  0.00000000000E+00  0.15786576769E+04  0.15786576769E+04  0.50400001928E-02 0.  1.
       -1   -1    0    0    0  501  0.00000000000E+00  0.00000000000E+00 -0.57447106229E+02  0.57447106450E+02  0.50400001928E-02 0. -1.
    10030    2    1    2    0    0  0.00000000000E+00  0.00000000000E+00  0.15212105707E+04  0.16361047834E+04  0.60229333535E+03 0.  0.
        1    1    3    3  502    0  0.55465108214E+01  0.10734010664E+03 -0.35680795873E+01  0.10754251947E+03  0.50400001928E-02 0. -1.
       -1    1    3    3    0  502 -0.55465108214E+01 -0.10734010664E+03  0.15247786503E+04  0.15285622639E+04  0.50400001928E-02 0.  1.
</event>
<event>
 5   0  0.9571790E-03  0.5996783E+03  0.7818609E-02  0.9906074E-01
       -2   -1    0    0    0  501  0.00000000000E+00  0.00000000000E+00  0.15958937581E+03  0.15958937583E+03  0.25500000920E-02 0. -1.
        2   -1    0    0  501    0  0.00000000000E+00  0.00000000000E+00 -0.56334272625E+03  0.56334272626E+03  0.25500000920E-02 0.  1.
    10030    2    1    2    0    0  0.00000000000E+00  0.00000000000E+00 -0.40375335044E+03  0.72293210208E+03  0.59967829395E+03 0.  0.
        5    1    3    3  502    0  0.23940152124E+03 -0.16880799265E+03 -0.12494705527E+03  0.31850130828E+03  0.46999998093E+01 0. -1.
       -5    1    3    3    0  502 -0.23940152124E+03  0.16880799265E+03 -0.27880629517E+03  0.40443079381E+03  0.46999998093E+01 0.  1.
</event>
<event>
 5   0  0.5653633E-03  0.6022332E+03  0.7818609E-02  0.9900784E-01
       -1   -1    0    0    0  501  0.00000000000E+00  0.00000000000E+00  0.25183077507E+03  0.25183077512E+03  0.50400001928E-02 0. -1.
        1   -1    0    0  501    0  0.00000000000E+00  0.00000000000E+00 -0.36004819137E+03  0.36004819141E+03  0.50400001928E-02 0.  1.
    10030    2    1    2    0    0  0.00000000000E+00  0.00000000000E+00 -0.10821741630E+03  0.61187896653E+03  0.60223322765E+03 0.  0.
        2    1    3    3  502    0  0.63444654290E+02  0.17884207258E+03  0.18343394317E+03  0.26392749496E+03  0.25500000920E-02 0. -1.
       -2    1    3    3    0  502 -0.63444654290E+02 -0.17884207258E+03 -0.29165135947E+03  0.34795147157E+03  0.25500000920E-02 0.  1.
</event>
<event>
 5   0  0.9428629E-03  0.6011165E+03  0.7818609E-02  0.9903092E-01
       -2   -1    0    0    0  501  0.00000000000E+00  0.00000000000E+00  0.12796730628E+03  0.12796730630E+03  0.25500000920E-02 0.  1.
        2   -1    0    0  501    0  0.00000000000E+00  0.00000000000E+00 -0.70592445147E+03  0.70592445148E+03  0.25500000920E-02 0. -1.
    10030    2    1    2    0    0  0.00000000000E+00  0.00000000000E+00 -0.57795714520E+03  0.83389175778E+03  0.60111646293E+03 0.  0.
        3    1    3    3  502    0 -0.21979044733E+03  0.14834782384E+03 -0.92693805942E+02  0.28090402175E+03  0.10100000352E+00 0.  1.
       -3    1    3    3    0  502  0.21979044733E+03 -0.14834782384E+03 -0.48526333925E+03  0.55298773603E+03  0.10100000352E+00 0. -1.
</event>
<event>
 5   0  0.9530666E-03  0.5998256E+03  0.7818609E-02  0.9905768E-01
        2   -1    0    0  501    0  0.00000000000E+00  0.00000000000E+00  0.34746359243E+03  0.34746359244E+03  0.25500000920E-02 0.  1.
       -2   -1    0    0    0  501  0.00000000000E+00  0.00000000000E+00 -0.25886940599E+03  0.25886940600E+03  0.25500000920E-02 0. -1.
    10030    2    1    2    0    0  0.00000000000E+00  0.00000000000E+00  0.88594186443E+02  0.60633299845E+03  0.59982562060E+03 0.  0.
        2    1    3    3  502    0  0.16181906096E+03  0.17048140009E+03 -0.14399876890E+03  0.27565369890E+03  0.25500000920E-02 0. -1.
       -2    1    3    3    0  502 -0.16181906096E+03 -0.17048140009E+03  0.23259295534E+03  0.33067929955E+03  0.25500000920E-02 0.  1.
</event>
<event>
 5   0  0.3794375E-03  0.6039590E+03  0.7818609E-02  0.9897226E-01
        4   -1    0    0  501    0  0.00000000000E+00  0.00000000000E+00  0.56350881645E+03  0.56351024757E+03  0.12699999809E+01 0. -1.
       -4   -1    0    0    0  501  0.00000000000E+00  0.00000000000E+00 -0.16182405294E+03  0.16182903636E+03  0.12699999809E+01 0.  1.
    10030    2    1    2    0    0  0.00000000000E+00  0.00000000000E+00  0.40168476351E+03  0.72533928393E+03  0.60395896184E+03 0.  0.
        3    1    3    3  502    0  0.15063635280E+03  0.19697991483E+03 -0.61270169522E+01  0.24805230934E+03  0.10100000352E+00 0.  1.
       -3    1    3    3    0  502 -0.15063635280E+03 -0.19697991483E+03  0.40781178046E+03  0.47728697459E+03  0.10100000352E+00 0. -1.
</event>
<event>
 5   0  0.3794375E-03  0.6007659E+03  0.7818609E-02  0.9903818E-01
       -4   -1    0    0    0  501  0.00000000000E+00  0.00000000000E+00  0.10421130759E+04  0.10421138497E+04  0.12699999809E+01 0. -1.
        4   -1    0    0  501    0  0.00000000000E+00  0.00000000000E+00 -0.86578141452E+02  0.86587455657E+02  0.12699999809E+01 0.  1.
    10030    2    1    2    0    0  0.00000000000E+00  0.00000000000E+00  0.95553493443E+03  0.11287013054E+04  0.60076586612E+03 0.  0.
        2    1    3    3  502    0 -0.19437232070E+03 -0.80886897808E+02  0.88030967446E+03  0.90513447191E+03  0.25500000920E-02 0. -1.
       -2    1    3    3    0  502  0.19437232070E+03  0.80886897808E+02  0.75225259972E+02  0.22356683349E+03  0.25500000920E-02 0.  1.
</event>
<event>
 5   0  0.9571790E-03  0.6006288E+03  0.7818609E-02  0.9904102E-01
       -2   -1    0    0    0  501  0.00000000000E+00  0.00000000000E+00  0.90948825399E+02  0.90948825435E+02  0.25500000920E-02 0.  1.
        2   -1    0    0  501    0  0.00000000000E+00  0.00000000000E+00 -0.99164271466E+03  0.99164271466E+03  0.25500000920E-02 0. -1.
    10030    2    1    2    0    0  0.00000000000E+00  0.00000000000E+00 -0.90069388926E+03  0.10825915401E+04  0.60062880429E+03 0.  0.
        5    1    3    3  502    0  0.22500021789E+03 -0.14933343706E+03 -0.21367833213E+03  0.34439235342E+03  0.46999998093E+01 0.  1.
       -5    1    3    3    0  502 -0.22500021789E+03  0.14933343706E+03 -0.68701555713E+03  0.73819918668E+03  0.46999998093E+01 0. -1.
</event>
<event>
 5   0  0.9428629E-03  0.5997761E+03  0.7818609E-02  0.9905871E-01
        2   -1    0    0  501    0  0.00000000000E+00  0.00000000000E+00  0.16641258605E+04  0.16641258605E+04  0.25500000920E-02 0. -1.
       -2   -1    0    0    0  501  0.00000000000E+00  0.00000000000E+00 -0.54042087848E+02  0.54042087908E+02  0.25500000920E-02 0.  1.
    10030    2    1    2    0    0  0.00000000000E+00  0.00000000000E+00  0.16100837726E+04  0.17181679484E+04  0.59977607820E+03 0.  0.
        3    1    3    3  502    0 -0.18189232661E+03 -0.16204500163E+02  0.12360011647E+03  0.22050941771E+03  0.10100000352E+00 0.  1.
       -3    1    3    3    0  502  0.18189232661E+03  0.16204500163E+02  0.14864836562E+04  0.14976585307E+04  0.10100000352E+00 0. -1.
</event>
<event>
 5   0  0.9866317E-03  0.6000872E+03  0.7818609E-02  0.9905225E-01
       -2   -1    0    0    0  501  0.00000000000E+00  0.00000000000E+00  0.11926890764E+03  0.11926890767E+03  0.25500000920E-02 0.  1.
        2   -1    0    0  501    0  0.00000000000E+00  0.00000000000E+00 -0.75481663149E+03  0.75481663149E+03  0.25500000920E-02 0. -1.
    10030    2    1    2    0    0  0.00000000000E+00  0.00000000000E+00 -0.63554772384E+03  0.87408553917E+03  0.60008717741E+03 0.  0.
        1    1    3    3  502    0 -0.29151017735E+03  0.28051130005E+02 -0.41285639479E+03  0.50617729319E+03  0.50400001928E-02 0. -1.
       -1    1    3    3    0  502  0.29151017735E+03 -0.28051130005E+02 -0.22269132905E+03  0.36790824597E+03  0.50400001928E-02 0.  1.
</event>
<event>
 5   0  0.5574736E-03  0.6005166E+03  0.7818609E-02  0.9904335E-01
       -1   -1    0    0    0  501  0.00000000000E+00  0.00000000000E+00  0.41473621351E+02  0.41473621657E+02  0.50400001928E-02 0.  1.
        1   -1    0    0  501    0  0.00000000000E+00  0.00000000000E+00 -0.21737925790E+04  0.21737925790E+04  0.50400001928E-02 0. -1.
    10030    2    1    2    0    0  0.00000000000E+00  0.00000000000E+00 -0.21323189577E+04  0.22152662007E+04  0.60051661314E+03 0.  0.
        5    1    3    3  502    0  0.65094067744E+01 -0.63999113107E+02 -0.21479339847E+04  0.21489022201E+04  0.46999998093E+01 0. -1.
       -5    1    3    3    0  502 -0.65094067744E+01  0.63999113107E+02  0.15615027022E+02  0.66363980608E+02  0.46999998093E+01 0.  1.
</event>
<event>
 5   0  0.5785798E-03  0.6003603E+03  0.7818609E-02  0.9904659E-01
       -1   -1    0    0    0  501  0.00000000000E+00  0.00000000000E+00  0.31487265848E+03  0.31487265852E+03  0.50400001928E-02 0.  1.
        1   -1    0    0  501    0  0.00000000000E+00  0.00000000000E+00 -0.28617323722E+03  0.28617323726E+03  0.50400001928E-02 0. -1.
    10030    2    1    2    0    0  0.00000000000E+00  0.00000000000E+00  0.28699421260E+02  0.60104589578E+03  0.60036031852E+03 0.  0.
        1    1    3    3  502    0 -0.17915892340E+03  0.13365123816E+03 -0.18624764599E+03  0.29094459775E+03  0.50400001928E-02 0. -1.
       -1    1    3    3    0  502  0.17915892340E+03 -0.13365123816E+03  0.21494706725E+03  0.31010129803E+03  0.50400001928E-02 0.  1.
</event>
<event>
 5   0  0.3794375E-03  0.5999030E+03  0.7818609E-02  0.9905607E-01
        3   -1    0    0  501    0  0.00000000000E+00  0.00000000000E+00  0.19955874030E+03  0.19955876586E+03  0.10100000352E+00 0. -1.
       -3   -1    0    0    0  501  0.00000000000E+00  0.00000000000E+00 -0.45084923042E+03  0.45084924173E+03  0.10100000352E+00 0.  1.
    10030    2    1    2    0    0  0.00000000000E+00  0.00000000000E+00 -0.25129049012E+03  0.65040800759E+03  0.59990304709E+03 0.  0.
        2    1    3    3  502    0 -0.48762920853E+02 -0.13776234139E+03 -0.40964186989E+03  0.43492843863E+03  0.25500000920E-02 0.  1.
       -2    1    3    3    0  502  0.48762920853E+02  0.13776234139E+03  0.15835137977E+03  0.21547956896E+03  0.25500000920E-02 0. -1.
</event>
<event>
 5   0  0.9530666E-03  0.5985177E+03  0.7818609E-02  0.9908486E-01
        2   -1    0    0  501    0  0.00000000000E+00  0.00000000000E+00  0.49837389060E+03  0.49837389061E+03  0.25500000920E-02 0. -1.
       -2   -1    0    0    0  501  0.00000000000E+00  0.00000000000E+00 -0.17969610332E+03  0.17969610334E+03  0.25500000920E-02 0.  1.
    10030    2    1    2    0    0  0.00000000000E+00  0.00000000000E+00  0.31867778728E+03  0.67806999395E+03  0.59851765604E+03 0.  0.
        2    1    3    3  502    0 -0.12414728997E+03  0.44499480236E+01 -0.14910452124E+03  0.19407346523E+03  0.25500000920E-02 0.  1.
       -2    1    3    3    0  502  0.12414728997E+03 -0.44499480236E+01  0.46778230852E+03  0.48399652872E+03  0.25500000920E-02 0. -1.
</event>
<event>
 5   0  0.5653633E-03  0.6013776E+03  0.7818609E-02  0.9902552E-01
        1   -1    0    0  501    0  0.00000000000E+00  0.00000000000E+00  0.81662179206E+03  0.81662179208E+03  0.50400001928E-02 0. -1.
       -1   -1    0    0    0  501  0.00000000000E+00  0.00000000000E+00 -0.11071679276E+03  0.11071679287E+03  0.50400001928E-02 0.  1.
    10030    2    1    2    0    0  0.00000000000E+00  0.00000000000E+00  0.70590499930E+03  0.92733858495E+03  0.60137757117E+03 0.  0.
        2    1    3    3  502    0  0.12063001417E+03 -0.12123255297E+03  0.73431846460E+03  0.75397117961E+03  0.25500000920E-02 0. -1.
       -2    1    3    3    0  502 -0.12063001417E+03  0.12123255297E+03 -0.28413465302E+02  0.17336740534E+03  0.25500000920E-02 0.  1.
</event>
<event>
 5   0  0.9428629E-03  0.5998231E+03  0.7818609E-02  0.9905773E-01
        2   -1    0    0  501    0  0.00000000000E+00  0.00000000000E+00  0.51314904178E+03  0.51314904179E+03  0.25500000920E-02 0.  1.
       -2   -1    0    0    0  501  0.00000000000E+00  0.00000000000E+00 -0.17528424733E+03  0.17528424735E+03  0.25500000920E-02 0. -1.
    10030    2    1    2    0    0  0.00000000000E+00  0.00000000000E+00  0.33786479446E+03  0.68843328914E+03  0.59982311914E+03 0.  0.
        3    1    3    3  502    0 -0.41167305360E+02 -0.22228041435E+03 -0.57270633297E+02  0.23320219826E+03  0.10100000352E+00 0. -1.
       -3    1    3    3    0  502  0.41167305360E+02  0.22228041435E+03  0.39513542775E+03  0.45523109088E+03  0.10100000352E+00 0.  1.
</event>
<event>
 5   0  0.9571790E-03  0.5988449E+03  0.7818609E-02  0.9907805E-01
       -2   -1    0    0    0  501  0.00000000000E+00  0.00000000000E+00  0.54827029404E+02  0.54827029463E+02  0.25500000920E-02 0. -1.
        2   -1    0    0  501    0  0.00000000000E+00  0.00000000000E+00 -0.16352120001E+04  0.16352120001E+04  0.25500000920E-02 0.  1.
    10030    2    1    2    0    0  0.00000000000E+00  0.00000000000E+00 -0.15803849707E+04  0.16900390296E+04  0.59884494308E+03 0.  0.
        5    1    3    3  502    0 -0.24656595061E+03  0.15961798475E+03 -0.95375774262E+03  0.99797223942E+03  0.46999998093E+01 0.  1.
       -5    1    3    3    0  502  0.24656595061E+03 -0.15961798475E+03 -0.62662722809E+03  0.69206679015E+03  0.46999998093E+01 0. -1.
</event>
<event>
 5   0  0.3794375E-03  0.5992398E+03  0.7818609E-02  0.9906984E-01
        3   -1    0    0  501    0  0.00000000000E+00  0.00000000000E+00  0.90433647810E+03  0.90433648374E+03  0.10100000352E+00 0.  1.
       -3   -1    0    0    0  501  0.00000000000E+00  0.00000000000E+00 -0.99268435160E+02  0.99268486541E+02  0.10100000352E+00 0. -1.
    10030    2    1    2    0    0  0.00000000000E+00  0.00000000000E+00  0.80506804294E+03  0.10036049703E+04  0.59923983730E+03 0.  0.
        2    1    3    3  502    0  0.16375438777E+03  0.24671827890E+03  0.47903919072E+03  0.56317311273E+03  0.25500000920E-02 0.  1.
       -2    1    3    3    0  502 -0.16375438777E+03 -0.24671827890E+03  0.32602885222E+03  0.44043185755E+03  0.25500000920E-02 0. -1.
</event>
<event>
 5   0  0.5491236E-03  0.6002426E+03  0.7818609E-02  0.9904903E-01
       -1   -1    0    0    0  501  0.00000000000E+00  0.00000000000E+00  0.49577082615E+03  0.49577082618E+03  0.50400001928E-02 0. -1.
        1   -1    0    0  501    0  0.00000000000E+00  0.00000000000E+00 -0.18168232021E+03  0.18168232028E+03  0.50400001928E-02 0.  1.
    10030    2    1    2    0    0  0.00000000000E+00  0.00000000000E+00  0.31408850594E+03  0.67745314646E+03  0.60024259769E+03 0.  0.
        3    1    3    3  502    0 -0.22358928572E+03  0.19945415765E+03  0.13753966805E+03  0.32968363651E+03  0.10100000352E+00 0.  1.
       -3    1    3    3    0  502  0.22358928572E+03 -0.19945415765E+03  0.17654883789E+03  0.34776950995E+03  0.10100000352E+00 0. -1.
</event>
<event>
 5   0  0.5574736E-03  0.5901181E+03  0.7818609E-02  0.9926123E-01
       -1   -1    0    0    0  501  0.00000000000E+00  0.00000000000E+00  0.66639135660E+02  0.66639135851E+02  0.50400001928E-02 0. -1.
        1   -1    0    0  501    0  0.00000000000E+00  0.00000000000E+00 -0.13064371488E+04  0.13064371488E+04  0.50400001928E-02 0.  1.
    10030    2    1    2    0    0  0.00000000000E+00  0.00000000000E+00 -0.12397980131E+04  0.13730762846E+04  0.59011809844E+03 0.  0.
        5    1    3    3  502    0 -0.78892801541E+02  0.24127443439E+03 -0.96969359059E+03  0.10023797566E+04  0.46999998093E+01 0.  1.
       -5    1    3    3    0  502  0.78892801541E+02 -0.24127443439E+03 -0.27010442253E+03  0.37069652804E+03  0.46999998093E+01 0. -1.
</event>
<event>
 5   0  0.9866317E-03  0.6006516E+03  0.7818609E-02  0.9904055E-01
        2   -1    0    0  501    0  0.00000000000E+00  0.00000000000E+00  0.53784441916E+03  0.53784441916E+03  0.25500000920E-02 0.  1.
       -2   -1    0    0    0  501  0.00000000000E+00  0.00000000000E+00 -0.16769830418E+03  0.16769830420E+03  0.25500000920E-02 0. -1.
    10030    2    1    2    0    0  0.00000000000E+00  0.00000000000E+00  0.37014611498E+03  0.70554272336E+03  0.60065163618E+03 0.  0.
        1    1    3    3  502    0  0.26931305190E+03  0.50616965230E+02  0.40713135183E+02  0.27703638117E+03  0.50400001928E-02 0. -1.
       -1    1    3    3    0  502 -0.26931305190E+03 -0.50616965230E+02  0.32943297980E+03  0.42850634219E+03  0.50400001928E-02 0.  1.
</event>
<event>
 5   0  0.9681801E-03  0.5994224E+03  0.7818609E-02  0.9906605E-01
       -2   -1    0    0    0  501  0.00000000000E+00  0.00000000000E+00  0.27370364994E+03  0.27370364995E+03  0.25500000920E-02 0. -1.
        2   -1    0    0  501    0  0.00000000000E+00  0.00000000000E+00 -0.32818999079E+03  0.32818999080E+03  0.25500000920E-02 0.  1.
    10030    2    1    2    0    0  0.00000000000E+00  0.00000000000E+00 -0.54486340848E+02  0.60189364075E+03  0.59942238316E+03 0.  0.
        4    1    3    3  502    0 -0.41131345168E+02  0.80416591375E+02 -0.31419497214E+03  0.32692309362E+03  0.12699999809E+01 0.  1.
       -4    1    3    3    0  502  0.41131345168E+02 -0.80416591375E+02  0.25970863129E+03  0.27497054713E+03  0.12699999809E+01 0. -1.
</event>
<event>
 5   0  0.3794375E-03  0.6001583E+03  0.7818609E-02  0.9905078E-01
       -4   -1    0    0    0  501  0.00000000000E+00  0.00000000000E+00  0.36086505504E+03  0.36086728980E+03  0.12699999809E+01 0. -1.
        4   -1    0    0  501    0  0.00000000000E+00  0.00000000000E+00 -0.24952774236E+03  0.24953097424E+03  0.12699999809E+01 0.  1.
    10030    2    1    2    0    0  0.00000000000E+00  0.00000000000E+00  0.11133731268E+03  0.61039826404E+03  0.60015834873E+03 0.  0.
        1    1    3    3  502    0 -0.50045610154E+02  0.25514565011E+03  0.20803678483E+03  0.33299124574E+03  0.50400001928E-02 0. -1.
       -1    1    3    3    0  502  0.50045610154E+02 -0.25514565011E+03 -0.96699472154E+02  0.27740701831E+03  0.50400001928E-02 0.  1.
</event>
<event>
 5   0  0.5653633E-03  0.6000301E+03  0.7818609E-02  0.9905344E-01
       -1   -1    0    0    0  501  0.00000000000E+00  0.00000000000E+00  0.23699919099E+03  0.23699919104E+03  0.50400001928E-02 0.  1.
        1   -1    0    0  501    0  0.00000000000E+00  0.00000000000E+00 -0.37978623010E+03  0.37978623014E+03  0.50400001928E-02 0. -1.
    10030    2    1    2    0    0  0.00000000000E+00  0.00000000000E+00 -0.14278703912E+03  0.61678542118E+03  0.60003009694E+03 0.  0.
        2    1    3    3  502    0 -0.96739771284E+02  0.18890412794E+03  0.14657894289E+03  0.25793165646E+03  0.25500000920E-02 0.  1.
       -2    1    3    3    0  502  0.96739771284E+02 -0.18890412794E+03 -0.28936598201E+03  0.35885376472E+03  0.25500000920E-02 0. -1.
</event>
<event>
 5   0  0.9571790E-03  0.6060352E+03  0.7818609E-02  0.9892963E-01
        2   -1    0    0  501    0  0.00000000000E+00  0.00000000000E+00  0.92593157418E+03  0.92593157418E+03  0.25500000920E-02 0. -1.
       -2   -1    0    0    0  501  0.00000000000E+00  0.00000000000E+00 -0.99164649214E+02  0.99164649247E+02  0.25500000920E-02 0.  1.
    10030    2    1    2    0    0  0.00000000000E+00  0.00000000000E+00  0.82676692496E+03  0.10250962234E+04  0.60603524573E+03 0.  0.
        5    1    3    3  502    0  0.18409962715E+03  0.20336378256E+03  0.19579258934E+03  0.33705537944E+03  0.46999998093E+01 0.  1.
       -5    1    3    3    0  502 -0.18409962715E+03 -0.20336378256E+03  0.63097433562E+03  0.68804084398E+03  0.46999998093E+01 0. -1.
</event>
<event>
 5   0  0.5503975E-03  0.5998785E+03  0.7818609E-02  0.9905658E-01
       -1   -1    0    0    0  501  0.00000000000E+00  0.00000000000E+00  0.13681512325E+03  0.13681512334E+03  0.50400001928E-02 0. -1.
        1   -1    0    0  501    0  0.00000000000E+00  0.00000000000E+00 -0.65755570657E+03  0.65755570659E+03  0.50400001928E-02 0.  1.
    10030    2    1    2    0    0  0.00000000000E+00  0.00000000000E+00 -0.52074058333E+03  0.79437082993E+03  0.59987853797E+03 0.  0.
        4    1    3    3  502    0 -0.59507964997E+02  0.23026712607E+03 -0.18368308131E+02  0.23854382174E+03  0.12699999809E+01 0. -1.
       -4    1    3    3    0  502  0.59507964997E+02 -0.23026712607E+03 -0.50237227519E+03  0.55582700819E+03  0.12699999809E+01 0.  1.
</event>
<event>
 5   0  0.9571790E-03  0.6001826E+03  0.7818609E-02  0.9905027E-01
       -2   -1    0    0    0  501  0.00000000000E+00  0.00000000000E+00  0.44341276619E+02  0.44341276692E+02  0.25500000920E-02 0.  1.
        2   -1    0    0  501    0  0.00000000000E+00  0.00000000000E+00 -0.20309472260E+04  0.20309472260E+04  0.25500000920E-02 0. -1.
    10030    2    1    2    0    0  0.00000000000E+00  0.00000000000E+00 -0.19866059494E+04  0.20752885027E+04  0.60018261495E+03 0.  0.
        5    1    3    3  502    0 -0.71858112069E+02  0.39808828191E+01 -0.20005345991E+04  0.20018342109E+04  0.46999998093E+01 0. -1.
       -5    1    3    3    0  502  0.71858112069E+02 -0.39808828191E+01  0.13928649747E+02  0.73454291775E+02  0.46999998093E+01 0.  1.
</event>
<event>
 5   0  0.5653633E-03  0.6002186E+03  0.7818609E-02  0.9904953E-01
       -1   -1    0    0    0  501  0.00000000000E+00  0.00000000000E+00  0.22885228945E+03  0.22885228951E+03  0.50400001928E-02 0. -1.
        1   -1    0    0  501    0  0.00000000000E+00  0.00000000000E+00 -0.39355335845E+03  0.39355335848E+03  0.50400001928E-02 0.  1.
    10030    2    1    2    0    0  0.00000000000E+00  0.00000000000E+00 -0.16470106900E+03  0.62240564799E+03  0.60021858395E+03 0.  0.
        2    1    3    3  502    0 -0.10748551052E+02  0.26802774553E+03 -0.22190299601E+03  0.34813121574E+03  0.25500000920E-02 0.  1.
       -2    1    3    3    0  502  0.10748551052E+02 -0.26802774553E+03  0.57201927015E+02  0.27427443225E+03  0.25500000920E-02 0. -1.
</event>
<event>
 5   0  0.9866317E-03  0.5994957E+03  0.7818609E-02  0.9906453E-01
       -2   -1    0    0    0  501  0.00000000000E+00  0.00000000000E+00  0.87947556299E+02  0.87947556336E+02  0.25500000920E-02 0.  1.
        2   -1    0    0  501    0  0.00000000000E+00  0.00000000000E+00 -0.10216174897E+04  0.10216174897E+04  0.25500000920E-02 0. -1.
    10030    2    1    2    0    0  0.00000000000E+00  0.00000000000E+00 -0.93366993337E+03  0.11095650460E+04  0.59949566040E+03 0.  0.
        1    1    3    3  502    0  0.24984930292E+03 -0.70759563917E+02 -0.18972181885E+03  0.32159906503E+03  0.50400001928E-02 0.  1.
       -1    1    3    3    0  502 -0.24984930292E+03  0.70759563917E+02 -0.74394811452E+03  0.78796598098E+03  0.50400001928E-02 0. -1.
</event>
<event>
 5   0  0.9530666E-03  0.5997235E+03  0.7818609E-02  0.9905980E-01
        2   -1    0    0  501    0  0.00000000000E+00  0.00000000000E+00  0.43230950920E+03  0.43230950921E+03  0.25500000920E-02 0.  1.
       -2   -1    0    0    0  501  0.00000000000E+00  0.00000000000E+00 -0.20799236271E+03  0.20799236273E+03  0.25500000920E-02 0. -1.
    10030    2    1    2    0    0  0.00000000000E+00  0.00000000000E+00  0.22431714649E+03  0.64030187194E+03  0.59972352380E+03 0.  0.
        2    1    3    3  502    0  0.16273818744E+03 -0.14568285251E+03 -0.10719295743E+03  0.24330544856E+03  0.25500000920E-02 0. -1.
       -2    1    3    3    0  502 -0.16273818744E+03  0.14568285251E+03  0.33151010392E+03  0.39699642338E+03  0.25500000920E-02 0.  1.
</event>
<event>
 5   0  0.5574736E-03  0.5987361E+03  0.7818609E-02  0.9908032E-01
       -1   -1    0    0    0  501  0.00000000000E+00  0.00000000000E+00  0.16983508823E+03  0.16983508830E+03  0.50400001928E-02 0. -1.
        1   -1    0    0  501    0  0.00000000000E+00  0.00000000000E+00 -0.52769554161E+03  0.52769554163E+03  0.50400001928E-02 0.  1.
    10030    2    1    2    0    0  0.00000000000E+00  0.00000000000E+00 -0.35786045338E+03  0.69753062993E+03  0.59873606506E+03 0.  0.
        5    1    3    3  502    0  0.14838758557E+03 -0.25761357067E+03 -0.21954701917E+03  0.36960331569E+03  0.46999998093E+01 0. -1.
       -5    1    3    3    0  502 -0.14838758557E+03  0.25761357067E+03 -0.13831343422E+03  0.32792731425E+03  0.46999998093E+01 0.  1.
</event>
<event>
 5   0  0.5503975E-03  0.5978135E+03  0.7818609E-02  0.9909953E-01
       -1   -1    0    0    0  501  0.00000000000E+00  0.00000000000E+00  0.33927494521E+03  0.33927494525E+03  0.50400001928E-02 0. -1.
        1   -1    0    0  501    0  0.00000000000E+00  0.00000000000E+00 -0.26334172905E+03  0.26334172909E+03  0.50400001928E-02 0.  1.
    10030    2    1    2    0    0  0.00000000000E+00  0.00000000000E+00  0.75933216163E+02  0.60261667434E+03  0.59781351848E+03 0.  0.
        4    1    3    3  502    0 -0.15358042872E+03  0.19184971375E+03 -0.13354855678E+03  0.27969642591E+03  0.12699999809E+01 0.  1.
       -4    1    3    3    0  502  0.15358042872E+03 -0.19184971375E+03  0.20948177294E+03  0.32292024843E+03  0.12699999809E+01 0. -1.
</event>
<event>
 5   0  0.5574736E-03  0.5831229E+03  0.7818609E-02  0.9941053E-01
       -1   -1    0    0    0  501  0.00000000000E+00  0.00000000000E+00  0.55475157256E+02  0.55475157485E+02  0.50400001928E-02 0.  1.
        1   -1    0    0  501    0  0.00000000000E+00  0.00000000000E+00 -0.15323629129E+04  0.15323629129E+04  0.50400001928E-02 0. -1.
    10030    2    1    2    0    0  0.00000000000E+00  0.00000000000E+00 -0.14768877556E+04  0.15878380704E+04  0.58312288158E+03 0.  0.
        5    1    3    3  502    0 -0.11988168082E+03  0.10581973205E+03 -0.74701044146E+02  0.17655528619E+03  0.46999998093E+01 0.  1.
       -5    1    3    3    0  502  0.11988168082E+03 -0.10581973205E+03 -0.14021867115E+04  0.14112827842E+04  0.46999998093E+01 0. -1.
</event>
<event>
 5   0  0.9681801E-03  0.6052128E+03  0.7818609E-02  0.9894650E-01
       -2   -1    0    0    0  501  0.00000000000E+00  0.00000000000E+00  0.27733221071E+03  0.27733221072E+03  0.25500000920E-02 0. -1.
        2   -1    0    0  501    0  0.00000000000E+00  0.00000000000E+00 -0.33018395166E+03  0.33018395167E+03  0.25500000920E-02 0.  1.
    10030    2    1    2    0    0  0.00000000000E+00  0.00000000000E+00 -0.52851740945E+02  0.60751616239E+03  0.60521283946E+03 0.  0.
        4    1    3    3  502    0  0.46097352914E+01  0.30158263728E+03 -0.50925634261E+02  0.30588947333E+03  0.12699999809E+01 0. -1.
       -4    1    3    3    0  502 -0.46097352914E+01 -0.30158263728E+03 -0.19261066834E+01  0.30162668906E+03  0.12699999809E+01 0.  1.
</event>
<event>
 5   0  0.9571790E-03  0.5992030E+03  0.7818609E-02  0.9907061E-01
        2   -1    0    0  501    0  0.00000000000E+00  0.00000000000E+00  0.85552854282E+03  0.85552854282E+03  0.25500000920E-02 0.  1.
       -2   -1    0    0    0  501  0.00000000000E+00  0.00000000000E+00 -0.10491883763E+03  0.10491883766E+03  0.25500000920E-02 0. -1.
    10030    2    1    2    0    0  0.00000000000E+00  0.00000000000E+00  0.75060970519E+03  0.96044738049E+03  0.59920300496E+03 0.  0.
        5    1    3    3  502    0  0.15439402353E+01 -0.22592555561E+03  0.60005777088E+02  0.23381087167E+03  0.46999998093E+01 0. -1.
       -5    1    3    3    0  502 -0.15439402353E+01  0.22592555561E+03  0.69060392810E+03  0.72663650881E+03  0.46999998093E+01 0.  1.
</event>
<event>
 5   0  0.5503975E-03  0.6010376E+03  0.7818609E-02  0.9903256E-01
       -1   -1    0    0    0  501  0.00000000000E+00  0.00000000000E+00  0.17461992796E+03  0.17461992804E+03  0.50400001928E-02 0.  1.
        1   -1    0    0  501    0  0.00000000000E+00  0.00000000000E+00 -0.51718932838E+03  0.51718932840E+03  0.50400001928E-02 0. -1.
    10030    2    1    2    0    0  0.00000000000E+00  0.00000000000E+00 -0.34256940041E+03  0.69180925644E+03  0.60103764707E+03 0.  0.
        4    1    3    3  502    0 -0.24964442684E+03 -0.15707070145E+03 -0.10499920686E+03  0.31308144538E+03  0.12699999809E+01 0.  1.
       -4    1    3    3    0  502  0.24964442684E+03  0.15707070145E+03 -0.23757019355E+03  0.37872781105E+03  0.12699999809E+01 0. -1.
</event>
<event>
 5   0  0.9681801E-03  0.5988172E+03  0.7818609E-02  0.9907863E-01
        2   -1    0    0  501    0  0.00000000000E+00  0.00000000000E+00  0.14759306793E+04  0.14759306793E+04  0.25500000920E-02 0.  1.
       -2   -1    0    0    0  501  0.00000000000E+00  0.00000000000E+00 -0.60738302878E+02  0.60738302932E+02  0.25500000920E-02 0. -1.
    10030    2    1    2    0    0  0.00000000000E+00  0.00000000000E+00  0.14151923764E+04  0.15366689823E+04  0.59881724982E+03 0.  0.
        4    1    3    3  502    0 -0.20366519707E+03  0.75020243577E+02  0.12368526829E+04  0.12557522532E+04  0.12699999809E+01 0.  1.
       -4    1    3    3    0  502  0.20366519707E+03 -0.75020243577E+02  0.17833969355E+03  0.28091672902E+03  0.12699999809E+01 0. -1.
</event>
<event>
 5   0  0.5574736E-03  0.5957434E+03  0.7818609E-02  0.9914277E-01
        1   -1    0    0  501    0  0.00000000000E+00  0.00000000000E+00  0.25445096575E+03  0.25445096580E+03  0.50400001928E-02 0.  1.
       -1   -1    0    0    0  501  0.00000000000E+00  0.00000000000E+00 -0.34870199439E+03  0.34870199443E+03  0.50400001928E-02 0. -1.
    10030    2    1    2    0    0  0.00000000000E+00  0.00000000000E+00 -0.94251028640E+02  0.60315296023E+03  0.59574343222E+03 0.  0.
        5    1    3    3  502    0  0.13054193990E+03  0.14976227272E+03  0.17752505406E+03  0.26647170811E+03  0.46999998093E+01 0.  1.
       -5    1    3    3    0  502 -0.13054193990E+03 -0.14976227272E+03 -0.27177608270E+03  0.33668125212E+03  0.46999998093E+01 0. -1.
</event>
<event>
 5   0  0.5491236E-03  0.6022043E+03  0.7818609E-02  0.9900843E-01
       -1   -1    0    0    0  501  0.00000000000E+00  0.00000000000E+00  0.12529284753E+03  0.12529284763E+03  0.50400001928E-02 0. -1.
        1   -1    0    0  501    0  0.00000000000E+00  0.00000000000E+00 -0.72360472220E+03  0.72360472222E+03  0.50400001928E-02 0.  1.
    10030    2    1    2    0    0  0.00000000000E+00  0.00000000000E+00 -0.59831187468E+03  0.84889756985E+03  0.60220427159E+03 0.  0.
        3    1    3    3  502    0 -0.21692122727E+03 -0.20174535166E+03 -0.37515270916E+03  0.47801210355E+03  0.10100000352E+00 0.  1.
       -3    1    3    3    0  502  0.21692122727E+03  0.20174535166E+03 -0.22315916552E+03  0.37088546630E+03  0.10100000352E+00 0. -1.
</event>
<event>
 5   0  0.5653633E-03  0.6015265E+03  0.7818609E-02  0.9902244E-01
        1   -1    0    0  501    0  0.00000000000E+00  0.00000000000E+00  0.63839921934E+03  0.63839921936E+03  0.50400001928E-02 0. -1.
       -1   -1    0    0    0  501  0.00000000000E+00  0.00000000000E+00 -0.14169585236E+03  0.14169585245E+03  0.50400001928E-02 0.  1.
    10030    2    1    2    0    0  0.00000000000E+00  0.00000000000E+00  0.49670336698E+03  0.78009507180E+03  0.60152646350E+03 0.  0.
        2    1    3    3  502    0  0.17903606563E+03  0.16876902915E+03  0.47268065921E+03  0.53288263585E+03  0.25500000920E-02 0. -1.
       -2    1    3    3    0  502 -0.17903606563E+03 -0.16876902915E+03  0.24022707772E+02  0.24721243595E+03  0.25500000920E-02 0.  1.
</event>
<event>
 5   0  0.5653633E-03  0.5951638E+03  0.7818609E-02  0.9915491E-01
       -1   -1    0    0    0  501  0.00000000000E+00  0.00000000000E+00  0.24306286530E+03  0.24306286535E+03  0.50400001928E-02 0. -1.
        1   -1    0    0  501    0  0.00000000000E+00  0.00000000000E+00 -0.36432960882E+03  0.36432960885E+03  0.50400001928E-02 0.  1.
    10030    2    1    2    0    0  0.00000000000E+00  0.00000000000E+00 -0.12126674352E+03  0.60739247421E+03  0.59516383848E+03 0.  0.
        2    1    3    3  502    0 -0.19657648637E+03 -0.73558698777E+02  0.15465554202E+03  0.26071350913E+03  0.25500000920E-02 0. -1.
       -2    1    3    3    0  502  0.19657648637E+03  0.73558698777E+02 -0.27592228554E+03  0.34667896507E+03  0.25500000920E-02 0.  1.
</event>
<event>
 5   0  0.5785798E-03  0.6006224E+03  0.7818609E-02  0.9904116E-01
        1   -1    0    0  501    0  0.00000000000E+00  0.00000000000E+00  0.17033851933E+04  0.17033851933E+04  0.50400001928E-02 0. -1.
       -1   -1    0    0    0  501  0.00000000000E+00  0.00000000000E+00 -0.52945640704E+02  0.52945640944E+02  0.50400001928E-02 0.  1.
    10030    2    1    2    0    0  0.00000000000E+00  0.00000000000E+00  0.16504395526E+04  0.17563308342E+04  0.60062241264E+03 0.  0.
        1    1    3    3  502    0  0.32656620766E+02 -0.70397927164E+02 -0.23118884686E+02  0.80974106252E+02  0.50400001928E-02 0.  1.
       -1    1    3    3    0  502 -0.32656620766E+02  0.70397927164E+02  0.16735584373E+04  0.16753567280E+04  0.50400001928E-02 0. -1.
</event>
<event>
 5   0  0.5574736E-03  0.6008817E+03  0.7818609E-02  0.9903578E-01
        1   -1    0    0  501    0  0.00000000000E+00  0.00000000000E+00  0.20247399376E+03  0.20247399382E+03  0.50400001928E-02 0. -1.
       -1   -1    0    0    0  501  0.00000000000E+00  0.00000000000E+00 -0.44580888531E+03  0.44580888534E+03  0.50400001928E-02 0.  1.
    10030    2    1    2    0    0  0.00000000000E+00  0.00000000000E+00 -0.24333489155E+03  0.64828287916E+03  0.60088170381E+03 0.  0.
        5    1    3    3  502    0  0.21482564440E+03  0.10060802309E+03  0.77183232358E+02  0.24950225080E+03  0.46999998093E+01 0. -1.
       -5    1    3    3    0  502 -0.21482564440E+03 -0.10060802309E+03 -0.32051812391E+03  0.39878062836E+03  0.46999998093E+01 0.  1.
</event>
<event>
 5   0  0.5653633E-03  0.5997509E+03  0.7818609E-02  0.9905923E-01
        1   -1    0    0  501    0  0.00000000000E+00  0.00000000000E+00  0.16182350641E+03  0.16182350649E+03  0.50400001928E-02 0. -1.
       -1   -1    0    0    0  501  0.00000000000E+00  0.00000000000E+00 -0.55569974993E+03  0.55569974995E+03  0.50400001928E-02 0.  1.
    10030    2    1    2    0    0  0.00000000000E+00  0.00000000000E+00 -0.39387624351E+03  0.71752325644E+03  0.59975088856E+03 0.  0.
        2    1    3    3  502    0 -0.20216345426E+03  0.16501887077E+03 -0.37367703496E+03  0.45578044760E+03  0.25500000920E-02 0.  1.
       -2    1    3    3    0  502  0.20216345426E+03 -0.16501887077E+03 -0.20199208554E+02  0.26174280885E+03  0.25500000920E-02 0. -1.
</event>
<event>
 5   0  0.9681801E-03  0.5998047E+03  0.7818609E-02  0.9905811E-01
       -2   -1    0    0    0  501  0.00000000000E+00  0.00000000000E+00  0.20620567740E+03  0.20620567741E+03  0.25500000920E-02 0. -1.
        2   -1    0    0  501    0  0.00000000000E+00  0.00000000000E+00 -0.43617336738E+03  0.43617336739E+03  0.25500000920E-02 0.  1.
    10030    2    1    2    0    0  0.00000000000E+00  0.00000000000E+00 -0.22996768998E+03  0.64237904480E+03  0.59980471719E+03 0.  0.
        4    1    3    3  502    0  0.14072164174E+03  0.14408074299E+03  0.12300034566E+03  0.23599266702E+03  0.12699999809E+01 0. -1.
       -4    1    3    3    0  502 -0.14072164174E+03 -0.14408074299E+03 -0.35296803565E+03  0.40638637778E+03  0.12699999809E+01 0.  1.
</event>
<event>
 5   0  0.9681801E-03  0.5999609E+03  0.7818609E-02  0.9905487E-01
        2   -1    0    0  501    0  0.00000000000E+00  0.00000000000E+00  0.29329641901E+03  0.29329641902E+03  0.25500000920E-02 0.  1.
       -2   -1    0    0    0  501  0.00000000000E+00  0.00000000000E+00 -0.30681677341E+03  0.30681677342E+03  0.25500000920E-02 0. -1.
    10030    2    1    2    0    0  0.00000000000E+00  0.00000000000E+00 -0.13520354395E+02  0.60011319244E+03  0.59996086853E+03 0.  0.
        4    1    3    3  502    0 -0.94730219685E+02 -0.25181868910E+03  0.12593918031E+03  0.29706692300E+03  0.12699999809E+01 0.  1.
       -4    1    3    3    0  502  0.94730219685E+02  0.25181868910E+03 -0.13945953471E+03  0.30304626944E+03  0.12699999809E+01 0. -1.
</event>
<event>
 5   0  0.9866317E-03  0.6011652E+03  0.7818609E-02  0.9902992E-01
       -2   -1    0    0    0  501  0.00000000000E+00  0.00000000000E+00  0.11594563275E+03  0.11594563278E+03  0.25500000920E-02 0. -1.
        2   -1    0    0  501    0  0.00000000000E+00  0.00000000000E+00 -0.77924368894E+03  0.77924368894E+03  0.25500000920E-02 0.  1.
    10030    2    1    2    0    0  0.00000000000E+00  0.00000000000E+00 -0.66329805619E+03  0.89518932172E+03  0.60116521055E+03 0.  0.
        1    1    3    3  502    0 -0.21923714905E+03 -0.17562292151E+03 -0.49092994951E+03  0.56561519908E+03  0.50400001928E-02 0.  1.
       -1    1    3    3    0  502  0.21923714905E+03  0.17562292151E+03 -0.17236810668E+03  0.32957412263E+03  0.50400001928E-02 0. -1.
</event>
<event>
 5   0  0.5503975E-03  0.5879915E+03  0.7818609E-02  0.9930638E-01
        1   -1    0    0  501    0  0.00000000000E+00  0.00000000000E+00  0.33838033198E+03  0.33838033202E+03  0.50400001928E-02 0.  1.
       -1   -1    0    0    0  501  0.00000000000E+00  0.00000000000E+00 -0.25543298030E+03  0.25543298035E+03  0.50400001928E-02 0. -1.
    10030    2    1    2    0    0  0.00000000000E+00  0.00000000000E+00  0.82947351687E+02  0.59381331237E+03  0.58799148531E+03 0.  0.
        4    1    3    3  502    0  0.97786338873E+02  0.22397759387E+03 -0.12355713938E+03  0.27385417692E+03  0.12699999809E+01 0. -1.
       -4    1    3    3    0  502 -0.97786338873E+02 -0.22397759387E+03  0.20650449107E+03  0.31995913545E+03  0.12699999809E+01 0.  1.
</event>
<event>
 5   0  0.5503975E-03  0.5994441E+03  0.7818609E-02  0.9906560E-01
       -1   -1    0    0    0  501  0.00000000000E+00  0.00000000000E+00  0.24714037166E+03  0.24714037171E+03  0.50400001928E-02 0.  1.
        1   -1    0    0  501    0  0.00000000000E+00  0.00000000000E+00 -0.36349097000E+03  0.36349097004E+03  0.50400001928E-02 0. -1.
    10030    2    1    2    0    0  0.00000000000E+00  0.00000000000E+00 -0.11635059835E+03  0.61063134174E+03  0.59944405392E+03 0.  0.
        4    1    3    3  502    0 -0.18602331635E+03  0.16561486081E+03  0.11166582949E+03  0.27295389120E+03  0.12699999809E+01 0.  1.
       -4    1    3    3    0  502  0.18602331635E+03 -0.16561486081E+03 -0.22801642783E+03  0.33767745054E+03  0.12699999809E+01 0. -1.
</event>
<event>
 5   0  0.9571790E-03  0.5988323E+03  0.7818609E-02  0.9907832E-01
        2   -1    0    0  501    0  0.00000000000E+00  0.00000000000E+00  0.89373710485E+02  0.89373710522E+02  0.25500000920E-02 0. -1.
       -2   -1    0    0    0  501  0.00000000000E+00  0.00000000000E+00 -0.10030917794E+04  0.10030917794E+04  0.25500000920E-02 0.  1.
    10030    2    1    2    0    0  0.00000000000E+00  0.00000000000E+00 -0.91371806889E+03  0.10924654899E+04  0.59883231143E+03 0.  0.
        5    1    3    3  502    0 -0.25522253837E+03  0.20568637078E+01 -0.74232481692E+03  0.78499108186E+03  0.46999998093E+01 0.  1.
       -5    1    3    3    0  502  0.25522253837E+03 -0.20568637078E+01 -0.17139325197E+03  0.30747440804E+03  0.46999998093E+01 0. -1.
</event>
<event>
 5   0  0.5574736E-03  0.6001702E+03  0.7818609E-02  0.9905053E-01
        1   -1    0    0  501    0  0.00000000000E+00  0.00000000000E+00  0.10644507158E+04  0.10644507159E+04  0.50400001928E-02 0. -1.
       -1   -1    0    0    0  501  0.00000000000E+00  0.00000000000E+00 -0.84598628245E+02  0.84598628395E+02  0.50400001928E-02 0.  1.
    10030    2    1    2    0    0  0.00000000000E+00  0.00000000000E+00  0.97985208760E+03  0.11490493443E+04  0.60017021082E+03 0.  0.
        5    1    3    3  502    0 -0.62148001819E+02 -0.18465001012E+02  0.10508097121E+04  0.10528183468E+04  0.46999998093E+01 0. -1.
       -5    1    3    3    0  502  0.62148001819E+02  0.18465001012E+02 -0.70957624495E+02  0.96230997421E+02  0.46999998093E+01 0.  1.
</event>
<event>
 5   0  0.5574736E-03  0.5996014E+03  0.7818609E-02  0.9906233E-01
        1   -1    0    0  501    0  0.00000000000E+00  0.00000000000E+00  0.60141334002E+03  0.60141334004E+03  0.50400001928E-02 0.  1.
       -1   -1    0    0    0  501  0.00000000000E+00  0.00000000000E+00 -0.14944871536E+03  0.14944871545E+03  0.50400001928E-02 0. -1.
    10030    2    1    2    0    0  0.00000000000E+00  0.00000000000E+00  0.45196462466E+03  0.75086205549E+03  0.59960137127E+03 0.  0.
        5    1    3    3  502    0 -0.62401111526E+02  0.26741479650E+03  0.37653495941E+03  0.46605282722E+03  0.46999998093E+01 0.  1.
       -5    1    3    3    0  502  0.62401111526E+02 -0.26741479650E+03  0.75429665247E+02  0.28480922826E+03  0.46999998093E+01 0. -1.
</event>
<event>
 5   0  0.9530666E-03  0.5985379E+03  0.7818609E-02  0.9908444E-01
       -2   -1    0    0    0  501  0.00000000000E+00  0.00000000000E+00  0.16769102073E+03  0.16769102075E+03  0.25500000920E-02 0. -1.
        2   -1    0    0  501    0  0.00000000000E+00  0.00000000000E+00 -0.53408879590E+03  0.53408879591E+03  0.25500000920E-02 0.  1.
    10030    2    1    2    0    0  0.00000000000E+00  0.00000000000E+00 -0.36639777517E+03  0.70177981666E+03  0.59853786967E+03 0.  0.
        2    1    3    3  502    0 -0.28511145456E+03  0.68543687912E+02 -0.11309302294E+03  0.31428778296E+03  0.25500000920E-02 0. -1.
       -2    1    3    3    0  502  0.28511145456E+03 -0.68543687912E+02 -0.25330475222E+03  0.38749203370E+03  0.25500000920E-02 0.  1.
</event>
<event>
 5   0  0.5491236E-03  0.5996701E+03  0.7818609E-02  0.9906091E-01
       -1   -1    0    0    0  501  0.00000000000E+00  0.00000000000E+00  0.39165983569E+03  0.39165983572E+03  0.50400001928E-02 0. -1.
        1   -1    0    0  501    0  0.00000000000E+00  0.00000000000E+00 -0.22953863898E+03  0.22953863903E+03  0.50400001928E-02 0.  1.
    10030    2    1    2    0    0  0.00000000000E+00  0.00000000000E+00  0.16212119671E+03  0.62119847476E+03  0.59967012817E+03 0.  0.
        3    1    3    3  502    0  0.28534536149E+03 -0.80413814017E+01  0.17608386648E+03  0.33539853514E+03  0.10100000352E+00 0. -1.
       -3    1    3    3    0  502 -0.28534536149E+03  0.80413814017E+01 -0.13962669769E+02  0.28579993962E+03  0.10100000352E+00 0.  1.
</event>
<event>
 5   0  0.9428629E-03  0.6003832E+03  0.7818609E-02  0.9904611E-01
        2   -1    0    0  501    0  0.00000000000E+00  0.00000000000E+00  0.20983780479E+04  0.20983780479E+04  0.25500000920E-02 0. -1.
       -2   -1    0    0    0  501  0.00000000000E+00  0.00000000000E+00 -0.42945069463E+02  0.42945069538E+02  0.25500000920E-02 0.  1.
    10030    2    1    2    0    0  0.00000000000E+00  0.00000000000E+00  0.20554329784E+04  0.21413231174E+04  0.60038318133E+03 0.  0.
        3    1    3    3  502    0 -0.25844045033E+03 -0.15269021507E+03  0.10385420031E+04  0.10810528528E+04  0.10100000352E+00 0.  1.
       -3    1    3    3    0  502  0.25844045033E+03  0.15269021507E+03  0.10168909753E+04  0.10602702646E+04  0.10100000352E+00 0. -1.
</event>
<event>
 5   0  0.5574736E-03  0.6004307E+03  0.7818609E-02  0.9904513E-01
       -1   -1    0    0    0  501  0.00000000000E+00  0.00000000000E+00  0.14368562752E+04  0.14368562752E+04  0.50400001928E-02 0. -1.
        1   -1    0    0  501    0  0.00000000000E+00  0.00000000000E+00 -0.62726709316E+02  0.62726709519E+02  0.50400001928E-02 0.  1.
    10030    2    1    2    0    0  0.00000000000E+00  0.00000000000E+00  0.13741295659E+04  0.14995829847E+04  0.60043073226E+03 0.  0.
        5    1    3    3  502    0 -0.19783963745E+03  0.19289425234E+03  0.39411544230E+03  0.48134996270E+03  0.46999998093E+01 0. -1.
       -5    1    3    3    0  502  0.19783963745E+03 -0.19289425234E+03  0.98001412357E+03  0.10182330220E+04  0.46999998093E+01 0.  1.
</event>
<event>
 5   0  0.9681801E-03  0.5996053E+03  0.7818609E-02  0.9906225E-01
       -2   -1    0    0    0  501  0.00000000000E+00  0.00000000000E+00  0.49309625218E+02  0.49309625284E+02  0.25500000920E-02 0.  1.
        2   -1    0    0  501    0  0.00000000000E+00  0.00000000000E+00 -0.18228006602E+04  0.18228006602E+04  0.25500000920E-02 0. -1.
    10030    2    1    2    0    0  0.00000000000E+00  0.00000000000E+00 -0.17734910350E+04  0.18721102855E+04  0.59960526170E+03 0.  0.
        4    1    3    3  502    0  0.29624043758E+03 -0.46058535717E+02 -0.88528441726E+03  0.93467101053E+03  0.12699999809E+01 0.  1.
       -4    1    3    3    0  502 -0.29624043758E+03  0.46058535717E+02 -0.88820661772E+03  0.93743927495E+03  0.12699999809E+01 0. -1.
</event>
<event>
 5   0  0.9681801E-03  0.5982565E+03  0.7818609E-02  0.9909030E-01
       -2   -1    0    0    0  501  0.00000000000E+00  0.00000000000E+00  0.44945199922E+02  0.44945199995E+02  0.25500000920E-02 0.  1.
        2   -1    0    0  501    0  0.00000000000E+00  0.00000000000E+00 -0.19908180841E+04  0.19908180841E+04  0.25500000920E-02 0. -1.
    10030    2    1    2    0    0  0.00000000000E+00  0.00000000000E+00 -0.19458728842E+04  0.20357632841E+04  0.59825652316E+03 0.  0.
        4    1    3    3  502    0  0.88340543456E+02 -0.27586073769E+03 -0.12269639129E+04  0.12606923712E+04  0.12699999809E+01 0. -1.
       -4    1    3    3    0  502 -0.88340543456E+02  0.27586073769E+03 -0.71890897130E+03  0.77507091297E+03  0.12699999809E+01 0.  1.
</event>
<event>
 5   0  0.5653633E-03  0.6017863E+03  0.7818609E-02  0.9901707E-01
       -1   -1    0    0    0  501  0.00000000000E+00  0.00000000000E+00  0.50233420080E+03  0.50233420082E+03  0.50400001928E-02 0. -1.
        1   -1    0    0  501    0  0.00000000000E+00  0.00000000000E+00 -0.18023196291E+03  0.18023196298E+03  0.50400001928E-02 0.  1.
    10030    2    1    2    0    0  0.00000000000E+00  0.00000000000E+00  0.32210223788E+03  0.68256616381E+03  0.60178627130E+03 0.  0.
        2    1    3    3  502    0 -0.22803581416E+02  0.20416134417E+03  0.41041441995E+03  0.45895735520E+03  0.25500000920E-02 0. -1.
       -2    1    3    3    0  502  0.22803581416E+02 -0.20416134417E+03 -0.88312182065E+02  0.22360880861E+03  0.25500000920E-02 0.  1.
</event>
<event>
 5   0  0.9866317E-03  0.5976220E+03  0.7818609E-02  0.9910352E-01
       -2   -1    0    0    0  501  0.00000000000E+00  0.00000000000E+00  0.10434695681E+03  0.10434695684E+03  0.25500000920E-02 0. -1.
        2   -1    0    0  501    0  0.00000000000E+00  0.00000000000E+00 -0.85568396734E+03  0.85568396734E+03  0.25500000920E-02 0.  1.
    10030    2    1    2    0    0  0.00000000000E+00  0.00000000000E+00 -0.75133701053E+03  0.96003092418E+03  0.59762201431E+03 0.  0.
        1    1    3    3  502    0  0.10983626233E+03 -0.26535057430E+03 -0.24307245841E+03  0.37624347418E+03  0.50400001928E-02 0. -1.
       -1    1    3    3    0  502 -0.10983626233E+03  0.26535057430E+03 -0.50826455212E+03  0.58378745000E+03  0.50400001928E-02 0.  1.
</event>
<event>
 5   0  0.5785798E-03  0.6006014E+03  0.7818609E-02  0.9904159E-01
        1   -1    0    0  501    0  0.00000000000E+00  0.00000000000E+00  0.22442504941E+03  0.22442504947E+03  0.50400001928E-02 0. -1.
       -1   -1    0    0    0  501  0.00000000000E+00  0.00000000000E+00 -0.40182913163E+03  0.40182913166E+03  0.50400001928E-02 0.  1.
    10030    2    1    2    0    0  0.00000000000E+00  0.00000000000E+00 -0.17740408222E+03  0.62625418113E+03  0.60060144105E+03 0.  0.
        1    1    3    3  502    0 -0.79637041142E+02  0.56050977341E+02 -0.38490698088E+03  0.39703545729E+03  0.50400001928E-02 0.  1.
       -1    1    3    3    0  502  0.79637041142E+02 -0.56050977341E+02  0.20750289866E+03  0.22921872385E+03  0.50400001928E-02 0. -1.
</event>
<event>
 5   0  0.5574736E-03  0.5990618E+03  0.7818609E-02  0.9907354E-01
       -1   -1    0    0    0  501  0.00000000000E+00  0.00000000000E+00  0.40446595623E+03  0.40446595626E+03  0.50400001928E-02 0.  1.
        1   -1    0    0  501    0  0.00000000000E+00  0.00000000000E+00 -0.22182031895E+03  0.22182031900E+03  0.50400001928E-02 0. -1.
    10030    2    1    2    0    0  0.00000000000E+00  0.00000000000E+00  0.18264563728E+03  0.62628627526E+03  0.59906182466E+03 0.  0.
        5    1    3    3  502    0  0.69106889518E+02 -0.15193452154E+03 -0.16864812511E+03  0.23732707624E+03  0.46999998093E+01 0. -1.
       -5    1    3    3    0  502 -0.69106889518E+02  0.15193452154E+03  0.35129376239E+03  0.38895919902E+03  0.46999998093E+01 0.  1.
</event>
<event>
 5   0  0.9866317E-03  0.5973624E+03  0.7818609E-02  0.9910893E-01
       -2   -1    0    0    0  501  0.00000000000E+00  0.00000000000E+00  0.19901429065E+03  0.19901429067E+03  0.25500000920E-02 0.  1.
        2   -1    0    0  501    0  0.00000000000E+00  0.00000000000E+00 -0.44826153277E+03  0.44826153278E+03  0.25500000920E-02 0. -1.
    10030    2    1    2    0    0  0.00000000000E+00  0.00000000000E+00 -0.24924724212E+03  0.64727582345E+03  0.59736237236E+03 0.  0.
        1    1    3    3  502    0  0.53939191522E+02 -0.22108479057E+03  0.84989321717E+02  0.24292201595E+03  0.50400001928E-02 0.  1.
       -1    1    3    3    0  502 -0.53939191522E+02  0.22108479057E+03 -0.33423656384E+03  0.40435380749E+03  0.50400001928E-02 0. -1.
</event>
<event>
 5   0  0.5574736E-03  0.5944609E+03  0.7818609E-02  0.9916965E-01
       -1   -1    0    0    0  501  0.00000000000E+00  0.00000000000E+00  0.13069607541E+03  0.13069607551E+03  0.50400001928E-02 0.  1.
        1   -1    0    0  501    0  0.00000000000E+00  0.00000000000E+00 -0.67596475050E+03  0.67596475052E+03  0.50400001928E-02 0. -1.
    10030    2    1    2    0    0  0.00000000000E+00  0.00000000000E+00 -0.54526867509E+03  0.80666082603E+03  0.59446089881E+03 0.  0.
        5    1    3    3  502    0 -0.24485614875E+03  0.95300577471E+02 -0.84182088928E+02  0.27594464615E+03  0.46999998093E+01 0. -1.
       -5    1    3    3    0  502  0.24485614875E+03 -0.95300577471E+02 -0.46108658616E+03  0.53071617987E+03  0.46999998093E+01 0.  1.
</event>
<event>
 5   0  0.5491236E-03  0.5990471E+03  0.7818609E-02  0.9907385E-01
        1   -1    0    0  501    0  0.00000000000E+00  0.00000000000E+00  0.49778047544E+03  0.49778047547E+03  0.50400001928E-02 0. -1.
       -1   -1    0    0    0  501  0.00000000000E+00  0.00000000000E+00 -0.18022873114E+03  0.18022873121E+03  0.50400001928E-02 0.  1.
    10030    2    1    2    0    0  0.00000000000E+00  0.00000000000E+00  0.31755174430E+03  0.67800920667E+03  0.59904705493E+03 0.  0.
        3    1    3    3  502    0 -0.18735552650E+03 -0.13640063138E+03  0.37354347660E+03  0.43959295338E+03  0.10100000352E+00 0. -1.
       -3    1    3    3    0  502  0.18735552650E+03  0.13640063138E+03 -0.55991732293E+02  0.23841625330E+03  0.10100000352E+00 0.  1.
</event>
<event>
 5   0  0.5503975E-03  0.5978556E+03  0.7818609E-02  0.9909865E-01
        1   -1    0    0  501    0  0.00000000000E+00  0.00000000000E+00  0.55526159972E+03  0.55526159974E+03  0.50400001928E-02 0.  1.
       -1   -1    0    0    0  501  0.00000000000E+00  0.00000000000E+00 -0.16092922825E+03  0.16092922833E+03  0.50400001928E-02 0. -1.
    10030    2    1    2    0    0  0.00000000000E+00  0.00000000000E+00  0.39433237147E+03  0.71619082807E+03  0.59785557037E+03 0.  0.
        4    1    3    3  502    0  0.21085272933E+03  0.19676253719E+03  0.10297911353E+03  0.30623631435E+03  0.12699999809E+01 0. -1.
       -4    1    3    3    0  502 -0.21085272933E+03 -0.19676253719E+03  0.29135325794E+03  0.40995451372E+03  0.12699999809E+01 0.  1.
</event>
<event>
 5   0  0.9571790E-03  0.5995350E+03  0.7818609E-02  0.9906371E-01
        2   -1    0    0  501    0  0.00000000000E+00  0.00000000000E+00  0.12870503540E+04  0.12870503540E+04  0.25500000920E-02 0. -1.
       -2   -1    0    0    0  501  0.00000000000E+00  0.00000000000E+00 -0.69818997203E+02  0.69818997249E+02  0.25500000920E-02 0.  1.
    10030    2    1    2    0    0  0.00000000000E+00  0.00000000000E+00  0.12172313568E+04  0.13568693513E+04  0.59953503684E+03 0.  0.
        5    1    3    3  502    0 -0.97137081221E+01 -0.17238374157E+03  0.54117308975E+02  0.18100078346E+03  0.46999998093E+01 0.  1.
       -5    1    3    3    0  502  0.97137081221E+01  0.17238374157E+03  0.11631140478E+04  0.11758685678E+04  0.46999998093E+01 0. -1.
</event>
<event>
 5   0  0.9866317E-03  0.6003640E+03  0.7818609E-02  0.9904651E-01
        2   -1    0    0  501    0  0.00000000000E+00  0.00000000000E+00  0.20078744407E+03  0.20078744409E+03  0.25500000920E-02 0. -1.
       -2   -1    0    0    0  501  0.00000000000E+00  0.00000000000E+00 -0.44877920736E+03  0.44877920737E+03  0.25500000920E-02 0.  1.
    10030    2    1    2    0    0  0.00000000000E+00  0.00000000000E+00 -0.24799176329E+03  0.64956665146E+03  0.60036398961E+03 0.  0.
        1    1    3    3  502    0 -0.43538039192E+02 -0.29270854649E+03 -0.69516738623E+02  0.30398426113E+03  0.50400001928E-02 0.  1.
       -1    1    3    3    0  502  0.43538039192E+02  0.29270854649E+03 -0.17847502467E+03  0.34558239032E+03  0.50400001928E-02 0. -1.
</event>
<event>
 5   0  0.5653633E-03  0.5996696E+03  0.7818609E-02  0.9906092E-01
        1   -1    0    0  501    0  0.00000000000E+00  0.00000000000E+00  0.16037040974E+04  0.16037040974E+04  0.50400001928E-02 0.  1.
       -1   -1    0    0    0  501  0.00000000000E+00  0.00000000000E+00 -0.56058297791E+02  0.56058298017E+02  0.50400001928E-02 0. -1.
    10030    2    1    2    0    0  0.00000000000E+00  0.00000000000E+00  0.15476457996E+04  0.16597623954E+04  0.59966964924E+03 0.  0.
        2    1    3    3  502    0  0.78874209100E+02  0.27357726437E+03  0.10339847178E+04  0.10724691404E+04  0.25500000920E-02 0.  1.
       -2    1    3    3    0  502 -0.78874209100E+02 -0.27357726437E+03  0.51366108182E+03  0.58729325505E+03  0.25500000920E-02 0. -1.
</event>
<event>
 5   0  0.5574736E-03  0.5997372E+03  0.7818609E-02  0.9905952E-01
       -1   -1    0    0    0  501  0.00000000000E+00  0.00000000000E+00  0.18312373150E+03  0.18312373157E+03  0.50400001928E-02 0. -1.
        1   -1    0    0  501    0  0.00000000000E+00  0.00000000000E+00 -0.49104048962E+03  0.49104048965E+03  0.50400001928E-02 0.  1.
    10030    2    1    2    0    0  0.00000000000E+00  0.00000000000E+00 -0.30791675812E+03  0.67416422122E+03  0.59973716513E+03 0.  0.
        5    1    3    3  502    0  0.14657865410E+03  0.13388260403E+03 -0.40654135899E+03  0.45244648310E+03  0.46999998093E+01 0.  1.
       -5    1    3    3    0  502 -0.14657865410E+03 -0.13388260403E+03  0.98624600875E+02  0.22171773812E+03  0.46999998093E+01 0. -1.
</event>
<event>
 5   0  0.9428629E-03  0.5993513E+03  0.7818609E-02  0.9906753E-01
        2   -1    0    0  501    0  0.00000000000E+00  0.00000000000E+00  0.19483680573E+04  0.19483680573E+04  0.25500000920E-02 0.  1.
       -2   -1    0    0    0  501  0.00000000000E+00  0.00000000000E+00 -0.46092680741E+02  0.46092680812E+02  0.25500000920E-02 0. -1.
    10030    2    1    2    0    0  0.00000000000E+00  0.00000000000E+00  0.19022753766E+04  0.19944607382E+04  0.59935133905E+03 0.  0.
        3    1    3    3  502    0 -0.20395102206E+03 -0.40821167815E+02  0.23322486761E+03  0.31249997794E+03  0.10100000352E+00 0. -1.
       -3    1    3    3    0  502  0.20395102206E+03  0.40821167815E+02  0.16690505090E+04  0.16819607602E+04  0.10100000352E+00 0.  1.
</event>
<event>
 5   0  0.9866317E-03  0.5993570E+03  0.7818609E-02  0.9906741E-01
       -2   -1    0    0    0  501  0.00000000000E+00  0.00000000000E+00  0.12607547311E+03  0.12607547313E+03  0.25500000920E-02 0. -1.
        2   -1    0    0  501    0  0.00000000000E+00  0.00000000000E+00 -0.71232885337E+03  0.71232885337E+03  0.25500000920E-02 0.  1.
    10030    2    1    2    0    0  0.00000000000E+00  0.00000000000E+00 -0.58625338026E+03  0.83840432650E+03  0.59935697946E+03 0.  0.
        1    1    3    3  502    0  0.29239054681E+03  0.42841823136E+02 -0.36278193296E+03  0.46790852159E+03  0.50400001928E-02 0. -1.
       -1    1    3    3    0  502 -0.29239054681E+03 -0.42841823136E+02 -0.22347144730E+03  0.37049580491E+03  0.50400001928E-02 0.  1.
</event>
<event>
 5   0  0.3794375E-03  0.5996179E+03  0.7818609E-02  0.9906199E-01
       -3   -1    0    0    0  501  0.00000000000E+00  0.00000000000E+00  0.93748820656E+02  0.93748875062E+02  0.10100000352E+00 0. -1.
        3   -1    0    0  501    0  0.00000000000E+00  0.00000000000E+00 -0.95878951678E+03  0.95878952210E+03  0.10100000352E+00 0.  1.
    10030    2    1    2    0    0  0.00000000000E+00  0.00000000000E+00 -0.86504069613E+03  0.10525383972E+04  0.59961793798E+03 0.  0.
        2    1    3    3  502    0  0.61101016001E+01  0.13323711661E+03  0.38802813153E+02  0.13890687852E+03  0.25500000920E-02 0. -1.
       -2    1    3    3    0  502 -0.61101016001E+01 -0.13323711661E+03 -0.90384350928E+03  0.91363151865E+03  0.25500000920E-02 0.  1.
</event>
<event>
 5   0  0.5574736E-03  0.5996693E+03  0.7818609E-02  0.9906092E-01
        1   -1    0    0  501    0  0.00000000000E+00  0.00000000000E+00  0.16705942206E+04  0.16705942206E+04  0.50400001928E-02 0. -1.
       -1   -1    0    0    0  501  0.00000000000E+00  0.00000000000E+00 -0.53813671625E+02  0.53813671861E+02  0.50400001928E-02 0.  1.
    10030    2    1    2    0    0  0.00000000000E+00  0.00000000000E+00  0.16167805490E+04  0.17244078925E+04  0.59966927224E+03 0.  0.
        5    1    3    3  502    0 -0.12813658930E+03  0.26567454626E+03  0.65415606951E+03  0.71759612828E+03  0.46999998093E+01 0. -1.
       -5    1    3    3    0  502  0.12813658930E+03 -0.26567454626E+03  0.96262447947E+03  0.10068117642E+04  0.46999998093E+01 0.  1.
</event>
<event>
 5   0  0.5653633E-03  0.6160665E+03  0.7818609E-02  0.9872623E-01
        1   -1    0    0  501    0  0.00000000000E+00  0.00000000000E+00  0.10107963863E+03  0.10107963875E+03  0.50400001928E-02 0.  1.
       -1   -1    0    0    0  501  0.00000000000E+00  0.00000000000E+00 -0.93871021839E+03  0.93871021840E+03  0.50400001928E-02 0. -1.
    10030    2    1    2    0    0  0.00000000000E+00  0.00000000000E+00 -0.83763057976E+03  0.10397898572E+04  0.61606652148E+03 0.  0.
        2    1    3    3  502    0 -0.13228537013E+03  0.26806144699E+03 -0.29332586216E+03  0.41880355769E+03  0.25500000920E-02 0.  1.
       -2    1    3    3    0  502  0.13228537013E+03 -0.26806144699E+03 -0.54430471760E+03  0.62098629947E+03  0.25500000920E-02 0. -1.
</event>
<event>
 5   0  0.5574736E-03  0.5988266E+03  0.7818609E-02  0.9907843E-01
        1   -1    0    0  501    0  0.00000000000E+00  0.00000000000E+00  0.50951548386E+03  0.50951548388E+03  0.50400001928E-02 0.  1.
       -1   -1    0    0    0  501  0.00000000000E+00  0.00000000000E+00 -0.17594818643E+03  0.17594818650E+03  0.50400001928E-02 0. -1.
    10030    2    1    2    0    0  0.00000000000E+00  0.00000000000E+00  0.33356729743E+03  0.68546367039E+03  0.59882660388E+03 0.  0.
        5    1    3    3  502    0 -0.12545267915E+03 -0.18533029945E+03 -0.60833331924E+02  0.23196654688E+03  0.46999998093E+01 0. -1.
       -5    1    3    3    0  502  0.12545267915E+03  0.18533029945E+03  0.39440062935E+03  0.45349712351E+03  0.46999998093E+01 0.  1.
</event>
<event>
 5   0  0.5653633E-03  0.6002121E+03  0.7818609E-02  0.9904966E-01
       -1   -1    0    0    0  501  0.00000000000E+00  0.00000000000E+00  0.47341255910E+03  0.47341255913E+03  0.50400001928E-02 0. -1.
        1   -1    0    0  501    0  0.00000000000E+00  0.00000000000E+00 -0.19024346430E+03  0.19024346437E+03  0.50400001928E-02 0.  1.
    10030    2    1    2    0    0  0.00000000000E+00  0.00000000000E+00  0.28316909480E+03  0.66365602349E+03  0.60021211356E+03 0.  0.
        2    1    3    3  502    0  0.46687336229E+02 -0.27940483261E+03  0.32031372211E+02  0.28508380639E+03  0.25500000920E-02 0.  1.
       -2    1    3    3    0  502 -0.46687336229E+02  0.27940483261E+03  0.25113772259E+03  0.37857221711E+03  0.25500000920E-02 0. -1.
</event>
<event>
 5   0  0.5574736E-03  0.6002150E+03  0.7818609E-02  0.9904960E-01
        1   -1    0    0  501    0  0.00000000000E+00  0.00000000000E+00  0.32589003989E+03  0.32589003993E+03  0.50400001928E-02 0. -1.
       -1   -1    0    0    0  501  0.00000000000E+00  0.00000000000E+00 -0.27636475319E+03  0.27636475324E+03  0.50400001928E-02 0.  1.
    10030    2    1    2    0    0  0.00000000000E+00  0.00000000000E+00  0.49525286701E+02  0.60225479317E+03  0.60021502970E+03 0.  0.
        5    1    3    3  502    0 -0.14461586149E+02 -0.28250034039E+03  0.12523710147E+03  0.30938972409E+03  0.46999998093E+01 0. -1.
       -5    1    3    3    0  502  0.14461586149E+02  0.28250034039E+03 -0.75711814768E+02  0.29286506908E+03  0.46999998093E+01 0.  1.
</event>
<event>
 5   0  0.3794375E-03  0.5994117E+03  0.7818609E-02  0.9906627E-01
        4   -1    0    0  501    0  0.00000000000E+00  0.00000000000E+00  0.50770648203E+03  0.50770807045E+03  0.12699999809E+01 0.  1.
       -4   -1    0    0    0  501  0.00000000000E+00  0.00000000000E+00 -0.17691620138E+03  0.17692075969E+03  0.12699999809E+01 0. -1.
    10030    2    1    2    0    0  0.00000000000E+00  0.00000000000E+00  0.33079028065E+03  0.68462883014E+03  0.59941173269E+03 0.  0.
        3    1    3    3  502    0  0.79775600623E+02 -0.10425193840E+03 -0.14233588434E+03  0.19362883898E+03  0.10100000352E+00 0. -1.
       -3    1    3    3    0  502 -0.79775600623E+02  0.10425193840E+03  0.47312616499E+03  0.49099999116E+03  0.10100000352E+00 0.  1.
</event>
<event>
 5   0  0.9428629E-03  0.5995609E+03  0.7818609E-02  0.9906317E-01
       -2   -1    0    0    0  501  0.00000000000E+00  0.00000000000E+00  0.78595705282E+02  0.78595705323E+02  0.25500000920E-02 0. -1.
        2   -1    0    0  501    0  0.00000000000E+00  0.00000000000E+00 -0.11434253009E+04  0.11434253009E+04  0.25500000920E-02 0.  1.
    10030    2    1    2    0    0  0.00000000000E+00  0.00000000000E+00 -0.10648295956E+04  0.12220210062E+04  0.59956089929E+03 0.  0.
        3    1    3    3  502    0  0.11932793261E+03  0.23432107196E+03 -0.82582111224E+03  0.86667527937E+03  0.10100000352E+00 0.  1.
       -3    1    3    3    0  502 -0.11932793261E+03 -0.23432107196E+03 -0.23900848339E+03  0.35534572686E+03  0.10100000352E+00 0. -1.
</event>
<event>
 5   0  0.9530666E-03  0.5997378E+03  0.7818609E-02  0.9905950E-01
        2   -1    0    0  501    0  0.00000000000E+00  0.00000000000E+00  0.87321633172E+03  0.87321633173E+03  0.25500000920E-02 0.  1.
       -2   -1    0    0    0  501  0.00000000000E+00  0.00000000000E+00 -0.10297716922E+03  0.10297716925E+03  0.25500000920E-02 0. -1.
    10030    2    1    2    0    0  0.00000000000E+00  0.00000000000E+00  0.77023916250E+03  0.97619350098E+03  0.59973776261E+03 0.  0.
        2    1    3    3  502    0 -0.77260461269E+02 -0.20222104421E+03  0.72287751614E+03  0.75459554262E+03  0.25500000920E-02 0.  1.
       -2    1    3    3    0  502  0.77260461269E+02  0.20222104421E+03  0.47361646362E+02  0.22159795836E+03  0.25500000920E-02 0. -1.
</event>
<event>
 5   0  0.9866317E-03  0.5999546E+03  0.7818609E-02  0.9905500E-01
        2   -1    0    0  501    0  0.00000000000E+00  0.00000000000E+00  0.19941985970E+04  0.19941985970E+04  0.25500000920E-02 0.  1.
       -2   -1    0    0    0  501  0.00000000000E+00  0.00000000000E+00 -0.45124086067E+02  0.45124086139E+02  0.25500000920E-02 0. -1.
    10030    2    1    2    0    0  0.00000000000E+00  0.00000000000E+00  0.19490745109E+04  0.20393226831E+04  0.59995462896E+03 0.  0.
        1    1    3    3  502    0  0.77786215084E+02  0.14553977513E+03  0.18260434085E+04  0.18334849470E+04  0.50400001928E-02 0.  1.
       -1    1    3    3    0  502 -0.77786215084E+02 -0.14553977513E+03  0.12303110247E+03  0.20583773610E+03  0.50400001928E-02 0. -1.
</event>
<event>
 5   0  0.5653633E-03  0.5995311E+03  0.7818609E-02  0.9906379E-01
        1   -1    0    0  501    0  0.00000000000E+00  0.00000000000E+00  0.64145445922E+03  0.64145445924E+03  0.50400001928E-02 0.  1.
       -1   -1    0    0    0  501  0.00000000000E+00  0.00000000000E+00 -0.14008693566E+03  0.14008693575E+03  0.50400001928E-02 0. -1.
    10030    2    1    2    0    0  0.00000000000E+00  0.00000000000E+00  0.50136752356E+03  0.78154139499E+03  0.59953111546E+03 0.  0.
        2    1    3    3  502    0 -0.20021937941E+03 -0.20600149426E+03  0.13903869203E+03  0.31914913977E+03  0.25500000920E-02 0. -1.
       -2    1    3    3    0  502  0.20021937941E+03  0.20600149426E+03  0.36232883153E+03  0.46239225522E+03  0.25500000920E-02 0.  1.
</event>
<event>
 5   0  0.9681801E-03  0.5998513E+03  0.7818609E-02  0.9905715E-01
       -2   -1    0    0    0  501  0.00000000000E+00  0.00000000000E+00  0.99941452093E+02  0.99941452125E+02  0.25500000920E-02 0.  1.
        2   -1    0    0  501    0  0.00000000000E+00  0.00000000000E+00 -0.90008090393E+03  0.90008090394E+03  0.25500000920E-02 0. -1.
    10030    2    1    2    0    0  0.00000000000E+00  0.00000000000E+00 -0.80013945184E+03  0.10000223561E+04  0.59985129010E+03 0.  0.
        4    1    3    3  502    0 -0.25010289879E+03  0.47393646509E+02 -0.13565337788E+03  0.28844595602E+03  0.12699999809E+01 0.  1.
       -4    1    3    3    0  502  0.25010289879E+03 -0.47393646509E+02 -0.66448607396E+03  0.71157640004E+03  0.12699999809E+01 0. -1.
</event>
<event>
 5   0  0.5503975E-03  0.6000064E+03  0.7818609E-02  0.9905393E-01
       -1   -1    0    0    0  501  0.00000000000E+00  0.00000000000E+00  0.82685957496E+02  0.82685957649E+02  0.50400001928E-02 0.  1.
        1   -1    0    0  501    0  0.00000000000E+00  0.00000000000E+00 -0.10884787292E+04  0.10884787292E+04  0.50400001928E-02 0. -1.
    10030    2    1    2    0    0  0.00000000000E+00  0.00000000000E+00 -0.10057927717E+04  0.11711646868E+04  0.60000635341E+03 0.  0.
        4    1    3    3  502    0 -0.20741629098E+03 -0.17048385207E+03 -0.24164488908E+03  0.36122033013E+03  0.12699999809E+01 0.  1.
       -4    1    3    3    0  502  0.20741629098E+03  0.17048385207E+03 -0.76414788262E+03  0.80994435672E+03  0.12699999809E+01 0. -1.
</event>
<event>
 5   0  0.5653633E-03  0.6002919E+03  0.7818609E-02  0.9904801E-01
        1   -1    0    0  501    0  0.00000000000E+00  0.00000000000E+00  0.51812916197E+03  0.51812916199E+03  0.50400001928E-02 0.  1.
       -1   -1    0    0    0  501  0.00000000000E+00  0.00000000000E+00 -0.17387090504E+03  0.17387090511E+03  0.50400001928E-02 0. -1.
    10030    2    1    2    0    0  0.00000000000E+00  0.00000000000E+00  0.34425825693E+03  0.69200006711E+03  0.60029188352E+03 0.  0.
        2    1    3    3  502    0 -0.69609439266E+02  0.23634149150E+03 -0.25479143931E+02  0.24769328094E+03  0.25500000920E-02 0. -1.
       -2    1    3    3    0  502  0.69609439266E+02 -0.23634149150E+03  0.36973740086E+03  0.44430678617E+03  0.25500000920E-02 0.  1.
</event>
<event>
 5   0  0.9428629E-03  0.6004578E+03  0.7818609E-02  0.9904457E-01
       -2   -1    0    0    0  501  0.00000000000E+00  0.00000000000E+00  0.12707949668E+03  0.12707949670E+03  0.25500000920E-02 0. -1.
        2   -1    0    0  501    0  0.00000000000E+00  0.00000000000E+00 -0.70929917852E+03  0.70929917853E+03  0.25500000920E-02 0.  1.
    10030    2    1    2    0    0  0.00000000000E+00  0.00000000000E+00 -0.58221968185E+03  0.83637867523E+03  0.60045776741E+03 0.  0.
        3    1    3    3  502    0  0.64768075812E+02 -0.19227544334E+03 -0.59935563923E+03  0.63276531371E+03  0.10100000352E+00 0.  1.
       -3    1    3    3    0  502 -0.64768075812E+02  0.19227544334E+03  0.17135957381E+02  0.20361336152E+03  0.10100000352E+00 0. -1.
</event>
<event>
 5   0  0.5491236E-03  0.6011785E+03  0.7818609E-02  0.9902964E-01
       -1   -1    0    0    0  501  0.00000000000E+00  0.00000000000E+00  0.33834866542E+03  0.33834866545E+03  0.50400001928E-02 0. -1.
        1   -1    0    0  501    0  0.00000000000E+00  0.00000000000E+00 -0.26704379207E+03  0.26704379211E+03  0.50400001928E-02 0.  1.
    10030    2    1    2    0    0  0.00000000000E+00  0.00000000000E+00  0.71304873349E+02  0.60539245757E+03  0.60117854479E+03 0.  0.
        3    1    3    3  502    0  0.27003864160E+03  0.49169285725E+02 -0.87743877189E+02  0.28816225430E+03  0.10100000352E+00 0.  1.
       -3    1    3    3    0  502 -0.27003864160E+03 -0.49169285725E+02  0.15904875054E+03  0.31723020327E+03  0.10100000352E+00 0. -1.
</event>
<event>
 5   0  0.9428629E-03  0.6001724E+03  0.7818609E-02  0.9905049E-01
       -2   -1    0    0    0  501  0.00000000000E+00  0.00000000000E+00  0.23039745245E+03  0.23039745246E+03  0.25500000920E-02 0. -1.
        2   -1    0    0  501    0  0.00000000000E+00  0.00000000000E+00 -0.39085379629E+03  0.39085379630E+03  0.25500000920E-02 0.  1.
    10030    2    1    2    0    0  0.00000000000E+00  0.00000000000E+00 -0.16045634384E+03  0.62125124877E+03  0.60017237175E+03 0.  0.
        3    1    3    3  502    0 -0.22113012261E+03 -0.47340422424E+02 -0.28441766841E+03  0.36336354664E+03  0.10100000352E+00 0.  1.
       -3    1    3    3    0  502  0.22113012261E+03  0.47340422424E+02  0.12396132456E+03  0.25788770213E+03  0.10100000352E+00 0. -1.
</event>
<event>
 5   0  0.3794375E-03  0.5997968E+03  0.7818609E-02  0.9905828E-01
       -3   -1    0    0    0  501  0.00000000000E+00  0.00000000000E+00  0.51986586810E+03  0.51986587791E+03  0.10100000352E+00 0. -1.
        3   -1    0    0  501    0  0.00000000000E+00  0.00000000000E+00 -0.17300433048E+03  0.17300435996E+03  0.10100000352E+00 0.  1.
    10030    2    1    2    0    0  0.00000000000E+00  0.00000000000E+00  0.34686153762E+03  0.69287023787E+03  0.59979683247E+03 0.  0.
        4    1    3    3  502    0  0.19731788602E+02 -0.16022084262E+03  0.46538939006E+03  0.49259411200E+03  0.12699999809E+01 0.  1.
       -4    1    3    3    0  502 -0.19731788602E+02  0.16022084262E+03 -0.11852785244E+03  0.20027612587E+03  0.12699999809E+01 0. -1.
</event>
<event>
 5   0  0.5503975E-03  0.5993125E+03  0.7818609E-02  0.9906833E-01
        1   -1    0    0  501    0  0.00000000000E+00  0.00000000000E+00  0.43473807918E+03  0.43473807921E+03  0.50400001928E-02 0.  1.
       -1   -1    0    0    0  501  0.00000000000E+00  0.00000000000E+00 -0.20654707202E+03  0.20654707208E+03  0.50400001928E-02 0. -1.
    10030    2    1    2    0    0  0.00000000000E+00  0.00000000000E+00  0.22819100716E+03  0.64128515129E+03  0.59931253075E+03 0.  0.
        4    1    3    3  502    0  0.12219981219E+03 -0.16038865834E+02 -0.17816741476E+03  0.21664551668E+03  0.12699999809E+01 0. -1.
       -4    1    3    3    0  502 -0.12219981219E+03  0.16038865834E+02  0.40635842192E+03  0.42463963461E+03  0.12699999809E+01 0.  1.
</event>
<event>
 5   0  0.5574736E-03  0.6000918E+03  0.7818609E-02  0.9905216E-01
       -1   -1    0    0    0  501  0.00000000000E+00  0.00000000000E+00  0.47538901486E+03  0.47538901489E+03  0.50400001928E-02 0.  1.
        1   -1    0    0  501    0  0.00000000000E+00  0.00000000000E+00 -0.18937657909E+03  0.18937657916E+03  0.50400001928E-02 0. -1.
    10030    2    1    2    0    0  0.00000000000E+00  0.00000000000E+00  0.28601243577E+03  0.66476559404E+03  0.60009181098E+03 0.  0.
        5    1    3    3  502    0  0.17757933309E+03 -0.21546511971E+03  0.21424301926E+02  0.28007271924E+03  0.46999998093E+01 0. -1.
       -5    1    3    3    0  502 -0.17757933309E+03  0.21546511971E+03  0.26458813384E+03  0.38469287480E+03  0.46999998093E+01 0.  1.
</event>
<event>
 5   0  0.9571790E-03  0.5998222E+03  0.7818609E-02  0.9905775E-01
       -2   -1    0    0    0  501  0.00000000000E+00  0.00000000000E+00  0.80498582805E+02  0.80498582846E+02  0.25500000920E-02 0. -1.
        2   -1    0    0  501    0  0.00000000000E+00  0.00000000000E+00 -0.11173697614E+04  0.11173697614E+04  0.25500000920E-02 0.  1.
    10030    2    1    2    0    0  0.00000000000E+00  0.00000000000E+00 -0.10368711786E+04  0.11978683443E+04  0.59982224796E+03 0.  0.
        5    1    3    3  502    0  0.21497146363E+03 -0.17488883216E+03 -0.74723174480E+03  0.79697942522E+03  0.46999998093E+01 0.  1.
       -5    1    3    3    0  502 -0.21497146363E+03  0.17488883216E+03 -0.28963943379E+03  0.40088891903E+03  0.46999998093E+01 0. -1.
</event>
<event>
 5   0  0.5785798E-03  0.5999552E+03  0.7818609E-02  0.9905499E-01
        1   -1    0    0  501    0  0.00000000000E+00  0.00000000000E+00  0.39438177193E+03  0.39438177197E+03  0.50400001928E-02 0.  1.
       -1   -1    0    0    0  501  0.00000000000E+00  0.00000000000E+00 -0.22817122737E+03  0.22817122743E+03  0.50400001928E-02 0. -1.
    10030    2    1    2    0    0  0.00000000000E+00  0.00000000000E+00  0.16621054456E+03  0.62255299940E+03  0.59995524161E+03 0.  0.
        1    1    3    3  502    0  0.24295919846E+03  0.93634100628E+02  0.23767935480E+03  0.35254502214E+03  0.50400001928E-02 0.  1.
       -1    1    3    3    0  502 -0.24295919846E+03 -0.93634100628E+02 -0.71468810237E+02  0.27000797725E+03  0.50400001928E-02 0. -1.
</event>
<event>
 5   0  0.9571790E-03  0.5940912E+03  0.7818609E-02  0.9917741E-01
        2   -1    0    0  501    0  0.00000000000E+00  0.00000000000E+00  0.29890809710E+03  0.29890809711E+03  0.25500000920E-02 0.  1.
       -2   -1    0    0    0  501  0.00000000000E+00  0.00000000000E+00 -0.29519474836E+03  0.29519474837E+03  0.25500000920E-02 0. -1.
    10030    2    1    2    0    0  0.00000000000E+00  0.00000000000E+00  0.37133487413E+01  0.59410284549E+03  0.59409124052E+03 0.  0.
        5    1    3    3  502    0 -0.13785181416E+02  0.12150142307E+03  0.27253036294E+03  0.29874322713E+03  0.46999998093E+01 0.  1.
       -5    1    3    3    0  502  0.13785181416E+02 -0.12150142307E+03 -0.26881701420E+03  0.29535961836E+03  0.46999998093E+01 0. -1.
</event>
<event>
 5   0  0.5653633E-03  0.6000618E+03  0.7818609E-02  0.9905278E-01
       -1   -1    0    0    0  501  0.00000000000E+00  0.00000000000E+00  0.16681366662E+03  0.16681366670E+03  0.50400001928E-02 0. -1.
        1   -1    0    0  501    0  0.00000000000E+00  0.00000000000E+00 -0.53963523945E+03  0.53963523947E+03  0.50400001928E-02 0.  1.
    10030    2    1    2    0    0  0.00000000000E+00  0.00000000000E+00 -0.37282157283E+03  0.70644890617E+03  0.60006177337E+03 0.  0.
        2    1    3    3  502    0 -0.18613346490E+03  0.99837045890E+02  0.64453416812E+02  0.22083329783E+03  0.25500000920E-02 0. -1.
       -2    1    3    3    0  502  0.18613346490E+03 -0.99837045890E+02 -0.43727498964E+03  0.48561560833E+03  0.25500000920E-02 0.  1.
</event>
<event>
 5   0  0.5491236E-03  0.5987568E+03  0.7818609E-02  0.9907989E-01
       -1   -1    0    0    0  501  0.00000000000E+00  0.00000000000E+00  0.50961746400E+03  0.50961746402E+03  0.50400001928E-02 0.  1.
        1   -1    0    0  501    0  0.00000000000E+00  0.00000000000E+00 -0.17587195603E+03  0.17587195610E+03  0.50400001928E-02 0. -1.
    10030    2    1    2    0    0  0.00000000000E+00  0.00000000000E+00  0.33374550797E+03  0.68548942012E+03  0.59875677951E+03 0.  0.
        3    1    3    3  502    0 -0.47826874045E+02 -0.29125100620E+03  0.22426242425E+03  0.37068612548E+03  0.10100000352E+00 0.  1.
       -3    1    3    3    0  502  0.47826874045E+02  0.29125100620E+03  0.10948308372E+03  0.31480329464E+03  0.10100000352E+00 0. -1.
</event>
<event>
 5   0  0.3794375E-03  0.5874810E+03  0.7818609E-02  0.9931725E-01
        3   -1    0    0  501    0  0.00000000000E+00  0.00000000000E+00  0.19836572975E+03  0.19836575546E+03  0.10100000352E+00 0.  1.
       -3   -1    0    0    0  501  0.00000000000E+00  0.00000000000E+00 -0.43497172344E+03  0.43497173517E+03  0.10100000352E+00 0. -1.
    10030    2    1    2    0    0  0.00000000000E+00  0.00000000000E+00 -0.23660599369E+03  0.63333749063E+03  0.58748104717E+03 0.  0.
        4    1    3    3  502    0  0.25997563542E+02  0.21670974253E+03 -0.33022505955E+03  0.39583985230E+03  0.12699999809E+01 0. -1.
       -4    1    3    3    0  502 -0.25997563542E+02 -0.21670974253E+03  0.93619065858E+02  0.23749763833E+03  0.12699999809E+01 0.  1.
</event>
<event>
 5   0  0.5491236E-03  0.5964433E+03  0.7818609E-02  0.9912813E-01
        1   -1    0    0  501    0  0.00000000000E+00  0.00000000000E+00  0.20176137250E+04  0.20176137250E+04  0.50400001928E-02 0. -1.
       -1   -1    0    0    0  501  0.00000000000E+00  0.00000000000E+00 -0.44079867922E+02  0.44079868210E+02  0.50400001928E-02 0.  1.
    10030    2    1    2    0    0  0.00000000000E+00  0.00000000000E+00  0.19735338571E+04  0.20616935932E+04  0.59644328085E+03 0.  0.
        3    1    3    3  502    0  0.27555395856E+03  0.45820778466E+02  0.62577304882E+03  0.68528931602E+03  0.10100000352E+00 0. -1.
       -3    1    3    3    0  502 -0.27555395856E+03 -0.45820778466E+02  0.13477608083E+04  0.13764042772E+04  0.10100000352E+00 0.  1.
</event>
<event>
 5   0  0.9530666E-03  0.5997069E+03  0.7818609E-02  0.9906014E-01
        2   -1    0    0  501    0  0.00000000000E+00  0.00000000000E+00  0.15891138434E+04  0.15891138434E+04  0.25500000920E-02 0.  1.
       -2   -1    0    0    0  501  0.00000000000E+00  0.00000000000E+00 -0.56580010284E+02  0.56580010341E+02  0.25500000920E-02 0. -1.
    10030    2    1    2    0    0  0.00000000000E+00  0.00000000000E+00  0.15325338331E+04  0.16456938538E+04  0.59970685389E+03 0.  0.
        2    1    3    3  502    0 -0.27258264697E+03 -0.69289763549E+01  0.42393022470E+03  0.50404974513E+03  0.25500000920E-02 0. -1.
       -2    1    3    3    0  502  0.27258264697E+03  0.69289763549E+01  0.11086036084E+04  0.11416441086E+04  0.25500000920E-02 0.  1.
</event>
<event>
 5   0  0.9866317E-03  0.6007715E+03  0.7818609E-02  0.9903807E-01
        2   -1    0    0  501    0  0.00000000000E+00  0.00000000000E+00  0.20346884990E+03  0.20346884992E+03  0.25500000920E-02 0. -1.
       -2   -1    0    0    0  501  0.00000000000E+00  0.00000000000E+00 -0.44346645893E+03  0.44346645893E+03  0.25500000920E-02 0.  1.
    10030    2    1    2    0    0  0.00000000000E+00  0.00000000000E+00 -0.23999760902E+03  0.64693530885E+03  0.60077153853E+03 0.  0.
        1    1    3    3  502    0  0.55783722288E+02 -0.10087910179E+03  0.17870214899E+03  0.21265670676E+03  0.50400001928E-02 0. -1.
       -1    1    3    3    0  502 -0.55783722288E+02  0.10087910179E+03 -0.41869975801E+03  0.43427860209E+03  0.50400001928E-02 0.  1.
</event>
<event>
 5   0  0.5503975E-03  0.5996602E+03  0.7818609E-02  0.9906111E-01
       -1   -1    0    0    0  501  0.00000000000E+00  0.00000000000E+00  0.36409814811E+03  0.36409814814E+03  0.50400001928E-02 0.  1.
        1   -1    0    0  501    0  0.00000000000E+00  0.00000000000E+00 -0.24690618191E+03  0.24690618197E+03  0.50400001928E-02 0. -1.
    10030    2    1    2    0    0  0.00000000000E+00  0.00000000000E+00  0.11719196619E+03  0.61100433011E+03  0.59966018250E+03 0.  0.
        4    1    3    3  502    0  0.11799878849E+03 -0.49351835686E+02  0.33490336089E+03  0.35849852413E+03  0.12699999809E+01 0.  1.
       -4    1    3    3    0  502 -0.11799878849E+03  0.49351835686E+02 -0.21771139470E+03  0.25250580598E+03  0.12699999809E+01 0. -1.
</event>
<event>
 5   0  0.5491236E-03  0.6004892E+03  0.7818609E-02  0.9904392E-01
       -1   -1    0    0    0  501  0.00000000000E+00  0.00000000000E+00  0.10613098154E+03  0.10613098166E+03  0.50400001928E-02 0. -1.
        1   -1    0    0  501    0  0.00000000000E+00  0.00000000000E+00 -0.84939201283E+03  0.84939201284E+03  0.50400001928E-02 0.  1.
    10030    2    1    2    0    0  0.00000000000E+00  0.00000000000E+00 -0.74326103129E+03  0.95552299450E+03  0.60048916092E+03 0.  0.
        3    1    3    3  502    0 -0.92860019614E+02  0.14698567824E+03  0.17879239808E+02  0.17477828889E+03  0.10100000352E+00 0. -1.
       -3    1    3    3    0  502  0.92860019614E+02 -0.14698567824E+03 -0.76114027110E+03  0.78074470561E+03  0.10100000352E+00 0.  1.
</event>
<event>
 5   0  0.5785798E-03  0.6007224E+03  0.7818609E-02  0.9903908E-01
       -1   -1    0    0    0  501  0.00000000000E+00  0.00000000000E+00  0.33708357809E+03  0.33708357813E+03  0.50400001928E-02 0. -1.
        1   -1    0    0  501    0  0.00000000000E+00  0.00000000000E+00 -0.26763941245E+03  0.26763941250E+03  0.50400001928E-02 0.  1.
    10030    2    1    2    0    0  0.00000000000E+00  0.00000000000E+00  0.69444165641E+02  0.60472299063E+03  0.60072240116E+03 0.  0.
        1    1    3    3  502    0 -0.82863450569E+02  0.12131076125E+03  0.29844807583E+03  0.33264681905E+03  0.50400001928E-02 0. -1.
       -1    1    3    3    0  502  0.82863450569E+02 -0.12131076125E+03 -0.22900391019E+03  0.27207617158E+03  0.50400001928E-02 0.  1.
</event>
<event>
 5   0  0.5653633E-03  0.6006549E+03  0.7818609E-02  0.9904048E-01
       -1   -1    0    0    0  501  0.00000000000E+00  0.00000000000E+00  0.16652461130E+03  0.16652461138E+03  0.50400001928E-02 0. -1.
        1   -1    0    0  501    0  0.00000000000E+00  0.00000000000E+00 -0.54164110914E+03  0.54164110916E+03  0.50400001928E-02 0.  1.
    10030    2    1    2    0    0  0.00000000000E+00  0.00000000000E+00 -0.37511649783E+03  0.70816572054E+03  0.60065489327E+03 0.  0.
        2    1    3    3  502    0  0.12268854369E+03 -0.27064487633E+03 -0.23888759653E+03  0.38127209657E+03  0.25500000920E-02 0.  1.
       -2    1    3    3    0  502 -0.12268854369E+03  0.27064487633E+03 -0.13622890130E+03  0.32689362397E+03  0.25500000920E-02 0. -1.
</event>
<event>
 5   0  0.9866317E-03  0.5988699E+03  0.7818609E-02  0.9907753E-01
        2   -1    0    0  501    0  0.00000000000E+00  0.00000000000E+00  0.18943075257E+04  0.18943075257E+04  0.25500000920E-02 0.  1.
       -2   -1    0    0    0  501  0.00000000000E+00  0.00000000000E+00 -0.47331962664E+02  0.47331962733E+02  0.25500000920E-02 0. -1.
    10030    2    1    2    0    0  0.00000000000E+00  0.00000000000E+00  0.18469755630E+04  0.19416394884E+04  0.59886991291E+03 0.  0.
        1    1    3    3  502    0  0.10861905917E+03 -0.22197556955E+03  0.14716933970E+04  0.14922977948E+04  0.50400001928E-02 0.  1.
       -1    1    3    3    0  502 -0.10861905917E+03  0.22197556955E+03  0.37528216602E+03  0.44934169364E+03  0.50400001928E-02 0. -1.
</event>
<event>
 5   0  0.9428629E-03  0.6010580E+03  0.7818609E-02  0.9903214E-01
       -2   -1    0    0    0  501  0.00000000000E+00  0.00000000000E+00  0.79773303357E+03  0.79773303358E+03  0.25500000920E-02 0. -1.
        2   -1    0    0  501    0  0.00000000000E+00  0.00000000000E+00 -0.11321791634E+03  0.11321791637E+03  0.25500000920E-02 0.  1.
    10030    2    1    2    0    0  0.00000000000E+00  0.00000000000E+00  0.68451511723E+03  0.91095094994E+03  0.60105797347E+03 0.  0.
        3    1    3    3  502    0 -0.77998824552E+02 -0.12515295591E+03  0.73912689978E+03  0.75369467504E+03  0.10100000352E+00 0. -1.
       -3    1    3    3    0  502  0.77998824552E+02  0.12515295591E+03 -0.54611782542E+02  0.15725627490E+03  0.10100000352E+00 0.  1.
</event>
<event>
 5   0  0.5491236E-03  0.6001618E+03  0.7818609E-02  0.9905070E-01
        1   -1    0    0  501    0  0.00000000000E+00  0.00000000000E+00  0.12194953637E+03  0.12194953648E+03  0.50400001928E-02 0. -1.
       -1   -1    0    0    0  501  0.00000000000E+00  0.00000000000E+00 -0.73840834095E+03  0.73840834097E+03  0.50400001928E-02 0.  1.
    10030    2    1    2    0    0  0.00000000000E+00  0.00000000000E+00 -0.61645880458E+03  0.86035787745E+03  0.60016182780E+03 0.  0.
        3    1    3    3  502    0  0.53338031046E+02 -0.29152954544E+03 -0.24077478736E+03  0.38184673608E+03  0.10100000352E+00 0. -1.
       -3    1    3    3    0  502 -0.53338031046E+02  0.29152954544E+03 -0.37568401722E+03  0.47851114137E+03  0.10100000352E+00 0.  1.
</event>
<event>
 5   0  0.9681801E-03  0.6013378E+03  0.7818609E-02  0.9902634E-01
       -2   -1    0    0    0  501  0.00000000000E+00  0.00000000000E+00  0.12171469520E+03  0.12171469523E+03  0.25500000920E-02 0. -1.
        2   -1    0    0  501    0  0.00000000000E+00  0.00000000000E+00 -0.74273524207E+03  0.74273524207E+03  0.25500000920E-02 0.  1.
    10030    2    1    2    0    0  0.00000000000E+00  0.00000000000E+00 -0.62102054686E+03  0.86444993730E+03  0.60133782059E+03 0.  0.
        4    1    3    3  502    0  0.25008534934E+02  0.22692566015E+03 -0.59176799128E+03  0.63428041942E+03  0.12699999809E+01 0.  1.
       -4    1    3    3    0  502 -0.25008534934E+02 -0.22692566015E+03 -0.29252555578E+02  0.23016951788E+03  0.12699999809E+01 0. -1.
</event>
<event>
 5   0  0.5491236E-03  0.6003190E+03  0.7818609E-02  0.9904745E-01
        1   -1    0    0  501    0  0.00000000000E+00  0.00000000000E+00  0.69832503570E+03  0.69832503572E+03  0.50400001928E-02 0. -1.
       -1   -1    0    0    0  501  0.00000000000E+00  0.00000000000E+00 -0.12901688054E+03  0.12901688064E+03  0.50400001928E-02 0.  1.
    10030    2    1    2    0    0  0.00000000000E+00  0.00000000000E+00  0.56930815516E+03  0.82734191636E+03  0.60031897440E+03 0.  0.
        3    1    3    3  502    0  0.26444607388E+03  0.52773535265E+02  0.46633718269E+03  0.53869021726E+03  0.10100000352E+00 0. -1.
       -3    1    3    3    0  502 -0.26444607388E+03 -0.52773535265E+02  0.10297097248E+03  0.28865169909E+03  0.10100000352E+00 0.  1.
</event>
<event>
 5   0  0.5491236E-03  0.5997551E+03  0.7818609E-02  0.9905914E-01
       -1   -1    0    0    0  501  0.00000000000E+00  0.00000000000E+00  0.48770525084E+03  0.48770525086E+03  0.50400001928E-02 0.  1.
        1   -1    0    0  501    0  0.00000000000E+00  0.00000000000E+00 -0.18438705776E+03  0.18438705783E+03  0.50400001928E-02 0. -1.
    10030    2    1    2    0    0  0.00000000000E+00  0.00000000000E+00  0.30331819307E+03  0.67209230869E+03  0.59975507097E+03 0.  0.
        3    1    3    3  502    0  0.22963853717E+03 -0.18739862075E+03  0.10061989230E+03  0.31301193865E+03  0.10100000352E+00 0.  1.
       -3    1    3    3    0  502 -0.22963853717E+03  0.18739862075E+03  0.20269830077E+03  0.35908037004E+03  0.10100000352E+00 0. -1.
</event>
<event>
 5   0  0.9571790E-03  0.5994236E+03  0.7818609E-02  0.9906603E-01
        2   -1    0    0  501    0  0.00000000000E+00  0.00000000000E+00  0.51824362142E+03  0.51824362142E+03  0.25500000920E-02 0. -1.
       -2   -1    0    0    0  501  0.00000000000E+00  0.00000000000E+00 -0.17332997824E+03  0.17332997826E+03  0.25500000920E-02 0.  1.
    10030    2    1    2    0    0  0.00000000000E+00  0.00000000000E+00  0.34491364317E+03  0.69157359969E+03  0.59942357523E+03 0.  0.
        5    1    3    3  502    0  0.26241700317E+03 -0.14833575207E+01  0.33941004541E+03  0.42905262245E+03  0.46999998093E+01 0. -1.
       -5    1    3    3    0  502 -0.26241700317E+03  0.14833575207E+01  0.55035977583E+01  0.26252097724E+03  0.46999998093E+01 0.  1.
</event>
<event>
 5   0  0.5503975E-03  0.5979983E+03  0.7818609E-02  0.9909568E-01
       -1   -1    0    0    0  501  0.00000000000E+00  0.00000000000E+00  0.15799347731E+03  0.15799347739E+03  0.50400001928E-02 0.  1.
        1   -1    0    0  501    0  0.00000000000E+00  0.00000000000E+00 -0.56584926923E+03  0.56584926925E+03  0.50400001928E-02 0. -1.
    10030    2    1    2    0    0  0.00000000000E+00  0.00000000000E+00 -0.40785579191E+03  0.72384274664E+03  0.59799830675E+03 0.  0.
        4    1    3    3  502    0  0.76612420719E+02  0.89783675216E+01 -0.55359464680E+03  0.55894429057E+03  0.12699999809E+01 0. -1.
       -4    1    3    3    0  502 -0.76612420719E+02 -0.89783675216E+01  0.14573885489E+03  0.16489845607E+03  0.12699999809E+01 0.  1.
</event>
<event>
 5   0  0.5491236E-03  0.5993245E+03  0.7818609E-02  0.9906809E-01
       -1   -1    0    0    0  501  0.00000000000E+00  0.00000000000E+00  0.45376349009E+03  0.45376349012E+03  0.50400001928E-02 0. -1.
        1   -1    0    0  501    0  0.00000000000E+00  0.00000000000E+00 -0.19789484912E+03  0.19789484918E+03  0.50400001928E-02 0.  1.
    10030    2    1    2    0    0  0.00000000000E+00  0.00000000000E+00  0.25586864097E+03  0.65165833930E+03  0.59932447785E+03 0.  0.
        3    1    3    3  502    0 -0.13061591938E+03  0.41860228841E+02  0.41762876350E+03  0.43957546731E+03  0.10100000352E+00 0. -1.
       -3    1    3    3    0  502  0.13061591938E+03 -0.41860228841E+02 -0.16176012253E+03  0.21208287200E+03  0.10100000352E+00 0.  1.
</event>
<event>
 5   0  0.9530666E-03  0.6005865E+03  0.7818609E-02  0.9904190E-01
       -2   -1    0    0    0  501  0.00000000000E+00  0.00000000000E+00  0.49961239281E+02  0.49961239346E+02  0.25500000920E-02 0.  1.
        2   -1    0    0  501    0  0.00000000000E+00  0.00000000000E+00 -0.18049198295E+04  0.18049198295E+04  0.25500000920E-02 0. -1.
    10030    2    1    2    0    0  0.00000000000E+00  0.00000000000E+00 -0.17549585902E+04  0.18548810689E+04  0.60058648519E+03 0.  0.
        2    1    3    3  502    0 -0.22888552429E+03 -0.61997804467E+02 -0.30846885441E+03  0.38908269704E+03  0.25500000920E-02 0.  1.
       -2    1    3    3    0  502  0.22888552429E+03  0.61997804467E+02 -0.14464897358E+04  0.14657983718E+04  0.25500000920E-02 0. -1.
</event>
<event>
 5   0  0.5503975E-03  0.6010343E+03  0.7818609E-02  0.9903262E-01
        1   -1    0    0  501    0  0.00000000000E+00  0.00000000000E+00  0.87960646733E+03  0.87960646734E+03  0.50400001928E-02 0.  1.
       -1   -1    0    0    0  501  0.00000000000E+00  0.00000000000E+00 -0.10267156064E+03  0.10267156076E+03  0.50400001928E-02 0. -1.
    10030    2    1    2    0    0  0.00000000000E+00  0.00000000000E+00  0.77693490669E+03  0.98227802810E+03  0.60103433784E+03 0.  0.
        4    1    3    3  502    0  0.24936502713E+03 -0.99802479293E+02  0.16819566662E+03  0.31691457335E+03  0.12699999809E+01 0. -1.
       -4    1    3    3    0  502 -0.24936502713E+03  0.99802479293E+02  0.60873924007E+03  0.66536345476E+03  0.12699999809E+01 0.  1.
</event>
<event>
 5   0  0.9866317E-03  0.5963429E+03  0.7818609E-02  0.9913022E-01
       -2   -1    0    0    0  501  0.00000000000E+00  0.00000000000E+00  0.15405714606E+03  0.15405714608E+03  0.25500000920E-02 0. -1.
        2   -1    0    0  501    0  0.00000000000E+00  0.00000000000E+00 -0.57709899560E+03  0.57709899561E+03  0.25500000920E-02 0.  1.
    10030    2    1    2    0    0  0.00000000000E+00  0.00000000000E+00 -0.42304184955E+03  0.73115614168E+03  0.59634293578E+03 0.  0.
        1    1    3    3  502    0 -0.14326233637E+03 -0.20501671027E+03 -0.12496381764E+02  0.25042385688E+03  0.50400001928E-02 0. -1.
       -1    1    3    3    0  502  0.14326233637E+03  0.20501671027E+03 -0.41054546778E+03  0.48073228481E+03  0.50400001928E-02 0.  1.
</event>
<event>
 5   0  0.3794375E-03  0.6001254E+03  0.7818609E-02  0.9905146E-01
       -4   -1    0    0    0  501  0.00000000000E+00  0.00000000000E+00  0.25174671505E+03  0.25174991844E+03  0.12699999809E+01 0. -1.
        4   -1    0    0  501    0  0.00000000000E+00  0.00000000000E+00 -0.35764504786E+03  0.35764730274E+03  0.12699999809E+01 0.  1.
    10030    2    1    2    0    0  0.00000000000E+00  0.00000000000E+00 -0.10589833281E+03  0.60939722119E+03  0.60012541714E+03 0.  0.
        3    1    3    3  502    0  0.23675371064E+03 -0.13689566808E+03 -0.17832689242E+03  0.32648619297E+03  0.10100000352E+00 0.  1.
       -3    1    3    3    0  502 -0.23675371064E+03  0.13689566808E+03  0.72428559604E+02  0.28291102822E+03  0.10100000352E+00 0. -1.
</event>
<event>
 5   0  0.5503975E-03  0.6007757E+03  0.7818609E-02  0.9903798E-01
       -1   -1    0    0    0  501  0.00000000000E+00  0.00000000000E+00  0.15183662558E+03  0.15183662567E+03  0.50400001928E-02 0.  1.
        1   -1    0    0  501    0  0.00000000000E+00  0.00000000000E+00 -0.59427597238E+03  0.59427597240E+03  0.50400001928E-02 0. -1.
    10030    2    1    2    0    0  0.00000000000E+00  0.00000000000E+00 -0.44243934680E+03  0.74611259807E+03  0.60077569309E+03 0.  0.
        4    1    3    3  502    0 -0.92005812822E+02 -0.12599806617E+03  0.97569790438E+02  0.18401646442E+03  0.12699999809E+01 0.  1.
       -4    1    3    3    0  502  0.92005812822E+02  0.12599806617E+03 -0.54000913723E+03  0.56209613365E+03  0.12699999809E+01 0. -1.
</event>
<event>
 5   0  0.9428629E-03  0.5992976E+03  0.7818609E-02  0.9906864E-01
        2   -1    0    0  501    0  0.00000000000E+00  0.00000000000E+00  0.26023473501E+03  0.26023473502E+03  0.25500000920E-02 0.  1.
       -2   -1    0    0    0  501  0.00000000000E+00  0.00000000000E+00 -0.34503235096E+03  0.34503235097E+03  0.25500000920E-02 0. -1.
    10030    2    1    2    0    0  0.00000000000E+00  0.00000000000E+00 -0.84797615954E+02  0.60526708599E+03  0.59929759695E+03 0.  0.
        3    1    3    3  502    0 -0.83047233748E+02  0.91473026562E+02  0.23331352783E+03  0.26400638267E+03  0.10100000352E+00 0.  1.
       -3    1    3    3    0  502  0.83047233748E+02 -0.91473026562E+02 -0.31811114379E+03  0.34126070331E+03  0.10100000352E+00 0. -1.
</event>
<event>
 5   0  0.5491236E-03  0.5997856E+03  0.7818609E-02  0.9905851E-01
       -1   -1    0    0    0  501  0.00000000000E+00  0.00000000000E+00  0.16435379595E+03  0.16435379603E+03  0.50400001928E-02 0. -1.
        1   -1    0    0  501    0  0.00000000000E+00  0.00000000000E+00 -0.54720794849E+03  0.54720794851E+03  0.50400001928E-02 0.  1.
    10030    2    1    2    0    0  0.00000000000E+00  0.00000000000E+00 -0.38285415254E+03  0.71156174454E+03  0.59978564019E+03 0.  0.
        3    1    3    3  502    0 -0.67707084958E+02  0.12020505015E+03 -0.50732469484E+03  0.52574885604E+03  0.10100000352E+00 0.  1.
       -3    1    3    3    0  502  0.67707084958E+02 -0.12020505015E+03  0.12447054229E+03  0.18581288850E+03  0.10100000352E+00 0. -1.
</event>
<event>
 5   0  0.9530666E-03  0.5996824E+03  0.7818609E-02  0.9906065E-01
       -2   -1    0    0    0  501  0.00000000000E+00  0.00000000000E+00  0.11310839285E+03  0.11310839288E+03  0.25500000920E-02 0. -1.
        2   -1    0    0  501    0  0.00000000000E+00  0.00000000000E+00 -0.79485478961E+03  0.79485478961E+03  0.25500000920E-02 0.  1.
    10030    2    1    2    0    0  0.00000000000E+00  0.00000000000E+00 -0.68174639675E+03  0.90796318249E+03  0.59968240868E+03 0.  0.
        2    1    3    3  502    0 -0.18200263610E+03 -0.23798123155E+03 -0.35908755151E+03  0.46765788326E+03  0.25500000920E-02 0.  1.
       -2    1    3    3    0  502  0.18200263610E+03  0.23798123155E+03 -0.32265884524E+03  0.44030529924E+03  0.25500000920E-02 0. -1.
</event>
<event>
 5   0  0.9428629E-03  0.5999644E+03  0.7818609E-02  0.9905480E-01
        2   -1    0    0  501    0  0.00000000000E+00  0.00000000000E+00  0.24509505621E+03  0.24509505622E+03  0.25500000920E-02 0.  1.
       -2   -1    0    0    0  501  0.00000000000E+00  0.00000000000E+00 -0.36716090403E+03  0.36716090404E+03  0.25500000920E-02 0. -1.
    10030    2    1    2    0    0  0.00000000000E+00  0.00000000000E+00 -0.12206584782E+03  0.61225596026E+03  0.59996440700E+03 0.  0.
        3    1    3    3  502    0  0.29532746872E+03  0.25789754037E+02 -0.14202825620E+02  0.29679143460E+03  0.10100000352E+00 0.  1.
       -3    1    3    3    0  502 -0.29532746872E+03 -0.25789754037E+02 -0.10786302220E+03  0.31546452566E+03  0.10100000352E+00 0. -1.
</event>
<event>
 5   0  0.9530666E-03  0.6100216E+03  0.7818609E-02  0.9884830E-01
       -2   -1    0    0    0  501  0.00000000000E+00  0.00000000000E+00  0.97571593396E+02  0.97571593429E+02  0.25500000920E-02 0. -1.
        2   -1    0    0  501    0  0.00000000000E+00  0.00000000000E+00 -0.95346999600E+03  0.95346999601E+03  0.25500000920E-02 0.  1.
    10030    2    1    2    0    0  0.00000000000E+00  0.00000000000E+00 -0.85589840261E+03  0.10510415894E+04  0.61002159563E+03 0.  0.
        2    1    3    3  502    0  0.12726422882E+03 -0.11575201936E+03 -0.86190507840E+03  0.87890561387E+03  0.25500000920E-02 0.  1.
       -2    1    3    3    0  502 -0.12726422882E+03  0.11575201936E+03  0.60066757892E+01  0.17213597556E+03  0.25500000920E-02 0. -1.
</event>
<event>
 5   0  0.9530666E-03  0.5998501E+03  0.7818609E-02  0.9905717E-01
       -2   -1    0    0    0  501  0.00000000000E+00  0.00000000000E+00  0.75481866242E+02  0.75481866285E+02  0.25500000920E-02 0. -1.
        2   -1    0    0  501    0  0.00000000000E+00  0.00000000000E+00 -0.11917436160E+04  0.11917436160E+04  0.25500000920E-02 0.  1.
    10030    2    1    2    0    0  0.00000000000E+00  0.00000000000E+00 -0.11162617497E+04  0.12672254822E+04  0.59985008875E+03 0.  0.
        2    1    3    3  502    0 -0.57095186845E+02  0.26251354550E+03 -0.27642289035E+03  0.38546444225E+03  0.25500000920E-02 0. -1.
       -2    1    3    3    0  502  0.57095186845E+02 -0.26251354550E+03 -0.83983885937E+03  0.88176103999E+03  0.25500000920E-02 0.  1.
</event>
<event>
 5   0  0.5574736E-03  0.6014402E+03  0.7818609E-02  0.9902423E-01
        1   -1    0    0  501    0  0.00000000000E+00  0.00000000000E+00  0.61041877512E+03  0.61041877514E+03  0.50400001928E-02 0. -1.
       -1   -1    0    0    0  501  0.00000000000E+00  0.00000000000E+00 -0.14814839896E+03  0.14814839905E+03  0.50400001928E-02 0.  1.
    10030    2    1    2    0    0  0.00000000000E+00  0.00000000000E+00  0.46227037616E+03  0.75856717418E+03  0.60144015253E+03 0.  0.
        5    1    3    3  502    0  0.34389571303E+02  0.77929283779E+02 -0.13256660401E+03  0.15764393544E+03  0.46999998093E+01 0.  1.
       -5    1    3    3    0  502 -0.34389571303E+02 -0.77929283779E+02  0.59483698017E+03  0.60092323874E+03  0.46999998093E+01 0. -1.
</event>
<event>
 5   0  0.5503975E-03  0.5945798E+03  0.7818609E-02  0.9916715E-01
       -1   -1    0    0    0  501  0.00000000000E+00  0.00000000000E+00  0.16180100565E+03  0.16180100572E+03  0.50400001928E-02 0.  1.
        1   -1    0    0  501    0  0.00000000000E+00  0.00000000000E+00 -0.54623446743E+03  0.54623446745E+03  0.50400001928E-02 0. -1.
    10030    2    1    2    0    0  0.00000000000E+00  0.00000000000E+00 -0.38443346178E+03  0.70803547317E+03  0.59457980519E+03 0.  0.
        4    1    3    3  502    0 -0.18192892442E+03  0.22854626480E+03 -0.12647174381E+03  0.31832097571E+03  0.12699999809E+01 0.  1.
       -4    1    3    3    0  502  0.18192892442E+03 -0.22854626480E+03 -0.25796171797E+03  0.38971449747E+03  0.12699999809E+01 0. -1.
</event>
<event>
 5   0  0.9530666E-03  0.6006198E+03  0.7818609E-02  0.9904121E-01
        2   -1    0    0  501    0  0.00000000000E+00  0.00000000000E+00  0.11640432874E+04  0.11640432874E+04  0.25500000920E-02 0. -1.
       -2   -1    0    0    0  501  0.00000000000E+00  0.00000000000E+00 -0.77476526716E+02  0.77476526758E+02  0.25500000920E-02 0.  1.
    10030    2    1    2    0    0  0.00000000000E+00  0.00000000000E+00  0.10865667607E+04  0.12415198142E+04  0.60061978284E+03 0.  0.
        2    1    3    3  502    0 -0.33507110306E+02  0.29085182717E+03  0.40510635779E+03  0.49982864358E+03  0.25500000920E-02 0.  1.
       -2    1    3    3    0  502  0.33507110306E+02 -0.29085182717E+03  0.68146040293E+03  0.74169117062E+03  0.25500000920E-02 0. -1.
</event>
<event>
 5   0  0.9530666E-03  0.5997858E+03  0.7818609E-02  0.9905851E-01
       -2   -1    0    0    0  501  0.00000000000E+00  0.00000000000E+00  0.20913873132E+03  0.20913873134E+03  0.25500000920E-02 0.  1.
        2   -1    0    0  501    0  0.00000000000E+00  0.00000000000E+00 -0.43002918578E+03  0.43002918579E+03  0.25500000920E-02 0. -1.
    10030    2    1    2    0    0  0.00000000000E+00  0.00000000000E+00 -0.22089045446E+03  0.63916791713E+03  0.59978582295E+03 0.  0.
        2    1    3    3  502    0  0.16776215951E+01  0.18019526417E+03  0.14500803202E+03  0.23130170125E+03  0.25500000920E-02 0.  1.
       -2    1    3    3    0  502 -0.16776215951E+01 -0.18019526417E+03 -0.36589848648E+03  0.40786621588E+03  0.25500000920E-02 0. -1.
</event>
<event>
 5   0  0.5574736E-03  0.5997786E+03  0.7818609E-02  0.9905865E-01
        1   -1    0    0  501    0  0.00000000000E+00  0.00000000000E+00  0.40757578018E+03  0.40757578021E+03  0.50400001928E-02 0.  1.
       -1   -1    0    0    0  501  0.00000000000E+00  0.00000000000E+00 -0.22065490133E+03  0.22065490139E+03  0.50400001928E-02 0. -1.
    10030    2    1    2    0    0  0.00000000000E+00  0.00000000000E+00  0.18692087885E+03  0.62823068160E+03  0.59977860445E+03 0.  0.
        5    1    3    3  502    0 -0.15682972506E+03  0.25474202045E+03  0.11498888717E+03  0.32052081651E+03  0.46999998093E+01 0.  1.
       -5    1    3    3    0  502  0.15682972506E+03 -0.25474202045E+03  0.71931991674E+02  0.30770986509E+03  0.46999998093E+01 0. -1.
</event>
<event>
 5   0  0.9428629E-03  0.5998978E+03  0.7818609E-02  0.9905618E-01
        2   -1    0    0  501    0  0.00000000000E+00  0.00000000000E+00  0.42659872620E+03  0.42659872621E+03  0.25500000920E-02 0.  1.
       -2   -1    0    0    0  501  0.00000000000E+00  0.00000000000E+00 -0.21089923402E+03  0.21089923404E+03  0.25500000920E-02 0. -1.
    10030    2    1    2    0    0  0.00000000000E+00  0.00000000000E+00  0.21569949218E+03  0.63749796025E+03  0.59989780663E+03 0.  0.
        3    1    3    3  502    0  0.29103811203E+03 -0.33842080174E+02  0.17606723639E+03  0.34183058812E+03  0.10100000352E+00 0.  1.
       -3    1    3    3    0  502 -0.29103811203E+03  0.33842080174E+02  0.39632255784E+02  0.29566737213E+03  0.10100000352E+00 0. -1.
</event>
<event>
 5   0  0.3794375E-03  0.6014524E+03  0.7818609E-02  0.9902397E-01
        4   -1    0    0  501    0  0.00000000000E+00  0.00000000000E+00  0.14945655175E+03  0.14946194754E+03  0.12699999809E+01 0.  1.
       -4   -1    0    0    0  501  0.00000000000E+00  0.00000000000E+00 -0.60508365888E+03  0.60508499167E+03  0.12699999809E+01 0. -1.
    10030    2    1    2    0    0  0.00000000000E+00  0.00000000000E+00 -0.45562710712E+03  0.75454693920E+03  0.60145242764E+03 0.  0.
        1    1    3    3  502    0 -0.11104678682E+03  0.19059783584E+03  0.28608473512E+02  0.22243508868E+03  0.50400001928E-02 0.  1.
       -1    1    3    3    0  502  0.11104678682E+03 -0.19059783584E+03 -0.48423558064E+03  0.53211185053E+03  0.50400001928E-02 0. -1.
</event>
<event>
 5   0  0.5503975E-03  0.5995380E+03  0.7818609E-02  0.9906365E-01
       -1   -1    0    0    0  501  0.00000000000E+00  0.00000000000E+00  0.11072615595E+03  0.11072615607E+03  0.50400001928E-02 0. -1.
        1   -1    0    0  501    0  0.00000000000E+00  0.00000000000E+00 -0.81156471282E+03  0.81156471283E+03  0.50400001928E-02 0.  1.
    10030    2    1    2    0    0  0.00000000000E+00  0.00000000000E+00 -0.70083855686E+03  0.92229086890E+03  0.59953795883E+03 0.  0.
        4    1    3    3  502    0  0.59725733934E+02 -0.10621919208E+03  0.70899906460E+02  0.14098967939E+03  0.12699999809E+01 0. -1.
       -4    1    3    3    0  502 -0.59725733934E+02  0.10621919208E+03 -0.77173846332E+03  0.78130118951E+03  0.12699999809E+01 0.  1.
</event>
<event>
 5   0  0.9530666E-03  0.5999518E+03  0.7818609E-02  0.9905506E-01
       -2   -1    0    0    0  501  0.00000000000E+00  0.00000000000E+00  0.40850470422E+03  0.40850470423E+03  0.25500000920E-02 0. -1.
        2   -1    0    0  501    0  0.00000000000E+00  0.00000000000E+00 -0.22028030586E+03  0.22028030588E+03  0.25500000920E-02 0.  1.
    10030    2    1    2    0    0  0.00000000000E+00  0.00000000000E+00  0.18822439836E+03  0.62878501011E+03  0.59995180206E+03 0.  0.
        2    1    3    3  502    0 -0.10146708152E+03  0.19387155346E+03 -0.12094125879E+03  0.25001707133E+03  0.25500000920E-02 0.  1.
       -2    1    3    3    0  502  0.10146708152E+03 -0.19387155346E+03  0.30916565715E+03  0.37876793877E+03  0.25500000920E-02 0. -1.
</event>
<event>
 5   0  0.9571790E-03  0.5965974E+03  0.7818609E-02  0.9912491E-01
       -2   -1    0    0    0  501  0.00000000000E+00  0.00000000000E+00  0.48443897927E+03  0.48443897928E+03  0.25500000920E-02 0. -1.
        2   -1    0    0  501    0  0.00000000000E+00  0.00000000000E+00 -0.18368074223E+03  0.18368074225E+03  0.25500000920E-02 0.  1.
    10030    2    1    2    0    0  0.00000000000E+00  0.00000000000E+00  0.30075823704E+03  0.66811972153E+03  0.59659738949E+03 0.  0.
        5    1    3    3  502    0 -0.21926139142E+03 -0.14363865561E+03 -0.89925767737E+01  0.26231770354E+03  0.46999998093E+01 0.  1.
       -5    1    3    3    0  502  0.21926139142E+03  0.14363865561E+03  0.30975081381E+03  0.40580201799E+03  0.46999998093E+01 0. -1.
</event>
<event>
 5   0  0.3794375E-03  0.5997858E+03  0.7818609E-02  0.9905851E-01
        4   -1    0    0  501    0  0.00000000000E+00  0.00000000000E+00  0.34468237904E+03  0.34468471873E+03  0.12699999809E+01 0.  1.
       -4   -1    0    0    0  501  0.00000000000E+00  0.00000000000E+00 -0.26091877204E+03  0.26092186283E+03  0.12699999809E+01 0. -1.
    10030    2    1    2    0    0  0.00000000000E+00  0.00000000000E+00  0.83763607001E+02  0.60560658156E+03  0.59978578657E+03 0.  0.
        1    1    3    3  502    0 -0.28845386051E+03 -0.30830129718E+02  0.11864341651E+03  0.31342046335E+03  0.50400001928E-02 0.  1.
       -1    1    3    3    0  502  0.28845386051E+03  0.30830129718E+02 -0.34879809506E+02  0.29218611821E+03  0.50400001928E-02 0. -1.
</event>
<event>
 5   0  0.5574736E-03  0.6006184E+03  0.7818609E-02  0.9904124E-01
       -1   -1    0    0    0  501  0.00000000000E+00  0.00000000000E+00  0.10987217707E+03  0.10987217719E+03  0.50400001928E-02 0. -1.
        1   -1    0    0  501    0  0.00000000000E+00  0.00000000000E+00 -0.82082318393E+03  0.82082318395E+03  0.50400001928E-02 0.  1.
    10030    2    1    2    0    0  0.00000000000E+00  0.00000000000E+00 -0.71095100686E+03  0.93069536113E+03  0.60061844883E+03 0.  0.
        5    1    3    3  502    0  0.21060183754E+03  0.21347698563E+03 -0.33157088815E+03  0.44708712935E+03  0.46999998093E+01 0.  1.
       -5    1    3    3    0  502 -0.21060183754E+03 -0.21347698563E+03 -0.37938011872E+03  0.48360823178E+03  0.46999998093E+01 0. -1.
</event>
<event>
 5   0  0.9681801E-03  0.5996424E+03  0.7818609E-02  0.9906148E-01
        2   -1    0    0  501    0  0.00000000000E+00  0.00000000000E+00  0.23210313241E+04  0.23210313241E+04  0.25500000920E-02 0.  1.
       -2   -1    0    0    0  501  0.00000000000E+00  0.00000000000E+00 -0.38729652863E+02  0.38729652947E+02  0.25500000920E-02 0. -1.
    10030    2    1    2    0    0  0.00000000000E+00  0.00000000000E+00  0.22823016713E+04  0.23597609771E+04  0.59964235197E+03 0.  0.
        4    1    3    3  502    0  0.27342443849E+03 -0.13231172915E+02  0.65990064293E+03  0.71442736435E+03  0.12699999809E+01 0. -1.
       -4    1    3    3    0  502 -0.27342443849E+03  0.13231172915E+02  0.16224010284E+04  0.16453336127E+04  0.12699999809E+01 0.  1.
</event>
<event>
 5   0  0.5491236E-03  0.6005745E+03  0.7818609E-02  0.9904215E-01
       -1   -1    0    0    0  501  0.00000000000E+00  0.00000000000E+00  0.11599388788E+03  0.11599388799E+03  0.50400001928E-02 0.  1.
        1   -1    0    0  501    0  0.00000000000E+00  0.00000000000E+00 -0.77738952773E+03  0.77738952774E+03  0.50400001928E-02 0. -1.
    10030    2    1    2    0    0  0.00000000000E+00  0.00000000000E+00 -0.66139563984E+03  0.89338341574E+03  0.60057450421E+03 0.  0.
        3    1    3    3  502    0  0.18717472474E+03 -0.73205373467E+02  0.11921768422E+01  0.20098466552E+03  0.10100000352E+00 0.  1.
       -3    1    3    3    0  502 -0.18717472474E+03  0.73205373467E+02 -0.66258781669E+03  0.69239875022E+03  0.10100000352E+00 0. -1.
</event>
<event>
 5   0  0.5653633E-03  0.5972078E+03  0.7818609E-02  0.9911216E-01
        1   -1    0    0  501    0  0.00000000000E+00  0.00000000000E+00  0.64744722043E+03  0.64744722045E+03  0.50400001928E-02 0.  1.
       -1   -1    0    0    0  501  0.00000000000E+00  0.00000000000E+00 -0.13771669635E+03  0.13771669644E+03  0.50400001928E-02 0. -1.
    10030    2    1    2    0    0  0.00000000000E+00  0.00000000000E+00  0.50973052408E+03  0.78516391689E+03  0.59720781074E+03 0.  0.
        2    1    3    3  502    0  0.12983820916E+03 -0.26438433182E+03  0.31937066125E+03  0.43445903690E+03  0.25500000920E-02 0. -1.
       -2    1    3    3    0  502 -0.12983820916E+03  0.26438433182E+03  0.19035986283E+03  0.35070487999E+03  0.25500000920E-02 0.  1.
</event>
<event>
 5   0  0.9530666E-03  0.6007640E+03  0.7818609E-02  0.9903822E-01
       -2   -1    0    0    0  501  0.00000000000E+00  0.00000000000E+00  0.67893313915E+02  0.67893313963E+02  0.25500000920E-02 0.  1.
        2   -1    0    0  501    0  0.00000000000E+00  0.00000000000E+00 -0.13289869944E+04  0.13289869944E+04  0.25500000920E-02 0. -1.
    10030    2    1    2    0    0  0.00000000000E+00  0.00000000000E+00 -0.12610936805E+04  0.13968803084E+04  0.60076395110E+03 0.  0.
        2    1    3    3  502    0 -0.16031892019E+03  0.24164464197E+03 -0.44842413079E+03  0.53402105787E+03  0.25500000920E-02 0.  1.
       -2    1    3    3    0  502  0.16031892019E+03 -0.24164464197E+03 -0.81266954969E+03  0.86285925049E+03  0.25500000920E-02 0. -1.
</event>
<event>
 5   0  0.9571790E-03  0.5846317E+03  0.7818609E-02  0.9937813E-01
        2   -1    0    0  501    0  0.00000000000E+00  0.00000000000E+00  0.36167656668E+03  0.36167656669E+03  0.25500000920E-02 0.  1.
       -2   -1    0    0    0  501  0.00000000000E+00  0.00000000000E+00 -0.23625684544E+03  0.23625684545E+03  0.25500000920E-02 0. -1.
    10030    2    1    2    0    0  0.00000000000E+00  0.00000000000E+00  0.12541972124E+03  0.59793341214E+03  0.58463172928E+03 0.  0.
        5    1    3    3  502    0 -0.25080757313E+03 -0.13504762191E+03  0.12965269277E+03  0.31300832204E+03  0.46999998093E+01 0.  1.
       -5    1    3    3    0  502  0.25080757313E+03  0.13504762191E+03 -0.42329715302E+01  0.28492509010E+03  0.46999998093E+01 0. -1.
</event>
<event>
 5   0  0.5503975E-03  0.5988726E+03  0.7818609E-02  0.9907748E-01
        1   -1    0    0  501    0  0.00000000000E+00  0.00000000000E+00  0.15851343862E+03  0.15851343870E+03  0.50400001928E-02 0. -1.
       -1   -1    0    0    0  501  0.00000000000E+00  0.00000000000E+00 -0.56564355212E+03  0.56564355214E+03  0.50400001928E-02 0.  1.
    10030    2    1    2    0    0  0.00000000000E+00  0.00000000000E+00 -0.40713011349E+03  0.72415699084E+03  0.59887262258E+03 0.  0.
        4    1    3    3  502    0 -0.41162234297E+02 -0.14799501411E+03  0.10723386994E+03  0.18734345330E+03  0.12699999809E+01 0. -1.
       -4    1    3    3    0  502  0.41162234297E+02  0.14799501411E+03 -0.51436398343E+03  0.53681353754E+03  0.12699999809E+01 0.  1.
</event>
<event>
 5   0  0.9571790E-03  0.6006705E+03  0.7818609E-02  0.9904016E-01
        2   -1    0    0  501    0  0.00000000000E+00  0.00000000000E+00  0.24148354550E+03  0.24148354552E+03  0.25500000920E-02 0.  1.
       -2   -1    0    0    0  501  0.00000000000E+00  0.00000000000E+00 -0.37352969974E+03  0.37352969975E+03  0.25500000920E-02 0. -1.
    10030    2    1    2    0    0  0.00000000000E+00  0.00000000000E+00 -0.13204615423E+03  0.61501324526E+03  0.60067054614E+03 0.  0.
        5    1    3    3  502    0  0.17607564144E+03  0.22358535938E+03 -0.16415599337E+03  0.32857620820E+03  0.46999998093E+01 0. -1.
       -5    1    3    3    0  502 -0.17607564144E+03 -0.22358535938E+03  0.32109839136E+02  0.28643703707E+03  0.46999998093E+01 0.  1.
</event>
<event>
 5   0  0.3794375E-03  0.5999195E+03  0.7818609E-02  0.9905573E-01
       -3   -1    0    0    0  501  0.00000000000E+00  0.00000000000E+00  0.30427077876E+03  0.30427079553E+03  0.10100000352E+00 0.  1.
        3   -1    0    0  501    0  0.00000000000E+00  0.00000000000E+00 -0.29570977787E+03  0.29570979512E+03  0.10100000352E+00 0. -1.
    10030    2    1    2    0    0  0.00000000000E+00  0.00000000000E+00  0.85610008974E+01  0.59998059064E+03  0.59991950995E+03 0.  0.
        4    1    3    3  502    0  0.23625360050E+03 -0.13944095063E+02  0.18859261781E+03  0.30262020740E+03  0.12699999809E+01 0.  1.
       -4    1    3    3    0  502 -0.23625360050E+03  0.13944095063E+02 -0.18003161691E+03  0.29736038324E+03  0.12699999809E+01 0. -1.
</event>
<event>
 5   0  0.5491236E-03  0.5997309E+03  0.7818609E-02  0.9905965E-01
       -1   -1    0    0    0  501  0.00000000000E+00  0.00000000000E+00  0.15044096297E+03  0.15044096305E+03  0.50400001928E-02 0.  1.
        1   -1    0    0  501    0  0.00000000000E+00  0.00000000000E+00 -0.59770478287E+03  0.59770478289E+03  0.50400001928E-02 0. -1.
    10030    2    1    2    0    0  0.00000000000E+00  0.00000000000E+00 -0.44726381991E+03  0.74814574594E+03  0.59973088346E+03 0.  0.
        3    1    3    3  502    0  0.47230874081E+02 -0.19653523318E+03 -0.49994679336E+03  0.53926214381E+03  0.10100000352E+00 0. -1.
       -3    1    3    3    0  502 -0.47230874081E+02  0.19653523318E+03  0.52682973457E+02  0.20888360214E+03  0.10100000352E+00 0.  1.
</event>
<event>
 5   0  0.9530666E-03  0.6003653E+03  0.7818609E-02  0.9904648E-01
        2   -1    0    0  501    0  0.00000000000E+00  0.00000000000E+00  0.83989489515E+03  0.83989489515E+03  0.25500000920E-02 0. -1.
       -2   -1    0    0    0  501  0.00000000000E+00  0.00000000000E+00 -0.10728678811E+03  0.10728678814E+03  0.25500000920E-02 0.  1.
    10030    2    1    2    0    0  0.00000000000E+00  0.00000000000E+00  0.73260810704E+03  0.94718168329E+03  0.60036530767E+03 0.  0.
        2    1    3    3  502    0 -0.27946759536E+03  0.10703111009E+03  0.40336533781E+03  0.50225630024E+03  0.25500000920E-02 0.  1.
       -2    1    3    3    0  502  0.27946759536E+03 -0.10703111009E+03  0.32924276923E+03  0.44492538305E+03  0.25500000920E-02 0. -1.
</event>
<event>
 5   0  0.9428629E-03  0.6006491E+03  0.7818609E-02  0.9904060E-01
        2   -1    0    0  501    0  0.00000000000E+00  0.00000000000E+00  0.16034093166E+03  0.16034093168E+03  0.25500000920E-02 0.  1.
       -2   -1    0    0    0  501  0.00000000000E+00  0.00000000000E+00 -0.56251902525E+03  0.56251902525E+03  0.25500000920E-02 0. -1.
    10030    2    1    2    0    0  0.00000000000E+00  0.00000000000E+00 -0.40217809359E+03  0.72285995693E+03  0.60064906424E+03 0.  0.
        3    1    3    3  502    0  0.14829810060E+03 -0.33502869464E+02  0.11060609765E+03  0.18801193564E+03  0.10100000352E+00 0.  1.
       -3    1    3    3    0  502 -0.14829810060E+03  0.33502869464E+02 -0.51278419123E+03  0.53484802130E+03  0.10100000352E+00 0. -1.
</event>
<event>
 5   0  0.9866317E-03  0.5997255E+03  0.7818609E-02  0.9905976E-01
        2   -1    0    0  501    0  0.00000000000E+00  0.00000000000E+00  0.63379838731E+03  0.63379838732E+03  0.25500000920E-02 0. -1.
       -2   -1    0    0    0  501  0.00000000000E+00  0.00000000000E+00 -0.14187107320E+03  0.14187107323E+03  0.25500000920E-02 0.  1.
    10030    2    1    2    0    0  0.00000000000E+00  0.00000000000E+00  0.49192731411E+03  0.77566946054E+03  0.59972546190E+03 0.  0.
        1    1    3    3  502    0 -0.23797591297E+03  0.11643471407E+03  0.42762671104E+03  0.50304491034E+03  0.50400001928E-02 0. -1.
       -1    1    3    3    0  502  0.23797591297E+03 -0.11643471407E+03  0.64300603069E+02  0.27262455021E+03  0.50400001928E-02 0.  1.
</event>
<event>
 5   0  0.5503975E-03  0.6015028E+03  0.7818609E-02  0.9902293E-01
        1   -1    0    0  501    0  0.00000000000E+00  0.00000000000E+00  0.20864070640E+03  0.20864070646E+03  0.50400001928E-02 0. -1.
       -1   -1    0    0    0  501  0.00000000000E+00  0.00000000000E+00 -0.43352714491E+03  0.43352714494E+03  0.50400001928E-02 0.  1.
    10030    2    1    2    0    0  0.00000000000E+00  0.00000000000E+00 -0.22488643851E+03  0.64216785140E+03  0.60150281723E+03 0.  0.
        4    1    3    3  502    0 -0.25722667851E+03 -0.14944681679E+03 -0.65300457037E+02  0.30457458492E+03  0.12699999809E+01 0.  1.
       -4    1    3    3    0  502  0.25722667851E+03  0.14944681679E+03 -0.15958598148E+03  0.33759326648E+03  0.12699999809E+01 0. -1.
</event>
<event>
 5   0  0.9428629E-03  0.6010303E+03  0.7818609E-02  0.9903271E-01
       -2   -1    0    0    0  501  0.00000000000E+00  0.00000000000E+00  0.14191208823E+04  0.14191208823E+04  0.25500000920E-02 0.  1.
        2   -1    0    0  501    0  0.00000000000E+00  0.00000000000E+00 -0.63637536075E+02  0.63637536126E+02  0.25500000920E-02 0. -1.
    10030    2    1    2    0    0  0.00000000000E+00  0.00000000000E+00  0.13554833463E+04  0.14827584185E+04  0.60103030334E+03 0.  0.
        3    1    3    3  502    0 -0.48456829642E+02 -0.44780749666E+02 -0.45547630673E+02  0.80174663956E+02  0.10100000352E+00 0. -1.
       -3    1    3    3    0  502  0.48456829642E+02  0.44780749666E+02  0.14010309769E+04  0.14025837545E+04  0.10100000352E+00 0.  1.
</event>
<event>
 5   0  0.5503975E-03  0.5998264E+03  0.7818609E-02  0.9905766E-01
       -1   -1    0    0    0  501  0.00000000000E+00  0.00000000000E+00  0.11153236562E+03  0.11153236573E+03  0.50400001928E-02 0. -1.
        1   -1    0    0  501    0  0.00000000000E+00  0.00000000000E+00 -0.80647386833E+03  0.80647386834E+03  0.50400001928E-02 0.  1.
    10030    2    1    2    0    0  0.00000000000E+00  0.00000000000E+00 -0.69494150271E+03  0.91800623408E+03  0.59982643624E+03 0.  0.
        4    1    3    3  502    0 -0.20506430667E+03 -0.18262655127E+03 -0.53203158377E+03  0.59871783515E+03  0.12699999809E+01 0.  1.
       -4    1    3    3    0  502  0.20506430667E+03  0.18262655127E+03 -0.16290991894E+03  0.31928839892E+03  0.12699999809E+01 0. -1.
</event>
<event>
 5   0  0.9571790E-03  0.5992162E+03  0.7818609E-02  0.9907033E-01
       -2   -1    0    0    0  501  0.00000000000E+00  0.00000000000E+00  0.67516912741E+02  0.67516912789E+02  0.25500000920E-02 0. -1.
        2   -1    0    0  501    0  0.00000000000E+00  0.00000000000E+00 -0.13295191282E+04  0.13295191282E+04  0.25500000920E-02 0.  1.
    10030    2    1    2    0    0  0.00000000000E+00  0.00000000000E+00 -0.12620022154E+04  0.13970360409E+04  0.59921624477E+03 0.  0.
        5    1    3    3  502    0  0.49562975383E+02 -0.26689774256E+03 -0.92638662320E+03  0.96535234975E+03  0.46999998093E+01 0.  1.
       -5    1    3    3    0  502 -0.49562975383E+02  0.26689774256E+03 -0.33561559221E+03  0.43168369120E+03  0.46999998093E+01 0. -1.
</event>
<event>
 5   0  0.5503975E-03  0.5989834E+03  0.7818609E-02  0.9907517E-01
        1   -1    0    0  501    0  0.00000000000E+00  0.00000000000E+00  0.44163552043E+03  0.44163552046E+03  0.50400001928E-02 0. -1.
       -1   -1    0    0    0  501  0.00000000000E+00  0.00000000000E+00 -0.20309798417E+03  0.20309798424E+03  0.50400001928E-02 0.  1.
    10030    2    1    2    0    0  0.00000000000E+00  0.00000000000E+00  0.23853753625E+03  0.64473350469E+03  0.59898341869E+03 0.  0.
        4    1    3    3  502    0 -0.10430157288E+02 -0.16651928191E+03  0.38697414775E+03  0.42141198768E+03  0.12699999809E+01 0. -1.
       -4    1    3    3    0  502  0.10430157288E+02  0.16651928191E+03 -0.14843661150E+03  0.22332151702E+03  0.12699999809E+01 0.  1.
</event>
<event>
 5   0  0.5491236E-03  0.6001171E+03  0.7818609E-02  0.9905163E-01
        1   -1    0    0  501    0  0.00000000000E+00  0.00000000000E+00  0.47714931455E+03  0.47714931457E+03  0.50400001928E-02 0.  1.
       -1   -1    0    0    0  501  0.00000000000E+00  0.00000000000E+00 -0.18869382574E+03  0.18869382581E+03  0.50400001928E-02 0. -1.
    10030    2    1    2    0    0  0.00000000000E+00  0.00000000000E+00  0.28845548881E+03  0.66584314038E+03  0.60011708739E+03 0.  0.
        3    1    3    3  502    0 -0.73180631240E+02 -0.11708371625E+03 -0.15135342338E+03  0.20487037455E+03  0.10100000352E+00 0. -1.
       -3    1    3    3    0  502  0.73180631240E+02  0.11708371625E+03  0.43980891219E+03  0.46097276583E+03  0.10100000352E+00 0.  1.
</event>
<event>
 5   0  0.9866317E-03  0.5999148E+03  0.7818609E-02  0.9905583E-01
       -2   -1    0    0    0  501  0.00000000000E+00  0.00000000000E+00  0.76357810578E+03  0.76357810578E+03  0.25500000920E-02 0. -1.
        2   -1    0    0  501    0  0.00000000000E+00  0.00000000000E+00 -0.11783265963E+03  0.11783265966E+03  0.25500000920E-02 0.  1.
    10030    2    1    2    0    0  0.00000000000E+00  0.00000000000E+00  0.64574544615E+03  0.88141076544E+03  0.59991479080E+03 0.  0.
        1    1    3    3  502    0 -0.23630070012E+03  0.23483629447E+02  0.59212603378E+03  0.63796766503E+03  0.50400001928E-02 0. -1.
       -1    1    3    3    0  502  0.23630070012E+03 -0.23483629447E+02  0.53619412371E+02  0.24344310041E+03  0.50400001928E-02 0.  1.
</event>
<event>
 5   0  0.9681801E-03  0.6000535E+03  0.7818609E-02  0.9905295E-01
       -2   -1    0    0    0  501  0.00000000000E+00  0.00000000000E+00  0.52822589646E+02  0.52822589707E+02  0.25500000920E-02 0.  1.
        2   -1    0    0  501    0  0.00000000000E+00  0.00000000000E+00 -0.17041204668E+04  0.17041204668E+04  0.25500000920E-02 0. -1.
    10030    2    1    2    0    0  0.00000000000E+00  0.00000000000E+00 -0.16512978772E+04  0.17569430565E+04  0.60005351821E+03 0.  0.
        4    1    3    3  502    0  0.58394604826E+02 -0.93570061771E+02 -0.87004822587E+01  0.11064627253E+03  0.12699999809E+01 0.  1.
       -4    1    3    3    0  502 -0.58394604826E+02  0.93570061771E+02 -0.16425973949E+04  0.16462967840E+04  0.12699999809E+01 0. -1.
</event>
<event>
 5   0  0.9428629E-03  0.5998889E+03  0.7818609E-02  0.9905637E-01
       -2   -1    0    0    0  501  0.00000000000E+00  0.00000000000E+00  0.52223338872E+03  0.52223338873E+03  0.25500000920E-02 0.  1.
        2   -1    0    0  501    0  0.00000000000E+00  0.00000000000E+00 -0.17227293149E+03  0.17227293151E+03  0.25500000920E-02 0. -1.
    10030    2    1    2    0    0  0.00000000000E+00  0.00000000000E+00  0.34996045723E+03  0.69450632024E+03  0.59988891240E+03 0.  0.
        3    1    3    3  502    0  0.10906083750E+03  0.31115244468E+02  0.49645322852E+03  0.50924281343E+03  0.10100000352E+00 0.  1.
       -3    1    3    3    0  502 -0.10906083750E+03 -0.31115244468E+02 -0.14649277129E+03  0.18526350681E+03  0.10100000352E+00 0. -1.
</event>
<event>
 5   0  0.5653633E-03  0.5959919E+03  0.7818609E-02  0.9913757E-01
        1   -1    0    0  501    0  0.00000000000E+00  0.00000000000E+00  0.58340457806E+03  0.58340457808E+03  0.50400001928E-02 0. -1.
       -1   -1    0    0    0  501  0.00000000000E+00  0.00000000000E+00 -0.15221271087E+03  0.15221271096E+03  0.50400001928E-02 0.  1.
    10030    2    1    2    0    0  0.00000000000E+00  0.00000000000E+00  0.43119186719E+03  0.73561728904E+03  0.59599192076E+03 0.  0.
        2    1    3    3  502    0 -0.28468526206E+03  0.41502697675E+02  0.11972359167E+03  0.31161179496E+03  0.25500000920E-02 0. -1.
       -2    1    3    3    0  502  0.28468526206E+03 -0.41502697675E+02  0.31146827552E+03  0.42400549408E+03  0.25500000920E-02 0.  1.
</event>
<event>
 5   0  0.5653633E-03  0.6012543E+03  0.7818609E-02  0.9902807E-01
       -1   -1    0    0    0  501  0.00000000000E+00  0.00000000000E+00  0.16931638838E+03  0.16931638846E+03  0.50400001928E-02 0. -1.
        1   -1    0    0  501    0  0.00000000000E+00  0.00000000000E+00 -0.53377393977E+03  0.53377393979E+03  0.50400001928E-02 0.  1.
    10030    2    1    2    0    0  0.00000000000E+00  0.00000000000E+00 -0.36445755139E+03  0.70309032825E+03  0.60125427476E+03 0.  0.
        2    1    3    3  502    0 -0.11993898802E+03 -0.20554963128E+03  0.32568989677E+02  0.24020147973E+03  0.25500000920E-02 0. -1.
       -2    1    3    3    0  502  0.11993898802E+03  0.20554963128E+03 -0.39702654107E+03  0.46288884852E+03  0.25500000920E-02 0.  1.
</event>
<event>
 5   0  0.9571790E-03  0.6003176E+03  0.7818609E-02  0.9904747E-01
        2   -1    0    0  501    0  0.00000000000E+00  0.00000000000E+00  0.79117993512E+03  0.79117993512E+03  0.25500000920E-02 0.  1.
       -2   -1    0    0    0  501  0.00000000000E+00  0.00000000000E+00 -0.11387459618E+03  0.11387459621E+03  0.25500000920E-02 0. -1.
    10030    2    1    2    0    0  0.00000000000E+00  0.00000000000E+00  0.67730533894E+03  0.90505453133E+03  0.60031756806E+03 0.  0.
        5    1    3    3  502    0 -0.99954841797E+02 -0.13076861054E+03  0.71700921193E+03  0.73567363680E+03  0.46999998093E+01 0.  1.
       -5    1    3    3    0  502  0.99954841797E+02  0.13076861054E+03 -0.39703872983E+02  0.16938089453E+03  0.46999998093E+01 0. -1.
</event>
<event>
 5   0  0.5785798E-03  0.6014100E+03  0.7818609E-02  0.9902485E-01
       -1   -1    0    0    0  501  0.00000000000E+00  0.00000000000E+00  0.71736089034E+03  0.71736089036E+03  0.50400001928E-02 0. -1.
        1   -1    0    0  501    0  0.00000000000E+00  0.00000000000E+00 -0.12605021258E+03  0.12605021269E+03  0.50400001928E-02 0.  1.
    10030    2    1    2    0    0  0.00000000000E+00  0.00000000000E+00  0.59131067776E+03  0.84341110304E+03  0.60140998587E+03 0.  0.
        1    1    3    3  502    0 -0.25577796607E+03 -0.11116231021E+03  0.45334820601E+03  0.53226311450E+03  0.50400001928E-02 0. -1.
       -1    1    3    3    0  502  0.25577796607E+03  0.11116231021E+03  0.13796247174E+03  0.31114798854E+03  0.50400001928E-02 0.  1.
</event>
<event>
 5   0  0.9428629E-03  0.5979920E+03  0.7818609E-02  0.9909581E-01
        2   -1    0    0  501    0  0.00000000000E+00  0.00000000000E+00  0.33703417639E+03  0.33703417640E+03  0.25500000920E-02 0. -1.
       -2   -1    0    0    0  501  0.00000000000E+00  0.00000000000E+00 -0.26525090093E+03  0.26525090094E+03  0.25500000920E-02 0.  1.
    10030    2    1    2    0    0  0.00000000000E+00  0.00000000000E+00  0.71783275463E+02  0.60228507734E+03  0.59799203653E+03 0.  0.
        3    1    3    3  502    0 -0.10220151763E+03  0.13311271929E+03 -0.21334085284E+03  0.27143779386E+03  0.10100000352E+00 0.  1.
       -3    1    3    3    0  502  0.10220151763E+03 -0.13311271929E+03  0.28512412831E+03  0.33084728348E+03  0.10100000352E+00 0. -1.
</event>
<event>
 5   0  0.3794375E-03  0.5990946E+03  0.7818609E-02  0.9907286E-01
        4   -1    0    0  501    0  0.00000000000E+00  0.00000000000E+00  0.95257987592E+02  0.95266453172E+02  0.12699999809E+01 0.  1.
       -4   -1    0    0    0  501  0.00000000000E+00  0.00000000000E+00 -0.94190265084E+03  0.94190350703E+03  0.12699999809E+01 0. -1.
    10030    2    1    2    0    0  0.00000000000E+00  0.00000000000E+00 -0.84664466325E+03  0.10371699602E+04  0.59909460066E+03 0.  0.
        5    1    3    3  502    0 -0.29548333564E+03  0.20407203423E+02 -0.50035014760E+03  0.58146299607E+03  0.46999998093E+01 0. -1.
       -5    1    3    3    0  502  0.29548333564E+03 -0.20407203423E+02 -0.34629451565E+03  0.45570696414E+03  0.46999998093E+01 0.  1.
</event>
<event>
 5   0  0.5503975E-03  0.5976762E+03  0.7818609E-02  0.9910239E-01
       -1   -1    0    0    0  501  0.00000000000E+00  0.00000000000E+00  0.12452854057E+03  0.12452854067E+03  0.50400001928E-02 0.  1.
        1   -1    0    0  501    0  0.00000000000E+00  0.00000000000E+00 -0.71713852663E+03  0.71713852664E+03  0.50400001928E-02 0. -1.
    10030    2    1    2    0    0  0.00000000000E+00  0.00000000000E+00 -0.59260998606E+03  0.84166706731E+03  0.59767621387E+03 0.  0.
        4    1    3    3  502    0 -0.28903656974E+02 -0.23420919483E+03 -0.55448909988E+03  0.60261857183E+03  0.12699999809E+01 0. -1.
       -4    1    3    3    0  502  0.28903656974E+02  0.23420919483E+03 -0.38120886183E+02  0.23904849548E+03  0.12699999809E+01 0.  1.
</event>
<event>
 5   0  0.5574736E-03  0.5953378E+03  0.7818609E-02  0.9915126E-01
        1   -1    0    0  501    0  0.00000000000E+00  0.00000000000E+00  0.67457466825E+03  0.67457466827E+03  0.50400001928E-02 0. -1.
       -1   -1    0    0    0  501  0.00000000000E+00  0.00000000000E+00 -0.13135204485E+03  0.13135204494E+03  0.50400001928E-02 0.  1.
    10030    2    1    2    0    0  0.00000000000E+00  0.00000000000E+00  0.54322262341E+03  0.80592671322E+03  0.59533776001E+03 0.  0.
        5    1    3    3  502    0 -0.81198069868E+02 -0.10308708642E+03  0.63324887514E+03  0.64671964699E+03  0.46999998093E+01 0. -1.
       -5    1    3    3    0  502  0.81198069868E+02  0.10308708642E+03 -0.90026251735E+02  0.15920706623E+03  0.46999998093E+01 0.  1.
</event>
<event>
 5   0  0.9681801E-03  0.5978399E+03  0.7818609E-02  0.9909898E-01
       -2   -1    0    0    0  501  0.00000000000E+00  0.00000000000E+00  0.97504778678E+02  0.97504778712E+02  0.25500000920E-02 0.  1.
        2   -1    0    0  501    0  0.00000000000E+00  0.00000000000E+00 -0.91639747580E+03  0.91639747580E+03  0.25500000920E-02 0. -1.
    10030    2    1    2    0    0  0.00000000000E+00  0.00000000000E+00 -0.81889269712E+03  0.10139022545E+04  0.59783988852E+03 0.  0.
        4    1    3    3  502    0 -0.77012418961E+02 -0.72257436322E+02 -0.88370264600E+03  0.88999102761E+03  0.12699999809E+01 0. -1.
       -4    1    3    3    0  502  0.77012418961E+02  0.72257436322E+02  0.64809948883E+02  0.12391122690E+03  0.12699999809E+01 0.  1.
</event>
<event>
 5   0  0.5574736E-03  0.6010172E+03  0.7818609E-02  0.9903298E-01
        1   -1    0    0  501    0  0.00000000000E+00  0.00000000000E+00  0.61052824666E+03  0.61052824668E+03  0.50400001928E-02 0.  1.
       -1   -1    0    0    0  501  0.00000000000E+00  0.00000000000E+00 -0.14791359973E+03  0.14791359982E+03  0.50400001928E-02 0. -1.
    10030    2    1    2    0    0  0.00000000000E+00  0.00000000000E+00  0.46261464693E+03  0.75844184650E+03  0.60101724016E+03 0.  0.
        5    1    3    3  502    0  0.21362506560E+03  0.17387901966E+03  0.79803365287E+02  0.28681047617E+03  0.46999998093E+01 0. -1.
       -5    1    3    3    0  502 -0.21362506560E+03 -0.17387901966E+03  0.38281128164E+03  0.47163137033E+03  0.46999998093E+01 0.  1.
</event>
<event>
 5   0  0.9530666E-03  0.6010283E+03  0.7818609E-02  0.9903275E-01
        2   -1    0    0  501    0  0.00000000000E+00  0.00000000000E+00  0.10547745895E+04  0.10547745895E+04  0.25500000920E-02 0.  1.
       -2   -1    0    0    0  501  0.00000000000E+00  0.00000000000E+00 -0.85619020622E+02  0.85619020660E+02  0.25500000920E-02 0. -1.
    10030    2    1    2    0    0  0.00000000000E+00  0.00000000000E+00  0.96915556885E+03  0.11403936101E+04  0.60102834326E+03 0.  0.
        2    1    3    3  502    0 -0.13246028956E+03 -0.61883277442E+02 -0.13589248578E+02  0.14683302088E+03  0.25500000920E-02 0. -1.
       -2    1    3    3    0  502  0.13246028956E+03  0.61883277442E+02  0.98274481743E+03  0.99356058926E+03  0.25500000920E-02 0.  1.
</event>
<event>
 5   0  0.5653633E-03  0.5990106E+03  0.7818609E-02  0.9907461E-01
        1   -1    0    0  501    0  0.00000000000E+00  0.00000000000E+00  0.13952127716E+04  0.13952127716E+04  0.50400001928E-02 0. -1.
       -1   -1    0    0    0  501  0.00000000000E+00  0.00000000000E+00 -0.64293722177E+02  0.64293722374E+02  0.50400001928E-02 0.  1.
    10030    2    1    2    0    0  0.00000000000E+00  0.00000000000E+00  0.13309190494E+04  0.14595064940E+04  0.59901059245E+03 0.  0.
        2    1    3    3  502    0 -0.16836652861E+03 -0.98055737425E+02  0.11122980976E+03  0.22435303917E+03  0.25500000920E-02 0.  1.
       -2    1    3    3    0  502  0.16836652861E+03  0.98055737425E+02  0.12196892397E+04  0.12351534548E+04  0.25500000920E-02 0. -1.
</event>
<event>
 5   0  0.5503975E-03  0.6005110E+03  0.7818609E-02  0.9904346E-01
        1   -1    0    0  501    0  0.00000000000E+00  0.00000000000E+00  0.15863935888E+04  0.15863935888E+04  0.50400001928E-02 0.  1.
       -1   -1    0    0    0  501  0.00000000000E+00  0.00000000000E+00 -0.56829126923E+02  0.56829127146E+02  0.50400001928E-02 0. -1.
    10030    2    1    2    0    0  0.00000000000E+00  0.00000000000E+00  0.15295644619E+04  0.16432227159E+04  0.60051099173E+03 0.  0.
        4    1    3    3  502    0 -0.48106646628E+02 -0.88618097910E+01  0.15754095289E+04  0.15761692732E+04  0.12699999809E+01 0.  1.
       -4    1    3    3    0  502  0.48106646628E+02  0.88618097910E+01 -0.45845066991E+02  0.67053442789E+02  0.12699999809E+01 0. -1.
</event>
<event>
 5   0  0.9530666E-03  0.6001867E+03  0.7818609E-02  0.9905019E-01
       -2   -1    0    0    0  501  0.00000000000E+00  0.00000000000E+00  0.44649312199E+03  0.44649312200E+03  0.25500000920E-02 0. -1.
        2   -1    0    0  501    0  0.00000000000E+00  0.00000000000E+00 -0.20169635098E+03  0.20169635100E+03  0.25500000920E-02 0.  1.
    10030    2    1    2    0    0  0.00000000000E+00  0.00000000000E+00  0.24479677100E+03  0.64818947299E+03  0.60018674911E+03 0.  0.
        2    1    3    3  502    0  0.18849720665E+03 -0.22559585546E+03  0.57318104740E+02  0.29951636358E+03  0.25500000920E-02 0.  1.
       -2    1    3    3    0  502 -0.18849720665E+03  0.22559585546E+03  0.18747866626E+03  0.34867310941E+03  0.25500000920E-02 0. -1.
</event>
<event>
 5   0  0.9866317E-03  0.6002467E+03  0.7818609E-02  0.9904894E-01
       -2   -1    0    0    0  501  0.00000000000E+00  0.00000000000E+00  0.78748358191E+02  0.78748358233E+02  0.25500000920E-02 0.  1.
        2   -1    0    0  501    0  0.00000000000E+00  0.00000000000E+00 -0.11438209514E+04  0.11438209514E+04  0.25500000920E-02 0. -1.
    10030    2    1    2    0    0  0.00000000000E+00  0.00000000000E+00 -0.10650725932E+04  0.12225693097E+04  0.60024668935E+03 0.  0.
        1    1    3    3  502    0 -0.10011337069E+03 -0.27001973558E+03 -0.70464919674E+03  0.76122521969E+03  0.50400001928E-02 0.  1.
       -1    1    3    3    0  502  0.10011337069E+03  0.27001973558E+03 -0.36042339650E+03  0.46134408998E+03  0.50400001928E-02 0. -1.
</event>
<event>
 5   0  0.3794375E-03  0.6011768E+03  0.7818609E-02  0.9902968E-01
        3   -1    0    0  501    0  0.00000000000E+00  0.00000000000E+00  0.26053588933E+03  0.26053590890E+03  0.10100000352E+00 0.  1.
       -3   -1    0    0    0  501  0.00000000000E+00  0.00000000000E+00 -0.34679823584E+03  0.34679825054E+03  0.10100000352E+00 0. -1.
    10030    2    1    2    0    0  0.00000000000E+00  0.00000000000E+00 -0.86262346510E+02  0.60733415945E+03  0.60117683655E+03 0.  0.
        3    1    3    3  502    0  0.73572240112E+02  0.27190888588E+03  0.62853144967E+02  0.28861366005E+03  0.10100000352E+00 0.  1.
       -3    1    3    3    0  502 -0.73572240112E+02 -0.27190888588E+03 -0.14911549148E+03  0.31872049940E+03  0.10100000352E+00 0. -1.
</event>
<event>
 5   0  0.5653633E-03  0.5982620E+03  0.7818609E-02  0.9909018E-01
        1   -1    0    0  501    0  0.00000000000E+00  0.00000000000E+00  0.10139025966E+04  0.10139025966E+04  0.50400001928E-02 0. -1.
       -1   -1    0    0    0  501  0.00000000000E+00  0.00000000000E+00 -0.88252427830E+02  0.88252427974E+02  0.50400001928E-02 0.  1.
    10030    2    1    2    0    0  0.00000000000E+00  0.00000000000E+00  0.92565016872E+03  0.11021550245E+04  0.59826203562E+03 0.  0.
        2    1    3    3  502    0  0.20027747750E+03 -0.11022618660E+03  0.10741430992E+03  0.25258407350E+03  0.25500000920E-02 0.  1.
       -2    1    3    3    0  502 -0.20027747750E+03  0.11022618660E+03  0.81823585880E+03  0.84957095104E+03  0.25500000920E-02 0. -1.
</event>
<event>
 5   0  0.5785798E-03  0.5909456E+03  0.7818609E-02  0.9924371E-01
        1   -1    0    0  501    0  0.00000000000E+00  0.00000000000E+00  0.12888570186E+04  0.12888570186E+04  0.50400001928E-02 0.  1.
       -1   -1    0    0    0  501  0.00000000000E+00  0.00000000000E+00 -0.67737664930E+02  0.67737665118E+02  0.50400001928E-02 0. -1.
    10030    2    1    2    0    0  0.00000000000E+00  0.00000000000E+00  0.12211193537E+04  0.13565946837E+04  0.59094556434E+03 0.  0.
        1    1    3    3  502    0  0.12148641862E+03 -0.22331382755E+03  0.26486930055E+03  0.36712908069E+03  0.50400001928E-02 0. -1.
       -1    1    3    3    0  502 -0.12148641862E+03  0.22331382755E+03  0.95625005312E+03  0.98946560304E+03  0.50400001928E-02 0.  1.
</event>
<event>
 5   0  0.5503975E-03  0.5989475E+03  0.7818609E-02  0.9907592E-01
        1   -1    0    0  501    0  0.00000000000E+00  0.00000000000E+00  0.12848799791E+04  0.12848799791E+04  0.50400001928E-02 0.  1.
       -1   -1    0    0    0  501  0.00000000000E+00  0.00000000000E+00 -0.69799920071E+02  0.69799920253E+02  0.50400001928E-02 0. -1.
    10030    2    1    2    0    0  0.00000000000E+00  0.00000000000E+00  0.12150800590E+04  0.13546798993E+04  0.59894747673E+03 0.  0.
        4    1    3    3  502    0 -0.52024349563E+02 -0.25517267132E+03  0.94197033437E+03  0.97730719268E+03  0.12699999809E+01 0.  1.
       -4    1    3    3    0  502  0.52024349563E+02  0.25517267132E+03  0.27310972464E+03  0.37737270666E+03  0.12699999809E+01 0. -1.
</event>
<event>
 5   0  0.9681801E-03  0.6009184E+03  0.7818609E-02  0.9903503E-01
       -2   -1    0    0    0  501  0.00000000000E+00  0.00000000000E+00  0.23531573567E+03  0.23531573568E+03  0.25500000920E-02 0.  1.
        2   -1    0    0  501    0  0.00000000000E+00  0.00000000000E+00 -0.38363655227E+03  0.38363655228E+03  0.25500000920E-02 0. -1.
    10030    2    1    2    0    0  0.00000000000E+00  0.00000000000E+00 -0.14832081660E+03  0.61895228796E+03  0.60091835563E+03 0.  0.
        4    1    3    3  502    0  0.19774187862E+03  0.13620448605E+03  0.11187157752E+03  0.26489691455E+03  0.12699999809E+01 0.  1.
       -4    1    3    3    0  502 -0.19774187862E+03 -0.13620448605E+03 -0.26019239412E+03  0.35405537341E+03  0.12699999809E+01 0. -1.
</event>
<event>
 5   0  0.5491236E-03  0.5991468E+03  0.7818609E-02  0.9907178E-01
       -1   -1    0    0    0  501  0.00000000000E+00  0.00000000000E+00  0.54606822512E+03  0.54606822514E+03  0.50400001928E-02 0.  1.
        1   -1    0    0  501    0  0.00000000000E+00  0.00000000000E+00 -0.16434616434E+03  0.16434616442E+03  0.50400001928E-02 0. -1.
    10030    2    1    2    0    0  0.00000000000E+00  0.00000000000E+00  0.38172206078E+03  0.71041438956E+03  0.59914678770E+03 0.  0.
        3    1    3    3  502    0  0.19993881121E+03 -0.18091539014E+03  0.34563276988E+03  0.43836962535E+03  0.10100000352E+00 0.  1.
       -3    1    3    3    0  502 -0.19993881121E+03  0.18091539014E+03  0.36089290901E+02  0.27204476421E+03  0.10100000352E+00 0. -1.
</event>
<event>
 5   0  0.5785798E-03  0.5995810E+03  0.7818609E-02  0.9906276E-01
        1   -1    0    0  501    0  0.00000000000E+00  0.00000000000E+00  0.14230361620E+04  0.14230361620E+04  0.50400001928E-02 0. -1.
       -1   -1    0    0    0  501  0.00000000000E+00  0.00000000000E+00 -0.63156750648E+02  0.63156750849E+02  0.50400001928E-02 0.  1.
    10030    2    1    2    0    0  0.00000000000E+00  0.00000000000E+00  0.13598794113E+04  0.14861929128E+04  0.59958098769E+03 0.  0.
        1    1    3    3  502    0 -0.13207337479E+03  0.23636751522E+03  0.36095096612E+03  0.45121899179E+03  0.50400001928E-02 0. -1.
       -1    1    3    3    0  502  0.13207337479E+03 -0.23636751522E+03  0.99892844520E+03  0.10349739210E+04  0.50400001928E-02 0.  1.
</event>
<event>
 5   0  0.5785798E-03  0.6004315E+03  0.7818609E-02  0.9904511E-01
       -1   -1    0    0    0  501  0.00000000000E+00  0.00000000000E+00  0.12677283208E+03  0.12677283218E+03  0.50400001928E-02 0.  1.
        1   -1    0    0  501    0  0.00000000000E+00  0.00000000000E+00 -0.71095272299E+03  0.71095272301E+03  0.50400001928E-02 0. -1.
    10030    2    1    2    0    0  0.00000000000E+00  0.00000000000E+00 -0.58417989091E+03  0.83772555519E+03  0.60043147892E+03 0.  0.
        1    1    3    3  502    0 -0.77571612449E+02 -0.14684013354E+03 -0.64103122639E+03  0.66219363717E+03  0.50400001928E-02 0. -1.
       -1    1    3    3    0  502  0.77571612449E+02  0.14684013354E+03  0.56851335476E+02  0.17553191803E+03  0.50400001928E-02 0.  1.
</event>
<event>
 5   0  0.9681801E-03  0.6010777E+03  0.7818609E-02  0.9903173E-01
        2   -1    0    0  501    0  0.00000000000E+00  0.00000000000E+00  0.19323989986E+04  0.19323989986E+04  0.25500000920E-02 0.  1.
       -2   -1    0    0    0  501  0.00000000000E+00  0.00000000000E+00 -0.46741698885E+02  0.46741698954E+02  0.25500000920E-02 0. -1.
    10030    2    1    2    0    0  0.00000000000E+00  0.00000000000E+00  0.18856572997E+04  0.19791406976E+04  0.60107773936E+03 0.  0.
        4    1    3    3  502    0  0.25600919854E+03 -0.93086399948E+02  0.13608298289E+04  0.13878275195E+04  0.12699999809E+01 0.  1.
       -4    1    3    3    0  502 -0.25600919854E+03  0.93086399948E+02  0.52482747080E+03  0.59131317810E+03  0.12699999809E+01 0. -1.
</event>
<event>
 5   0  0.9428629E-03  0.6039093E+03  0.7818609E-02  0.9897329E-01
       -2   -1    0    0    0  501  0.00000000000E+00  0.00000000000E+00  0.68643456823E+02  0.68643456870E+02  0.25500000920E-02 0. -1.
        2   -1    0    0  501    0  0.00000000000E+00  0.00000000000E+00 -0.13282636473E+04  0.13282636473E+04  0.25500000920E-02 0.  1.
    10030    2    1    2    0    0  0.00000000000E+00  0.00000000000E+00 -0.12596201905E+04  0.13969071042E+04  0.60390929238E+03 0.  0.
        3    1    3    3  502    0 -0.23216103639E+03  0.86316878372E+02 -0.10292968691E+04  0.10586790851E+04  0.10100000352E+00 0.  1.
       -3    1    3    3    0  502  0.23216103639E+03 -0.86316878372E+02 -0.23032332138E+03  0.33822801906E+03  0.10100000352E+00 0. -1.
</event>
<event>
 5   0  0.3794375E-03  0.6001827E+03  0.7818609E-02  0.9905027E-01
        3   -1    0    0  501    0  0.00000000000E+00  0.00000000000E+00  0.77701998052E+03  0.77701998708E+03  0.10100000352E+00 0. -1.
       -3   -1    0    0    0  501  0.00000000000E+00  0.00000000000E+00 -0.11589765394E+03  0.11589769795E+03  0.10100000352E+00 0.  1.
    10030    2    1    2    0    0  0.00000000000E+00  0.00000000000E+00  0.66112232658E+03  0.89291768503E+03  0.60018269013E+03 0.  0.
        4    1    3    3  502    0 -0.68008213376E+02 -0.33253350831E+02  0.76257651619E+03  0.76632594786E+03  0.12699999809E+01 0. -1.
       -4    1    3    3    0  502  0.68008213376E+02  0.33253350831E+02 -0.10145418961E+03  0.12659173716E+03  0.12699999809E+01 0.  1.
</event>
<event>
 5   0  0.9571790E-03  0.6003580E+03  0.7818609E-02  0.9904664E-01
        2   -1    0    0  501    0  0.00000000000E+00  0.00000000000E+00  0.38259468208E+03  0.38259468209E+03  0.25500000920E-02 0. -1.
       -2   -1    0    0    0  501  0.00000000000E+00  0.00000000000E+00 -0.23551667533E+03  0.23551667534E+03  0.25500000920E-02 0.  1.
    10030    2    1    2    0    0  0.00000000000E+00  0.00000000000E+00  0.14707800675E+03  0.61811135743E+03  0.60035798497E+03 0.  0.
        5    1    3    3  502    0  0.61255571919E+01  0.43982372668E+02 -0.23207786990E+03  0.23633493024E+03  0.46999998093E+01 0.  1.
       -5    1    3    3    0  502 -0.61255571919E+01 -0.43982372668E+02  0.37915587665E+03  0.38177642719E+03  0.46999998093E+01 0. -1.
</event>
<event>
 5   0  0.9428629E-03  0.6003584E+03  0.7818609E-02  0.9904663E-01
        2   -1    0    0  501    0  0.00000000000E+00  0.00000000000E+00  0.39736578365E+03  0.39736578366E+03  0.25500000920E-02 0.  1.
       -2   -1    0    0    0  501  0.00000000000E+00  0.00000000000E+00 -0.22676225852E+03  0.22676225854E+03  0.25500000920E-02 0. -1.
    10030    2    1    2    0    0  0.00000000000E+00  0.00000000000E+00  0.17060352513E+03  0.62412804219E+03  0.60035843483E+03 0.  0.
        3    1    3    3  502    0 -0.24904021915E+03  0.43361834543E+02  0.25359462956E+03  0.35806637065E+03  0.10100000352E+00 0.  1.
       -3    1    3    3    0  502  0.24904021915E+03 -0.43361834543E+02 -0.82991104430E+02  0.26606167154E+03  0.10100000352E+00 0. -1.
</event>
<event>
 5   0  0.5491236E-03  0.6027080E+03  0.7818609E-02  0.9899804E-01
       -1   -1    0    0    0  501  0.00000000000E+00  0.00000000000E+00  0.39491022216E+03  0.39491022220E+03  0.50400001928E-02 0.  1.
        1   -1    0    0  501    0  0.00000000000E+00  0.00000000000E+00 -0.22996171289E+03  0.22996171295E+03  0.50400001928E-02 0. -1.
    10030    2    1    2    0    0  0.00000000000E+00  0.00000000000E+00  0.16494850927E+03  0.62487193514E+03  0.60270799283E+03 0.  0.
        3    1    3    3  502    0 -0.59512107432E+02  0.13955691914E+03 -0.18747825775E+03  0.24117614298E+03  0.10100000352E+00 0. -1.
       -3    1    3    3    0  502  0.59512107432E+02 -0.13955691914E+03  0.35242676702E+03  0.38369579217E+03  0.10100000352E+00 0.  1.
</event>
<event>
 5   0  0.9571790E-03  0.5962475E+03  0.7818609E-02  0.9913222E-01
       -2   -1    0    0    0  501  0.00000000000E+00  0.00000000000E+00  0.55549351784E+02  0.55549351843E+02  0.25500000920E-02 0.  1.
        2   -1    0    0  501    0  0.00000000000E+00  0.00000000000E+00 -0.15999784224E+04  0.15999784224E+04  0.25500000920E-02 0. -1.
    10030    2    1    2    0    0  0.00000000000E+00  0.00000000000E+00 -0.15444290706E+04  0.16555277743E+04  0.59624747977E+03 0.  0.
        5    1    3    3  502    0  0.10777539987E+03  0.13320513527E+03 -0.14494750109E+04  0.14595749526E+04  0.46999998093E+01 0. -1.
       -5    1    3    3    0  502 -0.10777539987E+03 -0.13320513527E+03 -0.94954059725E+02  0.19595282171E+03  0.46999998093E+01 0.  1.
</event>
<event>
 5   0  0.9530666E-03  0.5997723E+03  0.7818609E-02  0.9905879E-01
       -2   -1    0    0    0  501  0.00000000000E+00  0.00000000000E+00  0.23999749223E+03  0.23999749224E+03  0.25500000920E-02 0.  1.
        2   -1    0    0  501    0  0.00000000000E+00  0.00000000000E+00 -0.37471931083E+03  0.37471931084E+03  0.25500000920E-02 0. -1.
    10030    2    1    2    0    0  0.00000000000E+00  0.00000000000E+00 -0.13472181860E+03  0.61471680308E+03  0.59977227310E+03 0.  0.
        2    1    3    3  502    0  0.11954563417E+03 -0.30450065427E+02  0.21278723222E+03  0.24596091425E+03  0.25500000920E-02 0.  1.
       -2    1    3    3    0  502 -0.11954563417E+03  0.30450065427E+02 -0.34750905083E+03  0.36875588883E+03  0.25500000920E-02 0. -1.
</event>
<event>
 5   0  0.9571790E-03  0.5999264E+03  0.7818609E-02  0.9905559E-01
       -2   -1    0    0    0  501  0.00000000000E+00  0.00000000000E+00  0.93037763419E+02  0.93037763454E+02  0.25500000920E-02 0.  1.
        2   -1    0    0  501    0  0.00000000000E+00  0.00000000000E+00 -0.96711180011E+03  0.96711180012E+03  0.25500000920E-02 0. -1.
    10030    2    1    2    0    0  0.00000000000E+00  0.00000000000E+00 -0.87407403670E+03  0.10601495636E+04  0.59992639175E+03 0.  0.
        5    1    3    3  502    0 -0.25214340610E+03  0.10369326252E+03 -0.65794443535E+03  0.71220892997E+03  0.46999998093E+01 0. -1.
       -5    1    3    3    0  502  0.25214340610E+03 -0.10369326252E+03 -0.21612960135E+03  0.34794063360E+03  0.46999998093E+01 0.  1.
</event>
<event>
 5   0  0.5785798E-03  0.6022041E+03  0.7818609E-02  0.9900844E-01
        1   -1    0    0  501    0  0.00000000000E+00  0.00000000000E+00  0.32632939708E+04  0.32632939708E+04  0.50400001928E-02 0. -1.
       -1   -1    0    0    0  501  0.00000000000E+00  0.00000000000E+00 -0.27782494102E+02  0.27782494559E+02  0.50400001928E-02 0.  1.
    10030    2    1    2    0    0  0.00000000000E+00  0.00000000000E+00  0.32355114767E+04  0.32910764654E+04  0.60220410579E+03 0.  0.
        1    1    3    3  502    0 -0.99609651231E+01  0.26590525774E+03  0.84763671573E+03  0.88842153779E+03  0.50400001928E-02 0.  1.
       -1    1    3    3    0  502  0.99609651231E+01 -0.26590525774E+03  0.23878747610E+04  0.24026549276E+04  0.50400001928E-02 0. -1.
</event>
<event>
 5   0  0.3794375E-03  0.6011212E+03  0.7818609E-02  0.9903083E-01
       -3   -1    0    0    0  501  0.00000000000E+00  0.00000000000E+00  0.29298982733E+04  0.29298982750E+04  0.10100000352E+00 0.  1.
        3   -1    0    0  501    0  0.00000000000E+00  0.00000000000E+00 -0.30832617215E+02  0.30832782640E+02  0.10100000352E+00 0. -1.
    10030    2    1    2    0    0  0.00000000000E+00  0.00000000000E+00  0.28990656560E+04  0.29607310576E+04  0.60112121708E+03 0.  0.
        1    1    3    3  502    0  0.91393008073E+02 -0.10461244319E+03  0.27623041916E+04  0.27657948030E+04  0.50400001928E-02 0.  1.
       -1    1    3    3    0  502 -0.91393008073E+02  0.10461244319E+03  0.13676146439E+03  0.19493625461E+03  0.50400001928E-02 0. -1.
</event>
<event>
 5   0  0.9530666E-03  0.6001572E+03  0.7818609E-02  0.9905080E-01
        2   -1    0    0  501    0  0.00000000000E+00  0.00000000000E+00  0.26110570661E+03  0.26110570662E+03  0.25500000920E-02 0.  1.
       -2   -1    0    0    0  501  0.00000000000E+00  0.00000000000E+00 -0.34486860046E+03  0.34486860047E+03  0.25500000920E-02 0. -1.
    10030    2    1    2    0    0  0.00000000000E+00  0.00000000000E+00 -0.83762893850E+02  0.60597430709E+03  0.60015717814E+03 0.  0.
        2    1    3    3  502    0 -0.52900009673E+02  0.26093633858E+03  0.97883420558E+02  0.28366767148E+03  0.25500000920E-02 0.  1.
       -2    1    3    3    0  502  0.52900009673E+02 -0.26093633858E+03 -0.18164631441E+03  0.32230663561E+03  0.25500000920E-02 0. -1.
</event>
<event>
 5   0  0.5574736E-03  0.6004849E+03  0.7818609E-02  0.9904401E-01
       -1   -1    0    0    0  501  0.00000000000E+00  0.00000000000E+00  0.61196165220E+02  0.61196165427E+02  0.50400001928E-02 0.  1.
        1   -1    0    0  501    0  0.00000000000E+00  0.00000000000E+00 -0.14730582424E+04  0.14730582424E+04  0.50400001928E-02 0. -1.
    10030    2    1    2    0    0  0.00000000000E+00  0.00000000000E+00 -0.14118620772E+04  0.15342544078E+04  0.60048485658E+03 0.  0.
        5    1    3    3  502    0 -0.27828638821E+01  0.14611614506E+03 -0.13759412526E+04  0.13836885823E+04  0.46999998093E+01 0. -1.
       -5    1    3    3    0  502  0.27828638821E+01 -0.14611614506E+03 -0.35920824565E+02  0.15056582552E+03  0.46999998093E+01 0.  1.
</event>
<event>
 5   0  0.5491236E-03  0.6006017E+03  0.7818609E-02  0.9904158E-01
       -1   -1    0    0    0  501  0.00000000000E+00  0.00000000000E+00  0.10248100808E+03  0.10248100821E+03  0.50400001928E-02 0.  1.
        1   -1    0    0  501    0  0.00000000000E+00  0.00000000000E+00 -0.87997386142E+03  0.87997386144E+03  0.50400001928E-02 0. -1.
    10030    2    1    2    0    0  0.00000000000E+00  0.00000000000E+00 -0.77749285334E+03  0.98245486965E+03  0.60060172652E+03 0.  0.
        3    1    3    3  502    0 -0.90076133526E+02 -0.10045721196E+03 -0.82759792466E+03  0.83852471423E+03  0.10100000352E+00 0. -1.
       -3    1    3    3    0  502  0.90076133526E+02  0.10045721196E+03  0.50105071324E+02  0.14393015542E+03  0.10100000352E+00 0.  1.
</event>
<event>
 5   0  0.9681801E-03  0.6102016E+03  0.7818609E-02  0.9884464E-01
       -2   -1    0    0    0  501  0.00000000000E+00  0.00000000000E+00  0.91349949978E+02  0.91349950014E+02  0.25500000920E-02 0. -1.
        2   -1    0    0  501    0  0.00000000000E+00  0.00000000000E+00 -0.10190098727E+04  0.10190098727E+04  0.25500000920E-02 0.  1.
    10030    2    1    2    0    0  0.00000000000E+00  0.00000000000E+00 -0.92765992272E+03  0.11103598227E+04  0.61020160904E+03 0.  0.
        4    1    3    3  502    0 -0.17162930896E+03  0.21920026196E+03 -0.69095621426E+03  0.74493454576E+03  0.12699999809E+01 0.  1.
       -4    1    3    3    0  502  0.17162930896E+03 -0.21920026196E+03 -0.23670370846E+03  0.36542527696E+03  0.12699999809E+01 0. -1.
</event>
<event>
 5   0  0.5491236E-03  0.6000430E+03  0.7818609E-02  0.9905317E-01
       -1   -1    0    0    0  501  0.00000000000E+00  0.00000000000E+00  0.11020232280E+03  0.11020232292E+03  0.50400001928E-02 0.  1.
        1   -1    0    0  501    0  0.00000000000E+00  0.00000000000E+00 -0.81679687450E+03  0.81679687451E+03  0.50400001928E-02 0. -1.
    10030    2    1    2    0    0  0.00000000000E+00  0.00000000000E+00 -0.70659455169E+03  0.92699919743E+03  0.60004304142E+03 0.  0.
        3    1    3    3  502    0 -0.22871043367E+03  0.17178652408E+03 -0.21345437035E+03  0.35690594103E+03  0.10100000352E+00 0.  1.
       -3    1    3    3    0  502  0.22871043367E+03 -0.17178652408E+03 -0.49314018135E+03  0.57009325639E+03  0.10100000352E+00 0. -1.
</event>
<event>
 5   0  0.5503975E-03  0.6012040E+03  0.7818609E-02  0.9902911E-01
       -1   -1    0    0    0  501  0.00000000000E+00  0.00000000000E+00  0.45944117687E+03  0.45944117690E+03  0.50400001928E-02 0.  1.
        1   -1    0    0  501    0  0.00000000000E+00  0.00000000000E+00 -0.19667710203E+03  0.19667710209E+03  0.50400001928E-02 0. -1.
    10030    2    1    2    0    0  0.00000000000E+00  0.00000000000E+00  0.26276407485E+03  0.65611827899E+03  0.60120398951E+03 0.  0.
        4    1    3    3  502    0 -0.11425432861E+03 -0.14354541128E+03  0.39125084129E+03  0.43213212148E+03  0.12699999809E+01 0.  1.
       -4    1    3    3    0  502  0.11425432861E+03  0.14354541128E+03 -0.12848676645E+03  0.22398615751E+03  0.12699999809E+01 0. -1.
</event>
<event>
 5   0  0.5491236E-03  0.6018578E+03  0.7818609E-02  0.9901559E-01
        1   -1    0    0  501    0  0.00000000000E+00  0.00000000000E+00  0.23077452135E+03  0.23077452141E+03  0.50400001928E-02 0.  1.
       -1   -1    0    0    0  501  0.00000000000E+00  0.00000000000E+00 -0.39240993380E+03  0.39240993383E+03  0.50400001928E-02 0. -1.
    10030    2    1    2    0    0  0.00000000000E+00  0.00000000000E+00 -0.16163541244E+03  0.62318445523E+03  0.60185783927E+03 0.  0.
        3    1    3    3  502    0 -0.19429047578E+03  0.10845601411E+03  0.12896122026E+03  0.25718184716E+03  0.10100000352E+00 0.  1.
       -3    1    3    3    0  502  0.19429047578E+03 -0.10845601411E+03 -0.29059663270E+03  0.36600260807E+03  0.10100000352E+00 0. -1.
</event>
<event>
 5   0  0.9571790E-03  0.5975213E+03  0.7818609E-02  0.9910562E-01
        2   -1    0    0  501    0  0.00000000000E+00  0.00000000000E+00  0.71775692735E+03  0.71775692735E+03  0.25500000920E-02 0. -1.
       -2   -1    0    0    0  501  0.00000000000E+00  0.00000000000E+00 -0.12435676202E+03  0.12435676205E+03  0.25500000920E-02 0.  1.
    10030    2    1    2    0    0  0.00000000000E+00  0.00000000000E+00  0.59340016533E+03  0.84211368940E+03  0.59752130477E+03 0.  0.
        5    1    3    3  502    0 -0.14754469841E+03  0.10824930901E+03  0.62946219551E+03  0.65553954610E+03  0.46999998093E+01 0. -1.
       -5    1    3    3    0  502  0.14754469841E+03 -0.10824930901E+03 -0.36062030181E+02  0.18657414330E+03  0.46999998093E+01 0.  1.
</event>
<event>
 5   0  0.5503975E-03  0.5997272E+03  0.7818609E-02  0.9905972E-01
       -1   -1    0    0    0  501  0.00000000000E+00  0.00000000000E+00  0.26103703111E+03  0.26103703116E+03  0.50400001928E-02 0. -1.
        1   -1    0    0  501    0  0.00000000000E+00  0.00000000000E+00 -0.34446523071E+03  0.34446523074E+03  0.50400001928E-02 0.  1.
    10030    2    1    2    0    0  0.00000000000E+00  0.00000000000E+00 -0.83428199592E+02  0.60550226190E+03  0.59972720856E+03 0.  0.
        4    1    3    3  502    0  0.16412918362E+03 -0.24247297354E+03 -0.10702890564E+03  0.31175043120E+03  0.12699999809E+01 0.  1.
       -4    1    3    3    0  502 -0.16412918362E+03  0.24247297354E+03  0.23600706051E+02  0.29375183070E+03  0.12699999809E+01 0. -1.
</event>
<event>
 5   0  0.5574736E-03  0.5995541E+03  0.7818609E-02  0.9906332E-01
       -1   -1    0    0    0  501  0.00000000000E+00  0.00000000000E+00  0.95298528936E+02  0.95298529070E+02  0.50400001928E-02 0. -1.
        1   -1    0    0  501    0  0.00000000000E+00  0.00000000000E+00 -0.94299741757E+03  0.94299741759E+03  0.50400001928E-02 0.  1.
    10030    2    1    2    0    0  0.00000000000E+00  0.00000000000E+00 -0.84769888864E+03  0.10382959467E+04  0.59955405682E+03 0.  0.
        5    1    3    3  502    0  0.14583402821E+03  0.60804186652E+01 -0.87723087321E+03  0.88930345226E+03  0.46999998093E+01 0.  1.
       -5    1    3    3    0  502 -0.14583402821E+03 -0.60804186652E+01  0.29531984579E+02  0.14899249440E+03  0.46999998093E+01 0. -1.
</event>
<event>
 5   0  0.9571790E-03  0.5997163E+03  0.7818609E-02  0.9905995E-01
       -2   -1    0    0    0  501  0.00000000000E+00  0.00000000000E+00  0.89406686206E+02  0.89406686242E+02  0.25500000920E-02 0.  1.
        2   -1    0    0  501    0  0.00000000000E+00  0.00000000000E+00 -0.10056842742E+04  0.10056842742E+04  0.25500000920E-02 0. -1.
    10030    2    1    2    0    0  0.00000000000E+00  0.00000000000E+00 -0.91627758796E+03  0.10950909604E+04  0.59971626072E+03 0.  0.
        5    1    3    3  502    0 -0.94916697145E+02  0.14024370787E+03 -0.63510223368E+01  0.16952847099E+03  0.46999998093E+01 0.  1.
       -5    1    3    3    0  502  0.94916697145E+02 -0.14024370787E+03 -0.90992656562E+03  0.92556248942E+03  0.46999998093E+01 0. -1.
</event>
<event>
 5   0  0.5574736E-03  0.5981223E+03  0.7818609E-02  0.9909309E-01
        1   -1    0    0  501    0  0.00000000000E+00  0.00000000000E+00  0.64609076431E+03  0.64609076433E+03  0.50400001928E-02 0. -1.
       -1   -1    0    0    0  501  0.00000000000E+00  0.00000000000E+00 -0.13842880570E+03  0.13842880579E+03  0.50400001928E-02 0.  1.
    10030    2    1    2    0    0  0.00000000000E+00  0.00000000000E+00  0.50766195861E+03  0.78451957011E+03  0.59812230494E+03 0.  0.
        5    1    3    3  502    0 -0.10934130811E+02 -0.10928555728E+03  0.61862795268E+03  0.62831960186E+03  0.46999998093E+01 0. -1.
       -5    1    3    3    0  502  0.10934130811E+02  0.10928555728E+03 -0.11096599407E+03  0.15619996826E+03  0.46999998093E+01 0.  1.
</event>
<event>
 5   0  0.9681801E-03  0.6008474E+03  0.7818609E-02  0.9903650E-01
        2   -1    0    0  501    0  0.00000000000E+00  0.00000000000E+00  0.99381631903E+03  0.99381631903E+03  0.25500000920E-02 0. -1.
       -2   -1    0    0    0  501  0.00000000000E+00  0.00000000000E+00 -0.90815977841E+02  0.90815977877E+02  0.25500000920E-02 0.  1.
    10030    2    1    2    0    0  0.00000000000E+00  0.00000000000E+00  0.90300034119E+03  0.10846322969E+04  0.60084740435E+03 0.  0.
        4    1    3    3  502    0 -0.23856102409E+03  0.25149871930E+02  0.12502408365E+03  0.27051157584E+03  0.12699999809E+01 0.  1.
       -4    1    3    3    0  502  0.23856102409E+03 -0.25149871930E+02  0.77797625754E+03  0.81412072107E+03  0.12699999809E+01 0. -1.
</event>
<event>
 5   0  0.5653633E-03  0.5983730E+03  0.7818609E-02  0.9908787E-01
       -1   -1    0    0    0  501  0.00000000000E+00  0.00000000000E+00  0.19474303542E+03  0.19474303548E+03  0.50400001928E-02 0.  1.
        1   -1    0    0  501    0  0.00000000000E+00  0.00000000000E+00 -0.45964445665E+03  0.45964445667E+03  0.50400001928E-02 0. -1.
    10030    2    1    2    0    0  0.00000000000E+00  0.00000000000E+00 -0.26490142123E+03  0.65438749216E+03  0.59837298311E+03 0.  0.
        2    1    3    3  502    0  0.19482038086E+03  0.19518357503E+03 -0.55684710178E+01  0.27583077536E+03  0.25500000920E-02 0.  1.
       -2    1    3    3    0  502 -0.19482038086E+03 -0.19518357503E+03 -0.25933295021E+03  0.37855671680E+03  0.25500000920E-02 0. -1.
</event>
<event>
 5   0  0.5653633E-03  0.6000267E+03  0.7818609E-02  0.9905351E-01
       -1   -1    0    0    0  501  0.00000000000E+00  0.00000000000E+00  0.12710709401E+03  0.12710709411E+03  0.50400001928E-02 0.  1.
        1   -1    0    0  501    0  0.00000000000E+00  0.00000000000E+00 -0.70812743399E+03  0.70812743401E+03  0.50400001928E-02 0. -1.
    10030    2    1    2    0    0  0.00000000000E+00  0.00000000000E+00 -0.58102033998E+03  0.83523452812E+03  0.60002673399E+03 0.  0.
        2    1    3    3  502    0  0.27695830375E+03 -0.31741776167E+01 -0.13002544335E+03  0.30597809291E+03  0.25500000920E-02 0.  1.
       -2    1    3    3    0  502 -0.27695830375E+03  0.31741776167E+01 -0.45099489663E+03  0.52925643521E+03  0.25500000920E-02 0. -1.
</event>
<event>
 5   0  0.5785798E-03  0.5990698E+03  0.7818609E-02  0.9907338E-01
       -1   -1    0    0    0  501  0.00000000000E+00  0.00000000000E+00  0.11288706313E+03  0.11288706324E+03  0.50400001928E-02 0.  1.
        1   -1    0    0  501    0  0.00000000000E+00  0.00000000000E+00 -0.79478691963E+03  0.79478691965E+03  0.50400001928E-02 0. -1.
    10030    2    1    2    0    0  0.00000000000E+00  0.00000000000E+00 -0.68189985651E+03  0.90767398289E+03  0.59906981639E+03 0.  0.
        1    1    3    3  502    0 -0.27277039889E+03 -0.12038194571E+03 -0.38448632709E+03  0.48654418002E+03  0.50400001928E-02 0.  1.
       -1    1    3    3    0  502  0.27277039889E+03  0.12038194571E+03 -0.29741352942E+03  0.42112980287E+03  0.50400001928E-02 0. -1.
</event>
<event>
 5   0  0.9428629E-03  0.6006221E+03  0.7818609E-02  0.9904116E-01
        2   -1    0    0  501    0  0.00000000000E+00  0.00000000000E+00  0.72305034775E+03  0.72305034776E+03  0.25500000920E-02 0.  1.
       -2   -1    0    0    0  501  0.00000000000E+00  0.00000000000E+00 -0.12473090693E+03  0.12473090696E+03  0.25500000920E-02 0. -1.
    10030    2    1    2    0    0  0.00000000000E+00  0.00000000000E+00  0.59831944083E+03  0.84778125471E+03  0.60062209631E+03 0.  0.
        3    1    3    3  502    0 -0.56559592012E+02 -0.28850525784E+03  0.21269486386E+03  0.36286827715E+03  0.10100000352E+00 0.  1.
       -3    1    3    3    0  502  0.56559592012E+02  0.28850525784E+03  0.38562457697E+03  0.48491297757E+03  0.10100000352E+00 0. -1.
</event>
<event>
 5   0  0.5653633E-03  0.6023173E+03  0.7818609E-02  0.9900610E-01
       -1   -1    0    0    0  501  0.00000000000E+00  0.00000000000E+00  0.32536002117E+03  0.32536002121E+03  0.50400001928E-02 0.  1.
        1   -1    0    0  501    0  0.00000000000E+00  0.00000000000E+00 -0.27875741491E+03  0.27875741496E+03  0.50400001928E-02 0. -1.
    10030    2    1    2    0    0  0.00000000000E+00  0.00000000000E+00  0.46602606257E+02  0.60411743616E+03  0.60231725342E+03 0.  0.
        2    1    3    3  502    0 -0.29183972223E+03  0.15657920253E+02 -0.49585859809E+02  0.29643608322E+03  0.25500000920E-02 0. -1.
       -2    1    3    3    0  502  0.29183972223E+03 -0.15657920253E+02  0.96188466066E+02  0.30768135294E+03  0.25500000920E-02 0.  1.
</event>
<event>
 5   0  0.3794375E-03  0.6047822E+03  0.7818609E-02  0.9895534E-01
        3   -1    0    0  501    0  0.00000000000E+00  0.00000000000E+00  0.31312143054E+03  0.31312144683E+03  0.10100000352E+00 0. -1.
       -3   -1    0    0    0  501  0.00000000000E+00  0.00000000000E+00 -0.29202843888E+03  0.29202845635E+03  0.10100000352E+00 0.  1.
    10030    2    1    2    0    0  0.00000000000E+00  0.00000000000E+00  0.21092991654E+02  0.60514990317E+03  0.60478218477E+03 0.  0.
        2    1    3    3  502    0  0.89658760643E+02 -0.28857838392E+03  0.21697585146E+02  0.30296363187E+03  0.25500000920E-02 0. -1.
       -2    1    3    3    0  502 -0.89658760643E+02  0.28857838392E+03 -0.60459349221E+00  0.30218627131E+03  0.25500000920E-02 0.  1.
</event>
<event>
 5   0  0.5653633E-03  0.5992430E+03  0.7818609E-02  0.9906978E-01
        1   -1    0    0  501    0  0.00000000000E+00  0.00000000000E+00  0.10326887306E+03  0.10326887318E+03  0.50400001928E-02 0. -1.
       -1   -1    0    0    0  501  0.00000000000E+00  0.00000000000E+00 -0.86931369620E+03  0.86931369621E+03  0.50400001928E-02 0.  1.
    10030    2    1    2    0    0  0.00000000000E+00  0.00000000000E+00 -0.76604482314E+03  0.97258256939E+03  0.59924300849E+03 0.  0.
        2    1    3    3  502    0  0.26365288600E+03  0.10425960239E+02 -0.61341961583E+03  0.66776131217E+03  0.25500000920E-02 0.  1.
       -2    1    3    3    0  502 -0.26365288600E+03 -0.10425960239E+02 -0.15262520731E+03  0.30482125722E+03  0.25500000920E-02 0. -1.
</event>
<event>
 5   0  0.9571790E-03  0.5997190E+03  0.7818609E-02  0.9905989E-01
        2   -1    0    0  501    0  0.00000000000E+00  0.00000000000E+00  0.60929712311E+03  0.60929712312E+03  0.25500000920E-02 0.  1.
       -2   -1    0    0    0  501  0.00000000000E+00  0.00000000000E+00 -0.14757284253E+03  0.14757284255E+03  0.25500000920E-02 0. -1.
    10030    2    1    2    0    0  0.00000000000E+00  0.00000000000E+00  0.46172428058E+03  0.75686996567E+03  0.59971896222E+03 0.  0.
        5    1    3    3  502    0  0.62506532459E+02  0.47883119682E+02  0.59596902901E+03  0.60116639401E+03  0.46999998093E+01 0.  1.
       -5    1    3    3    0  502 -0.62506532459E+02 -0.47883119682E+02 -0.13424474842E+03  0.15570357166E+03  0.46999998093E+01 0. -1.
</event>
<event>
 5   0  0.9681801E-03  0.5997898E+03  0.7818609E-02  0.9905842E-01
       -2   -1    0    0    0  501  0.00000000000E+00  0.00000000000E+00  0.74540708141E+02  0.74540708185E+02  0.25500000920E-02 0.  1.
        2   -1    0    0  501    0  0.00000000000E+00  0.00000000000E+00 -0.12065481958E+04  0.12065481958E+04  0.25500000920E-02 0. -1.
    10030    2    1    2    0    0  0.00000000000E+00  0.00000000000E+00 -0.11320074877E+04  0.12810889040E+04  0.59978981970E+03 0.  0.
        4    1    3    3  502    0  0.24611186779E+03  0.85412394920E+02 -0.24870258508E+03  0.36016790168E+03  0.12699999809E+01 0.  1.
       -4    1    3    3    0  502 -0.24611186779E+03 -0.85412394920E+02 -0.88330490262E+03  0.92092100235E+03  0.12699999809E+01 0. -1.
</event>
<event>
 5   0  0.5653633E-03  0.6008992E+03  0.7818609E-02  0.9903542E-01
       -1   -1    0    0    0  501  0.00000000000E+00  0.00000000000E+00  0.28842339354E+03  0.28842339358E+03  0.50400001928E-02 0.  1.
        1   -1    0    0  501    0  0.00000000000E+00  0.00000000000E+00 -0.31297730472E+03  0.31297730476E+03  0.50400001928E-02 0. -1.
    10030    2    1    2    0    0  0.00000000000E+00  0.00000000000E+00 -0.24553911179E+02  0.60140069834E+03  0.60089924730E+03 0.  0.
        2    1    3    3  502    0 -0.49153707810E+02 -0.17370576159E+03 -0.25264439573E+03  0.31051404043E+03  0.25500000920E-02 0. -1.
       -2    1    3    3    0  502  0.49153707810E+02  0.17370576159E+03  0.22809048455E+03  0.29088665791E+03  0.25500000920E-02 0.  1.
</event>
<event>
 5   0  0.5785798E-03  0.6004625E+03  0.7818609E-02  0.9904447E-01
       -1   -1    0    0    0  501  0.00000000000E+00  0.00000000000E+00  0.32766880525E+03  0.32766880528E+03  0.50400001928E-02 0. -1.
        1   -1    0    0  501    0  0.00000000000E+00  0.00000000000E+00 -0.27509123738E+03  0.27509123743E+03  0.50400001928E-02 0.  1.
    10030    2    1    2    0    0  0.00000000000E+00  0.00000000000E+00  0.52577567865E+02  0.60276004271E+03  0.60046254541E+03 0.  0.
        1    1    3    3  502    0 -0.15902362166E+03 -0.56996766076E+02 -0.22285771419E+03  0.27964746448E+03  0.50400001928E-02 0.  1.
       -1    1    3    3    0  502  0.15902362166E+03  0.56996766076E+02  0.27543528205E+03  0.32311257824E+03  0.50400001928E-02 0. -1.
</event>
<event>
 5   0  0.5491236E-03  0.6003093E+03  0.7818609E-02  0.9904765E-01
        1   -1    0    0  501    0  0.00000000000E+00  0.00000000000E+00  0.82660622524E+03  0.82660622525E+03  0.50400001928E-02 0.  1.
       -1   -1    0    0    0  501  0.00000000000E+00  0.00000000000E+00 -0.10899119768E+03  0.10899119780E+03  0.50400001928E-02 0. -1.
    10030    2    1    2    0    0  0.00000000000E+00  0.00000000000E+00  0.71761502755E+03  0.93559742305E+03  0.60030926217E+03 0.  0.
        3    1    3    3  502    0  0.32560718966E+02  0.19320784078E+03  0.44242548460E+01  0.19598228081E+03  0.10100000352E+00 0. -1.
       -3    1    3    3    0  502 -0.32560718966E+02 -0.19320784078E+03  0.71319077271E+03  0.73961514224E+03  0.10100000352E+00 0.  1.
</event>
<event>
 5   0  0.9530666E-03  0.5956726E+03  0.7818609E-02  0.9914425E-01
        2   -1    0    0  501    0  0.00000000000E+00  0.00000000000E+00  0.23108695031E+04  0.23108695031E+04  0.25500000920E-02 0.  1.
       -2   -1    0    0    0  501  0.00000000000E+00  0.00000000000E+00 -0.38386615986E+02  0.38386616071E+02  0.25500000920E-02 0. -1.
    10030    2    1    2    0    0  0.00000000000E+00  0.00000000000E+00  0.22724828871E+04  0.23492561192E+04  0.59567259568E+03 0.  0.
        2    1    3    3  502    0 -0.25169796172E+03  0.33230811887E+02  0.17504012478E+04  0.17687172412E+04  0.25500000920E-02 0.  1.
       -2    1    3    3    0  502  0.25169796172E+03 -0.33230811887E+02  0.52208163933E+03  0.58053887805E+03  0.25500000920E-02 0. -1.
</event>
<event>
 5   0  0.5785798E-03  0.5997485E+03  0.7818609E-02  0.9905928E-01
       -1   -1    0    0    0  501  0.00000000000E+00  0.00000000000E+00  0.73354345928E+03  0.73354345930E+03  0.50400001928E-02 0.  1.
        1   -1    0    0  501    0  0.00000000000E+00  0.00000000000E+00 -0.12258929713E+03  0.12258929723E+03  0.50400001928E-02 0. -1.
    10030    2    1    2    0    0  0.00000000000E+00  0.00000000000E+00  0.61095416215E+03  0.85613275653E+03  0.59974853776E+03 0.  0.
        1    1    3    3  502    0  0.20803035911E+03 -0.14614859884E+03  0.78472959922E+02  0.26607151054E+03  0.50400001928E-02 0. -1.
       -1    1    3    3    0  502 -0.20803035911E+03  0.14614859884E+03  0.53248120223E+03  0.59006124598E+03  0.50400001928E-02 0.  1.
</event>
<event>
 5   0  0.9571790E-03  0.5994412E+03  0.7818609E-02  0.9906566E-01
       -2   -1    0    0    0  501  0.00000000000E+00  0.00000000000E+00  0.10314841101E+04  0.10314841101E+04  0.25500000920E-02 0. -1.
        2   -1    0    0  501    0  0.00000000000E+00  0.00000000000E+00 -0.87090463874E+02  0.87090463911E+02  0.25500000920E-02 0.  1.
    10030    2    1    2    0    0  0.00000000000E+00  0.00000000000E+00  0.94439364620E+03  0.11185745740E+04  0.59944117192E+03 0.  0.
        5    1    3    3  502    0 -0.29758522280E+03 -0.35401937903E+02  0.47167697211E+03  0.55884838557E+03  0.46999998093E+01 0.  1.
       -5    1    3    3    0  502  0.29758522280E+03  0.35401937903E+02  0.47271667409E+03  0.55972618842E+03  0.46999998093E+01 0. -1.
</event>
<event>
 5   0  0.5785798E-03  0.5989721E+03  0.7818609E-02  0.9907541E-01
        1   -1    0    0  501    0  0.00000000000E+00  0.00000000000E+00  0.51701830637E+03  0.51701830640E+03  0.50400001928E-02 0.  1.
       -1   -1    0    0    0  501  0.00000000000E+00  0.00000000000E+00 -0.17347911836E+03  0.17347911843E+03  0.50400001928E-02 0. -1.
    10030    2    1    2    0    0  0.00000000000E+00  0.00000000000E+00  0.34353918801E+03  0.69049742483E+03  0.59897205276E+03 0.  0.
        1    1    3    3  502    0 -0.29570253906E+03  0.23292352742E+02  0.21943152084E+03  0.36896167506E+03  0.50400001928E-02 0. -1.
       -1    1    3    3    0  502  0.29570253906E+03 -0.23292352742E+02  0.12410766717E+03  0.32153574977E+03  0.50400001928E-02 0.  1.
</event>
<event>
 5   0  0.9530666E-03  0.5981133E+03  0.7818609E-02  0.9909328E-01
       -2   -1    0    0    0  501  0.00000000000E+00  0.00000000000E+00  0.83944835429E+02  0.83944835467E+02  0.25500000920E-02 0.  1.
        2   -1    0    0  501    0  0.00000000000E+00  0.00000000000E+00 -0.10654007199E+04  0.10654007199E+04  0.25500000920E-02 0. -1.
    10030    2    1    2    0    0  0.00000000000E+00  0.00000000000E+00 -0.98145588447E+03  0.11493455554E+04  0.59811332746E+03 0.  0.
        2    1    3    3  502    0  0.16429597972E+03  0.65610697497E+01 -0.97074294660E+03  0.98457000004E+03  0.25500000920E-02 0.  1.
       -2    1    3    3    0  502 -0.16429597972E+03 -0.65610697497E+01 -0.10712937866E+02  0.16477555533E+03  0.25500000920E-02 0. -1.
</event>
<event>
 5   0  0.5574736E-03  0.6007075E+03  0.7818609E-02  0.9903939E-01
       -1   -1    0    0    0  501  0.00000000000E+00  0.00000000000E+00  0.67937621853E+02  0.67937622040E+02  0.50400001928E-02 0. -1.
        1   -1    0    0  501    0  0.00000000000E+00  0.00000000000E+00 -0.13278705798E+04  0.13278705798E+04  0.50400001928E-02 0.  1.
    10030    2    1    2    0    0  0.00000000000E+00  0.00000000000E+00 -0.12599329580E+04  0.13958082019E+04  0.60070748109E+03 0.  0.
        5    1    3    3  502    0 -0.95674445695E+02 -0.16069746955E+03 -0.83978110903E+02  0.20506508574E+03  0.46999998093E+01 0. -1.
       -5    1    3    3    0  502  0.95674445695E+02  0.16069746955E+03 -0.11759548471E+04  0.11907431161E+04  0.46999998093E+01 0.  1.
</event>
<event>
 5   0  0.9571790E-03  0.5969359E+03  0.7818609E-02  0.9911783E-01
       -2   -1    0    0    0  501  0.00000000000E+00  0.00000000000E+00  0.11564696256E+03  0.11564696259E+03  0.25500000920E-02 0. -1.
        2   -1    0    0  501    0  0.00000000000E+00  0.00000000000E+00 -0.77030238050E+03  0.77030238050E+03  0.25500000920E-02 0.  1.
    10030    2    1    2    0    0  0.00000000000E+00  0.00000000000E+00 -0.65465541793E+03  0.88594934309E+03  0.59693594489E+03 0.  0.
        5    1    3    3  502    0 -0.82722697540E+02 -0.25985230056E+03 -0.50724076099E+03  0.57591799972E+03  0.46999998093E+01 0.  1.
       -5    1    3    3    0  502  0.82722697540E+02  0.25985230056E+03 -0.14741465694E+03  0.31003134337E+03  0.46999998093E+01 0. -1.
</event>
<event>
 5   0  0.5785798E-03  0.6007262E+03  0.7818609E-02  0.9903901E-01
       -1   -1    0    0    0  501  0.00000000000E+00  0.00000000000E+00  0.96591259211E+03  0.96591259212E+03  0.50400001928E-02 0. -1.
        1   -1    0    0  501    0  0.00000000000E+00  0.00000000000E+00 -0.93401814341E+02  0.93401814477E+02  0.50400001928E-02 0.  1.
    10030    2    1    2    0    0  0.00000000000E+00  0.00000000000E+00  0.87251077777E+03  0.10593144066E+04  0.60072618947E+03 0.  0.
        1    1    3    3  502    0 -0.61849964505E+02  0.44225426602E+02  0.94866101868E+03  0.95170322835E+03  0.50400001928E-02 0. -1.
       -1    1    3    3    0  502  0.61849964505E+02 -0.44225426602E+02 -0.76150240912E+02  0.10761117825E+03  0.50400001928E-02 0.  1.
</event>
<event>
 5   0  0.5653633E-03  0.5995525E+03  0.7818609E-02  0.9906335E-01
       -1   -1    0    0    0  501  0.00000000000E+00  0.00000000000E+00  0.94712337979E+02  0.94712338113E+02  0.50400001928E-02 0.  1.
        1   -1    0    0  501    0  0.00000000000E+00  0.00000000000E+00 -0.94882881973E+03  0.94882881974E+03  0.50400001928E-02 0. -1.
    10030    2    1    2    0    0  0.00000000000E+00  0.00000000000E+00 -0.85411648175E+03  0.10435411579E+04  0.59955248623E+03 0.  0.
        2    1    3    3  502    0  0.18542418921E+02  0.27347643500E+02  0.91533346012E+02  0.97314276152E+02  0.25500000920E-02 0.  1.
       -2    1    3    3    0  502 -0.18542418921E+02 -0.27347643500E+02 -0.94564982776E+03  0.94622688170E+03  0.25500000920E-02 0. -1.
</event>
<event>
 5   0  0.9428629E-03  0.5975043E+03  0.7818609E-02  0.9910597E-01
       -2   -1    0    0    0  501  0.00000000000E+00  0.00000000000E+00  0.82419809836E+02  0.82419809876E+02  0.25500000920E-02 0. -1.
        2   -1    0    0  501    0  0.00000000000E+00  0.00000000000E+00 -0.10829053000E+04  0.10829053000E+04  0.25500000920E-02 0.  1.
    10030    2    1    2    0    0  0.00000000000E+00  0.00000000000E+00 -0.10004854902E+04  0.11653251099E+04  0.59750430601E+03 0.  0.
        3    1    3    3  502    0 -0.15803864189E+03  0.14423347549E+03 -0.93595790934E+02  0.23353734190E+03  0.10100000352E+00 0. -1.
       -3    1    3    3    0  502  0.15803864189E+03 -0.14423347549E+03 -0.90688969927E+03  0.93178776802E+03  0.10100000352E+00 0.  1.
</event>
<event>
 5   0  0.5491236E-03  0.6003821E+03  0.7818609E-02  0.9904614E-01
        1   -1    0    0  501    0  0.00000000000E+00  0.00000000000E+00  0.49021711799E+03  0.49021711802E+03  0.50400001928E-02 0. -1.
       -1   -1    0    0    0  501  0.00000000000E+00  0.00000000000E+00 -0.18382604767E+03  0.18382604773E+03  0.50400001928E-02 0.  1.
    10030    2    1    2    0    0  0.00000000000E+00  0.00000000000E+00  0.30639107032E+03  0.67404316575E+03  0.60038212941E+03 0.  0.
        3    1    3    3  502    0  0.17280255667E+03 -0.23764062909E+03  0.22222841549E+03  0.36840096504E+03  0.10100000352E+00 0. -1.
       -3    1    3    3    0  502 -0.17280255667E+03  0.23764062909E+03  0.84162654837E+02  0.30564220072E+03  0.10100000352E+00 0.  1.
</event>
<event>
 5   0  0.3794375E-03  0.5999716E+03  0.7818609E-02  0.9905465E-01
       -3   -1    0    0    0  501  0.00000000000E+00  0.00000000000E+00  0.59032047762E+03  0.59032048626E+03  0.10100000352E+00 0.  1.
        3   -1    0    0  501    0  0.00000000000E+00  0.00000000000E+00 -0.15244508228E+03  0.15244511573E+03  0.10100000352E+00 0. -1.
    10030    2    1    2    0    0  0.00000000000E+00  0.00000000000E+00  0.43787539534E+03  0.74276560199E+03  0.59997156404E+03 0.  0.
        5    1    3    3  502    0  0.16650163293E+03 -0.21922571162E+03  0.71482055384E+02  0.28445470754E+03  0.46999998093E+01 0. -1.
       -5    1    3    3    0  502 -0.16650163293E+03  0.21922571162E+03  0.36639333996E+03  0.45831089445E+03  0.46999998093E+01 0.  1.
</event>
<event>
 5   0  0.9866317E-03  0.6009750E+03  0.7818609E-02  0.9903385E-01
        2   -1    0    0  501    0  0.00000000000E+00  0.00000000000E+00  0.73428689836E+03  0.73428689837E+03  0.25500000920E-02 0. -1.
       -2   -1    0    0    0  501  0.00000000000E+00  0.00000000000E+00 -0.12296656600E+03  0.12296656602E+03  0.25500000920E-02 0.  1.
    10030    2    1    2    0    0  0.00000000000E+00  0.00000000000E+00  0.61132033237E+03  0.85725346439E+03  0.60097500235E+03 0.  0.
        1    1    3    3  502    0  0.13382242738E+03 -0.11195343091E+03  0.65462973026E+03  0.67748217432E+03  0.50400001928E-02 0. -1.
       -1    1    3    3    0  502 -0.13382242738E+03  0.11195343091E+03 -0.43309397891E+02  0.17977129007E+03  0.50400001928E-02 0.  1.
</event>
<event>
 5   0  0.5785798E-03  0.6008043E+03  0.7818609E-02  0.9903739E-01
        1   -1    0    0  501    0  0.00000000000E+00  0.00000000000E+00  0.39821791192E+03  0.39821791195E+03  0.50400001928E-02 0. -1.
       -1   -1    0    0    0  501  0.00000000000E+00  0.00000000000E+00 -0.22661324457E+03  0.22661324463E+03  0.50400001928E-02 0.  1.
    10030    2    1    2    0    0  0.00000000000E+00  0.00000000000E+00  0.17160466734E+03  0.62483115658E+03  0.60080430456E+03 0.  0.
        1    1    3    3  502    0 -0.81150954376E+02  0.11905409875E+03 -0.18833368480E+03  0.23712640655E+03  0.50400001928E-02 0.  1.
       -1    1    3    3    0  502  0.81150954376E+02 -0.11905409875E+03  0.35993835215E+03  0.38770475003E+03  0.50400001928E-02 0. -1.
</event>
<event>
 5   0  0.9530666E-03  0.5919375E+03  0.7818609E-02  0.9922276E-01
       -2   -1    0    0    0  501  0.00000000000E+00  0.00000000000E+00  0.15925350209E+03  0.15925350211E+03  0.25500000920E-02 0. -1.
        2   -1    0    0  501    0  0.00000000000E+00  0.00000000000E+00 -0.55005064723E+03  0.55005064724E+03  0.25500000920E-02 0.  1.
    10030    2    1    2    0    0  0.00000000000E+00  0.00000000000E+00 -0.39079714514E+03  0.70930414934E+03  0.59193746935E+03 0.  0.
        2    1    3    3  502    0  0.48757366230E+02 -0.65002625834E+02  0.14562580481E+03  0.16676179766E+03  0.25500000920E-02 0. -1.
       -2    1    3    3    0  502 -0.48757366230E+02  0.65002625834E+02 -0.53642294995E+03  0.54254235168E+03  0.25500000920E-02 0.  1.
</event>
<event>
 5   0  0.5491236E-03  0.5999507E+03  0.7818609E-02  0.9905508E-01
       -1   -1    0    0    0  501  0.00000000000E+00  0.00000000000E+00  0.10601647961E+03  0.10601647973E+03  0.50400001928E-02 0. -1.
        1   -1    0    0  501    0  0.00000000000E+00  0.00000000000E+00 -0.84878521649E+03  0.84878521651E+03  0.50400001928E-02 0.  1.
    10030    2    1    2    0    0  0.00000000000E+00  0.00000000000E+00 -0.74276873689E+03  0.95480169623E+03  0.59995073350E+03 0.  0.
        3    1    3    3  502    0  0.19203739634E+03  0.40280424469E+02 -0.73249074077E+03  0.75831627287E+03  0.10100000352E+00 0.  1.
       -3    1    3    3    0  502 -0.19203739634E+03 -0.40280424469E+02 -0.10277996112E+02  0.19648542336E+03  0.10100000352E+00 0. -1.
</event>
<event>
 5   0  0.9681801E-03  0.5968391E+03  0.7818609E-02  0.9911986E-01
       -2   -1    0    0    0  501  0.00000000000E+00  0.00000000000E+00  0.32663038121E+03  0.32663038122E+03  0.25500000920E-02 0.  1.
        2   -1    0    0  501    0  0.00000000000E+00  0.00000000000E+00 -0.27264524376E+03  0.27264524377E+03  0.25500000920E-02 0. -1.
    10030    2    1    2    0    0  0.00000000000E+00  0.00000000000E+00  0.53985137452E+02  0.59927562499E+03  0.59683907348E+03 0.  0.
        4    1    3    3  502    0  0.21126778263E+03  0.13900444553E+03  0.18605740130E+03  0.31396700676E+03  0.12699999809E+01 0.  1.
       -4    1    3    3    0  502 -0.21126778263E+03 -0.13900444553E+03 -0.13207226384E+03  0.28530861823E+03  0.12699999809E+01 0. -1.
</event>
<event>
 5   0  0.9866317E-03  0.6010717E+03  0.7818609E-02  0.9903185E-01
       -2   -1    0    0    0  501  0.00000000000E+00  0.00000000000E+00  0.48167493471E+03  0.48167493472E+03  0.25500000920E-02 0. -1.
        2   -1    0    0  501    0  0.00000000000E+00  0.00000000000E+00 -0.18751609361E+03  0.18751609363E+03  0.25500000920E-02 0.  1.
    10030    2    1    2    0    0  0.00000000000E+00  0.00000000000E+00  0.29415884110E+03  0.66919102835E+03  0.60107171670E+03 0.  0.
        1    1    3    3  502    0  0.91914667178E+02  0.24956677177E+03 -0.87466704198E+01  0.26609844773E+03  0.50400001928E-02 0.  1.
       -1    1    3    3    0  502 -0.91914667178E+02 -0.24956677177E+03  0.30290551152E+03  0.40309258062E+03  0.50400001928E-02 0. -1.
</event>
<event>
 5   0  0.5491236E-03  0.6009941E+03  0.7818609E-02  0.9903346E-01
       -1   -1    0    0    0  501  0.00000000000E+00  0.00000000000E+00  0.23553818058E+03  0.23553818063E+03  0.50400001928E-02 0.  1.
        1   -1    0    0  501    0  0.00000000000E+00  0.00000000000E+00 -0.38337088044E+03  0.38337088048E+03  0.50400001928E-02 0. -1.
    10030    2    1    2    0    0  0.00000000000E+00  0.00000000000E+00 -0.14783269986E+03  0.61890906111E+03  0.60099410877E+03 0.  0.
        3    1    3    3  502    0 -0.97223825232E+02  0.87061942997E+02  0.20482956106E+03  0.24287324554E+03  0.10100000352E+00 0.  1.
       -3    1    3    3    0  502  0.97223825232E+02 -0.87061942997E+02 -0.35266226093E+03  0.37603581557E+03  0.10100000352E+00 0. -1.
</event>
<event>
 5   0  0.5574736E-03  0.5998722E+03  0.7818609E-02  0.9905671E-01
       -1   -1    0    0    0  501  0.00000000000E+00  0.00000000000E+00  0.78695168544E+02  0.78695168706E+02  0.50400001928E-02 0. -1.
        1   -1    0    0  501    0  0.00000000000E+00  0.00000000000E+00 -0.11431662517E+04  0.11431662518E+04  0.50400001928E-02 0.  1.
    10030    2    1    2    0    0  0.00000000000E+00  0.00000000000E+00 -0.10644710832E+04  0.12218614205E+04  0.59987218959E+03 0.  0.
        5    1    3    3  502    0 -0.10195917834E+02  0.29972585559E+03 -0.53256216794E+03  0.61121526320E+03  0.46999998093E+01 0. -1.
       -5    1    3    3    0  502  0.10195917834E+02 -0.29972585559E+03 -0.53190891526E+03  0.61064615726E+03  0.46999998093E+01 0.  1.
</event>
<event>
 5   0  0.5491236E-03  0.5920793E+03  0.7818609E-02  0.9921977E-01
        1   -1    0    0  501    0  0.00000000000E+00  0.00000000000E+00  0.71586493572E+03  0.71586493574E+03  0.50400001928E-02 0. -1.
       -1   -1    0    0    0  501  0.00000000000E+00  0.00000000000E+00 -0.12242457933E+03  0.12242457944E+03  0.50400001928E-02 0.  1.
    10030    2    1    2    0    0  0.00000000000E+00  0.00000000000E+00  0.59344035639E+03  0.83828951518E+03  0.59207926384E+03 0.  0.
        3    1    3    3  502    0 -0.30933928979E+02  0.22008863643E+03  0.57360121494E+03  0.61515386679E+03  0.10100000352E+00 0. -1.
       -3    1    3    3    0  502  0.30933928979E+02 -0.22008863643E+03  0.19839141450E+02  0.22313564839E+03  0.10100000352E+00 0.  1.
</event>
<event>
 5   0  0.5574736E-03  0.5983447E+03  0.7818609E-02  0.9908846E-01
       -1   -1    0    0    0  501  0.00000000000E+00  0.00000000000E+00  0.14245329646E+03  0.14245329655E+03  0.50400001928E-02 0. -1.
        1   -1    0    0  501    0  0.00000000000E+00  0.00000000000E+00 -0.62830475183E+03  0.62830475185E+03  0.50400001928E-02 0.  1.
    10030    2    1    2    0    0  0.00000000000E+00  0.00000000000E+00 -0.48585145537E+03  0.77075804840E+03  0.59834466029E+03 0.  0.
        5    1    3    3  502    0  0.20429420411E+03 -0.21287048006E+03 -0.17939978571E+03  0.34533510714E+03  0.46999998093E+01 0.  1.
       -5    1    3    3    0  502 -0.20429420411E+03  0.21287048006E+03 -0.30645166966E+03  0.42542294126E+03  0.46999998093E+01 0. -1.
</event>
<event>
 5   0  0.9530666E-03  0.6002810E+03  0.7818609E-02  0.9904823E-01
        2   -1    0    0  501    0  0.00000000000E+00  0.00000000000E+00  0.20936547748E+04  0.20936547748E+04  0.25500000920E-02 0.  1.
       -2   -1    0    0    0  501  0.00000000000E+00  0.00000000000E+00 -0.43027303086E+02  0.43027303161E+02  0.25500000920E-02 0. -1.
    10030    2    1    2    0    0  0.00000000000E+00  0.00000000000E+00  0.20506274718E+04  0.21366820780E+04  0.60028099632E+03 0.  0.
        2    1    3    3  502    0  0.25751146591E+03 -0.91286635654E+02  0.14675900509E+04  0.14928047302E+04  0.25500000920E-02 0. -1.
       -2    1    3    3    0  502 -0.25751146591E+03  0.91286635654E+02  0.58303742085E+03  0.64387734782E+03  0.25500000920E-02 0.  1.
</event>
<event>
 5   0  0.5785798E-03  0.6021778E+03  0.7818609E-02  0.9900898E-01
       -1   -1    0    0    0  501  0.00000000000E+00  0.00000000000E+00  0.67646198321E+02  0.67646198509E+02  0.50400001928E-02 0. -1.
        1   -1    0    0  501    0  0.00000000000E+00  0.00000000000E+00 -0.13401273026E+04  0.13401273026E+04  0.50400001928E-02 0.  1.
    10030    2    1    2    0    0  0.00000000000E+00  0.00000000000E+00 -0.12724811043E+04  0.14077735011E+04  0.60217777252E+03 0.  0.
        1    1    3    3  502    0  0.28571252876E+03  0.92511105155E+02 -0.68662896933E+03  0.74943264889E+03  0.50400001928E-02 0.  1.
       -1    1    3    3    0  502 -0.28571252876E+03 -0.92511105155E+02 -0.58585213497E+03  0.65834085226E+03  0.50400001928E-02 0. -1.
</event>
<event>
 5   0  0.9866317E-03  0.5956211E+03  0.7818609E-02  0.9914533E-01
       -2   -1    0    0    0  501  0.00000000000E+00  0.00000000000E+00  0.11246767243E+03  0.11246767246E+03  0.25500000920E-02 0. -1.
        2   -1    0    0  501    0  0.00000000000E+00  0.00000000000E+00 -0.78859203586E+03  0.78859203587E+03  0.25500000920E-02 0.  1.
    10030    2    1    2    0    0  0.00000000000E+00  0.00000000000E+00 -0.67612436344E+03  0.90105970832E+03  0.59562105666E+03 0.  0.
        1    1    3    3  502    0  0.23982763749E+03 -0.25199668015E+02 -0.60243052717E+03  0.64890281173E+03  0.50400001928E-02 0.  1.
       -1    1    3    3    0  502 -0.23982763749E+03  0.25199668015E+02 -0.73693836264E+02  0.25215689660E+03  0.50400001928E-02 0. -1.
</event>
<event>
 5   0  0.9681801E-03  0.5999273E+03  0.7818609E-02  0.9905557E-01
        2   -1    0    0  501    0  0.00000000000E+00  0.00000000000E+00  0.12956069349E+03  0.12956069352E+03  0.25500000920E-02 0. -1.
       -2   -1    0    0    0  501  0.00000000000E+00  0.00000000000E+00 -0.69448689627E+03  0.69448689628E+03  0.25500000920E-02 0.  1.
    10030    2    1    2    0    0  0.00000000000E+00  0.00000000000E+00 -0.56492620278E+03  0.82404758979E+03  0.59992734198E+03 0.  0.
        4    1    3    3  502    0  0.25838819691E+02  0.20650197905E+03 -0.57918757187E+03  0.61544339160E+03  0.12699999809E+01 0.  1.
       -4    1    3    3    0  502 -0.25838819691E+02 -0.20650197905E+03  0.14261369088E+02  0.20860419819E+03  0.12699999809E+01 0. -1.
</event>
<event>
 5   0  0.5491236E-03  0.6014585E+03  0.7818609E-02  0.9902385E-01
        1   -1    0    0  501    0  0.00000000000E+00  0.00000000000E+00  0.79366577667E+03  0.79366577669E+03  0.50400001928E-02 0. -1.
       -1   -1    0    0    0  501  0.00000000000E+00  0.00000000000E+00 -0.11394983007E+03  0.11394983018E+03  0.50400001928E-02 0.  1.
    10030    2    1    2    0    0  0.00000000000E+00  0.00000000000E+00  0.67971594661E+03  0.90761560687E+03  0.60145849546E+03 0.  0.
        3    1    3    3  502    0 -0.11529890130E+03 -0.20839713223E+02 -0.78089893546E+02  0.14080544010E+03  0.10100000352E+00 0.  1.
       -3    1    3    3    0  502  0.11529890130E+03  0.20839713223E+02  0.75780584015E+03  0.76681016677E+03  0.10100000352E+00 0. -1.
</event>
<event>
 5   0  0.9428629E-03  0.6015282E+03  0.7818609E-02  0.9902241E-01
       -2   -1    0    0    0  501  0.00000000000E+00  0.00000000000E+00  0.10359319057E+03  0.10359319060E+03  0.25500000920E-02 0. -1.
        2   -1    0    0  501    0  0.00000000000E+00  0.00000000000E+00 -0.87321404635E+03  0.87321404636E+03  0.25500000920E-02 0.  1.
    10030    2    1    2    0    0  0.00000000000E+00  0.00000000000E+00 -0.76962085578E+03  0.97680723696E+03  0.60152815106E+03 0.  0.
        3    1    3    3  502    0  0.14061697150E+03  0.21395494061E+03 -0.64110094477E+03  0.69033345629E+03  0.10100000352E+00 0.  1.
       -3    1    3    3    0  502 -0.14061697150E+03 -0.21395494061E+03 -0.12851991101E+03  0.28647378067E+03  0.10100000352E+00 0. -1.
</event>
<event>
 5   0  0.9428629E-03  0.5990169E+03  0.7818609E-02  0.9907448E-01
       -2   -1    0    0    0  501  0.00000000000E+00  0.00000000000E+00  0.11742407075E+03  0.11742407077E+03  0.25500000920E-02 0.  1.
        2   -1    0    0  501    0  0.00000000000E+00  0.00000000000E+00 -0.76394303889E+03  0.76394303889E+03  0.25500000920E-02 0. -1.
    10030    2    1    2    0    0  0.00000000000E+00  0.00000000000E+00 -0.64651896814E+03  0.88136710966E+03  0.59901686607E+03 0.  0.
        3    1    3    3  502    0 -0.60745018921E+02  0.28732474173E+03 -0.23671388999E+03  0.37719880759E+03  0.10100000352E+00 0.  1.
       -3    1    3    3    0  502  0.60745018921E+02 -0.28732474173E+03 -0.40980507815E+03  0.50416830207E+03  0.10100000352E+00 0. -1.
</event>
<event>
 5   0  0.5653633E-03  0.6005071E+03  0.7818609E-02  0.9904355E-01
       -1   -1    0    0    0  501  0.00000000000E+00  0.00000000000E+00  0.50275419885E+03  0.50275419888E+03  0.50400001928E-02 0. -1.
        1   -1    0    0  501    0  0.00000000000E+00  0.00000000000E+00 -0.17931663696E+03  0.17931663703E+03  0.50400001928E-02 0.  1.
    10030    2    1    2    0    0  0.00000000000E+00  0.00000000000E+00  0.32343756189E+03  0.68207083590E+03  0.60050709300E+03 0.  0.
        2    1    3    3  502    0  0.24244711419E+02  0.29924827383E+03  0.16609675685E+03  0.34311145138E+03  0.25500000920E-02 0. -1.
       -2    1    3    3    0  502 -0.24244711419E+02 -0.29924827383E+03  0.15734080504E+03  0.33895938453E+03  0.25500000920E-02 0.  1.
</event>
<event>
 5   0  0.5491236E-03  0.6001594E+03  0.7818609E-02  0.9905075E-01
       -1   -1    0    0    0  501  0.00000000000E+00  0.00000000000E+00  0.75373929465E+03  0.75373929466E+03  0.50400001928E-02 0. -1.
        1   -1    0    0  501    0  0.00000000000E+00  0.00000000000E+00 -0.11946813172E+03  0.11946813183E+03  0.50400001928E-02 0.  1.
    10030    2    1    2    0    0  0.00000000000E+00  0.00000000000E+00  0.63427116293E+03  0.87320742649E+03  0.60015939679E+03 0.  0.
        3    1    3    3  502    0  0.28385820052E+02  0.19333437149E+03  0.64848279084E+03  0.67728419013E+03  0.10100000352E+00 0. -1.
       -3    1    3    3    0  502 -0.28385820052E+02 -0.19333437149E+03 -0.14211627914E+02  0.19592323637E+03  0.10100000352E+00 0.  1.
</event>
<event>
 5   0  0.5785798E-03  0.5996797E+03  0.7818609E-02  0.9906071E-01
        1   -1    0    0  501    0  0.00000000000E+00  0.00000000000E+00  0.76931609760E+03  0.76931609761E+03  0.50400001928E-02 0. -1.
       -1   -1    0    0    0  501  0.00000000000E+00  0.00000000000E+00 -0.11686215168E+03  0.11686215179E+03  0.50400001928E-02 0.  1.
    10030    2    1    2    0    0  0.00000000000E+00  0.00000000000E+00  0.65245394591E+03  0.88617824941E+03  0.59967969632E+03 0.  0.
        1    1    3    3  502    0 -0.27703429298E+02  0.18728791585E+03 -0.17361449428E+02  0.19012012879E+03  0.50400001928E-02 0.  1.
       -1    1    3    3    0  502  0.27703429298E+02 -0.18728791585E+03  0.66981539534E+03  0.69605812062E+03  0.50400001928E-02 0. -1.
</event>
<event>
 5   0  0.9571790E-03  0.6003922E+03  0.7818609E-02  0.9904593E-01
       -2   -1    0    0    0  501  0.00000000000E+00  0.00000000000E+00  0.13121118161E+03  0.13121118163E+03  0.25500000920E-02 0. -1.
        2   -1    0    0  501    0  0.00000000000E+00  0.00000000000E+00 -0.68681426644E+03  0.68681426644E+03  0.25500000920E-02 0.  1.
    10030    2    1    2    0    0  0.00000000000E+00  0.00000000000E+00 -0.55560308483E+03  0.81802544807E+03  0.60039224330E+03 0.  0.
        5    1    3    3  502    0 -0.21170749743E+03  0.16616651680E+03 -0.96717871521E+02  0.28602065038E+03  0.46999998093E+01 0. -1.
       -5    1    3    3    0  502  0.21170749743E+03 -0.16616651680E+03 -0.45888521331E+03  0.53200479769E+03  0.46999998093E+01 0.  1.
</event>
<event>
 5   0  0.9428629E-03  0.5976964E+03  0.7818609E-02  0.9910197E-01
        2   -1    0    0  501    0  0.00000000000E+00  0.00000000000E+00  0.58393937807E+03  0.58393937807E+03  0.25500000920E-02 0.  1.
       -2   -1    0    0    0  501  0.00000000000E+00  0.00000000000E+00 -0.15294439684E+03  0.15294439686E+03  0.25500000920E-02 0. -1.
    10030    2    1    2    0    0  0.00000000000E+00  0.00000000000E+00  0.43099498123E+03  0.73688377493E+03  0.59769643123E+03 0.  0.
        3    1    3    3  502    0 -0.28822706994E+03 -0.40836684684E+02  0.13217345265E+03  0.31970660057E+03  0.10100000352E+00 0. -1.
       -3    1    3    3    0  502  0.28822706994E+03  0.40836684684E+02  0.29882152858E+03  0.41717717436E+03  0.10100000352E+00 0.  1.
</event>
<event>
 5   0  0.9681801E-03  0.6002095E+03  0.7818609E-02  0.9904971E-01
        2   -1    0    0  501    0  0.00000000000E+00  0.00000000000E+00  0.59062576268E+03  0.59062576268E+03  0.25500000920E-02 0. -1.
       -2   -1    0    0    0  501  0.00000000000E+00  0.00000000000E+00 -0.15248719549E+03  0.15248719552E+03  0.25500000920E-02 0.  1.
    10030    2    1    2    0    0  0.00000000000E+00  0.00000000000E+00  0.43813856718E+03  0.74311295820E+03  0.60020951724E+03 0.  0.
        4    1    3    3  502    0  0.29079318800E+02 -0.29664583388E+03  0.26225882932E+03  0.39702098685E+03  0.12699999809E+01 0.  1.
       -4    1    3    3    0  502 -0.29079318800E+02  0.29664583388E+03  0.17587973786E+03  0.34609197135E+03  0.12699999809E+01 0. -1.
</event>
<event>
 5   0  0.9428629E-03  0.5982664E+03  0.7818609E-02  0.9909009E-01
       -2   -1    0    0    0  501  0.00000000000E+00  0.00000000000E+00  0.93732396833E+02  0.93732396868E+02  0.25500000920E-02 0.  1.
        2   -1    0    0  501    0  0.00000000000E+00  0.00000000000E+00 -0.95463976714E+03  0.95463976714E+03  0.25500000920E-02 0. -1.
    10030    2    1    2    0    0  0.00000000000E+00  0.00000000000E+00 -0.86090737031E+03  0.10483721640E+04  0.59826640724E+03 0.  0.
        3    1    3    3  502    0  0.73548367387E+02  0.12333864129E+03  0.29380063477E+02  0.14657756005E+03  0.10100000352E+00 0.  1.
       -3    1    3    3    0  502 -0.73548367387E+02 -0.12333864129E+03 -0.89028743378E+03  0.90179460396E+03  0.10100000352E+00 0. -1.
</event>
<event>
 5   0  0.5574736E-03  0.5998725E+03  0.7818609E-02  0.9905671E-01
        1   -1    0    0  501    0  0.00000000000E+00  0.00000000000E+00  0.32729436781E+03  0.32729436785E+03  0.50400001928E-02 0. -1.
       -1   -1    0    0    0  501  0.00000000000E+00  0.00000000000E+00 -0.27486493815E+03  0.27486493820E+03  0.50400001928E-02 0.  1.
    10030    2    1    2    0    0  0.00000000000E+00  0.00000000000E+00  0.52429429658E+02  0.60215930604E+03  0.59987247375E+03 0.  0.
        5    1    3    3  502    0 -0.38547860514E+02 -0.18126941686E+03 -0.21047031688E+03  0.28047171572E+03  0.46999998093E+01 0.  1.
       -5    1    3    3    0  502  0.38547860514E+02  0.18126941686E+03  0.26289974653E+03  0.32168759032E+03  0.46999998093E+01 0. -1.
</event>
<event>
 5   0  0.5503975E-03  0.6006891E+03  0.7818609E-02  0.9903977E-01
       -1   -1    0    0    0  501  0.00000000000E+00  0.00000000000E+00  0.15901874476E+03  0.15901874484E+03  0.50400001928E-02 0.  1.
        1   -1    0    0  501    0  0.00000000000E+00  0.00000000000E+00 -0.56727177318E+03  0.56727177320E+03  0.50400001928E-02 0. -1.
    10030    2    1    2    0    0  0.00000000000E+00  0.00000000000E+00 -0.40825302842E+03  0.72629051804E+03  0.60068908878E+03 0.  0.
        4    1    3    3  502    0 -0.28588384970E+03  0.56019561335E+02 -0.29246057152E+03  0.41279845635E+03  0.12699999809E+01 0.  1.
       -4    1    3    3    0  502  0.28588384970E+03 -0.56019561335E+02 -0.11579245690E+03  0.31349206169E+03  0.12699999809E+01 0. -1.
</event>
<event>
 5   0  0.5574736E-03  0.5996747E+03  0.7818609E-02  0.9906081E-01
       -1   -1    0    0    0  501  0.00000000000E+00  0.00000000000E+00  0.18209689903E+03  0.18209689910E+03  0.50400001928E-02 0.  1.
        1   -1    0    0  501    0  0.00000000000E+00  0.00000000000E+00 -0.49370651099E+03  0.49370651102E+03  0.50400001928E-02 0. -1.
    10030    2    1    2    0    0  0.00000000000E+00  0.00000000000E+00 -0.31160961196E+03  0.67580341011E+03  0.59967466084E+03 0.  0.
        5    1    3    3  502    0 -0.64176932625E+02  0.27489206540E+03 -0.26959891332E+03  0.39037160548E+03  0.46999998093E+01 0. -1.
       -5    1    3    3    0  502  0.64176932625E+02 -0.27489206540E+03 -0.42010698642E+02  0.28543180464E+03  0.46999998093E+01 0.  1.
</event>
<event>
 5   0  0.5503975E-03  0.6009188E+03  0.7818609E-02  0.9903502E-01
       -1   -1    0    0    0  501  0.00000000000E+00  0.00000000000E+00  0.32502982732E+03  0.32502982736E+03  0.50400001928E-02 0.  1.
        1   -1    0    0  501    0  0.00000000000E+00  0.00000000000E+00 -0.27774631955E+03  0.27774631959E+03  0.50400001928E-02 0. -1.
    10030    2    1    2    0    0  0.00000000000E+00  0.00000000000E+00  0.47283507769E+02  0.60277614695E+03  0.60091875759E+03 0.  0.
        4    1    3    3  502    0  0.95541623426E+02  0.78726776272E+02 -0.25097097524E+03  0.27984665519E+03  0.12699999809E+01 0. -1.
       -4    1    3    3    0  502 -0.95541623426E+02 -0.78726776272E+02  0.29825448301E+03  0.32292949176E+03  0.12699999809E+01 0.  1.
</event>
<event>
 5   0  0.9428629E-03  0.6014014E+03  0.7818609E-02  0.9902503E-01
        2   -1    0    0  501    0  0.00000000000E+00  0.00000000000E+00  0.13587844382E+04  0.13587844382E+04  0.25500000920E-02 0.  1.
       -2   -1    0    0    0  501  0.00000000000E+00  0.00000000000E+00 -0.66545444511E+02  0.66545444560E+02  0.25500000920E-02 0. -1.
    10030    2    1    2    0    0  0.00000000000E+00  0.00000000000E+00  0.12922389937E+04  0.14253298827E+04  0.60140141160E+03 0.  0.
        3    1    3    3  502    0  0.23220211113E+03  0.14621427561E+03  0.35465140216E+03  0.44841282549E+03  0.10100000352E+00 0. -1.
       -3    1    3    3    0  502 -0.23220211113E+03 -0.14621427561E+03  0.93758759149E+03  0.97691705724E+03  0.10100000352E+00 0.  1.
</event>
<event>
 5   0  0.5491236E-03  0.5989929E+03  0.7818609E-02  0.9907498E-01
       -1   -1    0    0    0  501  0.00000000000E+00  0.00000000000E+00  0.78982174524E+02  0.78982174685E+02  0.50400001928E-02 0.  1.
        1   -1    0    0  501    0  0.00000000000E+00  0.00000000000E+00 -0.11356756529E+04  0.11356756529E+04  0.50400001928E-02 0. -1.
    10030    2    1    2    0    0  0.00000000000E+00  0.00000000000E+00 -0.10566934783E+04  0.12146578276E+04  0.59899293058E+03 0.  0.
        3    1    3    3  502    0 -0.58761185151E+01  0.13996635691E+03 -0.10651407372E+04  0.10743136926E+04  0.10100000352E+00 0. -1.
       -3    1    3    3    0  502  0.58761185151E+01 -0.13996635691E+03  0.84472588642E+01  0.14034413497E+03  0.10100000352E+00 0.  1.
</event>
<event>
 5   0  0.3794375E-03  0.6053418E+03  0.7818609E-02  0.9894385E-01
        4   -1    0    0  501    0  0.00000000000E+00  0.00000000000E+00  0.52383052885E+03  0.52383206837E+03  0.12699999809E+01 0.  1.
       -4   -1    0    0    0  501  0.00000000000E+00  0.00000000000E+00 -0.17488006422E+03  0.17488467561E+03  0.12699999809E+01 0. -1.
    10030    2    1    2    0    0  0.00000000000E+00  0.00000000000E+00  0.34895046462E+03  0.69871674398E+03  0.60534177252E+03 0.  0.
        2    1    3    3  502    0 -0.30086029158E+03 -0.26439375999E+02  0.15157243237E+03  0.33792034256E+03  0.25500000920E-02 0.  1.
       -2    1    3    3    0  502  0.30086029158E+03  0.26439375999E+02  0.19737803226E+03  0.36079640142E+03  0.25500000920E-02 0. -1.
</event>
<event>
 5   0  0.9428629E-03  0.5976957E+03  0.7818609E-02  0.9910198E-01
        2   -1    0    0  501    0  0.00000000000E+00  0.00000000000E+00  0.12416095115E+03  0.12416095117E+03  0.25500000920E-02 0.  1.
       -2   -1    0    0    0  501  0.00000000000E+00  0.00000000000E+00 -0.71930851798E+03  0.71930851798E+03  0.25500000920E-02 0. -1.
    10030    2    1    2    0    0  0.00000000000E+00  0.00000000000E+00 -0.59514756683E+03  0.84346946915E+03  0.59769567431E+03 0.  0.
        3    1    3    3  502    0  0.96585757442E+02  0.46242201363E+02 -0.69130393479E+03  0.69954863318E+03  0.10100000352E+00 0. -1.
       -3    1    3    3    0  502 -0.96585757442E+02 -0.46242201363E+02  0.96156367958E+02  0.14392083597E+03  0.10100000352E+00 0.  1.
</event>
<event>
 5   0  0.5491236E-03  0.5999179E+03  0.7818609E-02  0.9905576E-01
       -1   -1    0    0    0  501  0.00000000000E+00  0.00000000000E+00  0.15510547791E+03  0.15510547799E+03  0.50400001928E-02 0. -1.
        1   -1    0    0  501    0  0.00000000000E+00  0.00000000000E+00 -0.58009152313E+03  0.58009152315E+03  0.50400001928E-02 0.  1.
    10030    2    1    2    0    0  0.00000000000E+00  0.00000000000E+00 -0.42498604522E+03  0.73519700114E+03  0.59991790427E+03 0.  0.
        3    1    3    3  502    0  0.29160003239E+03  0.70152666860E+02 -0.20656648443E+03  0.36417262150E+03  0.10100000352E+00 0.  1.
       -3    1    3    3    0  502 -0.29160003239E+03 -0.70152666860E+02 -0.21841956078E+03  0.37102437964E+03  0.10100000352E+00 0. -1.
</event>
<event>
 5   0  0.9681801E-03  0.6006060E+03  0.7818609E-02  0.9904150E-01
        2   -1    0    0  501    0  0.00000000000E+00  0.00000000000E+00  0.31683270074E+03  0.31683270075E+03  0.25500000920E-02 0.  1.
       -2   -1    0    0    0  501  0.00000000000E+00  0.00000000000E+00 -0.28463567927E+03  0.28463567928E+03  0.25500000920E-02 0. -1.
    10030    2    1    2    0    0  0.00000000000E+00  0.00000000000E+00  0.32197021472E+02  0.60146838002E+03  0.60060599729E+03 0.  0.
        4    1    3    3  502    0  0.74325894249E+02 -0.24735222914E+03 -0.13732987567E+03  0.29252106158E+03  0.12699999809E+01 0. -1.
       -4    1    3    3    0  502 -0.74325894249E+02  0.24735222914E+03  0.16952689714E+03  0.30894731844E+03  0.12699999809E+01 0.  1.
</event>
<event>
 5   0  0.3794375E-03  0.6003111E+03  0.7818609E-02  0.9904761E-01
       -4   -1    0    0    0  501  0.00000000000E+00  0.00000000000E+00  0.25809162543E+03  0.25809475008E+03  0.12699999809E+01 0. -1.
        4   -1    0    0  501    0  0.00000000000E+00  0.00000000000E+00 -0.34906870846E+03  0.34907101874E+03  0.12699999809E+01 0.  1.
    10030    2    1    2    0    0  0.00000000000E+00  0.00000000000E+00 -0.90977083028E+02  0.60716576882E+03  0.60031112033E+03 0.  0.
        4    1    3    3  502    0 -0.80178649168E+02  0.90740982706E+02  0.23229125624E+03  0.26196065038E+03  0.12699999809E+01 0. -1.
       -4    1    3    3    0  502  0.80178649168E+02 -0.90740982706E+02 -0.32326833926E+03  0.34520511844E+03  0.12699999809E+01 0.  1.
</event>
<event>
 5   0  0.5653633E-03  0.6005899E+03  0.7818609E-02  0.9904183E-01
       -1   -1    0    0    0  501  0.00000000000E+00  0.00000000000E+00  0.95669172966E+03  0.95669172967E+03  0.50400001928E-02 0.  1.
        1   -1    0    0  501    0  0.00000000000E+00  0.00000000000E+00 -0.94259269982E+02  0.94259270117E+02  0.50400001928E-02 0. -1.
    10030    2    1    2    0    0  0.00000000000E+00  0.00000000000E+00  0.86243245968E+03  0.10509509998E+04  0.60058992370E+03 0.  0.
        2    1    3    3  502    0  0.85619636950E+02 -0.26892646096E+03  0.61073647176E+03  0.67279358022E+03  0.25500000920E-02 0. -1.
       -2    1    3    3    0  502 -0.85619636950E+02  0.26892646096E+03  0.25169598792E+03  0.37815741957E+03  0.25500000920E-02 0.  1.
</event>
<event>
 5   0  0.5503975E-03  0.6018038E+03  0.7818609E-02  0.9901671E-01
       -1   -1    0    0    0  501  0.00000000000E+00  0.00000000000E+00  0.51288932494E+03  0.51288932496E+03  0.50400001928E-02 0.  1.
        1   -1    0    0  501    0  0.00000000000E+00  0.00000000000E+00 -0.17653309941E+03  0.17653309948E+03  0.50400001928E-02 0. -1.
    10030    2    1    2    0    0  0.00000000000E+00  0.00000000000E+00  0.33635622553E+03  0.68942242445E+03  0.60180376277E+03 0.  0.
        4    1    3    3  502    0  0.12390304690E+03 -0.67107115963E+02  0.47275303042E+03  0.49330758226E+03  0.12699999809E+01 0.  1.
       -4    1    3    3    0  502 -0.12390304690E+03  0.67107115963E+02 -0.13639680489E+03  0.19611484219E+03  0.12699999809E+01 0. -1.
</event>
<event>
 5   0  0.5491236E-03  0.6002044E+03  0.7818609E-02  0.9904982E-01
        1   -1    0    0  501    0  0.00000000000E+00  0.00000000000E+00  0.17703535396E+03  0.17703535404E+03  0.50400001928E-02 0.  1.
       -1   -1    0    0    0  501  0.00000000000E+00  0.00000000000E+00 -0.50871948060E+03  0.50871948063E+03  0.50400001928E-02 0. -1.
    10030    2    1    2    0    0  0.00000000000E+00  0.00000000000E+00 -0.33168412664E+03  0.68575483466E+03  0.60020440968E+03 0.  0.
        3    1    3    3  502    0 -0.23635600033E+03 -0.13324307934E+03 -0.19332452272E+02  0.27201402720E+03  0.10100000352E+00 0.  1.
       -3    1    3    3    0  502  0.23635600033E+03  0.13324307934E+03 -0.31235167437E+03  0.41374080746E+03  0.10100000352E+00 0. -1.
</event>
<event>
 5   0  0.5574736E-03  0.6003446E+03  0.7818609E-02  0.9904691E-01
       -1   -1    0    0    0  501  0.00000000000E+00  0.00000000000E+00  0.52193751986E+02  0.52193752229E+02  0.50400001928E-02 0. -1.
        1   -1    0    0  501    0  0.00000000000E+00  0.00000000000E+00 -0.17263256143E+04  0.17263256143E+04  0.50400001928E-02 0.  1.
    10030    2    1    2    0    0  0.00000000000E+00  0.00000000000E+00 -0.16741318623E+04  0.17785193666E+04  0.60034460498E+03 0.  0.
        5    1    3    3  502    0  0.89095244453E+02  0.10947750053E+03 -0.16217533623E+04  0.16278910725E+04  0.46999998093E+01 0.  1.
       -5    1    3    3    0  502 -0.89095244453E+02 -0.10947750053E+03 -0.52378499987E+02  0.15062829404E+03  0.46999998093E+01 0. -1.
</event>
<event>
 5   0  0.9428629E-03  0.5996789E+03  0.7818609E-02  0.9906072E-01
       -2   -1    0    0    0  501  0.00000000000E+00  0.00000000000E+00  0.10301256674E+03  0.10301256677E+03  0.25500000920E-02 0. -1.
        2   -1    0    0  501    0  0.00000000000E+00  0.00000000000E+00 -0.87274495811E+03  0.87274495812E+03  0.25500000920E-02 0.  1.
    10030    2    1    2    0    0  0.00000000000E+00  0.00000000000E+00 -0.76973239138E+03  0.97575752489E+03  0.59967890828E+03 0.  0.
        3    1    3    3  502    0  0.22607046149E+03  0.18718449402E+03 -0.48461092331E+03  0.56656301110E+03  0.10100000352E+00 0. -1.
       -3    1    3    3    0  502 -0.22607046149E+03 -0.18718449402E+03 -0.28512146807E+03  0.40919451379E+03  0.10100000352E+00 0.  1.
</event>
<event>
 5   0  0.5785798E-03  0.6074820E+03  0.7818609E-02  0.9890004E-01
        1   -1    0    0  501    0  0.00000000000E+00  0.00000000000E+00  0.48713136930E+03  0.48713136932E+03  0.50400001928E-02 0.  1.
       -1   -1    0    0    0  501  0.00000000000E+00  0.00000000000E+00 -0.18939163056E+03  0.18939163063E+03  0.50400001928E-02 0. -1.
    10030    2    1    2    0    0  0.00000000000E+00  0.00000000000E+00  0.29773973874E+03  0.67652299995E+03  0.60748203055E+03 0.  0.
        1    1    3    3  502    0  0.27696934360E+03 -0.12216353950E+03  0.17665890322E+03  0.35049153455E+03  0.50400001928E-02 0.  1.
       -1    1    3    3    0  502 -0.27696934360E+03  0.12216353950E+03  0.12108083552E+03  0.32603146540E+03  0.50400001928E-02 0. -1.
</event>
<event>
 5   0  0.9866317E-03  0.6000903E+03  0.7818609E-02  0.9905219E-01
       -2   -1    0    0    0  501  0.00000000000E+00  0.00000000000E+00  0.64410017035E+02  0.64410017086E+02  0.25500000920E-02 0.  1.
        2   -1    0    0  501    0  0.00000000000E+00  0.00000000000E+00 -0.13977187841E+04  0.13977187841E+04  0.25500000920E-02 0. -1.
    10030    2    1    2    0    0  0.00000000000E+00  0.00000000000E+00 -0.13333087670E+04  0.14621288012E+04  0.60009029565E+03 0.  0.
        1    1    3    3  502    0  0.22470038402E+03 -0.19865197542E+03 -0.68764531983E+03  0.75020594228E+03  0.50400001928E-02 0. -1.
       -1    1    3    3    0  502 -0.22470038402E+03  0.19865197542E+03 -0.64566344721E+03  0.71192285889E+03  0.50400001928E-02 0.  1.
</event>
<event>
 5   0  0.5491236E-03  0.6000466E+03  0.7818609E-02  0.9905309E-01
       -1   -1    0    0    0  501  0.00000000000E+00  0.00000000000E+00  0.95524334782E+02  0.95524334915E+02  0.50400001928E-02 0.  1.
        1   -1    0    0  501    0  0.00000000000E+00  0.00000000000E+00 -0.94231467970E+03  0.94231467971E+03  0.50400001928E-02 0. -1.
    10030    2    1    2    0    0  0.00000000000E+00  0.00000000000E+00 -0.84679034492E+03  0.10378390146E+04  0.60004660822E+03 0.  0.
        3    1    3    3  502    0  0.12257286904E+03 -0.20452051694E+03 -0.73835870689E+03  0.77590356380E+03  0.10100000352E+00 0.  1.
       -3    1    3    3    0  502 -0.12257286904E+03  0.20452051694E+03 -0.10843163803E+03  0.26193545083E+03  0.10100000352E+00 0. -1.
</event>
<event>
 5   0  0.5653633E-03  0.5985445E+03  0.7818609E-02  0.9908430E-01
       -1   -1    0    0    0  501  0.00000000000E+00  0.00000000000E+00  0.22517940313E+03  0.22517940319E+03  0.50400001928E-02 0.  1.
        1   -1    0    0  501    0  0.00000000000E+00  0.00000000000E+00 -0.39774458439E+03  0.39774458442E+03  0.50400001928E-02 0. -1.
    10030    2    1    2    0    0  0.00000000000E+00  0.00000000000E+00 -0.17256518125E+03  0.62292398761E+03  0.59854452847E+03 0.  0.
        2    1    3    3  502    0  0.46724691782E+02  0.12249466563E+03 -0.36626782155E+03  0.38902475120E+03  0.25500000920E-02 0. -1.
       -2    1    3    3    0  502 -0.46724691782E+02 -0.12249466563E+03  0.19370264030E+03  0.23389923642E+03  0.25500000920E-02 0.  1.
</event>
<event>
 5   0  0.5574736E-03  0.5985090E+03  0.7818609E-02  0.9908504E-01
        1   -1    0    0  501    0  0.00000000000E+00  0.00000000000E+00  0.21386484509E+03  0.21386484515E+03  0.50400001928E-02 0.  1.
       -1   -1    0    0    0  501  0.00000000000E+00  0.00000000000E+00 -0.41873762235E+03  0.41873762238E+03  0.50400001928E-02 0. -1.
    10030    2    1    2    0    0  0.00000000000E+00  0.00000000000E+00 -0.20487277726E+03  0.63260246753E+03  0.59850900333E+03 0.  0.
        5    1    3    3  502    0  0.18653884800E+03  0.16139885582E+03 -0.28145012880E+03  0.37427609792E+03  0.46999998093E+01 0. -1.
       -5    1    3    3    0  502 -0.18653884800E+03 -0.16139885582E+03  0.76577351537E+02  0.25832636961E+03  0.46999998093E+01 0.  1.
</event>
<event>
 5   0  0.9571790E-03  0.6001693E+03  0.7818609E-02  0.9905055E-01
       -2   -1    0    0    0  501  0.00000000000E+00  0.00000000000E+00  0.65459249903E+02  0.65459249953E+02  0.25500000920E-02 0.  1.
        2   -1    0    0  501    0  0.00000000000E+00  0.00000000000E+00 -0.13756770785E+04  0.13756770785E+04  0.25500000920E-02 0. -1.
    10030    2    1    2    0    0  0.00000000000E+00  0.00000000000E+00 -0.13102178286E+04  0.14411363285E+04  0.60016927515E+03 0.  0.
        5    1    3    3  502    0 -0.11853650465E+03 -0.86916939396E+02 -0.27002638346E+02  0.14952153612E+03  0.46999998093E+01 0.  1.
       -5    1    3    3    0  502  0.11853650465E+03  0.86916939396E+02 -0.12832151903E+04  0.12916147924E+04  0.46999998093E+01 0. -1.
</event>
<event>
 5   0  0.9571790E-03  0.6001782E+03  0.7818609E-02  0.9905036E-01
        2   -1    0    0  501    0  0.00000000000E+00  0.00000000000E+00  0.45534317885E+03  0.45534317886E+03  0.25500000920E-02 0. -1.
       -2   -1    0    0    0  501  0.00000000000E+00  0.00000000000E+00 -0.19777056598E+03  0.19777056600E+03  0.25500000920E-02 0.  1.
    10030    2    1    2    0    0  0.00000000000E+00  0.00000000000E+00  0.25757261287E+03  0.65311374486E+03  0.60017823421E+03 0.  0.
        5    1    3    3  502    0  0.19124618048E+03 -0.22835576483E+03  0.16817148750E+03  0.34208945626E+03  0.46999998093E+01 0.  1.
       -5    1    3    3    0  502 -0.19124618048E+03  0.22835576483E+03  0.89401125365E+02  0.31102428859E+03  0.46999998093E+01 0. -1.
</event>
<event>
 5   0  0.9571790E-03  0.5969017E+03  0.7818609E-02  0.9911855E-01
        2   -1    0    0  501    0  0.00000000000E+00  0.00000000000E+00  0.51196074156E+03  0.51196074156E+03  0.25500000920E-02 0.  1.
       -2   -1    0    0    0  501  0.00000000000E+00  0.00000000000E+00 -0.17398389597E+03  0.17398389599E+03  0.25500000920E-02 0. -1.
    10030    2    1    2    0    0  0.00000000000E+00  0.00000000000E+00  0.33797684558E+03  0.68594463756E+03  0.59690174873E+03 0.  0.
        5    1    3    3  502    0  0.28018838840E+03  0.73382454899E+01  0.51280958465E+02  0.28497580519E+03  0.46999998093E+01 0. -1.
       -5    1    3    3    0  502 -0.28018838840E+03 -0.73382454899E+01  0.28669588712E+03  0.40096883237E+03  0.46999998093E+01 0.  1.
</event>
<event>
 5   0  0.5503975E-03  0.5886236E+03  0.7818609E-02  0.9929294E-01
        1   -1    0    0  501    0  0.00000000000E+00  0.00000000000E+00  0.42268150664E+03  0.42268150667E+03  0.50400001928E-02 0. -1.
       -1   -1    0    0    0  501  0.00000000000E+00  0.00000000000E+00 -0.20492839088E+03  0.20492839094E+03  0.50400001928E-02 0.  1.
    10030    2    1    2    0    0  0.00000000000E+00  0.00000000000E+00  0.21775311576E+03  0.62760989761E+03  0.58862361841E+03 0.  0.
        4    1    3    3  502    0  0.90781569591E+02 -0.36951851566E+02 -0.18701239458E+03  0.21114445609E+03  0.12699999809E+01 0.  1.
       -4    1    3    3    0  502 -0.90781569591E+02  0.36951851566E+02  0.40476551034E+03  0.41646544151E+03  0.12699999809E+01 0. -1.
</event>
<event>
 5   0  0.9530666E-03  0.6008704E+03  0.7818609E-02  0.9903602E-01
        2   -1    0    0  501    0  0.00000000000E+00  0.00000000000E+00  0.51502585001E+03  0.51502585002E+03  0.25500000920E-02 0. -1.
       -2   -1    0    0    0  501  0.00000000000E+00  0.00000000000E+00 -0.17525590387E+03  0.17525590388E+03  0.25500000920E-02 0.  1.
    10030    2    1    2    0    0  0.00000000000E+00  0.00000000000E+00  0.33976994614E+03  0.69028175390E+03  0.60087043817E+03 0.  0.
        2    1    3    3  502    0  0.16139688096E+03  0.96964742054E+02  0.43883790004E+03  0.47752467674E+03  0.25500000920E-02 0. -1.
       -2    1    3    3    0  502 -0.16139688096E+03 -0.96964742054E+02 -0.99067953891E+02  0.21275707716E+03  0.25500000920E-02 0.  1.
</event>
<event>
 5   0  0.9428629E-03  0.6002284E+03  0.7818609E-02  0.9904932E-01
        2   -1    0    0  501    0  0.00000000000E+00  0.00000000000E+00  0.78318813807E+03  0.78318813808E+03  0.25500000920E-02 0. -1.
       -2   -1    0    0    0  501  0.00000000000E+00  0.00000000000E+00 -0.11500242075E+03  0.11500242078E+03  0.25500000920E-02 0.  1.
    10030    2    1    2    0    0  0.00000000000E+00  0.00000000000E+00  0.66818571732E+03  0.89819055886E+03  0.60022839586E+03 0.  0.
        3    1    3    3  502    0  0.19981867356E+03  0.95291480384E+02  0.63731739858E+03  0.67467136094E+03  0.10100000352E+00 0. -1.
       -3    1    3    3    0  502 -0.19981867356E+03 -0.95291480384E+02  0.30868318741E+02  0.22351919792E+03  0.10100000352E+00 0.  1.
</event>
<event>
 5   0  0.5785798E-03  0.6015845E+03  0.7818609E-02  0.9902124E-01
       -1   -1    0    0    0  501  0.00000000000E+00  0.00000000000E+00  0.74958129431E+03  0.74958129433E+03  0.50400001928E-02 0. -1.
        1   -1    0    0  501    0  0.00000000000E+00  0.00000000000E+00 -0.12070200556E+03  0.12070200567E+03  0.50400001928E-02 0.  1.
    10030    2    1    2    0    0  0.00000000000E+00  0.00000000000E+00  0.62887928874E+03  0.87028330000E+03  0.60158445994E+03 0.  0.
        1    1    3    3  502    0 -0.14212517115E+03  0.24428258795E+03  0.16548072505E+03  0.32750178234E+03  0.50400001928E-02 0.  1.
       -1    1    3    3    0  502  0.14212517115E+03 -0.24428258795E+03  0.46339856370E+03  0.54278151766E+03  0.50400001928E-02 0. -1.
</event>
<event>
 5   0  0.9428629E-03  0.6017617E+03  0.7818609E-02  0.9901758E-01
        2   -1    0    0  501    0  0.00000000000E+00  0.00000000000E+00  0.11659458277E+04  0.11659458277E+04  0.25500000920E-02 0. -1.
       -2   -1    0    0    0  501  0.00000000000E+00  0.00000000000E+00 -0.77644502388E+02  0.77644502429E+02  0.25500000920E-02 0.  1.
    10030    2    1    2    0    0  0.00000000000E+00  0.00000000000E+00  0.10883013253E+04  0.12435903301E+04  0.60176169246E+03 0.  0.
        3    1    3    3  502    0  0.24968546923E+03 -0.93458071200E+02  0.83237805389E+03  0.87403116616E+03  0.10100000352E+00 0. -1.
       -3    1    3    3    0  502 -0.24968546923E+03  0.93458071200E+02  0.25592327140E+03  0.36955916396E+03  0.10100000352E+00 0.  1.
</event>
<event>
 5   0  0.5503975E-03  0.6000036E+03  0.7818609E-02  0.9905399E-01
       -1   -1    0    0    0  501  0.00000000000E+00  0.00000000000E+00  0.24686112250E+03  0.24686112255E+03  0.50400001928E-02 0.  1.
        1   -1    0    0  501    0  0.00000000000E+00  0.00000000000E+00 -0.36458178181E+03  0.36458178185E+03  0.50400001928E-02 0. -1.
    10030    2    1    2    0    0  0.00000000000E+00  0.00000000000E+00 -0.11772065931E+03  0.61144290439E+03  0.60000355974E+03 0.  0.
        4    1    3    3  502    0 -0.23346469164E+02  0.56075812685E+02  0.24052629282E+03  0.24808076272E+03  0.12699999809E+01 0.  1.
       -4    1    3    3    0  502  0.23346469164E+02 -0.56075812685E+02 -0.35824695214E+03  0.36336214168E+03  0.12699999809E+01 0. -1.
</event>
<event>
 5   0  0.9571790E-03  0.6008343E+03  0.7818609E-02  0.9903677E-01
       -2   -1    0    0    0  501  0.00000000000E+00  0.00000000000E+00  0.38347121510E+03  0.38347121511E+03  0.25500000920E-02 0. -1.
        2   -1    0    0  501    0  0.00000000000E+00  0.00000000000E+00 -0.23535132521E+03  0.23535132522E+03  0.25500000920E-02 0.  1.
    10030    2    1    2    0    0  0.00000000000E+00  0.00000000000E+00  0.14811988989E+03  0.61882254033E+03  0.60083428217E+03 0.  0.
        5    1    3    3  502    0  0.26514683676E+03 -0.93707287997E+01  0.21912313437E+03  0.34413324980E+03  0.46999998093E+01 0. -1.
       -5    1    3    3    0  502 -0.26514683676E+03  0.93707287997E+01 -0.71003244483E+02  0.27468929053E+03  0.46999998093E+01 0.  1.
</event>
<event>
 5   0  0.5491236E-03  0.5985912E+03  0.7818609E-02  0.9908333E-01
        1   -1    0    0  501    0  0.00000000000E+00  0.00000000000E+00  0.54046678287E+03  0.54046678289E+03  0.50400001928E-02 0.  1.
       -1   -1    0    0    0  501  0.00000000000E+00  0.00000000000E+00 -0.16574166064E+03  0.16574166072E+03  0.50400001928E-02 0. -1.
    10030    2    1    2    0    0  0.00000000000E+00  0.00000000000E+00  0.37472512222E+03  0.70620844361E+03  0.59859121995E+03 0.  0.
        3    1    3    3  502    0 -0.44707854940E+02 -0.25497102202E+03  0.10124431199E+02  0.25905892895E+03  0.10100000352E+00 0. -1.
       -3    1    3    3    0  502  0.44707854940E+02  0.25497102202E+03  0.36460069103E+03  0.44714951466E+03  0.10100000352E+00 0.  1.
</event>
<event>
 5   0  0.9530666E-03  0.6001144E+03  0.7818609E-02  0.9905169E-01
       -2   -1    0    0    0  501  0.00000000000E+00  0.00000000000E+00  0.48906260594E+02  0.48906260660E+02  0.25500000920E-02 0.  1.
        2   -1    0    0  501    0  0.00000000000E+00  0.00000000000E+00 -0.18409567447E+04  0.18409567447E+04  0.25500000920E-02 0. -1.
    10030    2    1    2    0    0  0.00000000000E+00  0.00000000000E+00 -0.17920504841E+04  0.18898630053E+04  0.60011435697E+03 0.  0.
        2    1    3    3  502    0 -0.13582561436E+03  0.38368328877E+02 -0.62157082305E+02  0.15422136384E+03  0.25500000920E-02 0.  1.
       -2    1    3    3    0  502  0.13582561436E+03 -0.38368328877E+02 -0.17298934018E+04  0.17356416415E+04  0.25500000920E-02 0. -1.
</event>
<event>
 5   0  0.5574736E-03  0.6051905E+03  0.7818609E-02  0.9894696E-01
       -1   -1    0    0    0  501  0.00000000000E+00  0.00000000000E+00  0.67446141586E+02  0.67446141775E+02  0.50400001928E-02 0.  1.
        1   -1    0    0  501    0  0.00000000000E+00  0.00000000000E+00 -0.13575853062E+04  0.13575853062E+04  0.50400001928E-02 0. -1.
    10030    2    1    2    0    0  0.00000000000E+00  0.00000000000E+00 -0.12901391646E+04  0.14250314480E+04  0.60519051850E+03 0.  0.
        5    1    3    3  502    0 -0.16306022706E+03 -0.25264903171E+03 -0.72392965103E+03  0.78391096466E+03  0.46999998093E+01 0.  1.
       -5    1    3    3    0  502  0.16306022706E+03  0.25264903171E+03 -0.56620951361E+03  0.64112048335E+03  0.46999998093E+01 0. -1.
</event>
<event>
 5   0  0.5653633E-03  0.5992817E+03  0.7818609E-02  0.9906897E-01
       -1   -1    0    0    0  501  0.00000000000E+00  0.00000000000E+00  0.96844920668E+02  0.96844920799E+02  0.50400001928E-02 0. -1.
        1   -1    0    0  501    0  0.00000000000E+00  0.00000000000E+00 -0.92709693536E+03  0.92709693537E+03  0.50400001928E-02 0.  1.
    10030    2    1    2    0    0  0.00000000000E+00  0.00000000000E+00 -0.83025201469E+03  0.10239418562E+04  0.59928166743E+03 0.  0.
        2    1    3    3  502    0  0.19205063663E+03  0.20094764192E+03 -0.60631714403E+03  0.66699616264E+03  0.25500000920E-02 0.  1.
       -2    1    3    3    0  502 -0.19205063663E+03 -0.20094764192E+03 -0.22393487066E+03  0.35694569353E+03  0.25500000920E-02 0. -1.
</event>
<event>
 5   0  0.5574736E-03  0.6007420E+03  0.7818609E-02  0.9903868E-01
       -1   -1    0    0    0  501  0.00000000000E+00  0.00000000000E+00  0.22003701267E+03  0.22003701273E+03  0.50400001928E-02 0. -1.
        1   -1    0    0  501    0  0.00000000000E+00  0.00000000000E+00 -0.41003436654E+03  0.41003436657E+03  0.50400001928E-02 0.  1.
    10030    2    1    2    0    0  0.00000000000E+00  0.00000000000E+00 -0.18999735387E+03  0.63007137930E+03  0.60074199832E+03 0.  0.
        5    1    3    3  502    0  0.21025041042E+03 -0.38883431220E+02  0.12620950588E+03  0.24833059755E+03  0.46999998093E+01 0. -1.
       -5    1    3    3    0  502 -0.21025041042E+03  0.38883431220E+02 -0.31620685976E+03  0.38174078176E+03  0.46999998093E+01 0.  1.
</event>
<event>
 5   0  0.9571790E-03  0.5995943E+03  0.7818609E-02  0.9906248E-01
        2   -1    0    0  501    0  0.00000000000E+00  0.00000000000E+00  0.36208214048E+03  0.36208214049E+03  0.25500000920E-02 0.  1.
       -2   -1    0    0    0  501  0.00000000000E+00  0.00000000000E+00 -0.24822637689E+03  0.24822637690E+03  0.25500000920E-02 0. -1.
    10030    2    1    2    0    0  0.00000000000E+00  0.00000000000E+00  0.11385576360E+03  0.61030851739E+03  0.59959432243E+03 0.  0.
        5    1    3    3  502    0 -0.25380856526E+02  0.19861584640E+02  0.36027605282E+03  0.36174520682E+03  0.46999998093E+01 0.  1.
       -5    1    3    3    0  502  0.25380856526E+02 -0.19861584640E+02 -0.24642028922E+03  0.24856331057E+03  0.46999998093E+01 0. -1.
</event>
<event>
 5   0  0.5574736E-03  0.6019068E+03  0.7818609E-02  0.9901458E-01
       -1   -1    0    0    0  501  0.00000000000E+00  0.00000000000E+00  0.59302870262E+03  0.59302870264E+03  0.50400001928E-02 0.  1.
        1   -1    0    0  501    0  0.00000000000E+00  0.00000000000E+00 -0.15272943866E+03  0.15272943875E+03  0.50400001928E-02 0. -1.
    10030    2    1    2    0    0  0.00000000000E+00  0.00000000000E+00  0.44029926396E+03  0.74575814139E+03  0.60190677319E+03 0.  0.
        5    1    3    3  502    0 -0.23457008342E+03 -0.80617531686E+02  0.90529666373E+01  0.24824656424E+03  0.46999998093E+01 0. -1.
       -5    1    3    3    0  502  0.23457008342E+03  0.80617531686E+02  0.43124629732E+03  0.49751157715E+03  0.46999998093E+01 0.  1.
</event>
<event>
 5   0  0.9866317E-03  0.6004183E+03  0.7818609E-02  0.9904539E-01
        2   -1    0    0  501    0  0.00000000000E+00  0.00000000000E+00  0.32714568781E+03  0.32714568782E+03  0.25500000920E-02 0.  1.
       -2   -1    0    0    0  501  0.00000000000E+00  0.00000000000E+00 -0.27549049977E+03  0.27549049979E+03  0.25500000920E-02 0. -1.
    10030    2    1    2    0    0  0.00000000000E+00  0.00000000000E+00  0.51655188038E+02  0.60263618761E+03  0.60041828434E+03 0.  0.
        1    1    3    3  502    0  0.11687340011E+03 -0.67908881671E+02  0.29487471405E+03  0.32437956914E+03  0.50400001928E-02 0.  1.
       -1    1    3    3    0  502 -0.11687340011E+03  0.67908881671E+02 -0.24321952601E+03  0.27825661847E+03  0.50400001928E-02 0. -1.
</event>
<event>
 5   0  0.9571790E-03  0.6064735E+03  0.7818609E-02  0.9892066E-01
       -2   -1    0    0    0  501  0.00000000000E+00  0.00000000000E+00  0.62974894465E+02  0.62974894517E+02  0.25500000920E-02 0. -1.
        2   -1    0    0  501    0  0.00000000000E+00  0.00000000000E+00 -0.14601456423E+04  0.14601456423E+04  0.25500000920E-02 0.  1.
    10030    2    1    2    0    0  0.00000000000E+00  0.00000000000E+00 -0.13971707478E+04  0.15231205368E+04  0.60647347103E+03 0.  0.
        5    1    3    3  502    0  0.75603857626E+01 -0.16839298526E+03 -0.13315328852E+04  0.13421681234E+04  0.46999998093E+01 0.  1.
       -5    1    3    3    0  502 -0.75603857626E+01  0.16839298526E+03 -0.65637862549E+02  0.18095241340E+03  0.46999998093E+01 0. -1.
</event>
<event>
 5   0  0.9571790E-03  0.5986514E+03  0.7818609E-02  0.9908208E-01
        2   -1    0    0  501    0  0.00000000000E+00  0.00000000000E+00  0.89775038427E+03  0.89775038427E+03  0.25500000920E-02 0. -1.
       -2   -1    0    0    0  501  0.00000000000E+00  0.00000000000E+00 -0.99800415820E+02  0.99800415852E+02  0.25500000920E-02 0.  1.
    10030    2    1    2    0    0  0.00000000000E+00  0.00000000000E+00  0.79794996845E+03  0.99755080013E+03  0.59865135654E+03 0.  0.
        5    1    3    3  502    0 -0.21327001055E+03  0.19456437176E+02  0.50591928455E+02  0.22010062147E+03  0.46999998093E+01 0.  1.
       -5    1    3    3    0  502  0.21327001055E+03 -0.19456437176E+02  0.74735803999E+03  0.77745017866E+03  0.46999998093E+01 0. -1.
</event>
<event>
 5   0  0.5491236E-03  0.5988710E+03  0.7818609E-02  0.9907751E-01
       -1   -1    0    0    0  501  0.00000000000E+00  0.00000000000E+00  0.14287906569E+03  0.14287906578E+03  0.50400001928E-02 0. -1.
        1   -1    0    0  501    0  0.00000000000E+00  0.00000000000E+00 -0.62753504395E+03  0.62753504397E+03  0.50400001928E-02 0.  1.
    10030    2    1    2    0    0  0.00000000000E+00  0.00000000000E+00 -0.48465597826E+03  0.77041410975E+03  0.59887100718E+03 0.  0.
        3    1    3    3  502    0  0.23319493157E+03  0.17636162939E+03 -0.32548354637E+03  0.43751897055E+03  0.10100000352E+00 0.  1.
       -3    1    3    3    0  502 -0.23319493157E+03 -0.17636162939E+03 -0.15917243189E+03  0.33289513920E+03  0.10100000352E+00 0. -1.
</event>
<event>
 5   0  0.5574736E-03  0.5990190E+03  0.7818609E-02  0.9907443E-01
        1   -1    0    0  501    0  0.00000000000E+00  0.00000000000E+00  0.49979765353E+03  0.49979765355E+03  0.50400001928E-02 0.  1.
       -1   -1    0    0    0  501  0.00000000000E+00  0.00000000000E+00 -0.17948453629E+03  0.17948453637E+03  0.50400001928E-02 0. -1.
    10030    2    1    2    0    0  0.00000000000E+00  0.00000000000E+00  0.32031311723E+03  0.67928218992E+03  0.59901903181E+03 0.  0.
        5    1    3    3  502    0 -0.14406455345E+03 -0.25917597079E+03  0.11262243800E+03  0.31722654829E+03  0.46999998093E+01 0. -1.
       -5    1    3    3    0  502  0.14406455345E+03  0.25917597079E+03  0.20769067923E+03  0.36205564163E+03  0.46999998093E+01 0.  1.
</event>
<event>
 5   0  0.9571790E-03  0.5997907E+03  0.7818609E-02  0.9905840E-01
       -2   -1    0    0    0  501  0.00000000000E+00  0.00000000000E+00  0.13861901154E+03  0.13861901156E+03  0.25500000920E-02 0. -1.
        2   -1    0    0  501    0  0.00000000000E+00  0.00000000000E+00 -0.64880869755E+03  0.64880869756E+03  0.25500000920E-02 0.  1.
    10030    2    1    2    0    0  0.00000000000E+00  0.00000000000E+00 -0.51018968602E+03  0.78742770912E+03  0.59979069797E+03 0.  0.
        5    1    3    3  502    0 -0.10872988623E+03 -0.39413263722E+02  0.10811188278E+03  0.15838517201E+03  0.46999998093E+01 0. -1.
       -5    1    3    3    0  502  0.10872988623E+03  0.39413263722E+02 -0.61830156880E+03  0.62904253711E+03  0.46999998093E+01 0.  1.
</event>
<event>
 5   0  0.5653633E-03  0.6013077E+03  0.7818609E-02  0.9902697E-01
       -1   -1    0    0    0  501  0.00000000000E+00  0.00000000000E+00  0.10860724935E+04  0.10860724935E+04  0.50400001928E-02 0. -1.
        1   -1    0    0  501    0  0.00000000000E+00  0.00000000000E+00 -0.83229007662E+02  0.83229007815E+02  0.50400001928E-02 0.  1.
    10030    2    1    2    0    0  0.00000000000E+00  0.00000000000E+00  0.10028434858E+04  0.11693015013E+04  0.60130769487E+03 0.  0.
        2    1    3    3  502    0  0.20597342648E+03  0.21670321936E+03  0.43970111341E+03  0.53171647223E+03  0.25500000920E-02 0.  1.
       -2    1    3    3    0  502 -0.20597342648E+03 -0.21670321936E+03  0.56314237240E+03  0.63758502907E+03  0.25500000920E-02 0. -1.
</event>
<event>
 5   0  0.9866317E-03  0.6006024E+03  0.7818609E-02  0.9904157E-01
        2   -1    0    0  501    0  0.00000000000E+00  0.00000000000E+00  0.87661691609E+03  0.87661691609E+03  0.25500000920E-02 0. -1.
       -2   -1    0    0    0  501  0.00000000000E+00  0.00000000000E+00 -0.10287369130E+03  0.10287369133E+03  0.25500000920E-02 0.  1.
    10030    2    1    2    0    0  0.00000000000E+00  0.00000000000E+00  0.77374322479E+03  0.97949060742E+03  0.60060242434E+03 0.  0.
        1    1    3    3  502    0 -0.10544963638E+03  0.27727240721E+03  0.31070557233E+03  0.42957835876E+03  0.50400001928E-02 0.  1.
       -1    1    3    3    0  502  0.10544963638E+03 -0.27727240721E+03  0.46303765246E+03  0.54991224867E+03  0.50400001928E-02 0. -1.
</event>
<event>
 5   0  0.5574736E-03  0.5966459E+03  0.7818609E-02  0.9912389E-01
       -1   -1    0    0    0  501  0.00000000000E+00  0.00000000000E+00  0.15741033696E+03  0.15741033705E+03  0.50400001928E-02 0.  1.
        1   -1    0    0  501    0  0.00000000000E+00  0.00000000000E+00 -0.56537961331E+03  0.56537961333E+03  0.50400001928E-02 0. -1.
    10030    2    1    2    0    0  0.00000000000E+00  0.00000000000E+00 -0.40796927634E+03  0.72278995038E+03  0.59664594352E+03 0.  0.
        5    1    3    3  502    0 -0.32899837644E+02 -0.18988280779E+03  0.71827753357E+02  0.20571630019E+03  0.46999998093E+01 0.  1.
       -5    1    3    3    0  502  0.32899837644E+02  0.18988280779E+03 -0.47979702970E+03  0.51707365019E+03  0.46999998093E+01 0. -1.
</event>
<event>
 5   0  0.5785798E-03  0.6020536E+03  0.7818609E-02  0.9901155E-01
        1   -1    0    0  501    0  0.00000000000E+00  0.00000000000E+00  0.11895928236E+04  0.11895928236E+04  0.50400001928E-02 0.  1.
       -1   -1    0    0    0  501  0.00000000000E+00  0.00000000000E+00 -0.76174905948E+02  0.76174906115E+02  0.50400001928E-02 0. -1.
    10030    2    1    2    0    0  0.00000000000E+00  0.00000000000E+00  0.11134179177E+04  0.12657677298E+04  0.60205355765E+03 0.  0.
        1    1    3    3  502    0 -0.22708933954E+03  0.16054047420E+03  0.79893724853E+03  0.84595717333E+03  0.50400001928E-02 0.  1.
       -1    1    3    3    0  502  0.22708933954E+03 -0.16054047420E+03  0.31448066915E+03  0.41981055642E+03  0.50400001928E-02 0. -1.
</event>
<event>
 5   0  0.5785798E-03  0.5955854E+03  0.7818609E-02  0.9914607E-01
        1   -1    0    0  501    0  0.00000000000E+00  0.00000000000E+00  0.94631274916E+03  0.94631274917E+03  0.50400001928E-02 0. -1.
       -1   -1    0    0    0  501  0.00000000000E+00  0.00000000000E+00 -0.93711618286E+02  0.93711618421E+02  0.50400001928E-02 0.  1.
    10030    2    1    2    0    0  0.00000000000E+00  0.00000000000E+00  0.85260113087E+03  0.10400243676E+04  0.59558542361E+03 0.  0.
        1    1    3    3  502    0 -0.31092398807E+02  0.58151791876E+02 -0.80802215251E+02  0.10429461241E+03  0.50400001928E-02 0.  1.
       -1    1    3    3    0  502  0.31092398807E+02 -0.58151791876E+02  0.93340334612E+03  0.93572975519E+03  0.50400001928E-02 0. -1.
</event>
<event>
 5   0  0.5503975E-03  0.6027846E+03  0.7818609E-02  0.9899646E-01
        1   -1    0    0  501    0  0.00000000000E+00  0.00000000000E+00  0.31818829418E+03  0.31818829422E+03  0.50400001928E-02 0. -1.
       -1   -1    0    0    0  501  0.00000000000E+00  0.00000000000E+00 -0.28548288099E+03  0.28548288103E+03  0.50400001928E-02 0.  1.
    10030    2    1    2    0    0  0.00000000000E+00  0.00000000000E+00  0.32705413195E+02  0.60367117525E+03  0.60278457493E+03 0.  0.
        4    1    3    3  502    0 -0.26048851479E+03 -0.28450854602E+02  0.16547430620E+03  0.30991462756E+03  0.12699999809E+01 0. -1.
       -4    1    3    3    0  502  0.26048851479E+03  0.28450854602E+02 -0.13276889300E+03  0.29375654769E+03  0.12699999809E+01 0.  1.
</event>
<event>
 5   0  0.9681801E-03  0.6015806E+03  0.7818609E-02  0.9902132E-01
        2   -1    0    0  501    0  0.00000000000E+00  0.00000000000E+00  0.90249929904E+03  0.90249929904E+03  0.25500000920E-02 0.  1.
       -2   -1    0    0    0  501  0.00000000000E+00  0.00000000000E+00 -0.10024915928E+03  0.10024915931E+03  0.25500000920E-02 0. -1.
    10030    2    1    2    0    0  0.00000000000E+00  0.00000000000E+00  0.80225013976E+03  0.10027484583E+04  0.60158057148E+03 0.  0.
        4    1    3    3  502    0 -0.15711192200E+03  0.16692333290E+03  0.72573708557E+03  0.76108047233E+03  0.12699999809E+01 0. -1.
       -4    1    3    3    0  502  0.15711192200E+03 -0.16692333290E+03  0.76513054190E+02  0.24166798601E+03  0.12699999809E+01 0.  1.
</event>
<event>
 5   0  0.9428629E-03  0.6069119E+03  0.7818609E-02  0.9891169E-01
       -2   -1    0    0    0  501  0.00000000000E+00  0.00000000000E+00  0.14160272918E+03  0.14160272920E+03  0.25500000920E-02 0. -1.
        2   -1    0    0  501    0  0.00000000000E+00  0.00000000000E+00 -0.65030879905E+03  0.65030879906E+03  0.25500000920E-02 0.  1.
    10030    2    1    2    0    0  0.00000000000E+00  0.00000000000E+00 -0.50870606988E+03  0.79191152826E+03  0.60691185773E+03 0.  0.
        3    1    3    3  502    0 -0.12951182331E+03  0.13334897354E+03  0.58614360446E+02  0.19491258187E+03  0.10100000352E+00 0. -1.
       -3    1    3    3    0  502  0.12951182331E+03 -0.13334897354E+03 -0.56732043032E+03  0.59699894638E+03  0.10100000352E+00 0.  1.
</event>
<event>
 5   0  0.5503975E-03  0.5991057E+03  0.7818609E-02  0.9907263E-01
       -1   -1    0    0    0  501  0.00000000000E+00  0.00000000000E+00  0.14008680694E+03  0.14008680703E+03  0.50400001928E-02 0. -1.
        1   -1    0    0  501    0  0.00000000000E+00  0.00000000000E+00 -0.64054495952E+03  0.64054495954E+03  0.50400001928E-02 0.  1.
    10030    2    1    2    0    0  0.00000000000E+00  0.00000000000E+00 -0.50045815258E+03  0.78063176657E+03  0.59910566054E+03 0.  0.
        4    1    3    3  502    0  0.52312763461E+02 -0.10366557859E+03  0.10956539426E+03  0.15965389417E+03  0.12699999809E+01 0. -1.
       -4    1    3    3    0  502 -0.52312763461E+02  0.10366557859E+03 -0.61002354684E+03  0.62097787239E+03  0.12699999809E+01 0.  1.
</event>
<event>
 5   0  0.9571790E-03  0.6028143E+03  0.7818609E-02  0.9899584E-01
        2   -1    0    0  501    0  0.00000000000E+00  0.00000000000E+00  0.71970755237E+03  0.71970755238E+03  0.25500000920E-02 0.  1.
       -2   -1    0    0    0  501  0.00000000000E+00  0.00000000000E+00 -0.12622664742E+03  0.12622664744E+03  0.25500000920E-02 0. -1.
    10030    2    1    2    0    0  0.00000000000E+00  0.00000000000E+00  0.59348090495E+03  0.84593419982E+03  0.60281430464E+03 0.  0.
        5    1    3    3  502    0  0.15574805522E+03 -0.18902321128E+03  0.54316771043E+03  0.59585273580E+03  0.46999998093E+01 0.  1.
       -5    1    3    3    0  502 -0.15574805522E+03  0.18902321128E+03  0.50313194529E+02  0.25008146403E+03  0.46999998093E+01 0. -1.
</event>
<event>
 5   0  0.9428629E-03  0.5990070E+03  0.7818609E-02  0.9907468E-01
       -2   -1    0    0    0  501  0.00000000000E+00  0.00000000000E+00  0.92997878122E+02  0.92997878156E+02  0.25500000920E-02 0. -1.
        2   -1    0    0  501    0  0.00000000000E+00  0.00000000000E+00 -0.96456336478E+03  0.96456336478E+03  0.25500000920E-02 0.  1.
    10030    2    1    2    0    0  0.00000000000E+00  0.00000000000E+00 -0.87156548666E+03  0.10575612429E+04  0.59900699915E+03 0.  0.
        3    1    3    3  502    0  0.21985563033E+03 -0.13883045032E+03 -0.69819891525E+03  0.74504505070E+03  0.10100000352E+00 0.  1.
       -3    1    3    3    0  502 -0.21985563033E+03  0.13883045032E+03 -0.17336657141E+03  0.31251619223E+03  0.10100000352E+00 0. -1.
</event>
<event>
 5   0  0.9681801E-03  0.6008314E+03  0.7818609E-02  0.9903683E-01
       -2   -1    0    0    0  501  0.00000000000E+00  0.00000000000E+00  0.60985374846E+02  0.60985374899E+02  0.25500000920E-02 0.  1.
        2   -1    0    0  501    0  0.00000000000E+00  0.00000000000E+00 -0.14798565527E+04  0.14798565527E+04  0.25500000920E-02 0. -1.
    10030    2    1    2    0    0  0.00000000000E+00  0.00000000000E+00 -0.14188711778E+04  0.15408419276E+04  0.60083144600E+03 0.  0.
        4    1    3    3  502    0  0.12775461324E+02 -0.11182310508E+03 -0.14237367709E+04  0.14281791292E+04  0.12699999809E+01 0. -1.
       -4    1    3    3    0  502 -0.12775461324E+02  0.11182310508E+03  0.48655931140E+01  0.11266279838E+03  0.12699999809E+01 0.  1.
</event>
<event>
 5   0  0.9530666E-03  0.6002928E+03  0.7818609E-02  0.9904799E-01
        2   -1    0    0  501    0  0.00000000000E+00  0.00000000000E+00  0.32387595664E+03  0.32387595665E+03  0.25500000920E-02 0. -1.
       -2   -1    0    0    0  501  0.00000000000E+00  0.00000000000E+00 -0.27815541871E+03  0.27815541872E+03  0.25500000920E-02 0.  1.
    10030    2    1    2    0    0  0.00000000000E+00  0.00000000000E+00  0.45720537925E+02  0.60203137537E+03  0.60029276969E+03 0.  0.
        2    1    3    3  502    0 -0.10167017874E+03 -0.40803832541E+02 -0.25738791559E+03  0.27973258140E+03  0.25500000920E-02 0.  1.
       -2    1    3    3    0  502  0.10167017874E+03  0.40803832541E+02  0.30310845352E+03  0.32229879397E+03  0.25500000920E-02 0. -1.
</event>
<event>
 5   0  0.9530666E-03  0.6004255E+03  0.7818609E-02  0.9904524E-01
       -2   -1    0    0    0  501  0.00000000000E+00  0.00000000000E+00  0.11191574810E+03  0.11191574813E+03  0.25500000920E-02 0.  1.
        2   -1    0    0  501    0  0.00000000000E+00  0.00000000000E+00 -0.80531728529E+03  0.80531728530E+03  0.25500000920E-02 0. -1.
    10030    2    1    2    0    0  0.00000000000E+00  0.00000000000E+00 -0.69340153719E+03  0.91723303343E+03  0.60042547068E+03 0.  0.
        2    1    3    3  502    0  0.12020469464E+03 -0.15298200498E+03 -0.69597592865E+03  0.72265839491E+03  0.25500000920E-02 0. -1.
       -2    1    3    3    0  502 -0.12020469464E+03  0.15298200498E+03  0.25743914617E+01  0.19457463853E+03  0.25500000920E-02 0.  1.
</event>
<event>
 5   0  0.9530666E-03  0.6002157E+03  0.7818609E-02  0.9904959E-01
        2   -1    0    0  501    0  0.00000000000E+00  0.00000000000E+00  0.14813573217E+03  0.14813573219E+03  0.25500000920E-02 0. -1.
       -2   -1    0    0    0  501  0.00000000000E+00  0.00000000000E+00 -0.60798773000E+03  0.60798773000E+03  0.25500000920E-02 0.  1.
    10030    2    1    2    0    0  0.00000000000E+00  0.00000000000E+00 -0.45985199783E+03  0.75612346220E+03  0.60021565306E+03 0.  0.
        2    1    3    3  502    0 -0.23860207079E+03  0.16435894062E+03 -0.13137580373E+03  0.31812640782E+03  0.25500000920E-02 0. -1.
       -2    1    3    3    0  502  0.23860207079E+03 -0.16435894062E+03 -0.32847619410E+03  0.43799705437E+03  0.25500000920E-02 0.  1.
</event>
<event>
 5   0  0.9428629E-03  0.6003753E+03  0.7818609E-02  0.9904628E-01
        2   -1    0    0  501    0  0.00000000000E+00  0.00000000000E+00  0.17173849634E+04  0.17173849634E+04  0.25500000920E-02 0.  1.
       -2   -1    0    0    0  501  0.00000000000E+00  0.00000000000E+00 -0.52470829346E+02  0.52470829408E+02  0.25500000920E-02 0. -1.
    10030    2    1    2    0    0  0.00000000000E+00  0.00000000000E+00  0.16649141341E+04  0.17698557928E+04  0.60037526063E+03 0.  0.
        3    1    3    3  502    0  0.25905606964E+03 -0.44068603296E+02  0.40464840029E+03  0.48248567551E+03  0.10100000352E+00 0. -1.
       -3    1    3    3    0  502 -0.25905606964E+03  0.44068603296E+02  0.12602657338E+04  0.12873701173E+04  0.10100000352E+00 0.  1.
</event>
<event>
 5   0  0.9681801E-03  0.5999074E+03  0.7818609E-02  0.9905598E-01
        2   -1    0    0  501    0  0.00000000000E+00  0.00000000000E+00  0.61126246515E+03  0.61126246515E+03  0.25500000920E-02 0.  1.
       -2   -1    0    0    0  501  0.00000000000E+00  0.00000000000E+00 -0.14719082680E+03  0.14719082682E+03  0.25500000920E-02 0. -1.
    10030    2    1    2    0    0  0.00000000000E+00  0.00000000000E+00  0.46407163835E+03  0.75845329197E+03  0.59990741835E+03 0.  0.
        4    1    3    3  502    0  0.12318572893E+03 -0.24246300385E+03  0.39199437902E+03  0.47709981988E+03  0.12699999809E+01 0.  1.
       -4    1    3    3    0  502 -0.12318572893E+03  0.24246300385E+03  0.72077259326E+02  0.28135347209E+03  0.12699999809E+01 0. -1.
</event>
<event>
 5   0  0.9866317E-03  0.5998107E+03  0.7818609E-02  0.9905799E-01
       -2   -1    0    0    0  501  0.00000000000E+00  0.00000000000E+00  0.14125503865E+03  0.14125503867E+03  0.25500000920E-02 0.  1.
        2   -1    0    0  501    0  0.00000000000E+00  0.00000000000E+00 -0.63674349419E+03  0.63674349419E+03  0.25500000920E-02 0. -1.
    10030    2    1    2    0    0  0.00000000000E+00  0.00000000000E+00 -0.49548845554E+03  0.77799853286E+03  0.59981072645E+03 0.  0.
        1    1    3    3  502    0  0.13238906595E+03  0.16963813611E+02  0.10060774519E+03  0.16714231712E+03  0.50400001928E-02 0.  1.
       -1    1    3    3    0  502 -0.13238906595E+03 -0.16963813611E+02 -0.59609620073E+03  0.61085621574E+03  0.50400001928E-02 0. -1.
</event>
<event>
 5   0  0.5785798E-03  0.5992288E+03  0.7818609E-02  0.9907007E-01
        1   -1    0    0  501    0  0.00000000000E+00  0.00000000000E+00  0.50229250131E+03  0.50229250133E+03  0.50400001928E-02 0. -1.
       -1   -1    0    0    0  501  0.00000000000E+00  0.00000000000E+00 -0.17871818145E+03  0.17871818152E+03  0.50400001928E-02 0.  1.
    10030    2    1    2    0    0  0.00000000000E+00  0.00000000000E+00  0.32357431986E+03  0.68101068285E+03  0.59922884584E+03 0.  0.
        1    1    3    3  502    0 -0.28925840087E+03 -0.44280417961E+02  0.23489042105E+03  0.37523950727E+03  0.50400001928E-02 0. -1.
       -1    1    3    3    0  502  0.28925840087E+03  0.44280417961E+02  0.88683898808E+02  0.30577117559E+03  0.50400001928E-02 0.  1.
</event>
<event>
 5   0  0.5491236E-03  0.6004799E+03  0.7818609E-02  0.9904411E-01
        1   -1    0    0  501    0  0.00000000000E+00  0.00000000000E+00  0.63148593904E+03  0.63148593906E+03  0.50400001928E-02 0. -1.
       -1   -1    0    0    0  501  0.00000000000E+00  0.00000000000E+00 -0.14274906853E+03  0.14274906862E+03  0.50400001928E-02 0.  1.
    10030    2    1    2    0    0  0.00000000000E+00  0.00000000000E+00  0.48873687051E+03  0.77423500768E+03  0.60047990684E+03 0.  0.
        3    1    3    3  502    0  0.23521218672E+03  0.16775900912E+03  0.13901765854E+03  0.32061468699E+03  0.10100000352E+00 0.  1.
       -3    1    3    3    0  502 -0.23521218672E+03 -0.16775900912E+03  0.34971921197E+03  0.45362032069E+03  0.10100000352E+00 0. -1.
</event>
<event>
 5   0  0.5503975E-03  0.6009472E+03  0.7818609E-02  0.9903443E-01
        1   -1    0    0  501    0  0.00000000000E+00  0.00000000000E+00  0.21153893197E+03  0.21153893203E+03  0.50400001928E-02 0. -1.
       -1   -1    0    0    0  501  0.00000000000E+00  0.00000000000E+00 -0.42679793818E+03  0.42679793821E+03  0.50400001928E-02 0.  1.
    10030    2    1    2    0    0  0.00000000000E+00  0.00000000000E+00 -0.21525900621E+03  0.63833687025E+03  0.60094718583E+03 0.  0.
        4    1    3    3  502    0  0.26721610792E+02  0.17702257830E+03 -0.36395598003E+03  0.40560646692E+03  0.12699999809E+01 0.  1.
       -4    1    3    3    0  502 -0.26721610792E+02 -0.17702257830E+03  0.14869697382E+03  0.23273040333E+03  0.12699999809E+01 0. -1.
</event>
<event>
 5   0  0.9681801E-03  0.6009466E+03  0.7818609E-02  0.9903444E-01
        2   -1    0    0  501    0  0.00000000000E+00  0.00000000000E+00  0.91661807878E+03  0.91661807878E+03  0.25500000920E-02 0.  1.
       -2   -1    0    0    0  501  0.00000000000E+00  0.00000000000E+00 -0.98497080375E+02  0.98497080408E+02  0.25500000920E-02 0. -1.
    10030    2    1    2    0    0  0.00000000000E+00  0.00000000000E+00  0.81812099840E+03  0.10151151592E+04  0.60094660194E+03 0.  0.
        4    1    3    3  502    0  0.17855498498E+03 -0.17412332401E+03  0.69212911632E+03  0.73569364628E+03  0.12699999809E+01 0.  1.
       -4    1    3    3    0  502 -0.17855498498E+03  0.17412332401E+03  0.12599188208E+03  0.27942151291E+03  0.12699999809E+01 0. -1.
</event>
<event>
 5   0  0.9530666E-03  0.6005099E+03  0.7818609E-02  0.9904349E-01
       -2   -1    0    0    0  501  0.00000000000E+00  0.00000000000E+00  0.60008264224E+02  0.60008264278E+02  0.25500000920E-02 0. -1.
        2   -1    0    0  501    0  0.00000000000E+00  0.00000000000E+00 -0.15023438931E+04  0.15023438931E+04  0.25500000920E-02 0.  1.
    10030    2    1    2    0    0  0.00000000000E+00  0.00000000000E+00 -0.14423356288E+04  0.15623521573E+04  0.60050994774E+03 0.  0.
        2    1    3    3  502    0 -0.25088381281E+03 -0.13376072782E+02 -0.11489210823E+04  0.11760702616E+04  0.25500000920E-02 0.  1.
       -2    1    3    3    0  502  0.25088381281E+03  0.13376072782E+02 -0.29341454655E+03  0.38628189575E+03  0.25500000920E-02 0. -1.
</event>
<event>
 5   0  0.9530666E-03  0.6078460E+03  0.7818609E-02  0.9889261E-01
       -2   -1    0    0    0  501  0.00000000000E+00  0.00000000000E+00  0.81789435891E+02  0.81789435931E+02  0.25500000920E-02 0. -1.
        2   -1    0    0  501    0  0.00000000000E+00  0.00000000000E+00 -0.11293534209E+04  0.11293534209E+04  0.25500000920E-02 0.  1.
    10030    2    1    2    0    0  0.00000000000E+00  0.00000000000E+00 -0.10475639850E+04  0.12111428568E+04  0.60784596484E+03 0.  0.
        2    1    3    3  502    0 -0.15890014521E+03 -0.12169016809E+03 -0.97950411763E+03  0.99974300179E+03  0.25500000920E-02 0.  1.
       -2    1    3    3    0  502  0.15890014521E+03  0.12169016809E+03 -0.68059867367E+02  0.21139985504E+03  0.25500000920E-02 0. -1.
</event>
<event>
 5   0  0.9866317E-03  0.5973808E+03  0.7818609E-02  0.9910855E-01
       -2   -1    0    0    0  501  0.00000000000E+00  0.00000000000E+00  0.30779140532E+03  0.30779140533E+03  0.25500000920E-02 0.  1.
        2   -1    0    0  501    0  0.00000000000E+00  0.00000000000E+00 -0.28985854449E+03  0.28985854451E+03  0.25500000920E-02 0. -1.
    10030    2    1    2    0    0  0.00000000000E+00  0.00000000000E+00  0.17932860823E+02  0.59764994983E+03  0.59738084589E+03 0.  0.
        1    1    3    3  502    0 -0.13893858357E+03  0.99300170083E+00 -0.25555966083E+03  0.29088770398E+03  0.50400001928E-02 0. -1.
       -1    1    3    3    0  502  0.13893858357E+03 -0.99300170083E+00  0.27349252165E+03  0.30676224586E+03  0.50400001928E-02 0.  1.
</event>
<event>
 5   0  0.9571790E-03  0.5997035E+03  0.7818609E-02  0.9906021E-01
       -2   -1    0    0    0  501  0.00000000000E+00  0.00000000000E+00  0.85495385419E+02  0.85495385457E+02  0.25500000920E-02 0.  1.
        2   -1    0    0  501    0  0.00000000000E+00  0.00000000000E+00 -0.10516482628E+04  0.10516482628E+04  0.25500000920E-02 0. -1.
    10030    2    1    2    0    0  0.00000000000E+00  0.00000000000E+00 -0.96615287737E+03  0.11371436483E+04  0.59970350533E+03 0.  0.
        5    1    3    3  502    0  0.28762401506E+03 -0.21512215766E+01 -0.32266415183E+03  0.43228051849E+03  0.46999998093E+01 0.  1.
       -5    1    3    3    0  502 -0.28762401506E+03  0.21512215766E+01 -0.64348872554E+03  0.70486312976E+03  0.46999998093E+01 0. -1.
</event>
<event>
 5   0  0.5653633E-03  0.5998815E+03  0.7818609E-02  0.9905652E-01
       -1   -1    0    0    0  501  0.00000000000E+00  0.00000000000E+00  0.32264868549E+02  0.32264868942E+02  0.50400001928E-02 0.  1.
        1   -1    0    0  501    0  0.00000000000E+00  0.00000000000E+00 -0.27883099182E+04  0.27883099182E+04  0.50400001928E-02 0. -1.
    10030    2    1    2    0    0  0.00000000000E+00  0.00000000000E+00 -0.27560450496E+04  0.28205747871E+04  0.59988150011E+03 0.  0.
        2    1    3    3  502    0 -0.19735658503E+03 -0.16948966599E+03 -0.20799763231E+04  0.20961817367E+04  0.25500000920E-02 0. -1.
       -2    1    3    3    0  502  0.19735658503E+03  0.16948966599E+03 -0.67606872654E+03  0.72439305045E+03  0.25500000920E-02 0.  1.
</event>
<event>
 5   0  0.5491236E-03  0.5997161E+03  0.7818609E-02  0.9905995E-01
        1   -1    0    0  501    0  0.00000000000E+00  0.00000000000E+00  0.43416359626E+03  0.43416359629E+03  0.50400001928E-02 0. -1.
       -1   -1    0    0    0  501  0.00000000000E+00  0.00000000000E+00 -0.20709900705E+03  0.20709900711E+03  0.50400001928E-02 0.  1.
    10030    2    1    2    0    0  0.00000000000E+00  0.00000000000E+00  0.22706458921E+03  0.64126260340E+03  0.59971609854E+03 0.  0.
        3    1    3    3  502    0  0.16466874019E+03  0.23672864126E+03  0.25626308959E+02  0.28950468304E+03  0.10100000352E+00 0.  1.
       -3    1    3    3    0  502 -0.16466874019E+03 -0.23672864126E+03  0.20143828025E+03  0.35175792037E+03  0.10100000352E+00 0. -1.
</event>
<event>
 5   0  0.5785798E-03  0.5999640E+03  0.7818609E-02  0.9905481E-01
       -1   -1    0    0    0  501  0.00000000000E+00  0.00000000000E+00  0.13219970294E+03  0.13219970303E+03  0.50400001928E-02 0. -1.
        1   -1    0    0  501    0  0.00000000000E+00  0.00000000000E+00 -0.68070641806E+03  0.68070641808E+03  0.50400001928E-02 0.  1.
    10030    2    1    2    0    0  0.00000000000E+00  0.00000000000E+00 -0.54850671513E+03  0.81290612112E+03  0.59996395326E+03 0.  0.
        1    1    3    3  502    0 -0.26877624251E+03 -0.52514738841E+02 -0.44014575405E+03  0.51838861018E+03  0.50400001928E-02 0.  1.
       -1    1    3    3    0  502  0.26877624251E+03  0.52514738841E+02 -0.10836096108E+03  0.29451751093E+03  0.50400001928E-02 0. -1.
</event>
<event>
 5   0  0.5653633E-03  0.5992465E+03  0.7818609E-02  0.9906971E-01
        1   -1    0    0  501    0  0.00000000000E+00  0.00000000000E+00  0.62650675208E+03  0.62650675210E+03  0.50400001928E-02 0. -1.
       -1   -1    0    0    0  501  0.00000000000E+00  0.00000000000E+00 -0.14329308053E+03  0.14329308062E+03  0.50400001928E-02 0.  1.
    10030    2    1    2    0    0  0.00000000000E+00  0.00000000000E+00  0.48321367155E+03  0.76979983272E+03  0.59924646856E+03 0.  0.
        2    1    3    3  502    0  0.25273190280E+03 -0.16068635747E+03  0.25313707661E+03  0.39213760305E+03  0.25500000920E-02 0.  1.
       -2    1    3    3    0  502 -0.25273190280E+03  0.16068635747E+03  0.23007659494E+03  0.37766222966E+03  0.25500000920E-02 0. -1.
</event>
<event>
 5   0  0.9428629E-03  0.6003308E+03  0.7818609E-02  0.9904720E-01
       -2   -1    0    0    0  501  0.00000000000E+00  0.00000000000E+00  0.19151825045E+03  0.19151825046E+03  0.25500000920E-02 0. -1.
        2   -1    0    0  501    0  0.00000000000E+00  0.00000000000E+00 -0.47044743076E+03  0.47044743076E+03  0.25500000920E-02 0.  1.
    10030    2    1    2    0    0  0.00000000000E+00  0.00000000000E+00 -0.27892918031E+03  0.66196568123E+03  0.60033080505E+03 0.  0.
        3    1    3    3  502    0  0.14585797907E+03  0.19777402621E+03 -0.32952743165E+03  0.41106867299E+03  0.10100000352E+00 0.  1.
       -3    1    3    3    0  502 -0.14585797907E+03 -0.19777402621E+03  0.50598251346E+02  0.25089700824E+03  0.10100000352E+00 0. -1.
</event>
<event>
 5   0  0.5653633E-03  0.5993579E+03  0.7818609E-02  0.9906739E-01
       -1   -1    0    0    0  501  0.00000000000E+00  0.00000000000E+00  0.12502837797E+03  0.12502837807E+03  0.50400001928E-02 0.  1.
        1   -1    0    0  501    0  0.00000000000E+00  0.00000000000E+00 -0.71829665543E+03  0.71829665544E+03  0.50400001928E-02 0. -1.
    10030    2    1    2    0    0  0.00000000000E+00  0.00000000000E+00 -0.59326827746E+03  0.84332503352E+03  0.59935787566E+03 0.  0.
        2    1    3    3  502    0 -0.22701998582E+03 -0.15446850252E+03 -0.46553186021E+03  0.54047988409E+03  0.25500000920E-02 0. -1.
       -2    1    3    3    0  502  0.22701998582E+03  0.15446850252E+03 -0.12773641725E+03  0.30284514943E+03  0.25500000920E-02 0.  1.
</event>
<event>
 5   0  0.9571790E-03  0.5997504E+03  0.7818609E-02  0.9905924E-01
        2   -1    0    0  501    0  0.00000000000E+00  0.00000000000E+00  0.87244384788E+03  0.87244384789E+03  0.25500000920E-02 0. -1.
       -2   -1    0    0    0  501  0.00000000000E+00  0.00000000000E+00 -0.10307268135E+03  0.10307268138E+03  0.25500000920E-02 0.  1.
    10030    2    1    2    0    0  0.00000000000E+00  0.00000000000E+00  0.76937116653E+03  0.97551652927E+03  0.59975037055E+03 0.  0.
        5    1    3    3  502    0 -0.13000282884E+03 -0.18138321904E+03  0.58961817333E+02  0.23086618106E+03  0.46999998093E+01 0.  1.
       -5    1    3    3    0  502  0.13000282884E+03  0.18138321904E+03  0.71040934920E+03  0.74465034821E+03  0.46999998093E+01 0. -1.
</event>
<event>
 5   0  0.9866317E-03  0.5996473E+03  0.7818609E-02  0.9906138E-01
       -2   -1    0    0    0  501  0.00000000000E+00  0.00000000000E+00  0.87103403993E+02  0.87103404030E+02  0.25500000920E-02 0.  1.
        2   -1    0    0  501    0  0.00000000000E+00  0.00000000000E+00 -0.10320402768E+04  0.10320402768E+04  0.25500000920E-02 0. -1.
    10030    2    1    2    0    0  0.00000000000E+00  0.00000000000E+00 -0.94493687281E+03  0.11191436808E+04  0.59964730030E+03 0.  0.
        1    1    3    3  502    0  0.39673046034E+02  0.10026771914E+03 -0.99459808017E+03  0.10004263627E+04  0.50400001928E-02 0. -1.
       -1    1    3    3    0  502 -0.39673046034E+02 -0.10026771914E+03  0.49661207359E+02  0.11871731814E+03  0.50400001928E-02 0.  1.
</event>
<event>
 5   0  0.5574736E-03  0.6000339E+03  0.7818609E-02  0.9905336E-01
        1   -1    0    0  501    0  0.00000000000E+00  0.00000000000E+00  0.10067790121E+04  0.10067790121E+04  0.50400001928E-02 0.  1.
       -1   -1    0    0    0  501  0.00000000000E+00  0.00000000000E+00 -0.89404097948E+02  0.89404098090E+02  0.50400001928E-02 0. -1.
    10030    2    1    2    0    0  0.00000000000E+00  0.00000000000E+00  0.91737491416E+03  0.10961831102E+04  0.60003389736E+03 0.  0.
        5    1    3    3  502    0  0.65834372113E+02 -0.26023941937E+03  0.70330618823E+03  0.75280834503E+03  0.46999998093E+01 0.  1.
       -5    1    3    3    0  502 -0.65834372113E+02  0.26023941937E+03  0.21406872594E+03  0.34337476519E+03  0.46999998093E+01 0. -1.
</event>
<event>
 5   0  0.5491236E-03  0.5997931E+03  0.7818609E-02  0.9905836E-01
       -1   -1    0    0    0  501  0.00000000000E+00  0.00000000000E+00  0.75799339193E+03  0.75799339195E+03  0.50400001928E-02 0. -1.
        1   -1    0    0  501    0  0.00000000000E+00  0.00000000000E+00 -0.11865265216E+03  0.11865265227E+03  0.50400001928E-02 0.  1.
    10030    2    1    2    0    0  0.00000000000E+00  0.00000000000E+00  0.63934073977E+03  0.87664604422E+03  0.59979305208E+03 0.  0.
        3    1    3    3  502    0 -0.23124785533E+03  0.14377277515E+03  0.13600056446E+03  0.30437205062E+03  0.10100000352E+00 0.  1.
       -3    1    3    3    0  502  0.23124785533E+03 -0.14377277515E+03  0.50334017531E+03  0.57227399360E+03  0.10100000352E+00 0. -1.
</event>
<event>
 5   0  0.5503975E-03  0.5984025E+03  0.7818609E-02  0.9908726E-01
        1   -1    0    0  501    0  0.00000000000E+00  0.00000000000E+00  0.13200270632E+04  0.13200270632E+04  0.50400001928E-02 0.  1.
       -1   -1    0    0    0  501  0.00000000000E+00  0.00000000000E+00 -0.67817834553E+02  0.67817834740E+02  0.50400001928E-02 0. -1.
    10030    2    1    2    0    0  0.00000000000E+00  0.00000000000E+00  0.12522092287E+04  0.13878448980E+04  0.59840246362E+03 0.  0.
        4    1    3    3  502    0 -0.14748183273E+03  0.51301848239E+01  0.22464149558E+02  0.14927645728E+03  0.12699999809E+01 0. -1.
       -4    1    3    3    0  502  0.14748183273E+03 -0.51301848239E+01  0.12297450791E+04  0.12385684407E+04  0.12699999809E+01 0.  1.
</event>
<event>
 5   0  0.5574736E-03  0.6012211E+03  0.7818609E-02  0.9902876E-01
       -1   -1    0    0    0  501  0.00000000000E+00  0.00000000000E+00  0.13354923707E+03  0.13354923717E+03  0.50400001928E-02 0. -1.
        1   -1    0    0  501    0  0.00000000000E+00  0.00000000000E+00 -0.67665458436E+03  0.67665458438E+03  0.50400001928E-02 0.  1.
    10030    2    1    2    0    0  0.00000000000E+00  0.00000000000E+00 -0.54310534729E+03  0.81020382155E+03  0.60122110258E+03 0.  0.
        5    1    3    3  502    0  0.25855752466E+03 -0.14854790774E+03 -0.22066167019E+03  0.37098805526E+03  0.46999998093E+01 0. -1.
       -5    1    3    3    0  502 -0.25855752466E+03  0.14854790774E+03 -0.32244367710E+03  0.43921576629E+03  0.46999998093E+01 0.  1.
</event>
<event>
 5   0  0.9530666E-03  0.6005456E+03  0.7818609E-02  0.9904275E-01
        2   -1    0    0  501    0  0.00000000000E+00  0.00000000000E+00  0.36623727031E+03  0.36623727032E+03  0.25500000920E-02 0.  1.
       -2   -1    0    0    0  501  0.00000000000E+00  0.00000000000E+00 -0.24618944407E+03  0.24618944409E+03  0.25500000920E-02 0. -1.
    10030    2    1    2    0    0  0.00000000000E+00  0.00000000000E+00  0.12004782624E+03  0.61242671441E+03  0.60054558523E+03 0.  0.
        2    1    3    3  502    0  0.12066660230E+03 -0.10282295668E+03  0.32008032425E+03  0.35718959015E+03  0.25500000920E-02 0.  1.
       -2    1    3    3    0  502 -0.12066660230E+03  0.10282295668E+03 -0.20003249802E+03  0.25523712426E+03  0.25500000920E-02 0. -1.
</event>
<event>
 5   0  0.5653633E-03  0.6026371E+03  0.7818609E-02  0.9899950E-01
        1   -1    0    0  501    0  0.00000000000E+00  0.00000000000E+00  0.18370897811E+04  0.18370897811E+04  0.50400001928E-02 0.  1.
       -1   -1    0    0    0  501  0.00000000000E+00  0.00000000000E+00 -0.49422119128E+02  0.49422119385E+02  0.50400001928E-02 0. -1.
    10030    2    1    2    0    0  0.00000000000E+00  0.00000000000E+00  0.17876676620E+04  0.18865119005E+04  0.60263710559E+03 0.  0.
        2    1    3    3  502    0 -0.22650610994E+02 -0.97812316917E+02  0.44806339224E+01  0.10050062490E+03  0.25500000920E-02 0. -1.
       -2    1    3    3    0  502  0.22650610994E+02  0.97812316917E+02  0.17831870281E+04  0.17860112756E+04  0.25500000920E-02 0.  1.
</event>
<event>
 5   0  0.9571790E-03  0.6005268E+03  0.7818609E-02  0.9904314E-01
       -2   -1    0    0    0  501  0.00000000000E+00  0.00000000000E+00  0.85595618244E+02  0.85595618282E+02  0.25500000920E-02 0.  1.
        2   -1    0    0  501    0  0.00000000000E+00  0.00000000000E+00 -0.10533027704E+04  0.10533027704E+04  0.25500000920E-02 0. -1.
    10030    2    1    2    0    0  0.00000000000E+00  0.00000000000E+00 -0.96770715219E+03  0.11388983887E+04  0.60052677495E+03 0.  0.
        5    1    3    3  502    0 -0.25386961090E+03 -0.12572805262E+03 -0.67234963153E+03  0.72961184171E+03  0.46999998093E+01 0. -1.
       -5    1    3    3    0  502  0.25386961090E+03  0.12572805262E+03 -0.29535752066E+03  0.40928654701E+03  0.46999998093E+01 0.  1.
</event>
<event>
 5   0  0.5785798E-03  0.5995374E+03  0.7818609E-02  0.9906366E-01
       -1   -1    0    0    0  501  0.00000000000E+00  0.00000000000E+00  0.17126032614E+03  0.17126032621E+03  0.50400001928E-02 0. -1.
        1   -1    0    0  501    0  0.00000000000E+00  0.00000000000E+00 -0.52470567167E+03  0.52470567169E+03  0.50400001928E-02 0.  1.
    10030    2    1    2    0    0  0.00000000000E+00  0.00000000000E+00 -0.35344534553E+03  0.69596599790E+03  0.59953736995E+03 0.  0.
        1    1    3    3  502    0 -0.48738373855E+02  0.29560458635E+03 -0.18854750324E+03  0.35398822235E+03  0.50400001928E-02 0.  1.
       -1    1    3    3    0  502  0.48738373855E+02 -0.29560458635E+03 -0.16489784229E+03  0.34197777556E+03  0.50400001928E-02 0. -1.
</event>
<event>
 5   0  0.9428629E-03  0.6001240E+03  0.7818609E-02  0.9905149E-01
       -2   -1    0    0    0  501  0.00000000000E+00  0.00000000000E+00  0.63617506451E+02  0.63617506503E+02  0.25500000920E-02 0.  1.
        2   -1    0    0  501    0  0.00000000000E+00  0.00000000000E+00 -0.14152898435E+04  0.14152898435E+04  0.25500000920E-02 0. -1.
    10030    2    1    2    0    0  0.00000000000E+00  0.00000000000E+00 -0.13516723370E+04  0.14789073500E+04  0.60012402314E+03 0.  0.
        3    1    3    3  502    0  0.25669325982E+03 -0.13954892310E+02 -0.29445251909E+03  0.39088165070E+03  0.10100000352E+00 0.  1.
       -3    1    3    3    0  502 -0.25669325982E+03  0.13954892310E+02 -0.10572198179E+04  0.10880256993E+04  0.10100000352E+00 0. -1.
</event>
<event>
 5   0  0.9571790E-03  0.6006486E+03  0.7818609E-02  0.9904061E-01
        2   -1    0    0  501    0  0.00000000000E+00  0.00000000000E+00  0.18217283141E+04  0.18217283141E+04  0.25500000920E-02 0.  1.
       -2   -1    0    0    0  501  0.00000000000E+00  0.00000000000E+00 -0.49510501310E+02  0.49510501375E+02  0.25500000920E-02 0. -1.
    10030    2    1    2    0    0  0.00000000000E+00  0.00000000000E+00  0.17722178128E+04  0.18712388155E+04  0.60064858992E+03 0.  0.
        5    1    3    3  502    0 -0.17382446387E+03  0.80837214142E+02  0.16604198229E+03  0.25365651837E+03  0.46999998093E+01 0. -1.
       -5    1    3    3    0  502  0.17382446387E+03 -0.80837214142E+02  0.16061758305E+04  0.16175822971E+04  0.46999998093E+01 0.  1.
</event>
<event>
 5   0  0.9571790E-03  0.6002647E+03  0.7818609E-02  0.9904857E-01
       -2   -1    0    0    0  501  0.00000000000E+00  0.00000000000E+00  0.20573236578E+03  0.20573236579E+03  0.25500000920E-02 0.  1.
        2   -1    0    0  501    0  0.00000000000E+00  0.00000000000E+00 -0.43784764288E+03  0.43784764288E+03  0.25500000920E-02 0. -1.
    10030    2    1    2    0    0  0.00000000000E+00  0.00000000000E+00 -0.23211527710E+03  0.64358000868E+03  0.60026471303E+03 0.  0.
        5    1    3    3  502    0  0.16147482274E+03  0.12432470566E+03 -0.35224117509E+03  0.40697258660E+03  0.46999998093E+01 0. -1.
       -5    1    3    3    0  502 -0.16147482274E+03 -0.12432470566E+03  0.12012589799E+03  0.23660742208E+03  0.46999998093E+01 0.  1.
</event>
<event>
 5   0  0.9428629E-03  0.6025365E+03  0.7818609E-02  0.9900157E-01
       -2   -1    0    0    0  501  0.00000000000E+00  0.00000000000E+00  0.42856181502E+03  0.42856181502E+03  0.25500000920E-02 0.  1.
        2   -1    0    0  501    0  0.00000000000E+00  0.00000000000E+00 -0.21178407593E+03  0.21178407594E+03  0.25500000920E-02 0. -1.
    10030    2    1    2    0    0  0.00000000000E+00  0.00000000000E+00  0.21677773909E+03  0.64034589097E+03  0.60253653160E+03 0.  0.
        3    1    3    3  502    0 -0.13324390274E+03  0.26024566696E+03  0.18561808765E+03  0.34631752692E+03  0.10100000352E+00 0.  1.
       -3    1    3    3    0  502  0.13324390274E+03 -0.26024566696E+03  0.31159651445E+02  0.29402836405E+03  0.10100000352E+00 0. -1.
</event>
<event>
 5   0  0.5785798E-03  0.6004326E+03  0.7818609E-02  0.9904509E-01
       -1   -1    0    0    0  501  0.00000000000E+00  0.00000000000E+00  0.10016279288E+03  0.10016279301E+03  0.50400001928E-02 0.  1.
        1   -1    0    0  501    0  0.00000000000E+00  0.00000000000E+00 -0.89983352460E+03  0.89983352461E+03  0.50400001928E-02 0. -1.
    10030    2    1    2    0    0  0.00000000000E+00  0.00000000000E+00 -0.79967073172E+03  0.99999631762E+03  0.60043264076E+03 0.  0.
        1    1    3    3  502    0 -0.48062021938E+02  0.15663881696E+01 -0.89337775916E+03  0.89467101893E+03  0.50400001928E-02 0. -1.
       -1    1    3    3    0  502  0.48062021938E+02 -0.15663881696E+01  0.93707027447E+02  0.10532529868E+03  0.50400001928E-02 0.  1.
</event>
<event>
 5   0  0.5653633E-03  0.6007943E+03  0.7818609E-02  0.9903760E-01
       -1   -1    0    0    0  501  0.00000000000E+00  0.00000000000E+00  0.17232551235E+03  0.17232551243E+03  0.50400001928E-02 0. -1.
        1   -1    0    0  501    0  0.00000000000E+00  0.00000000000E+00 -0.52365111400E+03  0.52365111402E+03  0.50400001928E-02 0.  1.
    10030    2    1    2    0    0  0.00000000000E+00  0.00000000000E+00 -0.35132560164E+03  0.69597662645E+03  0.60079429607E+03 0.  0.
        2    1    3    3  502    0 -0.16548061596E+03 -0.14750081306E+03  0.59181402292E+02  0.22944010655E+03  0.25500000920E-02 0. -1.
       -2    1    3    3    0  502  0.16548061596E+03  0.14750081306E+03 -0.41050700394E+03  0.46653651990E+03  0.25500000920E-02 0.  1.
</event>
<event>
 5   0  0.5574736E-03  0.6008745E+03  0.7818609E-02  0.9903593E-01
       -1   -1    0    0    0  501  0.00000000000E+00  0.00000000000E+00  0.19945641440E+03  0.19945641447E+03  0.50400001928E-02 0.  1.
        1   -1    0    0  501    0  0.00000000000E+00  0.00000000000E+00 -0.45254268981E+03  0.45254268984E+03  0.50400001928E-02 0. -1.
    10030    2    1    2    0    0  0.00000000000E+00  0.00000000000E+00 -0.25308627541E+03  0.65199910431E+03  0.60087450372E+03 0.  0.
        5    1    3    3  502    0  0.40029200909E+02  0.13539159597E+03 -0.41425861179E+03  0.43768197201E+03  0.46999998093E+01 0. -1.
       -5    1    3    3    0  502 -0.40029200909E+02 -0.13539159597E+03  0.16117233638E+03  0.21431713230E+03  0.46999998093E+01 0.  1.
</event>
<event>
 5   0  0.9530666E-03  0.6003419E+03  0.7818609E-02  0.9904697E-01
       -2   -1    0    0    0  501  0.00000000000E+00  0.00000000000E+00  0.13937044857E+03  0.13937044859E+03  0.25500000920E-02 0.  1.
        2   -1    0    0  501    0  0.00000000000E+00  0.00000000000E+00 -0.64649719609E+03  0.64649719610E+03  0.25500000920E-02 0. -1.
    10030    2    1    2    0    0  0.00000000000E+00  0.00000000000E+00 -0.50712674753E+03  0.78586764469E+03  0.60034191667E+03 0.  0.
        2    1    3    3  502    0  0.22294127296E+03  0.95724942972E+02 -0.48492009508E+03  0.54223018592E+03  0.25500000920E-02 0. -1.
       -2    1    3    3    0  502 -0.22294127296E+03 -0.95724942972E+02 -0.22206652444E+02  0.24363745877E+03  0.25500000920E-02 0.  1.
</event>
<event>
 5   0  0.5491236E-03  0.6018037E+03  0.7818609E-02  0.9901671E-01
       -1   -1    0    0    0  501  0.00000000000E+00  0.00000000000E+00  0.53405376448E+03  0.53405376451E+03  0.50400001928E-02 0.  1.
        1   -1    0    0  501    0  0.00000000000E+00  0.00000000000E+00 -0.16953710051E+03  0.16953710059E+03  0.50400001928E-02 0. -1.
    10030    2    1    2    0    0  0.00000000000E+00  0.00000000000E+00  0.36451666397E+03  0.70359086510E+03  0.60180371146E+03 0.  0.
        3    1    3    3  502    0 -0.24546736370E+03  0.14355754531E+03  0.29727977343E+03  0.41138579137E+03  0.10100000352E+00 0.  1.
       -3    1    3    3    0  502  0.24546736370E+03 -0.14355754531E+03  0.67236890547E+02  0.29220507372E+03  0.10100000352E+00 0. -1.
</event>
<event>
 5   0  0.5503975E-03  0.6000601E+03  0.7818609E-02  0.9905281E-01
       -1   -1    0    0    0  501  0.00000000000E+00  0.00000000000E+00  0.43524316825E+03  0.43524316828E+03  0.50400001928E-02 0. -1.
        1   -1    0    0  501    0  0.00000000000E+00  0.00000000000E+00 -0.20682237641E+03  0.20682237647E+03  0.50400001928E-02 0.  1.
    10030    2    1    2    0    0  0.00000000000E+00  0.00000000000E+00  0.22842079184E+03  0.64206554475E+03  0.60006008500E+03 0.  0.
        4    1    3    3  502    0 -0.95058423003E+02 -0.82317876364E+02  0.40568351561E+03  0.42472704681E+03  0.12699999809E+01 0. -1.
       -4    1    3    3    0  502  0.95058423003E+02  0.82317876364E+02 -0.17726272377E+03  0.21733849795E+03  0.12699999809E+01 0.  1.
</event>
<event>
 5   0  0.9681801E-03  0.6026762E+03  0.7818609E-02  0.9899869E-01
        2   -1    0    0  501    0  0.00000000000E+00  0.00000000000E+00  0.78932376657E+03  0.78932376657E+03  0.25500000920E-02 0.  1.
       -2   -1    0    0    0  501  0.00000000000E+00  0.00000000000E+00 -0.11504108543E+03  0.11504108545E+03  0.25500000920E-02 0. -1.
    10030    2    1    2    0    0  0.00000000000E+00  0.00000000000E+00  0.67428268114E+03  0.90436485203E+03  0.60267624102E+03 0.  0.
        4    1    3    3  502    0  0.22938161394E+03 -0.11584252178E+03  0.10098376778E+03  0.27610640869E+03  0.12699999809E+01 0. -1.
       -4    1    3    3    0  502 -0.22938161394E+03  0.11584252178E+03  0.57329891336E+03  0.62825844334E+03  0.12699999809E+01 0.  1.
</event>
<event>
 5   0  0.3794375E-03  0.5998919E+03  0.7818609E-02  0.9905630E-01
       -3   -1    0    0    0  501  0.00000000000E+00  0.00000000000E+00  0.18269842875E+04  0.18269842903E+04  0.10100000352E+00 0. -1.
        3   -1    0    0  501    0  0.00000000000E+00  0.00000000000E+00 -0.49243698159E+02  0.49243801735E+02  0.10100000352E+00 0.  1.
    10030    2    1    2    0    0  0.00000000000E+00  0.00000000000E+00  0.17777405894E+04  0.18762280920E+04  0.59989186552E+03 0.  0.
        4    1    3    3  502    0  0.27361778606E+03  0.31923776128E+02  0.51774890694E+03  0.58647366852E+03  0.12699999809E+01 0.  1.
       -4    1    3    3    0  502 -0.27361778606E+03 -0.31923776128E+02  0.12599916824E+04  0.12897544235E+04  0.12699999809E+01 0. -1.
</event>
<event>
 5   0  0.5503975E-03  0.6006140E+03  0.7818609E-02  0.9904133E-01
        1   -1    0    0  501    0  0.00000000000E+00  0.00000000000E+00  0.39591960172E+03  0.39591960175E+03  0.50400001928E-02 0.  1.
       -1   -1    0    0    0  501  0.00000000000E+00  0.00000000000E+00 -0.22778436548E+03  0.22778436554E+03  0.50400001928E-02 0. -1.
    10030    2    1    2    0    0  0.00000000000E+00  0.00000000000E+00  0.16813523624E+03  0.62370396729E+03  0.60061400345E+03 0.  0.
        4    1    3    3  502    0 -0.60334714694E+02 -0.22437329238E+03  0.28164240448E+03  0.36511328247E+03  0.12699999809E+01 0.  1.
       -4    1    3    3    0  502  0.60334714694E+02  0.22437329238E+03 -0.11350716824E+03  0.25859068482E+03  0.12699999809E+01 0. -1.
</event>
<event>
 5   0  0.3794375E-03  0.6004715E+03  0.7818609E-02  0.9904428E-01
       -3   -1    0    0    0  501  0.00000000000E+00  0.00000000000E+00  0.31266384098E+03  0.31266385730E+03  0.10100000352E+00 0.  1.
        3   -1    0    0  501    0  0.00000000000E+00  0.00000000000E+00 -0.28830167268E+03  0.28830169037E+03  0.10100000352E+00 0. -1.
    10030    2    1    2    0    0  0.00000000000E+00  0.00000000000E+00  0.24362168300E+02  0.60096554767E+03  0.60047154324E+03 0.  0.
        3    1    3    3  502    0 -0.14938638495E+03 -0.24566761179E+03 -0.74334471232E+02  0.29697557358E+03  0.10100000352E+00 0. -1.
       -3    1    3    3    0  502  0.14938638495E+03  0.24566761179E+03  0.98696639533E+02  0.30398997409E+03  0.10100000352E+00 0.  1.
</event>
<event>
 5   0  0.5503975E-03  0.5997400E+03  0.7818609E-02  0.9905946E-01
        1   -1    0    0  501    0  0.00000000000E+00  0.00000000000E+00  0.39510851479E+03  0.39510851482E+03  0.50400001928E-02 0. -1.
       -1   -1    0    0    0  501  0.00000000000E+00  0.00000000000E+00 -0.22758813111E+03  0.22758813117E+03  0.50400001928E-02 0.  1.
    10030    2    1    2    0    0  0.00000000000E+00  0.00000000000E+00  0.16752038368E+03  0.62269664599E+03  0.59973997197E+03 0.  0.
        4    1    3    3  502    0 -0.27767886030E+03 -0.10935325498E+03  0.11415020556E+03  0.31952396806E+03  0.12699999809E+01 0.  1.
       -4    1    3    3    0  502  0.27767886030E+03  0.10935325498E+03  0.53370178118E+02  0.30317267793E+03  0.12699999809E+01 0. -1.
</event>
<event>
 5   0  0.5785798E-03  0.5997129E+03  0.7818609E-02  0.9906002E-01
       -1   -1    0    0    0  501  0.00000000000E+00  0.00000000000E+00  0.15940461278E+03  0.15940461286E+03  0.50400001928E-02 0.  1.
        1   -1    0    0  501    0  0.00000000000E+00  0.00000000000E+00 -0.56406076080E+03  0.56406076082E+03  0.50400001928E-02 0. -1.
    10030    2    1    2    0    0  0.00000000000E+00  0.00000000000E+00 -0.40465614802E+03  0.72346537368E+03  0.59971288862E+03 0.  0.
        1    1    3    3  502    0 -0.18632724207E+03 -0.11528020357E+03 -0.44928156499E+03  0.49986127189E+03  0.50400001928E-02 0. -1.
       -1    1    3    3    0  502  0.18632724207E+03  0.11528020357E+03  0.44625416968E+02  0.22360410179E+03  0.50400001928E-02 0.  1.
</event>
<event>
 5   0  0.9866317E-03  0.6009927E+03  0.7818609E-02  0.9903349E-01
       -2   -1    0    0    0  501  0.00000000000E+00  0.00000000000E+00  0.95463505414E+02  0.95463505448E+02  0.25500000920E-02 0.  1.
        2   -1    0    0  501    0  0.00000000000E+00  0.00000000000E+00 -0.94589100617E+03  0.94589100617E+03  0.25500000920E-02 0. -1.
    10030    2    1    2    0    0  0.00000000000E+00  0.00000000000E+00 -0.85042750076E+03  0.10413545116E+04  0.60099274940E+03 0.  0.
        1    1    3    3  502    0  0.20600774094E+03 -0.16052755024E+02 -0.80325420739E+03  0.82940593318E+03  0.50400001928E-02 0. -1.
       -1    1    3    3    0  502 -0.20600774094E+03  0.16052755024E+02 -0.47173293362E+02  0.21194857844E+03  0.50400001928E-02 0.  1.
</event>
<event>
 5   0  0.5491236E-03  0.6004606E+03  0.7818609E-02  0.9904451E-01
       -1   -1    0    0    0  501  0.00000000000E+00  0.00000000000E+00  0.58724628291E+02  0.58724628507E+02  0.50400001928E-02 0.  1.
        1   -1    0    0  501    0  0.00000000000E+00  0.00000000000E+00 -0.15349304318E+04  0.15349304318E+04  0.50400001928E-02 0. -1.
    10030    2    1    2    0    0  0.00000000000E+00  0.00000000000E+00 -0.14762058035E+04  0.15936550603E+04  0.60046055403E+03 0.  0.
        3    1    3    3  502    0 -0.80018081775E+02 -0.73383415714E+02  0.47962632737E+01  0.10867857864E+03  0.10100000352E+00 0.  1.
       -3    1    3    3    0  502  0.80018081775E+02  0.73383415714E+02 -0.14810020668E+04  0.14849764817E+04  0.10100000352E+00 0. -1.
</event>
<event>
 5   0  0.9530666E-03  0.6002079E+03  0.7818609E-02  0.9904975E-01
        2   -1    0    0  501    0  0.00000000000E+00  0.00000000000E+00  0.16458594624E+03  0.16458594626E+03  0.25500000920E-02 0.  1.
       -2   -1    0    0    0  501  0.00000000000E+00  0.00000000000E+00 -0.54720579761E+03  0.54720579762E+03  0.25500000920E-02 0. -1.
    10030    2    1    2    0    0  0.00000000000E+00  0.00000000000E+00 -0.38261985137E+03  0.71179174388E+03  0.60020791064E+03 0.  0.
        2    1    3    3  502    0 -0.16414468298E+03  0.53589353891E+02  0.99774696228E+02  0.19942488765E+03  0.25500000920E-02 0.  1.
       -2    1    3    3    0  502  0.16414468298E+03 -0.53589353891E+02 -0.48239454760E+03  0.51236685623E+03  0.25500000920E-02 0. -1.
</event>
<event>
 5   0  0.9428629E-03  0.5979810E+03  0.7818609E-02  0.9909604E-01
       -2   -1    0    0    0  501  0.00000000000E+00  0.00000000000E+00  0.27590798978E+03  0.27590798979E+03  0.25500000920E-02 0. -1.
        2   -1    0    0  501    0  0.00000000000E+00  0.00000000000E+00 -0.32400410393E+03  0.32400410394E+03  0.25500000920E-02 0.  1.
    10030    2    1    2    0    0  0.00000000000E+00  0.00000000000E+00 -0.48096114151E+02  0.59991209373E+03  0.59798100639E+03 0.  0.
        3    1    3    3  502    0 -0.20030248714E+03 -0.50524705459E+02 -0.24089760269E+03  0.31734129482E+03  0.10100000352E+00 0.  1.
       -3    1    3    3    0  502  0.20030248714E+03  0.50524705459E+02  0.19280148854E+03  0.28257079891E+03  0.10100000352E+00 0. -1.
</event>
<event>
 5   0  0.5574736E-03  0.5999823E+03  0.7818609E-02  0.9905443E-01
        1   -1    0    0  501    0  0.00000000000E+00  0.00000000000E+00  0.12434878031E+03  0.12434878041E+03  0.50400001928E-02 0.  1.
       -1   -1    0    0    0  501  0.00000000000E+00  0.00000000000E+00 -0.72372808129E+03  0.72372808131E+03  0.50400001928E-02 0. -1.
    10030    2    1    2    0    0  0.00000000000E+00  0.00000000000E+00 -0.59937930098E+03  0.84807686173E+03  0.59998234720E+03 0.  0.
        5    1    3    3  502    0  0.21014168999E+03 -0.20096684917E+02 -0.60089917712E+03  0.63691861150E+03  0.46999998093E+01 0. -1.
       -5    1    3    3    0  502 -0.21014168999E+03  0.20096684917E+02  0.15198761346E+01  0.21115825023E+03  0.46999998093E+01 0.  1.
</event>
<event>
 5   0  0.5574736E-03  0.5981905E+03  0.7818609E-02  0.9909167E-01
        1   -1    0    0  501    0  0.00000000000E+00  0.00000000000E+00  0.43133440057E+03  0.43133440060E+03  0.50400001928E-02 0. -1.
       -1   -1    0    0    0  501  0.00000000000E+00  0.00000000000E+00 -0.20739817445E+03  0.20739817451E+03  0.50400001928E-02 0.  1.
    10030    2    1    2    0    0  0.00000000000E+00  0.00000000000E+00  0.22393622612E+03  0.63873257511E+03  0.59819049569E+03 0.  0.
        5    1    3    3  502    0 -0.38817347287E+02  0.28090886316E+03  0.21337466313E+03  0.35491888188E+03  0.46999998093E+01 0. -1.
       -5    1    3    3    0  502  0.38817347287E+02 -0.28090886316E+03  0.10561562985E+02  0.28381369323E+03  0.46999998093E+01 0.  1.
</event>
<event>
 5   0  0.9681801E-03  0.6000364E+03  0.7818609E-02  0.9905331E-01
        2   -1    0    0  501    0  0.00000000000E+00  0.00000000000E+00  0.11564428224E+04  0.11564428224E+04  0.25500000920E-02 0.  1.
       -2   -1    0    0    0  501  0.00000000000E+00  0.00000000000E+00 -0.77834297927E+02  0.77834297969E+02  0.25500000920E-02 0. -1.
    10030    2    1    2    0    0  0.00000000000E+00  0.00000000000E+00  0.10786085245E+04  0.12342771204E+04  0.60003638290E+03 0.  0.
        4    1    3    3  502    0  0.57376179200E+02 -0.12400064802E+03 -0.10116468942E+02  0.13701146847E+03  0.12699999809E+01 0. -1.
       -4    1    3    3    0  502 -0.57376179200E+02  0.12400064802E+03  0.10887249934E+04  0.10972656519E+04  0.12699999809E+01 0.  1.
</event>
<event>
 5   0  0.9681801E-03  0.6000626E+03  0.7818609E-02  0.9905276E-01
        2   -1    0    0  501    0  0.00000000000E+00  0.00000000000E+00  0.26871791429E+04  0.26871791429E+04  0.25500000920E-02 0.  1.
       -2   -1    0    0    0  501  0.00000000000E+00  0.00000000000E+00 -0.33499363158E+02  0.33499363255E+02  0.25500000920E-02 0. -1.
    10030    2    1    2    0    0  0.00000000000E+00  0.00000000000E+00  0.26536797797E+04  0.27206785061E+04  0.60006263044E+03 0.  0.
        4    1    3    3  502    0 -0.71403675602E+02  0.18379156960E+03  0.30152266969E+03  0.36027123003E+03  0.12699999809E+01 0. -1.
       -4    1    3    3    0  502  0.71403675602E+02 -0.18379156960E+03  0.23521571100E+04  0.23604072761E+04  0.12699999809E+01 0.  1.
</event>
<event>
 5   0  0.9530666E-03  0.6003166E+03  0.7818609E-02  0.9904749E-01
       -2   -1    0    0    0  501  0.00000000000E+00  0.00000000000E+00  0.29092500139E+03  0.29092500140E+03  0.25500000920E-02 0. -1.
        2   -1    0    0  501    0  0.00000000000E+00  0.00000000000E+00 -0.30968464242E+03  0.30968464243E+03  0.25500000920E-02 0.  1.
    10030    2    1    2    0    0  0.00000000000E+00  0.00000000000E+00 -0.18759641033E+02  0.60060964383E+03  0.60031659991E+03 0.  0.
        2    1    3    3  502    0  0.12308697988E+03  0.24231235827E+03  0.11807672093E+03  0.29632380198E+03  0.25500000920E-02 0. -1.
       -2    1    3    3    0  502 -0.12308697988E+03 -0.24231235827E+03 -0.13683636196E+03  0.30428584185E+03  0.25500000920E-02 0.  1.
</event>
<event>
 5   0  0.5491236E-03  0.5999622E+03  0.7818609E-02  0.9905484E-01
        1   -1    0    0  501    0  0.00000000000E+00  0.00000000000E+00  0.65202422562E+03  0.65202422564E+03  0.50400001928E-02 0.  1.
       -1   -1    0    0    0  501  0.00000000000E+00  0.00000000000E+00 -0.13801429761E+03  0.13801429770E+03  0.50400001928E-02 0. -1.
    10030    2    1    2    0    0  0.00000000000E+00  0.00000000000E+00  0.51400992802E+03  0.79003852334E+03  0.59996221737E+03 0.  0.
        3    1    3    3  502    0  0.49456182152E+00  0.28692479296E+03  0.37227374670E+03  0.47001471689E+03  0.10100000352E+00 0.  1.
       -3    1    3    3    0  502 -0.49456182152E+00 -0.28692479296E+03  0.14173618131E+03  0.32002380646E+03  0.10100000352E+00 0. -1.
</event>
<event>
 5   0  0.9428629E-03  0.5990107E+03  0.7818609E-02  0.9907461E-01
       -2   -1    0    0    0  501  0.00000000000E+00  0.00000000000E+00  0.15658148635E+03  0.15658148637E+03  0.25500000920E-02 0. -1.
        2   -1    0    0  501    0  0.00000000000E+00  0.00000000000E+00 -0.57288675973E+03  0.57288675973E+03  0.25500000920E-02 0.  1.
    10030    2    1    2    0    0  0.00000000000E+00  0.00000000000E+00 -0.41630527338E+03  0.72946824610E+03  0.59901071896E+03 0.  0.
        3    1    3    3  502    0  0.16840458446E+03  0.18850659073E+03 -0.12514230293E+02  0.25308388921E+03  0.10100000352E+00 0. -1.
       -3    1    3    3    0  502 -0.16840458446E+03 -0.18850659073E+03 -0.40379104309E+03  0.47638435690E+03  0.10100000352E+00 0.  1.
</event>
<event>
 5   0  0.5574736E-03  0.6007686E+03  0.7818609E-02  0.9903813E-01
       -1   -1    0    0    0  501  0.00000000000E+00  0.00000000000E+00  0.40201765305E+03  0.40201765308E+03  0.50400001928E-02 0.  1.
        1   -1    0    0  501    0  0.00000000000E+00  0.00000000000E+00 -0.22444468595E+03  0.22444468601E+03  0.50400001928E-02 0. -1.
    10030    2    1    2    0    0  0.00000000000E+00  0.00000000000E+00  0.17757296710E+03  0.62646233909E+03  0.60076859410E+03 0.  0.
        5    1    3    3  502    0  0.10151450878E+03 -0.11850726919E+03  0.35639310440E+03  0.38908521330E+03  0.46999998093E+01 0.  1.
       -5    1    3    3    0  502 -0.10151450878E+03  0.11850726919E+03 -0.17882013731E+03  0.23737712579E+03  0.46999998093E+01 0. -1.
</event>
<event>
 5   0  0.5491236E-03  0.6000713E+03  0.7818609E-02  0.9905258E-01
        1   -1    0    0  501    0  0.00000000000E+00  0.00000000000E+00  0.40313374595E+03  0.40313374598E+03  0.50400001928E-02 0.  1.
       -1   -1    0    0    0  501  0.00000000000E+00  0.00000000000E+00 -0.22330402734E+03  0.22330402740E+03  0.50400001928E-02 0. -1.
    10030    2    1    2    0    0  0.00000000000E+00  0.00000000000E+00  0.17982971860E+03  0.62643777337E+03  0.60007129261E+03 0.  0.
        3    1    3    3  502    0 -0.14624984543E+03  0.24252633445E+03 -0.13500127290E+02  0.28353183918E+03  0.10100000352E+00 0. -1.
       -3    1    3    3    0  502  0.14624984543E+03 -0.24252633445E+03  0.19332984589E+03  0.34290593419E+03  0.10100000352E+00 0.  1.
</event>
<event>
 5   0  0.5574736E-03  0.5992258E+03  0.7818609E-02  0.9907014E-01
       -1   -1    0    0    0  501  0.00000000000E+00  0.00000000000E+00  0.24871396697E+03  0.24871396702E+03  0.50400001928E-02 0.  1.
        1   -1    0    0  501    0  0.00000000000E+00  0.00000000000E+00 -0.36092822628E+03  0.36092822632E+03  0.50400001928E-02 0. -1.
    10030    2    1    2    0    0  0.00000000000E+00  0.00000000000E+00 -0.11221425931E+03  0.60964219334E+03  0.59922580377E+03 0.  0.
        5    1    3    3  502    0 -0.78947048434E+02  0.32048747851E+02 -0.34830345066E+03  0.35860443728E+03  0.46999998093E+01 0. -1.
       -5    1    3    3    0  502  0.78947048434E+02 -0.32048747851E+02  0.23608919135E+03  0.25103775606E+03  0.46999998093E+01 0.  1.
</event>
<event>
 5   0  0.9681801E-03  0.5997256E+03  0.7818609E-02  0.9905975E-01
       -2   -1    0    0    0  501  0.00000000000E+00  0.00000000000E+00  0.48892144320E+02  0.48892144387E+02  0.25500000920E-02 0.  1.
        2   -1    0    0  501    0  0.00000000000E+00  0.00000000000E+00 -0.18391032723E+04  0.18391032723E+04  0.25500000920E-02 0. -1.
    10030    2    1    2    0    0  0.00000000000E+00  0.00000000000E+00 -0.17902111279E+04  0.18879954166E+04  0.59972561283E+03 0.  0.
        4    1    3    3  502    0  0.11917714020E+03 -0.88140972350E+02 -0.17156915800E+04  0.17220833988E+04  0.12699999809E+01 0. -1.
       -4    1    3    3    0  502 -0.11917714020E+03  0.88140972350E+02 -0.74519547963E+02  0.16591201790E+03  0.12699999809E+01 0.  1.
</event>
<event>
 5   0  0.5503975E-03  0.5970232E+03  0.7818609E-02  0.9911601E-01
        1   -1    0    0  501    0  0.00000000000E+00  0.00000000000E+00  0.57737962819E+03  0.57737962822E+03  0.50400001928E-02 0. -1.
       -1   -1    0    0    0  501  0.00000000000E+00  0.00000000000E+00 -0.15433379642E+03  0.15433379650E+03  0.50400001928E-02 0.  1.
    10030    2    1    2    0    0  0.00000000000E+00  0.00000000000E+00  0.42304583178E+03  0.73171342471E+03  0.59702324923E+03 0.  0.
        4    1    3    3  502    0 -0.20386448731E+03  0.12375932060E+03 -0.85077210859E+01  0.23864428097E+03  0.12699999809E+01 0. -1.
       -4    1    3    3    0  502  0.20386448731E+03 -0.12375932060E+03  0.43155355286E+03  0.49306914374E+03  0.12699999809E+01 0.  1.
</event>
<event>
 5   0  0.5491236E-03  0.6130690E+03  0.7818609E-02  0.9878657E-01
       -1   -1    0    0    0  501  0.00000000000E+00  0.00000000000E+00  0.20392502112E+03  0.20392502118E+03  0.50400001928E-02 0.  1.
        1   -1    0    0  501    0  0.00000000000E+00  0.00000000000E+00 -0.46077421242E+03  0.46077421245E+03  0.50400001928E-02 0. -1.
    10030    2    1    2    0    0  0.00000000000E+00  0.00000000000E+00 -0.25684919130E+03  0.66469923363E+03  0.61306897174E+03 0.  0.
        3    1    3    3  502    0  0.39853475826E+02 -0.16740943067E+03 -0.40345917221E+03  0.43862686973E+03  0.10100000352E+00 0. -1.
       -3    1    3    3    0  502 -0.39853475826E+02  0.16740943067E+03  0.14660998091E+03  0.22607236389E+03  0.10100000352E+00 0.  1.
</event>
<event>
 5   0  0.9530666E-03  0.5964800E+03  0.7818609E-02  0.9912736E-01
        2   -1    0    0  501    0  0.00000000000E+00  0.00000000000E+00  0.41082893919E+03  0.41082893920E+03  0.25500000920E-02 0.  1.
       -2   -1    0    0    0  501  0.00000000000E+00  0.00000000000E+00 -0.21650640882E+03  0.21650640884E+03  0.25500000920E-02 0. -1.
    10030    2    1    2    0    0  0.00000000000E+00  0.00000000000E+00  0.19432253037E+03  0.62733534804E+03  0.59648000226E+03 0.  0.
        2    1    3    3  502    0 -0.25680010876E+02  0.49426497599E+02  0.40531008240E+03  0.40911942575E+03  0.25500000920E-02 0.  1.
       -2    1    3    3    0  502  0.25680010876E+02 -0.49426497599E+02 -0.21098755203E+03  0.21821592229E+03  0.25500000920E-02 0. -1.
</event>
<event>
 5   0  0.5491236E-03  0.5988128E+03  0.7818609E-02  0.9907872E-01
       -1   -1    0    0    0  501  0.00000000000E+00  0.00000000000E+00  0.32708655624E+03  0.32708655628E+03  0.50400001928E-02 0.  1.
        1   -1    0    0  501    0  0.00000000000E+00  0.00000000000E+00 -0.27406875405E+03  0.27406875409E+03  0.50400001928E-02 0. -1.
    10030    2    1    2    0    0  0.00000000000E+00  0.00000000000E+00  0.53017802197E+02  0.60115531038E+03  0.59881284208E+03 0.  0.
        3    1    3    3  502    0 -0.27833848602E+03 -0.87546051916E+02  0.93909981539E+02  0.30652197122E+03  0.10100000352E+00 0.  1.
       -3    1    3    3    0  502  0.27833848602E+03  0.87546051916E+02 -0.40892179342E+02  0.29463333915E+03  0.10100000352E+00 0. -1.
</event>
<event>
 5   0  0.9681801E-03  0.5962286E+03  0.7818609E-02  0.9913262E-01
        2   -1    0    0  501    0  0.00000000000E+00  0.00000000000E+00  0.52813118760E+03  0.52813118760E+03  0.25500000920E-02 0. -1.
       -2   -1    0    0    0  501  0.00000000000E+00  0.00000000000E+00 -0.16827660334E+03  0.16827660336E+03  0.25500000920E-02 0.  1.
    10030    2    1    2    0    0  0.00000000000E+00  0.00000000000E+00  0.35985458425E+03  0.69640779097E+03  0.59622855476E+03 0.  0.
        4    1    3    3  502    0 -0.13684946598E+03  0.19693941521E+03 -0.26906862983E+02  0.24132654595E+03  0.12699999809E+01 0.  1.
       -4    1    3    3    0  502  0.13684946598E+03 -0.19693941521E+03  0.38676144724E+03  0.45508124502E+03  0.12699999809E+01 0. -1.
</event>
<event>
 5   0  0.9866317E-03  0.6022334E+03  0.7818609E-02  0.9900783E-01
       -2   -1    0    0    0  501  0.00000000000E+00  0.00000000000E+00  0.57364629116E+02  0.57364629173E+02  0.25500000920E-02 0.  1.
        2   -1    0    0  501    0  0.00000000000E+00  0.00000000000E+00 -0.15806126629E+04  0.15806126629E+04  0.25500000920E-02 0. -1.
    10030    2    1    2    0    0  0.00000000000E+00  0.00000000000E+00 -0.15232480338E+04  0.16379772921E+04  0.60223337414E+03 0.  0.
        1    1    3    3  502    0 -0.17104224630E+03  0.23680573190E+03 -0.56289233817E+03  0.63417678062E+03  0.50400001928E-02 0. -1.
       -1    1    3    3    0  502  0.17104224630E+03 -0.23680573190E+03 -0.96035569564E+03  0.10038005115E+04  0.50400001928E-02 0.  1.
</event>
<event>
 5   0  0.9428629E-03  0.6020405E+03  0.7818609E-02  0.9901182E-01
        2   -1    0    0  501    0  0.00000000000E+00  0.00000000000E+00  0.76009079277E+03  0.76009079278E+03  0.25500000920E-02 0. -1.
       -2   -1    0    0    0  501  0.00000000000E+00  0.00000000000E+00 -0.11921365079E+03  0.11921365082E+03  0.25500000920E-02 0.  1.
    10030    2    1    2    0    0  0.00000000000E+00  0.00000000000E+00  0.64087714198E+03  0.87930444360E+03  0.60204052473E+03 0.  0.
        3    1    3    3  502    0  0.16866760662E+03 -0.16634694658E+03  0.59169483871E+03  0.63735614888E+03  0.10100000352E+00 0.  1.
       -3    1    3    3    0  502 -0.16866760662E+03  0.16634694658E+03  0.49182303268E+02  0.24194829471E+03  0.10100000352E+00 0. -1.
</event>
<event>
 5   0  0.9428629E-03  0.5998304E+03  0.7818609E-02  0.9905758E-01
       -2   -1    0    0    0  501  0.00000000000E+00  0.00000000000E+00  0.13818968180E+03  0.13818968183E+03  0.25500000920E-02 0. -1.
        2   -1    0    0  501    0  0.00000000000E+00  0.00000000000E+00 -0.65091051659E+03  0.65091051660E+03  0.25500000920E-02 0.  1.
    10030    2    1    2    0    0  0.00000000000E+00  0.00000000000E+00 -0.51272083479E+03  0.78910019842E+03  0.59983036662E+03 0.  0.
        3    1    3    3  502    0  0.49323918759E+02  0.21585970737E+03 -0.52247948893E+03  0.56746197122E+03  0.10100000352E+00 0.  1.
       -3    1    3    3    0  502 -0.49323918759E+02 -0.21585970737E+03  0.97586541397E+01  0.22163822720E+03  0.10100000352E+00 0. -1.
</event>
<event>
 5   0  0.9571790E-03  0.6003486E+03  0.7818609E-02  0.9904683E-01
       -2   -1    0    0    0  501  0.00000000000E+00  0.00000000000E+00  0.44380262301E+02  0.44380262374E+02  0.25500000920E-02 0.  1.
        2   -1    0    0  501    0  0.00000000000E+00  0.00000000000E+00 -0.20302856464E+04  0.20302856464E+04  0.25500000920E-02 0. -1.
    10030    2    1    2    0    0  0.00000000000E+00  0.00000000000E+00 -0.19859053841E+04  0.20746659088E+04  0.60034859744E+03 0.  0.
        5    1    3    3  502    0  0.15908558918E+03 -0.23078359423E+03 -0.13637556711E+04  0.13922718529E+04  0.46999998093E+01 0. -1.
       -5    1    3    3    0  502 -0.15908558918E+03  0.23078359423E+03 -0.62214971302E+03  0.68239405585E+03  0.46999998093E+01 0.  1.
</event>
<event>
 5   0  0.3794375E-03  0.6004299E+03  0.7818609E-02  0.9904515E-01
        3   -1    0    0  501    0  0.00000000000E+00  0.00000000000E+00  0.35184469059E+03  0.35184470508E+03  0.10100000352E+00 0.  1.
       -3   -1    0    0    0  501  0.00000000000E+00  0.00000000000E+00 -0.25616135508E+03  0.25616137499E+03  0.10100000352E+00 0. -1.
    10030    2    1    2    0    0  0.00000000000E+00  0.00000000000E+00  0.95683335506E+02  0.60800608008E+03  0.60042992324E+03 0.  0.
        5    1    3    3  502    0 -0.12437820419E+03 -0.22924028608E+03 -0.10264672881E+03  0.28032032993E+03  0.46999998093E+01 0. -1.
       -5    1    3    3    0  502  0.12437820419E+03  0.22924028608E+03  0.19833006432E+03  0.32768575015E+03  0.46999998093E+01 0.  1.
</event>
<event>
 5   0  0.5491236E-03  0.5947228E+03  0.7818609E-02  0.9916415E-01
       -1   -1    0    0    0  501  0.00000000000E+00  0.00000000000E+00  0.22968100730E+03  0.22968100736E+03  0.50400001928E-02 0.  1.
        1   -1    0    0  501    0  0.00000000000E+00  0.00000000000E+00 -0.38498527996E+03  0.38498527999E+03  0.50400001928E-02 0. -1.
    10030    2    1    2    0    0  0.00000000000E+00  0.00000000000E+00 -0.15530427266E+03  0.61466628735E+03  0.59472281586E+03 0.  0.
        3    1    3    3  502    0 -0.15570581943E+03  0.83829863415E+02  0.16942962852E+03  0.24490438426E+03  0.10100000352E+00 0.  1.
       -3    1    3    3    0  502  0.15570581943E+03 -0.83829863415E+02 -0.32473390118E+03  0.36976190310E+03  0.10100000352E+00 0. -1.
</event>
<event>
 5   0  0.5503975E-03  0.6148228E+03  0.7818609E-02  0.9875122E-01
        1   -1    0    0  501    0  0.00000000000E+00  0.00000000000E+00  0.77768324309E+03  0.77768324311E+03  0.50400001928E-02 0. -1.
       -1   -1    0    0    0  501  0.00000000000E+00  0.00000000000E+00 -0.12151704608E+03  0.12151704619E+03  0.50400001928E-02 0.  1.
    10030    2    1    2    0    0  0.00000000000E+00  0.00000000000E+00  0.65616619701E+03  0.89920028929E+03  0.61482280551E+03 0.  0.
        4    1    3    3  502    0  0.52028157179E+02  0.18988416698E+03 -0.17203058128E+02  0.19763725387E+03  0.12699999809E+01 0.  1.
       -4    1    3    3    0  502 -0.52028157179E+02 -0.18988416698E+03  0.67336925513E+03  0.70156303542E+03  0.12699999809E+01 0. -1.
</event>
<event>
 5   0  0.9681801E-03  0.6019711E+03  0.7818609E-02  0.9901325E-01
        2   -1    0    0  501    0  0.00000000000E+00  0.00000000000E+00  0.29913842801E+03  0.29913842802E+03  0.25500000920E-02 0.  1.
       -2   -1    0    0    0  501  0.00000000000E+00  0.00000000000E+00 -0.30284403437E+03  0.30284403438E+03  0.25500000920E-02 0. -1.
    10030    2    1    2    0    0  0.00000000000E+00  0.00000000000E+00 -0.37056063661E+01  0.60198246240E+03  0.60197105705E+03 0.  0.
        4    1    3    3  502    0 -0.21487170467E+03 -0.13303923183E+03  0.16161707593E+03  0.29998496430E+03  0.12699999809E+01 0.  1.
       -4    1    3    3    0  502  0.21487170467E+03  0.13303923183E+03 -0.16532268230E+03  0.30199749810E+03  0.12699999809E+01 0. -1.
</event>
<event>
 5   0  0.5491236E-03  0.6009174E+03  0.7818609E-02  0.9903505E-01
        1   -1    0    0  501    0  0.00000000000E+00  0.00000000000E+00  0.52869493077E+03  0.52869493080E+03  0.50400001928E-02 0.  1.
       -1   -1    0    0    0  501  0.00000000000E+00  0.00000000000E+00 -0.17075146447E+03  0.17075146454E+03  0.50400001928E-02 0. -1.
    10030    2    1    2    0    0  0.00000000000E+00  0.00000000000E+00  0.35794346630E+03  0.69944639534E+03  0.60091741103E+03 0.  0.
        3    1    3    3  502    0  0.12749309059E+03 -0.27059134661E+03  0.14602396684E+03  0.33286209472E+03  0.10100000352E+00 0.  1.
       -3    1    3    3    0  502 -0.12749309059E+03  0.27059134661E+03  0.21191949946E+03  0.36658430062E+03  0.10100000352E+00 0. -1.
</event>
<event>
 5   0  0.5653633E-03  0.6009037E+03  0.7818609E-02  0.9903533E-01
        1   -1    0    0  501    0  0.00000000000E+00  0.00000000000E+00  0.61196572537E+03  0.61196572539E+03  0.50400001928E-02 0.  1.
       -1   -1    0    0    0  501  0.00000000000E+00  0.00000000000E+00 -0.14751042373E+03  0.14751042382E+03  0.50400001928E-02 0. -1.
    10030    2    1    2    0    0  0.00000000000E+00  0.00000000000E+00  0.46445530164E+03  0.75947614921E+03  0.60090373106E+03 0.  0.
        2    1    3    3  502    0  0.50324783050E+02 -0.16125963573E+03  0.54625805104E+03  0.57178239938E+03  0.25500000920E-02 0.  1.
       -2    1    3    3    0  502 -0.50324783050E+02  0.16125963573E+03 -0.81802749408E+02  0.18769374982E+03  0.25500000920E-02 0. -1.
</event>
<event>
 5   0  0.5491236E-03  0.5991155E+03  0.7818609E-02  0.9907243E-01
       -1   -1    0    0    0  501  0.00000000000E+00  0.00000000000E+00  0.29672650070E+03  0.29672650074E+03  0.50400001928E-02 0. -1.
        1   -1    0    0  501    0  0.00000000000E+00  0.00000000000E+00 -0.30241602891E+03  0.30241602896E+03  0.50400001928E-02 0.  1.
    10030    2    1    2    0    0  0.00000000000E+00  0.00000000000E+00 -0.56895282152E+01  0.59914252970E+03  0.59911551487E+03 0.  0.
        3    1    3    3  502    0 -0.17645029776E+03 -0.20407709252E+03 -0.13305306428E+03  0.30080773824E+03  0.10100000352E+00 0.  1.
       -3    1    3    3    0  502  0.17645029776E+03  0.20407709252E+03  0.12736353607E+03  0.29833479145E+03  0.10100000352E+00 0. -1.
</event>
<event>
 5   0  0.5785798E-03  0.5964348E+03  0.7818609E-02  0.9912830E-01
       -1   -1    0    0    0  501  0.00000000000E+00  0.00000000000E+00  0.28614328649E+03  0.28614328654E+03  0.50400001928E-02 0.  1.
        1   -1    0    0  501    0  0.00000000000E+00  0.00000000000E+00 -0.31080100980E+03  0.31080100984E+03  0.50400001928E-02 0. -1.
    10030    2    1    2    0    0  0.00000000000E+00  0.00000000000E+00 -0.24657723307E+02  0.59694429637E+03  0.59643481593E+03 0.  0.
        1    1    3    3  502    0  0.28097603850E+02  0.21001410489E+03  0.19770325657E+03  0.28979644111E+03  0.50400001928E-02 0.  1.
       -1    1    3    3    0  502 -0.28097603850E+02 -0.21001410489E+03 -0.22236097988E+03  0.30714785526E+03  0.50400001928E-02 0. -1.
</event>
<event>
 5   0  0.5574736E-03  0.6003276E+03  0.7818609E-02  0.9904727E-01
        1   -1    0    0  501    0  0.00000000000E+00  0.00000000000E+00  0.41918509569E+03  0.41918509572E+03  0.50400001928E-02 0.  1.
       -1   -1    0    0    0  501  0.00000000000E+00  0.00000000000E+00 -0.21493682394E+03  0.21493682400E+03  0.50400001928E-02 0. -1.
    10030    2    1    2    0    0  0.00000000000E+00  0.00000000000E+00  0.20424827175E+03  0.63412191971E+03  0.60032762101E+03 0.  0.
        5    1    3    3  502    0  0.76407381534E+02 -0.12304575621E+02  0.40842496943E+03  0.41571929975E+03  0.46999998093E+01 0.  1.
       -5    1    3    3    0  502 -0.76407381534E+02  0.12304575621E+02 -0.20417669768E+03  0.21840261996E+03  0.46999998093E+01 0. -1.
</event>
<event>
 5   0  0.5653633E-03  0.6017693E+03  0.7818609E-02  0.9901742E-01
       -1   -1    0    0    0  501  0.00000000000E+00  0.00000000000E+00  0.59531546755E+02  0.59531546968E+02  0.50400001928E-02 0.  1.
        1   -1    0    0  501    0  0.00000000000E+00  0.00000000000E+00 -0.15207326174E+04  0.15207326174E+04  0.50400001928E-02 0. -1.
    10030    2    1    2    0    0  0.00000000000E+00  0.00000000000E+00 -0.14612010706E+04  0.15802641644E+04  0.60176927502E+03 0.  0.
        2    1    3    3  502    0 -0.22312006033E+03 -0.96136549723E+02 -0.26447638320E+03  0.35912749100E+03  0.25500000920E-02 0.  1.
       -2    1    3    3    0  502  0.22312006033E+03  0.96136549723E+02 -0.11967246874E+04  0.12211366734E+04  0.25500000920E-02 0. -1.
</event>
<event>
 5   0  0.5574736E-03  0.6003228E+03  0.7818609E-02  0.9904737E-01
        1   -1    0    0  501    0  0.00000000000E+00  0.00000000000E+00  0.83180459863E+03  0.83180459865E+03  0.50400001928E-02 0.  1.
       -1   -1    0    0    0  501  0.00000000000E+00  0.00000000000E+00 -0.10831493097E+03  0.10831493109E+03  0.50400001928E-02 0. -1.
    10030    2    1    2    0    0  0.00000000000E+00  0.00000000000E+00  0.72348966766E+03  0.94011952974E+03  0.60032277234E+03 0.  0.
        5    1    3    3  502    0 -0.19909816351E+03  0.36168739292E+02  0.70884611672E+03  0.73717919368E+03  0.46999998093E+01 0.  1.
       -5    1    3    3    0  502  0.19909816351E+03 -0.36168739292E+02  0.14643550939E+02  0.20294033605E+03  0.46999998093E+01 0. -1.
</event>
<event>
 5   0  0.3794375E-03  0.5980271E+03  0.7818609E-02  0.9909508E-01
       -4   -1    0    0    0  501  0.00000000000E+00  0.00000000000E+00  0.68123625425E+03  0.68123743805E+03  0.12699999809E+01 0. -1.
        4   -1    0    0  501    0  0.00000000000E+00  0.00000000000E+00 -0.13124097739E+03  0.13124712205E+03  0.12699999809E+01 0.  1.
    10030    2    1    2    0    0  0.00000000000E+00  0.00000000000E+00  0.54999527686E+03  0.81248456010E+03  0.59802705277E+03 0.  0.
        3    1    3    3  502    0 -0.10643052980E+03 -0.23827926334E+03  0.76693800904E+02  0.27200443803E+03  0.10100000352E+00 0.  1.
       -3    1    3    3    0  502  0.10643052980E+03  0.23827926334E+03  0.47330147596E+03  0.54048012207E+03  0.10100000352E+00 0. -1.
</event>
<event>
 5   0  0.9571790E-03  0.6008293E+03  0.7818609E-02  0.9903687E-01
       -2   -1    0    0    0  501  0.00000000000E+00  0.00000000000E+00  0.30067751538E+03  0.30067751539E+03  0.25500000920E-02 0.  1.
        2   -1    0    0  501    0  0.00000000000E+00  0.00000000000E+00 -0.30015203729E+03  0.30015203731E+03  0.25500000920E-02 0. -1.
    10030    2    1    2    0    0  0.00000000000E+00  0.00000000000E+00  0.52547808552E+00  0.60082955270E+03  0.60082932291E+03 0.  0.
        5    1    3    3  502    0  0.14260945481E+03 -0.12081356724E+03  0.23540853739E+03  0.30062043195E+03  0.46999998093E+01 0.  1.
       -5    1    3    3    0  502 -0.14260945481E+03  0.12081356724E+03 -0.23488305931E+03  0.30020912074E+03  0.46999998093E+01 0. -1.
</event>
<event>
 5   0  0.5785798E-03  0.6013669E+03  0.7818609E-02  0.9902574E-01
        1   -1    0    0  501    0  0.00000000000E+00  0.00000000000E+00  0.63373398842E+03  0.63373398844E+03  0.50400001928E-02 0. -1.
       -1   -1    0    0    0  501  0.00000000000E+00  0.00000000000E+00 -0.14266323044E+03  0.14266323053E+03  0.50400001928E-02 0.  1.
    10030    2    1    2    0    0  0.00000000000E+00  0.00000000000E+00  0.49107075797E+03  0.77639721897E+03  0.60136690321E+03 0.  0.
        1    1    3    3  502    0 -0.38885400384E+02 -0.55053418106E+02  0.62385517983E+03  0.62748564815E+03  0.50400001928E-02 0. -1.
       -1    1    3    3    0  502  0.38885400384E+02  0.55053418106E+02 -0.13278442186E+03  0.14891157081E+03  0.50400001928E-02 0.  1.
</event>
<event>
 5   0  0.9571790E-03  0.5995643E+03  0.7818609E-02  0.9906310E-01
       -2   -1    0    0    0  501  0.00000000000E+00  0.00000000000E+00  0.81995004729E+02  0.81995004769E+02  0.25500000920E-02 0.  1.
        2   -1    0    0  501    0  0.00000000000E+00  0.00000000000E+00 -0.10960342004E+04  0.10960342004E+04  0.25500000920E-02 0. -1.
    10030    2    1    2    0    0  0.00000000000E+00  0.00000000000E+00 -0.10140391957E+04  0.11780292052E+04  0.59956427336E+03 0.  0.
        5    1    3    3  502    0  0.28306566456E+03  0.65433024522E+01 -0.31372539740E+03  0.42262832398E+03  0.46999998093E+01 0.  1.
       -5    1    3    3    0  502 -0.28306566456E+03 -0.65433024522E+01 -0.70031379832E+03  0.75540088123E+03  0.46999998093E+01 0. -1.
</event>
<event>
 5   0  0.5491236E-03  0.5962453E+03  0.7818609E-02  0.9913227E-01
        1   -1    0    0  501    0  0.00000000000E+00  0.00000000000E+00  0.10042187771E+04  0.10042187771E+04  0.50400001928E-02 0.  1.
       -1   -1    0    0    0  501  0.00000000000E+00  0.00000000000E+00 -0.88503744112E+02  0.88503744255E+02  0.50400001928E-02 0. -1.
    10030    2    1    2    0    0  0.00000000000E+00  0.00000000000E+00  0.91571503297E+03  0.10927225213E+04  0.59624532456E+03 0.  0.
        3    1    3    3  502    0  0.40135075592E+02 -0.28943953960E+03  0.34957400480E+03  0.45561833415E+03  0.10100000352E+00 0. -1.
       -3    1    3    3    0  502 -0.40135075592E+02  0.28943953960E+03  0.56614102816E+03  0.63710418720E+03  0.10100000352E+00 0.  1.
</event>
<event>
 5   0  0.9681801E-03  0.6003043E+03  0.7818609E-02  0.9904775E-01
        2   -1    0    0  501    0  0.00000000000E+00  0.00000000000E+00  0.17489556488E+03  0.17489556489E+03  0.25500000920E-02 0.  1.
       -2   -1    0    0    0  501  0.00000000000E+00  0.00000000000E+00 -0.51511489857E+03  0.51511489858E+03  0.25500000920E-02 0. -1.
    10030    2    1    2    0    0  0.00000000000E+00  0.00000000000E+00 -0.34021933370E+03  0.69001046348E+03  0.60030429341E+03 0.  0.
        4    1    3    3  502    0 -0.22851765248E+03  0.15321769006E+03 -0.32207606283E+02  0.27701068724E+03  0.12699999809E+01 0.  1.
       -4    1    3    3    0  502  0.22851765248E+03 -0.15321769006E+03 -0.30801172742E+03  0.41299977623E+03  0.12699999809E+01 0. -1.
</event>
<event>
 5   0  0.5503975E-03  0.5913580E+03  0.7818609E-02  0.9923499E-01
        1   -1    0    0  501    0  0.00000000000E+00  0.00000000000E+00  0.10032622134E+04  0.10032622134E+04  0.50400001928E-02 0.  1.
       -1   -1    0    0    0  501  0.00000000000E+00  0.00000000000E+00 -0.87141796100E+02  0.87141796246E+02  0.50400001928E-02 0. -1.
    10030    2    1    2    0    0  0.00000000000E+00  0.00000000000E+00  0.91612041726E+03  0.10904040096E+04  0.59135800094E+03 0.  0.
        4    1    3    3  502    0 -0.20093345617E+03  0.80937007656E+02  0.82913485845E+03  0.85696632338E+03  0.12699999809E+01 0.  1.
       -4    1    3    3    0  502  0.20093345617E+03 -0.80937007656E+02  0.86985558818E+02  0.23343768624E+03  0.12699999809E+01 0. -1.
</event>
<event>
 5   0  0.9681801E-03  0.5990510E+03  0.7818609E-02  0.9907377E-01
       -2   -1    0    0    0  501  0.00000000000E+00  0.00000000000E+00  0.19572636878E+03  0.19572636880E+03  0.25500000920E-02 0. -1.
        2   -1    0    0  501    0  0.00000000000E+00  0.00000000000E+00 -0.45837225329E+03  0.45837225330E+03  0.25500000920E-02 0.  1.
    10030    2    1    2    0    0  0.00000000000E+00  0.00000000000E+00 -0.26264588451E+03  0.65409862210E+03  0.59905103854E+03 0.  0.
        4    1    3    3  502    0 -0.71944350953E+02 -0.29073371989E+03 -0.13507979138E+03  0.32855783121E+03  0.12699999809E+01 0.  1.
       -4    1    3    3    0  502  0.71944350953E+02  0.29073371989E+03 -0.12756609314E+03  0.32554079089E+03  0.12699999809E+01 0. -1.
</event>
<event>
 5   0  0.9530666E-03  0.5993322E+03  0.7818609E-02  0.9906793E-01
        2   -1    0    0  501    0  0.00000000000E+00  0.00000000000E+00  0.11119500489E+03  0.11119500491E+03  0.25500000920E-02 0. -1.
       -2   -1    0    0    0  501  0.00000000000E+00  0.00000000000E+00 -0.80758806610E+03  0.80758806611E+03  0.25500000920E-02 0.  1.
    10030    2    1    2    0    0  0.00000000000E+00  0.00000000000E+00 -0.69639306122E+03  0.91878307102E+03  0.59933215823E+03 0.  0.
        2    1    3    3  502    0  0.23169283690E+03  0.56900980610E+02 -0.62617706788E+03  0.67008731715E+03  0.25500000920E-02 0.  1.
       -2    1    3    3    0  502 -0.23169283690E+03 -0.56900980610E+02 -0.70215993337E+02  0.24869575387E+03  0.25500000920E-02 0. -1.
</event>
<event>
 5   0  0.5785798E-03  0.6003567E+03  0.7818609E-02  0.9904666E-01
       -1   -1    0    0    0  501  0.00000000000E+00  0.00000000000E+00  0.65645002064E+02  0.65645002258E+02  0.50400001928E-02 0. -1.
        1   -1    0    0  501    0  0.00000000000E+00  0.00000000000E+00 -0.13726412000E+04  0.13726412000E+04  0.50400001928E-02 0.  1.
    10030    2    1    2    0    0  0.00000000000E+00  0.00000000000E+00 -0.13069961980E+04  0.14382862023E+04  0.60035667584E+03 0.  0.
        1    1    3    3  502    0 -0.13890742555E+03  0.26499040944E+03 -0.71178081752E+03  0.77210564186E+03  0.50400001928E-02 0. -1.
       -1    1    3    3    0  502  0.13890742555E+03 -0.26499040944E+03 -0.59521538045E+03  0.66618056045E+03  0.50400001928E-02 0.  1.
</event>
<event>
 5   0  0.5574736E-03  0.6010137E+03  0.7818609E-02  0.9903305E-01
       -1   -1    0    0    0  501  0.00000000000E+00  0.00000000000E+00  0.45996291120E+03  0.45996291123E+03  0.50400001928E-02 0.  1.
        1   -1    0    0  501    0  0.00000000000E+00  0.00000000000E+00 -0.19632965539E+03  0.19632965545E+03  0.50400001928E-02 0. -1.
    10030    2    1    2    0    0  0.00000000000E+00  0.00000000000E+00  0.26363325582E+03  0.65629256668E+03  0.60101367664E+03 0.  0.
        5    1    3    3  502    0 -0.14743694048E+02 -0.25819074797E+03  0.29886552684E+03  0.39524996140E+03  0.46999998093E+01 0.  1.
       -5    1    3    3    0  502  0.14743694048E+02  0.25819074797E+03 -0.35232271024E+02  0.26104260528E+03  0.46999998093E+01 0. -1.
</event>
<event>
 5   0  0.5785798E-03  0.5995435E+03  0.7818609E-02  0.9906354E-01
        1   -1    0    0  501    0  0.00000000000E+00  0.00000000000E+00  0.24991812055E+03  0.24991812060E+03  0.50400001928E-02 0. -1.
       -1   -1    0    0    0  501  0.00000000000E+00  0.00000000000E+00 -0.35957019163E+03  0.35957019167E+03  0.50400001928E-02 0.  1.
    10030    2    1    2    0    0  0.00000000000E+00  0.00000000000E+00 -0.10965207108E+03  0.60948831227E+03  0.59954351477E+03 0.  0.
        1    1    3    3  502    0  0.20316970731E+03  0.12693254173E+03 -0.23801863587E+03  0.33770204495E+03  0.50400001928E-02 0.  1.
       -1    1    3    3    0  502 -0.20316970731E+03 -0.12693254173E+03  0.12836656479E+03  0.27178626732E+03  0.50400001928E-02 0. -1.
</event>
<event>
 5   0  0.9571790E-03  0.5977245E+03  0.7818609E-02  0.9910138E-01
        2   -1    0    0  501    0  0.00000000000E+00  0.00000000000E+00  0.18621413668E+04  0.18621413668E+04  0.25500000920E-02 0.  1.
       -2   -1    0    0    0  501  0.00000000000E+00  0.00000000000E+00 -0.47965558390E+02  0.47965558458E+02  0.25500000920E-02 0. -1.
    10030    2    1    2    0    0  0.00000000000E+00  0.00000000000E+00  0.18141758085E+04  0.19101069253E+04  0.59772452026E+03 0.  0.
        5    1    3    3  502    0  0.27414241660E+03 -0.87933571219E+02  0.11629416745E+04  0.11980575136E+04  0.46999998093E+01 0.  1.
       -5    1    3    3    0  502 -0.27414241660E+03  0.87933571219E+02  0.65123413392E+03  0.71204941170E+03  0.46999998093E+01 0. -1.
</event>
<event>
 5   0  0.9428629E-03  0.6004496E+03  0.7818609E-02  0.9904474E-01
       -2   -1    0    0    0  501  0.00000000000E+00  0.00000000000E+00  0.83012750961E+02  0.83012751000E+02  0.25500000920E-02 0. -1.
        2   -1    0    0  501    0  0.00000000000E+00  0.00000000000E+00 -0.10857963102E+04  0.10857963102E+04  0.25500000920E-02 0.  1.
    10030    2    1    2    0    0  0.00000000000E+00  0.00000000000E+00 -0.10027835592E+04  0.11688090612E+04  0.60044962725E+03 0.  0.
        3    1    3    3  502    0  0.11664060606E+03  0.48992292050E+01 -0.10398034198E+04  0.10463365594E+04  0.10100000352E+00 0.  1.
       -3    1    3    3    0  502 -0.11664060606E+03 -0.48992292050E+01  0.37019860561E+02  0.12247250184E+03  0.10100000352E+00 0. -1.
</event>
<event>
 5   0  0.9571790E-03  0.6000364E+03  0.7818609E-02  0.9905331E-01
       -2   -1    0    0    0  501  0.00000000000E+00  0.00000000000E+00  0.11632443875E+03  0.11632443878E+03  0.25500000920E-02 0.  1.
        2   -1    0    0  501    0  0.00000000000E+00  0.00000000000E+00 -0.77379198711E+03  0.77379198711E+03  0.25500000920E-02 0. -1.
    10030    2    1    2    0    0  0.00000000000E+00  0.00000000000E+00 -0.65746754835E+03  0.89011642589E+03  0.60003639432E+03 0.  0.
        5    1    3    3  502    0 -0.14470026590E+03 -0.23507356950E+03 -0.15452567600E+03  0.31638271851E+03  0.46999998093E+01 0.  1.
       -5    1    3    3    0  502  0.14470026590E+03  0.23507356950E+03 -0.50294187235E+03  0.57373370739E+03  0.46999998093E+01 0. -1.
</event>
<event>
 5   0  0.5653633E-03  0.5980057E+03  0.7818609E-02  0.9909552E-01
        1   -1    0    0  501    0  0.00000000000E+00  0.00000000000E+00  0.20913999498E+03  0.20913999504E+03  0.50400001928E-02 0. -1.
       -1   -1    0    0    0  501  0.00000000000E+00  0.00000000000E+00 -0.42747776224E+03  0.42747776227E+03  0.50400001928E-02 0.  1.
    10030    2    1    2    0    0  0.00000000000E+00  0.00000000000E+00 -0.21833776725E+03  0.63661775731E+03  0.59800567582E+03 0.  0.
        2    1    3    3  502    0 -0.26158001396E+03 -0.14684419832E+02  0.44228548057E+02  0.26569889040E+03  0.25500000920E-02 0. -1.
       -2    1    3    3    0  502  0.26158001396E+03  0.14684419832E+02 -0.26256631531E+03  0.37091886691E+03  0.25500000920E-02 0.  1.
</event>
<event>
 5   0  0.9681801E-03  0.6001372E+03  0.7818609E-02  0.9905121E-01
       -2   -1    0    0    0  501  0.00000000000E+00  0.00000000000E+00  0.20634019857E+03  0.20634019859E+03  0.25500000920E-02 0. -1.
        2   -1    0    0  501    0  0.00000000000E+00  0.00000000000E+00 -0.43637242471E+03  0.43637242471E+03  0.25500000920E-02 0.  1.
    10030    2    1    2    0    0  0.00000000000E+00  0.00000000000E+00 -0.23003222613E+03  0.64271262330E+03  0.60013722688E+03 0.  0.
        4    1    3    3  502    0 -0.25342058120E+03  0.61892202071E+02 -0.27381538336E+03  0.37819189933E+03  0.12699999809E+01 0.  1.
       -4    1    3    3    0  502  0.25342058120E+03 -0.61892202071E+02  0.43783157226E+02  0.26452072397E+03  0.12699999809E+01 0. -1.
</event>
<event>
 5   0  0.5785798E-03  0.5989541E+03  0.7818609E-02  0.9907578E-01
        1   -1    0    0  501    0  0.00000000000E+00  0.00000000000E+00  0.89851136859E+03  0.89851136861E+03  0.50400001928E-02 0.  1.
       -1   -1    0    0    0  501  0.00000000000E+00  0.00000000000E+00 -0.99816777932E+02  0.99816778059E+02  0.50400001928E-02 0. -1.
    10030    2    1    2    0    0  0.00000000000E+00  0.00000000000E+00  0.79869459066E+03  0.99832814666E+03  0.59895412118E+03 0.  0.
        1    1    3    3  502    0 -0.22453654135E+03  0.50208871463E+02  0.71887024155E+03  0.75479269563E+03  0.50400001928E-02 0. -1.
       -1    1    3    3    0  502  0.22453654135E+03 -0.50208871463E+02  0.79824349113E+02  0.24353545103E+03  0.50400001928E-02 0.  1.
</event>
<event>
 5   0  0.9428629E-03  0.5993356E+03  0.7818609E-02  0.9906785E-01
        2   -1    0    0  501    0  0.00000000000E+00  0.00000000000E+00  0.97647215272E+03  0.97647215272E+03  0.25500000920E-02 0.  1.
       -2   -1    0    0    0  501  0.00000000000E+00  0.00000000000E+00 -0.91964526726E+02  0.91964526761E+02  0.25500000920E-02 0. -1.
    10030    2    1    2    0    0  0.00000000000E+00  0.00000000000E+00  0.88450762599E+03  0.10684366795E+04  0.59933563020E+03 0.  0.
        3    1    3    3  502    0  0.10735595401E+03 -0.21459663947E+02 -0.55036812479E+02  0.12253521522E+03  0.10100000352E+00 0. -1.
       -3    1    3    3    0  502 -0.10735595401E+03  0.21459663947E+02  0.93954443847E+03  0.94590146427E+03  0.10100000352E+00 0.  1.
</event>
<event>
 5   0  0.5785798E-03  0.5928325E+03  0.7818609E-02  0.9920389E-01
        1   -1    0    0  501    0  0.00000000000E+00  0.00000000000E+00  0.17377726220E+03  0.17377726227E+03  0.50400001928E-02 0.  1.
       -1   -1    0    0    0  501  0.00000000000E+00  0.00000000000E+00 -0.50560469211E+03  0.50560469214E+03  0.50400001928E-02 0. -1.
    10030    2    1    2    0    0  0.00000000000E+00  0.00000000000E+00 -0.33182742992E+03  0.67938195441E+03  0.59283251997E+03 0.  0.
        1    1    3    3  502    0  0.21687886702E+03 -0.19844253301E+03 -0.20950240568E+03  0.36098080265E+03  0.50400001928E-02 0.  1.
       -1    1    3    3    0  502 -0.21687886702E+03  0.19844253301E+03 -0.12232502423E+03  0.31840115177E+03  0.50400001928E-02 0. -1.
</event>
<event>
 5   0  0.3794375E-03  0.6046615E+03  0.7818609E-02  0.9895782E-01
       -3   -1    0    0    0  501  0.00000000000E+00  0.00000000000E+00  0.11766583826E+04  0.11766583869E+04  0.10100000352E+00 0.  1.
        3   -1    0    0  501    0  0.00000000000E+00  0.00000000000E+00 -0.77680859323E+02  0.77680924983E+02  0.10100000352E+00 0. -1.
    10030    2    1    2    0    0  0.00000000000E+00  0.00000000000E+00  0.10989775233E+04  0.12543393119E+04  0.60466148609E+03 0.  0.
        3    1    3    3  502    0 -0.24241247187E+03 -0.10793170197E+03  0.85003916613E+03  0.89049404994E+03  0.10100000352E+00 0.  1.
       -3    1    3    3    0  502  0.24241247187E+03  0.10793170197E+03  0.24893835715E+03  0.36384526198E+03  0.10100000352E+00 0. -1.
</event>
<event>
 5   0  0.9571790E-03  0.6000304E+03  0.7818609E-02  0.9905343E-01
        2   -1    0    0  501    0  0.00000000000E+00  0.00000000000E+00  0.23848073809E+03  0.23848073810E+03  0.25500000920E-02 0.  1.
       -2   -1    0    0    0  501  0.00000000000E+00  0.00000000000E+00 -0.37742723093E+03  0.37742723094E+03  0.25500000920E-02 0. -1.
    10030    2    1    2    0    0  0.00000000000E+00  0.00000000000E+00 -0.13894649284E+03  0.61590796904E+03  0.60003041460E+03 0.  0.
        5    1    3    3  502    0 -0.16629420833E+03 -0.14893759461E+02 -0.32528964558E+03  0.36566519019E+03  0.46999998093E+01 0. -1.
       -5    1    3    3    0  502  0.16629420833E+03  0.14893759461E+02  0.18634315274E+03  0.25024277885E+03  0.46999998093E+01 0.  1.
</event>
<event>
 5   0  0.5574736E-03  0.5998983E+03  0.7818609E-02  0.9905617E-01
       -1   -1    0    0    0  501  0.00000000000E+00  0.00000000000E+00  0.45823826312E+02  0.45823826589E+02  0.50400001928E-02 0.  1.
        1   -1    0    0  501    0  0.00000000000E+00  0.00000000000E+00 -0.19633777726E+04  0.19633777726E+04  0.50400001928E-02 0. -1.
    10030    2    1    2    0    0  0.00000000000E+00  0.00000000000E+00 -0.19175539463E+04  0.20092015992E+04  0.59989826577E+03 0.  0.
        5    1    3    3  502    0 -0.17384488387E+03 -0.30224715626E+02 -0.14654851694E+03  0.22942130436E+03  0.46999998093E+01 0.  1.
       -5    1    3    3    0  502  0.17384488387E+03  0.30224715626E+02 -0.17710054293E+04  0.17797802948E+04  0.46999998093E+01 0. -1.
</event>
<event>
 5   0  0.5503975E-03  0.6008133E+03  0.7818609E-02  0.9903720E-01
        1   -1    0    0  501    0  0.00000000000E+00  0.00000000000E+00  0.33506313348E+03  0.33506313352E+03  0.50400001928E-02 0.  1.
       -1   -1    0    0    0  501  0.00000000000E+00  0.00000000000E+00 -0.26933481664E+03  0.26933481669E+03  0.50400001928E-02 0. -1.
    10030    2    1    2    0    0  0.00000000000E+00  0.00000000000E+00  0.65728316840E+02  0.60439795021E+03  0.60081334088E+03 0.  0.
        4    1    3    3  502    0 -0.54428568440E+02  0.12269207161E+03  0.30321792565E+03  0.33159996507E+03  0.12699999809E+01 0.  1.
       -4    1    3    3    0  502  0.54428568440E+02 -0.12269207161E+03 -0.23748960881E+03  0.27279798513E+03  0.12699999809E+01 0. -1.
</event>
<event>
 5   0  0.9530666E-03  0.6009019E+03  0.7818609E-02  0.9903537E-01
        2   -1    0    0  501    0  0.00000000000E+00  0.00000000000E+00  0.95662681982E+03  0.95662681982E+03  0.25500000920E-02 0.  1.
       -2   -1    0    0    0  501  0.00000000000E+00  0.00000000000E+00 -0.94363629680E+02  0.94363629715E+02  0.25500000920E-02 0. -1.
    10030    2    1    2    0    0  0.00000000000E+00  0.00000000000E+00  0.86226319014E+03  0.10509904495E+04  0.60090191874E+03 0.  0.
        2    1    3    3  502    0 -0.99081691834E+02  0.18666380932E+03  0.80466225962E+03  0.83195066646E+03  0.25500000920E-02 0.  1.
       -2    1    3    3    0  502  0.99081691834E+02 -0.18666380932E+03  0.57600930514E+02  0.21903978307E+03  0.25500000920E-02 0. -1.
</event>
<event>
 5   0  0.9428629E-03  0.5995873E+03  0.7818609E-02  0.9906263E-01
       -2   -1    0    0    0  501  0.00000000000E+00  0.00000000000E+00  0.25619162592E+03  0.25619162594E+03  0.25500000920E-02 0. -1.
        2   -1    0    0  501    0  0.00000000000E+00  0.00000000000E+00 -0.35081643796E+03  0.35081643797E+03  0.25500000920E-02 0.  1.
    10030    2    1    2    0    0  0.00000000000E+00  0.00000000000E+00 -0.94624812041E+02  0.60700806391E+03  0.59958730357E+03 0.  0.
        3    1    3    3  502    0 -0.89887247765E+02 -0.20937530867E+03  0.14992826669E+03  0.27275672777E+03  0.10100000352E+00 0. -1.
       -3    1    3    3    0  502  0.89887247765E+02  0.20937530867E+03 -0.24455307873E+03  0.33425133614E+03  0.10100000352E+00 0.  1.
</event>
<event>
 5   0  0.5491236E-03  0.5991472E+03  0.7818609E-02  0.9907177E-01
        1   -1    0    0  501    0  0.00000000000E+00  0.00000000000E+00  0.24010683840E+03  0.24010683845E+03  0.50400001928E-02 0.  1.
       -1   -1    0    0    0  501  0.00000000000E+00  0.00000000000E+00 -0.37376842918E+03  0.37376842921E+03  0.50400001928E-02 0. -1.
    10030    2    1    2    0    0  0.00000000000E+00  0.00000000000E+00 -0.13366159078E+03  0.61387526766E+03  0.59914724684E+03 0.  0.
        3    1    3    3  502    0  0.14304183426E+03 -0.10234590837E+03 -0.31529700635E+03  0.36103720546E+03  0.10100000352E+00 0. -1.
       -3    1    3    3    0  502 -0.14304183426E+03  0.10234590837E+03  0.18163541557E+03  0.25283806220E+03  0.10100000352E+00 0.  1.
</event>
<event>
 5   0  0.3794375E-03  0.6160622E+03  0.7818609E-02  0.9872631E-01
        4   -1    0    0  501    0  0.00000000000E+00  0.00000000000E+00  0.10871280823E+03  0.10872022615E+03  0.12699999809E+01 0.  1.
       -4   -1    0    0    0  501  0.00000000000E+00  0.00000000000E+00 -0.87274958784E+03  0.87275051187E+03  0.12699999809E+01 0. -1.
    10030    2    1    2    0    0  0.00000000000E+00  0.00000000000E+00 -0.76403677960E+03  0.98147073802E+03  0.61606217949E+03 0.  0.
        4    1    3    3  502    0 -0.59196119388E+02  0.29676936543E+03 -0.47361057416E+03  0.56203632059E+03  0.12699999809E+01 0. -1.
       -4    1    3    3    0  502  0.59196119388E+02 -0.29676936543E+03 -0.29042620544E+03  0.41943441742E+03  0.12699999809E+01 0.  1.
</event>
<event>
 5   0  0.9866317E-03  0.6004439E+03  0.7818609E-02  0.9904486E-01
       -2   -1    0    0    0  501  0.00000000000E+00  0.00000000000E+00  0.99480703926E+02  0.99480703958E+02  0.25500000920E-02 0.  1.
        2   -1    0    0  501    0  0.00000000000E+00  0.00000000000E+00 -0.90603725378E+03  0.90603725378E+03  0.25500000920E-02 0. -1.
    10030    2    1    2    0    0  0.00000000000E+00  0.00000000000E+00 -0.80655654985E+03  0.10055179577E+04  0.60044391514E+03 0.  0.
        1    1    3    3  502    0  0.14835183392E+03  0.24663991938E+02 -0.83841206419E+03  0.85179303151E+03  0.50400001928E-02 0. -1.
       -1    1    3    3    0  502 -0.14835183392E+03 -0.24663991938E+02  0.31855514333E+02  0.15372492623E+03  0.50400001928E-02 0.  1.
</event>
<event>
 5   0  0.9530666E-03  0.5999178E+03  0.7818609E-02  0.9905577E-01
       -2   -1    0    0    0  501  0.00000000000E+00  0.00000000000E+00  0.12068972328E+03  0.12068972331E+03  0.25500000920E-02 0.  1.
        2   -1    0    0  501    0  0.00000000000E+00  0.00000000000E+00 -0.74550955721E+03  0.74550955721E+03  0.25500000920E-02 0. -1.
    10030    2    1    2    0    0  0.00000000000E+00  0.00000000000E+00 -0.62481983393E+03  0.86619928052E+03  0.59991780162E+03 0.  0.
        2    1    3    3  502    0  0.18451103019E+03 -0.18964217391E+03 -0.10838601906E+03  0.28593006754E+03  0.25500000920E-02 0.  1.
       -2    1    3    3    0  502 -0.18451103019E+03  0.18964217391E+03 -0.51643381487E+03  0.58026921298E+03  0.25500000920E-02 0. -1.
</event>
<event>
 5   0  0.3794375E-03  0.5987387E+03  0.7818609E-02  0.9908026E-01
       -4   -1    0    0    0  501  0.00000000000E+00  0.00000000000E+00  0.55824469162E+03  0.55824613623E+03  0.12699999809E+01 0. -1.
        4   -1    0    0  501    0  0.00000000000E+00  0.00000000000E+00 -0.16053837526E+03  0.16054339859E+03  0.12699999809E+01 0.  1.
    10030    2    1    2    0    0  0.00000000000E+00  0.00000000000E+00  0.39770631635E+03  0.71878953482E+03  0.59873874211E+03 0.  0.
        5    1    3    3  502    0  0.24186661446E+03 -0.82169906514E+02  0.11525811150E+02  0.25574652891E+03  0.46999998093E+01 0.  1.
       -5    1    3    3    0  502 -0.24186661446E+03  0.82169906514E+02  0.38618050520E+03  0.46304300591E+03  0.46999998093E+01 0. -1.
</event>
<event>
 5   0  0.9681801E-03  0.6009429E+03  0.7818609E-02  0.9903452E-01
        2   -1    0    0  501    0  0.00000000000E+00  0.00000000000E+00  0.32385695867E+03  0.32385695868E+03  0.25500000920E-02 0.  1.
       -2   -1    0    0    0  501  0.00000000000E+00  0.00000000000E+00 -0.27877458145E+03  0.27877458146E+03  0.25500000920E-02 0. -1.
    10030    2    1    2    0    0  0.00000000000E+00  0.00000000000E+00  0.45082377221E+02  0.60263154015E+03  0.60094288617E+03 0.  0.
        4    1    3    3  502    0  0.40267172213E+02  0.22169904208E+03 -0.17678748747E+03  0.28640415333E+03  0.12699999809E+01 0. -1.
       -4    1    3    3    0  502 -0.40267172213E+02 -0.22169904208E+03  0.22186986469E+03  0.31622738682E+03  0.12699999809E+01 0.  1.
</event>
<event>
 5   0  0.9571790E-03  0.5998736E+03  0.7818609E-02  0.9905668E-01
        2   -1    0    0  501    0  0.00000000000E+00  0.00000000000E+00  0.35569221995E+03  0.35569221996E+03  0.25500000920E-02 0.  1.
       -2   -1    0    0    0  501  0.00000000000E+00  0.00000000000E+00 -0.25292112662E+03  0.25292112663E+03  0.25500000920E-02 0. -1.
    10030    2    1    2    0    0  0.00000000000E+00  0.00000000000E+00  0.10277109333E+03  0.60861334659E+03  0.59987357670E+03 0.  0.
        5    1    3    3  502    0 -0.49176472427E+02  0.11092360201E+03 -0.22686852110E+03  0.25732039715E+03  0.46999998093E+01 0. -1.
       -5    1    3    3    0  502  0.49176472427E+02 -0.11092360201E+03  0.32963961443E+03  0.35129294944E+03  0.46999998093E+01 0.  1.
</event>
<event>
 5   0  0.9681801E-03  0.5999887E+03  0.7818609E-02  0.9905430E-01
       -2   -1    0    0    0  501  0.00000000000E+00  0.00000000000E+00  0.12380747105E+03  0.12380747108E+03  0.25500000920E-02 0. -1.
        2   -1    0    0  501    0  0.00000000000E+00  0.00000000000E+00 -0.72690766980E+03  0.72690766980E+03  0.25500000920E-02 0.  1.
    10030    2    1    2    0    0  0.00000000000E+00  0.00000000000E+00 -0.60310019875E+03  0.85071514089E+03  0.59998866756E+03 0.  0.
        4    1    3    3  502    0  0.11874984061E+03  0.10333727019E+01 -0.69215729881E+03  0.70227197844E+03  0.12699999809E+01 0.  1.
       -4    1    3    3    0  502 -0.11874984061E+03 -0.10333727019E+01  0.89057100068E+02  0.14844316244E+03  0.12699999809E+01 0. -1.
</event>
<event>
 5   0  0.9530666E-03  0.5970061E+03  0.7818609E-02  0.9911637E-01
        2   -1    0    0  501    0  0.00000000000E+00  0.00000000000E+00  0.65316560942E+03  0.65316560943E+03  0.25500000920E-02 0. -1.
       -2   -1    0    0    0  501  0.00000000000E+00  0.00000000000E+00 -0.13641880959E+03  0.13641880961E+03  0.25500000920E-02 0.  1.
    10030    2    1    2    0    0  0.00000000000E+00  0.00000000000E+00  0.51674679984E+03  0.78958441904E+03  0.59700611358E+03 0.  0.
        2    1    3    3  502    0 -0.48765788016E+02 -0.22768223288E+03  0.50540368243E+03  0.55646220309E+03  0.25500000920E-02 0. -1.
       -2    1    3    3    0  502  0.48765788016E+02  0.22768223288E+03  0.11343117405E+02  0.23312221595E+03  0.25500000920E-02 0.  1.
</event>
<event>
 5   0  0.3794375E-03  0.5939574E+03  0.7818609E-02  0.9918022E-01
       -4   -1    0    0    0  501  0.00000000000E+00  0.00000000000E+00  0.18058856107E+03  0.18059302669E+03  0.12699999809E+01 0. -1.
        4   -1    0    0  501    0  0.00000000000E+00  0.00000000000E+00 -0.48837151603E+03  0.48837316733E+03  0.12699999809E+01 0.  1.
    10030    2    1    2    0    0  0.00000000000E+00  0.00000000000E+00 -0.30778295496E+03  0.66896619402E+03  0.59395742388E+03 0.  0.
        2    1    3    3  502    0 -0.28843950614E+03  0.18399217429E+02 -0.77002520762E+02  0.29910745245E+03  0.25500000920E-02 0.  1.
       -2    1    3    3    0  502  0.28843950614E+03 -0.18399217429E+02 -0.23078043420E+03  0.36985874157E+03  0.25500000920E-02 0. -1.
</event>
<event>
 5   0  0.5785798E-03  0.5993989E+03  0.7818609E-02  0.9906654E-01
       -1   -1    0    0    0  501  0.00000000000E+00  0.00000000000E+00  0.58258720056E+02  0.58258720274E+02  0.50400001928E-02 0. -1.
        1   -1    0    0  501    0  0.00000000000E+00  0.00000000000E+00 -0.15417395060E+04  0.15417395060E+04  0.50400001928E-02 0.  1.
    10030    2    1    2    0    0  0.00000000000E+00  0.00000000000E+00 -0.14834807859E+04  0.15999982262E+04  0.59939893379E+03 0.  0.
        1    1    3    3  502    0 -0.27190651252E+03  0.99277010562E+02 -0.94903460849E+03  0.99219744231E+03  0.50400001928E-02 0. -1.
       -1    1    3    3    0  502  0.27190651252E+03 -0.99277010562E+02 -0.53444617741E+03  0.60780078393E+03  0.50400001928E-02 0.  1.
</event>
<event>
 5   0  0.9428629E-03  0.6003818E+03  0.7818609E-02  0.9904614E-01
       -2   -1    0    0    0  501  0.00000000000E+00  0.00000000000E+00  0.10809891807E+03  0.10809891810E+03  0.25500000920E-02 0.  1.
        2   -1    0    0  501    0  0.00000000000E+00  0.00000000000E+00 -0.83363074596E+03  0.83363074597E+03  0.25500000920E-02 0. -1.
    10030    2    1    2    0    0  0.00000000000E+00  0.00000000000E+00 -0.72553182789E+03  0.94172966406E+03  0.60038181759E+03 0.  0.
        3    1    3    3  502    0 -0.19335876713E+03  0.51881750498E+02 -0.71362822902E+03  0.74117783852E+03  0.10100000352E+00 0. -1.
       -3    1    3    3    0  502  0.19335876713E+03 -0.51881750498E+02 -0.11903598875E+02  0.20055182554E+03  0.10100000352E+00 0.  1.
</event>
<event>
 5   0  0.5785798E-03  0.6012769E+03  0.7818609E-02  0.9902760E-01
        1   -1    0    0  501    0  0.00000000000E+00  0.00000000000E+00  0.15424004865E+04  0.15424004865E+04  0.50400001928E-02 0.  1.
       -1   -1    0    0    0  501  0.00000000000E+00  0.00000000000E+00 -0.58599222397E+02  0.58599222613E+02  0.50400001928E-02 0. -1.
    10030    2    1    2    0    0  0.00000000000E+00  0.00000000000E+00  0.14838012641E+04  0.16009997092E+04  0.60127687238E+03 0.  0.
        1    1    3    3  502    0 -0.10923365515E+03  0.15949696255E+03  0.13549629945E+04  0.13686840355E+04  0.50400001928E-02 0.  1.
       -1    1    3    3    0  502  0.10923365515E+03 -0.15949696255E+03  0.12883826960E+03  0.23231567364E+03  0.50400001928E-02 0. -1.
</event>
<event>
 5   0  0.9530666E-03  0.6028435E+03  0.7818609E-02  0.9899524E-01
       -2   -1    0    0    0  501  0.00000000000E+00  0.00000000000E+00  0.44881331885E+02  0.44881331957E+02  0.25500000920E-02 0. -1.
        2   -1    0    0  501    0  0.00000000000E+00  0.00000000000E+00 -0.20243398324E+04  0.20243398324E+04  0.25500000920E-02 0.  1.
    10030    2    1    2    0    0  0.00000000000E+00  0.00000000000E+00 -0.19794585005E+04  0.20692211643E+04  0.60284348861E+03 0.  0.
        2    1    3    3  502    0  0.74577457398E+02  0.22268049760E+03 -0.34112917808E+03  0.41414673403E+03  0.25500000920E-02 0. -1.
       -2    1    3    3    0  502 -0.74577457398E+02 -0.22268049760E+03 -0.16383293224E+04  0.16550744303E+04  0.25500000920E-02 0.  1.
</event>
<event>
 5   0  0.9571790E-03  0.5994319E+03  0.7818609E-02  0.9906585E-01
        2   -1    0    0  501    0  0.00000000000E+00  0.00000000000E+00  0.29045390265E+03  0.29045390266E+03  0.25500000920E-02 0.  1.
       -2   -1    0    0    0  501  0.00000000000E+00  0.00000000000E+00 -0.30927336975E+03  0.30927336976E+03  0.25500000920E-02 0. -1.
    10030    2    1    2    0    0  0.00000000000E+00  0.00000000000E+00 -0.18819467105E+02  0.59972727242E+03  0.59943192186E+03 0.  0.
        5    1    3    3  502    0 -0.31440614273E+02 -0.26485422541E+03 -0.14612000446E+03  0.30415361028E+03  0.46999998093E+01 0. -1.
       -5    1    3    3    0  502  0.31440614273E+02  0.26485422541E+03  0.12730053735E+03  0.29557366214E+03  0.46999998093E+01 0.  1.
</event>
<event>
 5   0  0.5785798E-03  0.6002648E+03  0.7818609E-02  0.9904857E-01
       -1   -1    0    0    0  501  0.00000000000E+00  0.00000000000E+00  0.32033656857E+03  0.32033656861E+03  0.50400001928E-02 0.  1.
        1   -1    0    0  501    0  0.00000000000E+00  0.00000000000E+00 -0.28120256421E+03  0.28120256426E+03  0.50400001928E-02 0. -1.
    10030    2    1    2    0    0  0.00000000000E+00  0.00000000000E+00  0.39134004358E+02  0.60153913287E+03  0.60026482329E+03 0.  0.
        1    1    3    3  502    0 -0.98607302557E+02 -0.10072796035E+03  0.28510110150E+03  0.31804427399E+03  0.50400001928E-02 0.  1.
       -1    1    3    3    0  502  0.98607302557E+02  0.10072796035E+03 -0.24596709714E+03  0.28349485889E+03  0.50400001928E-02 0. -1.
</event>
<event>
 5   0  0.5503975E-03  0.6001699E+03  0.7818609E-02  0.9905054E-01
       -1   -1    0    0    0  501  0.00000000000E+00  0.00000000000E+00  0.80112170573E+02  0.80112170732E+02  0.50400001928E-02 0.  1.
        1   -1    0    0  501    0  0.00000000000E+00  0.00000000000E+00 -0.11240610991E+04  0.11240610992E+04  0.50400001928E-02 0. -1.
    10030    2    1    2    0    0  0.00000000000E+00  0.00000000000E+00 -0.10439489286E+04  0.12041732699E+04  0.60016989132E+03 0.  0.
        4    1    3    3  502    0  0.12461514500E+03 -0.83737483754E+02 -0.66707320923E+00  0.15014312650E+03  0.12699999809E+01 0.  1.
       -4    1    3    3    0  502 -0.12461514500E+03  0.83737483754E+02 -0.10432818554E+04  0.10540301434E+04  0.12699999809E+01 0. -1.
</event>
<event>
 5   0  0.5491236E-03  0.5999008E+03  0.7818609E-02  0.9905612E-01
        1   -1    0    0  501    0  0.00000000000E+00  0.00000000000E+00  0.11408390379E+04  0.11408390379E+04  0.50400001928E-02 0.  1.
       -1   -1    0    0    0  501  0.00000000000E+00  0.00000000000E+00 -0.78863210831E+02  0.78863210992E+02  0.50400001928E-02 0. -1.
    10030    2    1    2    0    0  0.00000000000E+00  0.00000000000E+00  0.10619758271E+04  0.12197022489E+04  0.59990075738E+03 0.  0.
        3    1    3    3  502    0  0.23160649228E+03  0.78908178870E+01  0.91818007921E+03  0.94697333665E+03  0.10100000352E+00 0.  1.
       -3    1    3    3    0  502 -0.23160649228E+03 -0.78908178870E+01  0.14379574785E+03  0.27272891224E+03  0.10100000352E+00 0. -1.
</event>
<event>
 5   0  0.5574736E-03  0.6000811E+03  0.7818609E-02  0.9905238E-01
       -1   -1    0    0    0  501  0.00000000000E+00  0.00000000000E+00  0.39369527050E+03  0.39369527053E+03  0.50400001928E-02 0. -1.
        1   -1    0    0  501    0  0.00000000000E+00  0.00000000000E+00 -0.22866500843E+03  0.22866500848E+03  0.50400001928E-02 0.  1.
    10030    2    1    2    0    0  0.00000000000E+00  0.00000000000E+00  0.16503026207E+03  0.62236027901E+03  0.60008110243E+03 0.  0.
        5    1    3    3  502    0 -0.21615454007E+03  0.19346671949E+03  0.31895926863E+01  0.29014551563E+03  0.46999998093E+01 0.  1.
       -5    1    3    3    0  502  0.21615454007E+03 -0.19346671949E+03  0.16184066938E+03  0.33221476338E+03  0.46999998093E+01 0. -1.
</event>
<event>
 5   0  0.5574736E-03  0.5996147E+03  0.7818609E-02  0.9906206E-01
        1   -1    0    0  501    0  0.00000000000E+00  0.00000000000E+00  0.12326907837E+04  0.12326907837E+04  0.50400001928E-02 0. -1.
       -1   -1    0    0    0  501  0.00000000000E+00  0.00000000000E+00 -0.72917272478E+02  0.72917272652E+02  0.50400001928E-02 0.  1.
    10030    2    1    2    0    0  0.00000000000E+00  0.00000000000E+00  0.11597735113E+04  0.13056080564E+04  0.59961470922E+03 0.  0.
        5    1    3    3  502    0  0.19326670748E+03  0.44381361225E+02  0.90377522490E+02  0.21797227350E+03  0.46999998093E+01 0.  1.
       -5    1    3    3    0  502 -0.19326670748E+03 -0.44381361225E+02  0.10693959888E+04  0.10876357829E+04  0.46999998093E+01 0. -1.
</event>
<event>
 5   0  0.5491236E-03  0.6020781E+03  0.7818609E-02  0.9901104E-01
        1   -1    0    0  501    0  0.00000000000E+00  0.00000000000E+00  0.20928483491E+03  0.20928483497E+03  0.50400001928E-02 0. -1.
       -1   -1    0    0    0  501  0.00000000000E+00  0.00000000000E+00 -0.43301991970E+03  0.43301991973E+03  0.50400001928E-02 0.  1.
    10030    2    1    2    0    0  0.00000000000E+00  0.00000000000E+00 -0.22373508479E+03  0.64230475470E+03  0.60207807612E+03 0.  0.
        3    1    3    3  502    0  0.17401636157E+03 -0.24564731228E+03 -0.11139511454E+03  0.32098781577E+03  0.10100000352E+00 0. -1.
       -3    1    3    3    0  502 -0.17401636157E+03  0.24564731228E+03 -0.11233997025E+03  0.32131693893E+03  0.10100000352E+00 0.  1.
</event>
<event>
 5   0  0.9571790E-03  0.6000377E+03  0.7818609E-02  0.9905328E-01
       -2   -1    0    0    0  501  0.00000000000E+00  0.00000000000E+00  0.12561150128E+03  0.12561150130E+03  0.25500000920E-02 0. -1.
        2   -1    0    0  501    0  0.00000000000E+00  0.00000000000E+00 -0.71658489446E+03  0.71658489447E+03  0.25500000920E-02 0.  1.
    10030    2    1    2    0    0  0.00000000000E+00  0.00000000000E+00 -0.59097339319E+03  0.84219639577E+03  0.60003768014E+03 0.  0.
        5    1    3    3  502    0  0.18483573506E+03  0.12069850737E+03 -0.58057724099E+03  0.62114764862E+03  0.46999998093E+01 0.  1.
       -5    1    3    3    0  502 -0.18483573506E+03 -0.12069850737E+03 -0.10396152195E+02  0.22104874714E+03  0.46999998093E+01 0. -1.
</event>
<event>
 5   0  0.3794375E-03  0.5996249E+03  0.7818609E-02  0.9906184E-01
        3   -1    0    0  501    0  0.00000000000E+00  0.00000000000E+00  0.10595824479E+04  0.10595824528E+04  0.10100000352E+00 0.  1.
       -3   -1    0    0    0  501  0.00000000000E+00  0.00000000000E+00 -0.84832927627E+02  0.84832987751E+02  0.10100000352E+00 0. -1.
    10030    2    1    2    0    0  0.00000000000E+00  0.00000000000E+00  0.97474952032E+03  0.11444154405E+04  0.59962494371E+03 0.  0.
        1    1    3    3  502    0 -0.54644106742E+02 -0.14829352566E+03  0.97362712864E+03  0.98637048507E+03  0.50400001928E-02 0.  1.
       -1    1    3    3    0  502  0.54644106742E+02  0.14829352566E+03  0.11223916803E+01  0.15804495545E+03  0.50400001928E-02 0. -1.
</event>
<event>
 5   0  0.5574736E-03  0.6014413E+03  0.7818609E-02  0.9902420E-01
       -1   -1    0    0    0  501  0.00000000000E+00  0.00000000000E+00  0.22001127379E+03  0.22001127384E+03  0.50400001928E-02 0. -1.
        1   -1    0    0  501    0  0.00000000000E+00  0.00000000000E+00 -0.41103755972E+03  0.41103755975E+03  0.50400001928E-02 0.  1.
    10030    2    1    2    0    0  0.00000000000E+00  0.00000000000E+00 -0.19102628593E+03  0.63104883359E+03  0.60144125936E+03 0.  0.
        5    1    3    3  502    0 -0.94381532655E+02 -0.17213014281E+03  0.14345787647E+03  0.24318493393E+03  0.46999998093E+01 0. -1.
       -5    1    3    3    0  502  0.94381532655E+02  0.17213014281E+03 -0.33448416240E+03  0.38786389967E+03  0.46999998093E+01 0.  1.
</event>
<event>
 5   0  0.9571790E-03  0.6131563E+03  0.7818609E-02  0.9878481E-01
       -2   -1    0    0    0  501  0.00000000000E+00  0.00000000000E+00  0.66556764235E+02  0.66556764284E+02  0.25500000920E-02 0.  1.
        2   -1    0    0  501    0  0.00000000000E+00  0.00000000000E+00 -0.14121804731E+04  0.14121804731E+04  0.25500000920E-02 0. -1.
    10030    2    1    2    0    0  0.00000000000E+00  0.00000000000E+00 -0.13456237088E+04  0.14787372373E+04  0.61315630256E+03 0.  0.
        5    1    3    3  502    0 -0.14237989294E+03 -0.16619466887E+03 -0.11904833271E+04  0.12104401447E+04  0.46999998093E+01 0. -1.
       -5    1    3    3    0  502  0.14237989294E+03  0.16619466887E+03 -0.15514038176E+03  0.26829709265E+03  0.46999998093E+01 0.  1.
</event>
<event>
 5   0  0.5503975E-03  0.5862203E+03  0.7818609E-02  0.9934414E-01
       -1   -1    0    0    0  501  0.00000000000E+00  0.00000000000E+00  0.24685118605E+03  0.24685118610E+03  0.50400001928E-02 0.  1.
        1   -1    0    0  501    0  0.00000000000E+00  0.00000000000E+00 -0.34803788796E+03  0.34803788800E+03  0.50400001928E-02 0. -1.
    10030    2    1    2    0    0  0.00000000000E+00  0.00000000000E+00 -0.10118670191E+03  0.59488907410E+03  0.58622031852E+03 0.  0.
        4    1    3    3  502    0  0.10224873667E+02  0.23739678847E+03 -0.22474156450E+03  0.32706599782E+03  0.12699999809E+01 0. -1.
       -4    1    3    3    0  502 -0.10224873667E+02 -0.23739678847E+03  0.12355486259E+03  0.26782307628E+03  0.12699999809E+01 0.  1.
</event>
<event>
 5   0  0.5574736E-03  0.6001562E+03  0.7818609E-02  0.9905082E-01
       -1   -1    0    0    0  501  0.00000000000E+00  0.00000000000E+00  0.38427676414E+03  0.38427676417E+03  0.50400001928E-02 0.  1.
        1   -1    0    0  501    0  0.00000000000E+00  0.00000000000E+00 -0.23432813066E+03  0.23432813071E+03  0.50400001928E-02 0. -1.
    10030    2    1    2    0    0  0.00000000000E+00  0.00000000000E+00  0.14994863348E+03  0.61860489489E+03  0.60015616576E+03 0.  0.
        5    1    3    3  502    0 -0.90178679587E+02 -0.28615479773E+03  0.77890292213E+02  0.31000927427E+03  0.46999998093E+01 0.  1.
       -5    1    3    3    0  502  0.90178679587E+02  0.28615479773E+03  0.72058341265E+02  0.30859562061E+03  0.46999998093E+01 0. -1.
</event>
<event>
 5   0  0.9428629E-03  0.6005299E+03  0.7818609E-02  0.9904307E-01
       -2   -1    0    0    0  501  0.00000000000E+00  0.00000000000E+00  0.63331958580E+02  0.63331958632E+02  0.25500000920E-02 0.  1.
        2   -1    0    0  501    0  0.00000000000E+00  0.00000000000E+00 -0.14235948626E+04  0.14235948626E+04  0.25500000920E-02 0. -1.
    10030    2    1    2    0    0  0.00000000000E+00  0.00000000000E+00 -0.13602629040E+04  0.14869268212E+04  0.60052993568E+03 0.  0.
        3    1    3    3  502    0  0.24729833288E+03 -0.15659437805E+03 -0.84587306160E+03  0.89508631496E+03  0.10100000352E+00 0. -1.
       -3    1    3    3    0  502 -0.24729833288E+03  0.15659437805E+03 -0.51438984239E+03  0.59184050625E+03  0.10100000352E+00 0.  1.
</event>
<event>
 5   0  0.9571790E-03  0.6016779E+03  0.7818609E-02  0.9901931E-01
       -2   -1    0    0    0  501  0.00000000000E+00  0.00000000000E+00  0.54161208912E+02  0.54161208972E+02  0.25500000920E-02 0. -1.
        2   -1    0    0  501    0  0.00000000000E+00  0.00000000000E+00 -0.16710126915E+04  0.16710126915E+04  0.25500000920E-02 0.  1.
    10030    2    1    2    0    0  0.00000000000E+00  0.00000000000E+00 -0.16168514826E+04  0.17251739005E+04  0.60167787904E+03 0.  0.
        5    1    3    3  502    0 -0.21493524378E+02 -0.17426044160E+03 -0.10812257895E+03  0.20625531551E+03  0.46999998093E+01 0. -1.
       -5    1    3    3    0  502  0.21493524378E+02  0.17426044160E+03 -0.15087289036E+04  0.15189185850E+04  0.46999998093E+01 0.  1.
</event>
<event>
 5   0  0.5574736E-03  0.6002761E+03  0.7818609E-02  0.9904833E-01
       -1   -1    0    0    0  501  0.00000000000E+00  0.00000000000E+00  0.10216408268E+03  0.10216408281E+03  0.50400001928E-02 0. -1.
        1   -1    0    0  501    0  0.00000000000E+00  0.00000000000E+00 -0.88174665597E+03  0.88174665598E+03  0.50400001928E-02 0.  1.
    10030    2    1    2    0    0  0.00000000000E+00  0.00000000000E+00 -0.77958257329E+03  0.98391073879E+03  0.60027606427E+03 0.  0.
        5    1    3    3  502    0  0.28894344237E+03  0.19420323644E+02 -0.51880485011E+03  0.59417676188E+03  0.46999998093E+01 0.  1.
       -5    1    3    3    0  502 -0.28894344237E+03 -0.19420323644E+02 -0.26077772318E+03  0.38973397691E+03  0.46999998093E+01 0. -1.
</event>
<event>
 5   0  0.9681801E-03  0.5985003E+03  0.7818609E-02  0.9908522E-01
        2   -1    0    0  501    0  0.00000000000E+00  0.00000000000E+00  0.84397989808E+03  0.84397989809E+03  0.25500000920E-02 0. -1.
       -2   -1    0    0    0  501  0.00000000000E+00  0.00000000000E+00 -0.10610517952E+03  0.10610517955E+03  0.25500000920E-02 0.  1.
    10030    2    1    2    0    0  0.00000000000E+00  0.00000000000E+00  0.73787471856E+03  0.95008507763E+03  0.59850025434E+03 0.  0.
        4    1    3    3  502    0  0.24989641541E+03 -0.65796562650E+02  0.12938794241E+03  0.28899871735E+03  0.12699999809E+01 0.  1.
       -4    1    3    3    0  502 -0.24989641541E+03  0.65796562650E+02  0.60848677616E+03  0.66108636028E+03  0.12699999809E+01 0. -1.
</event>
<event>
 5   0  0.5785798E-03  0.6007623E+03  0.7818609E-02  0.9903826E-01
        1   -1    0    0  501    0  0.00000000000E+00  0.00000000000E+00  0.10021067461E+04  0.10021067461E+04  0.50400001928E-02 0.  1.
       -1   -1    0    0    0  501  0.00000000000E+00  0.00000000000E+00 -0.90039137465E+02  0.90039137606E+02  0.50400001928E-02 0. -1.
    10030    2    1    2    0    0  0.00000000000E+00  0.00000000000E+00  0.91206760861E+03  0.10921458837E+04  0.60076227294E+03 0.  0.
        1    1    3    3  502    0  0.25735339308E+03  0.14298025620E+03  0.56442144309E+03  0.63658910455E+03  0.50400001928E-02 0.  1.
       -1    1    3    3    0  502 -0.25735339308E+03 -0.14298025620E+03  0.34764616552E+03  0.45555677914E+03  0.50400001928E-02 0. -1.
</event>
<event>
 5   0  0.5653633E-03  0.6022267E+03  0.7818609E-02  0.9900797E-01
        1   -1    0    0  501    0  0.00000000000E+00  0.00000000000E+00  0.76324789135E+03  0.76324789137E+03  0.50400001928E-02 0.  1.
       -1   -1    0    0    0  501  0.00000000000E+00  0.00000000000E+00 -0.11879398515E+03  0.11879398525E+03  0.50400001928E-02 0. -1.
    10030    2    1    2    0    0  0.00000000000E+00  0.00000000000E+00  0.64445390621E+03  0.88204187662E+03  0.60222673047E+03 0.  0.
        2    1    3    3  502    0  0.22117008028E+03  0.52784621059E+02  0.33107868731E+02  0.22977935419E+03  0.25500000920E-02 0. -1.
       -2    1    3    3    0  502 -0.22117008028E+03 -0.52784621059E+02  0.61134603748E+03  0.65226252244E+03  0.25500000920E-02 0.  1.
</event>
<event>
 5   0  0.5503975E-03  0.6003660E+03  0.7818609E-02  0.9904647E-01
        1   -1    0    0  501    0  0.00000000000E+00  0.00000000000E+00  0.15449782304E+04  0.15449782304E+04  0.50400001928E-02 0. -1.
       -1   -1    0    0    0  501  0.00000000000E+00  0.00000000000E+00 -0.58324347258E+02  0.58324347476E+02  0.50400001928E-02 0.  1.
    10030    2    1    2    0    0  0.00000000000E+00  0.00000000000E+00  0.14866538832E+04  0.16033025779E+04  0.60036604501E+03 0.  0.
        4    1    3    3  502    0  0.27851514385E+03  0.10290989803E+03  0.86116719817E+03  0.91091804712E+03  0.12699999809E+01 0. -1.
       -4    1    3    3    0  502 -0.27851514385E+03 -0.10290989803E+03  0.62548668501E+03  0.69238453080E+03  0.12699999809E+01 0.  1.
</event>
<event>
 5   0  0.5503975E-03  0.5991746E+03  0.7818609E-02  0.9907120E-01
       -1   -1    0    0    0  501  0.00000000000E+00  0.00000000000E+00  0.17417239448E+03  0.17417239455E+03  0.50400001928E-02 0. -1.
        1   -1    0    0  501    0  0.00000000000E+00  0.00000000000E+00 -0.51530862020E+03  0.51530862022E+03  0.50400001928E-02 0.  1.
    10030    2    1    2    0    0  0.00000000000E+00  0.00000000000E+00 -0.34113622572E+03  0.68948101477E+03  0.59917455323E+03 0.  0.
        4    1    3    3  502    0 -0.17013925838E+03  0.22015970899E+03 -0.29836135020E+03  0.40796908326E+03  0.12699999809E+01 0.  1.
       -4    1    3    3    0  502  0.17013925838E+03 -0.22015970899E+03 -0.42774875524E+02  0.28151193151E+03  0.12699999809E+01 0. -1.
</event>
<event>
 5   0  0.5785798E-03  0.6011498E+03  0.7818609E-02  0.9903023E-01
       -1   -1    0    0    0  501  0.00000000000E+00  0.00000000000E+00  0.33444111502E+03  0.33444111505E+03  0.50400001928E-02 0.  1.
        1   -1    0    0  501    0  0.00000000000E+00  0.00000000000E+00 -0.27013809075E+03  0.27013809080E+03  0.50400001928E-02 0. -1.
    10030    2    1    2    0    0  0.00000000000E+00  0.00000000000E+00  0.64303024262E+02  0.60457920585E+03  0.60114984590E+03 0.  0.
        1    1    3    3  502    0  0.25086502347E+03 -0.22922362833E+02  0.19705822103E+03  0.31982907501E+03  0.50400001928E-02 0.  1.
       -1    1    3    3    0  502 -0.25086502347E+03  0.22922362833E+02 -0.13275519677E+03  0.28475013084E+03  0.50400001928E-02 0. -1.
</event>
<event>
 5   0  0.5574736E-03  0.6000656E+03  0.7818609E-02  0.9905270E-01
        1   -1    0    0  501    0  0.00000000000E+00  0.00000000000E+00  0.41802407515E+03  0.41802407518E+03  0.50400001928E-02 0. -1.
       -1   -1    0    0    0  501  0.00000000000E+00  0.00000000000E+00 -0.21534569989E+03  0.21534569995E+03  0.50400001928E-02 0.  1.
    10030    2    1    2    0    0  0.00000000000E+00  0.00000000000E+00  0.20267837526E+03  0.63336977513E+03  0.60006561995E+03 0.  0.
        5    1    3    3  502    0  0.18509085383E+03  0.16685534607E+03 -0.74958736230E+02  0.26026953878E+03  0.46999998093E+01 0.  1.
       -5    1    3    3    0  502 -0.18509085383E+03 -0.16685534607E+03  0.27763711149E+03  0.37310023634E+03  0.46999998093E+01 0. -1.
</event>
<event>
 5   0  0.9681801E-03  0.5989997E+03  0.7818609E-02  0.9907484E-01
       -2   -1    0    0    0  501  0.00000000000E+00  0.00000000000E+00  0.19116610491E+03  0.19116610493E+03  0.25500000920E-02 0. -1.
        2   -1    0    0  501    0  0.00000000000E+00  0.00000000000E+00 -0.46922620634E+03  0.46922620634E+03  0.25500000920E-02 0.  1.
    10030    2    1    2    0    0  0.00000000000E+00  0.00000000000E+00 -0.27806010142E+03  0.66039231127E+03  0.59899965341E+03 0.  0.
        4    1    3    3  502    0 -0.26471217888E+03 -0.13994354331E+03 -0.13190208948E+03  0.32719490685E+03  0.12699999809E+01 0.  1.
       -4    1    3    3    0  502  0.26471217888E+03  0.13994354331E+03 -0.14615801194E+03  0.33319740442E+03  0.12699999809E+01 0. -1.
</event>
<event>
 5   0  0.5574736E-03  0.5932946E+03  0.7818609E-02  0.9919416E-01
        1   -1    0    0  501    0  0.00000000000E+00  0.00000000000E+00  0.24128539710E+03  0.24128539715E+03  0.50400001928E-02 0.  1.
       -1   -1    0    0    0  501  0.00000000000E+00  0.00000000000E+00 -0.36471177416E+03  0.36471177419E+03  0.50400001928E-02 0. -1.
    10030    2    1    2    0    0  0.00000000000E+00  0.00000000000E+00 -0.12342637706E+03  0.60599717134E+03  0.59329461579E+03 0.  0.
        5    1    3    3  502    0  0.16849473288E+03  0.16773464106E+03 -0.24285777608E+03  0.33989318060E+03  0.46999998093E+01 0. -1.
       -5    1    3    3    0  502 -0.16849473288E+03 -0.16773464106E+03  0.11943139901E+03  0.26610399074E+03  0.46999998093E+01 0.  1.
</event>
<event>
 5   0  0.9681801E-03  0.5990202E+03  0.7818609E-02  0.9907441E-01
       -2   -1    0    0    0  501  0.00000000000E+00  0.00000000000E+00  0.53215299669E+03  0.53215299670E+03  0.25500000920E-02 0.  1.
        2   -1    0    0  501    0  0.00000000000E+00  0.00000000000E+00 -0.16857241018E+03  0.16857241020E+03  0.25500000920E-02 0. -1.
    10030    2    1    2    0    0  0.00000000000E+00  0.00000000000E+00  0.36358058652E+03  0.70072540689E+03  0.59902024421E+03 0.  0.
        4    1    3    3  502    0 -0.15423996050E+02  0.10315667119E+03  0.51021796144E+03  0.52077171538E+03  0.12699999809E+01 0.  1.
       -4    1    3    3    0  502  0.15423996050E+02 -0.10315667119E+03 -0.14663737492E+03  0.17995369151E+03  0.12699999809E+01 0. -1.
</event>
<event>
 5   0  0.5785798E-03  0.6001493E+03  0.7818609E-02  0.9905096E-01
       -1   -1    0    0    0  501  0.00000000000E+00  0.00000000000E+00  0.14276137606E+03  0.14276137615E+03  0.50400001928E-02 0.  1.
        1   -1    0    0  501    0  0.00000000000E+00  0.00000000000E+00 -0.63073649193E+03  0.63073649195E+03  0.50400001928E-02 0. -1.
    10030    2    1    2    0    0  0.00000000000E+00  0.00000000000E+00 -0.48797511587E+03  0.77349786810E+03  0.60014934662E+03 0.  0.
        1    1    3    3  502    0 -0.19539375989E+03  0.16130291229E+03 -0.36778513582E+02  0.25602736183E+03  0.50400001928E-02 0. -1.
       -1    1    3    3    0  502  0.19539375989E+03 -0.16130291229E+03 -0.45119660229E+03  0.51747050627E+03  0.50400001928E-02 0.  1.
</event>
<event>
 5   0  0.3794375E-03  0.5995035E+03  0.7818609E-02  0.9906437E-01
        3   -1    0    0  501    0  0.00000000000E+00  0.00000000000E+00  0.63074668421E+03  0.63074669230E+03  0.10100000352E+00 0. -1.
       -3   -1    0    0    0  501  0.00000000000E+00  0.00000000000E+00 -0.14245196042E+03  0.14245199622E+03  0.10100000352E+00 0.  1.
    10030    2    1    2    0    0  0.00000000000E+00  0.00000000000E+00  0.48829472379E+03  0.77319868852E+03  0.59950352347E+03 0.  0.
        4    1    3    3  502    0 -0.75016585883E+02 -0.21590539828E+03  0.49425848207E+03  0.54455090594E+03  0.12699999809E+01 0. -1.
       -4    1    3    3    0  502  0.75016585883E+02  0.21590539828E+03 -0.59637582778E+01  0.22864778258E+03  0.12699999809E+01 0.  1.
</event>
<event>
 5   0  0.9866317E-03  0.6009589E+03  0.7818609E-02  0.9903419E-01
       -2   -1    0    0    0  501  0.00000000000E+00  0.00000000000E+00  0.64751706217E+02  0.64751706267E+02  0.25500000920E-02 0.  1.
        2   -1    0    0  501    0  0.00000000000E+00  0.00000000000E+00 -0.13943707954E+04  0.13943707954E+04  0.25500000920E-02 0. -1.
    10030    2    1    2    0    0  0.00000000000E+00  0.00000000000E+00 -0.13296190892E+04  0.14591225016E+04  0.60095886095E+03 0.  0.
        1    1    3    3  502    0  0.38506960318E+02  0.28351454247E+03 -0.44195483332E+03  0.52648585594E+03  0.50400001928E-02 0.  1.
       -1    1    3    3    0  502 -0.38506960318E+02 -0.28351454247E+03 -0.88766425584E+03  0.93263664571E+03  0.50400001928E-02 0. -1.
</event>
<event>
 5   0  0.5785798E-03  0.5996687E+03  0.7818609E-02  0.9906094E-01
       -1   -1    0    0    0  501  0.00000000000E+00  0.00000000000E+00  0.18024921655E+03  0.18024921662E+03  0.50400001928E-02 0. -1.
        1   -1    0    0  501    0  0.00000000000E+00  0.00000000000E+00 -0.49875740799E+03  0.49875740802E+03  0.50400001928E-02 0.  1.
    10030    2    1    2    0    0  0.00000000000E+00  0.00000000000E+00 -0.31850819144E+03  0.67900662464E+03  0.59966868210E+03 0.  0.
        1    1    3    3  502    0  0.61504706279E+02 -0.12390883280E+03  0.14195637914E+03  0.19821160749E+03  0.50400001928E-02 0. -1.
       -1    1    3    3    0  502 -0.61504706279E+02  0.12390883280E+03 -0.46046457057E+03  0.48079501715E+03  0.50400001928E-02 0.  1.
</event>
<event>
 5   0  0.9530666E-03  0.5992158E+03  0.7818609E-02  0.9907034E-01
       -2   -1    0    0    0  501  0.00000000000E+00  0.00000000000E+00  0.59846873094E+02  0.59846873148E+02  0.25500000920E-02 0. -1.
        2   -1    0    0  501    0  0.00000000000E+00  0.00000000000E+00 -0.14999094379E+04  0.14999094379E+04  0.25500000920E-02 0.  1.
    10030    2    1    2    0    0  0.00000000000E+00  0.00000000000E+00 -0.14400625648E+04  0.15597563110E+04  0.59921578692E+03 0.  0.
        2    1    3    3  502    0 -0.17995267803E+03  0.23934625352E+03 -0.74544143223E+03  0.80333836227E+03  0.25500000920E-02 0. -1.
       -2    1    3    3    0  502  0.17995267803E+03 -0.23934625352E+03 -0.69462113255E+03  0.75641794876E+03  0.25500000920E-02 0.  1.
</event>
<event>
 5   0  0.5785798E-03  0.6011898E+03  0.7818609E-02  0.9902941E-01
       -1   -1    0    0    0  501  0.00000000000E+00  0.00000000000E+00  0.59933217690E+02  0.59933217902E+02  0.50400001928E-02 0. -1.
        1   -1    0    0  501    0  0.00000000000E+00  0.00000000000E+00 -0.15076331578E+04  0.15076331578E+04  0.50400001928E-02 0.  1.
    10030    2    1    2    0    0  0.00000000000E+00  0.00000000000E+00 -0.14476999401E+04  0.15675663757E+04  0.60118984161E+03 0.  0.
        1    1    3    3  502    0 -0.27126365996E+03 -0.44633216121E+02 -0.10408572877E+04  0.10765500409E+04  0.50400001928E-02 0.  1.
       -1    1    3    3    0  502  0.27126365996E+03  0.44633216121E+02 -0.40684265242E+03  0.49101633481E+03  0.50400001928E-02 0. -1.
</event>
<event>
 5   0  0.5491236E-03  0.5989361E+03  0.7818609E-02  0.9907616E-01
        1   -1    0    0  501    0  0.00000000000E+00  0.00000000000E+00  0.26623089653E+03  0.26623089657E+03  0.50400001928E-02 0.  1.
       -1   -1    0    0    0  501  0.00000000000E+00  0.00000000000E+00 -0.33685466167E+03  0.33685466170E+03  0.50400001928E-02 0. -1.
    10030    2    1    2    0    0  0.00000000000E+00  0.00000000000E+00 -0.70623765139E+02  0.60308555828E+03  0.59893611880E+03 0.  0.
        3    1    3    3  502    0  0.21803120873E+03  0.62603465995E+02 -0.23217675603E+03  0.32459645435E+03  0.10100000352E+00 0. -1.
       -3    1    3    3    0  502 -0.21803120873E+03 -0.62603465995E+02  0.16155299089E+03  0.27848910392E+03  0.10100000352E+00 0.  1.
</event>
<event>
 5   0  0.5785798E-03  0.5995625E+03  0.7818609E-02  0.9906314E-01
        1   -1    0    0  501    0  0.00000000000E+00  0.00000000000E+00  0.37469913222E+03  0.37469913226E+03  0.50400001928E-02 0. -1.
       -1   -1    0    0    0  501  0.00000000000E+00  0.00000000000E+00 -0.23984259656E+03  0.23984259661E+03  0.50400001928E-02 0.  1.
    10030    2    1    2    0    0  0.00000000000E+00  0.00000000000E+00  0.13485653566E+03  0.61454172887E+03  0.59956254996E+03 0.  0.
        1    1    3    3  502    0 -0.51830700991E+02  0.18984810568E+03 -0.16436329058E+03  0.25640595959E+03  0.50400001928E-02 0.  1.
       -1    1    3    3    0  502  0.51830700991E+02 -0.18984810568E+03  0.29921982624E+03  0.35813576928E+03  0.50400001928E-02 0. -1.
</event>
<event>
 5   0  0.9571790E-03  0.6019727E+03  0.7818609E-02  0.9901322E-01
        2   -1    0    0  501    0  0.00000000000E+00  0.00000000000E+00  0.40171578986E+03  0.40171578987E+03  0.25500000920E-02 0.  1.
       -2   -1    0    0    0  501  0.00000000000E+00  0.00000000000E+00 -0.22551462908E+03  0.22551462909E+03  0.25500000920E-02 0. -1.
    10030    2    1    2    0    0  0.00000000000E+00  0.00000000000E+00  0.17620116079E+03  0.62723041896E+03  0.60197271484E+03 0.  0.
        5    1    3    3  502    0  0.23792125707E+03 -0.10787638675E+03 -0.67590635510E+02  0.26987853451E+03  0.46999998093E+01 0. -1.
       -5    1    3    3    0  502 -0.23792125707E+03  0.10787638675E+03  0.24379179630E+03  0.35735188445E+03  0.46999998093E+01 0.  1.
</event>
<event>
 5   0  0.9428629E-03  0.5964684E+03  0.7818609E-02  0.9912760E-01
        2   -1    0    0  501    0  0.00000000000E+00  0.00000000000E+00  0.10091592467E+04  0.10091592467E+04  0.25500000920E-02 0.  1.
       -2   -1    0    0    0  501  0.00000000000E+00  0.00000000000E+00 -0.88136368600E+02  0.88136368637E+02  0.25500000920E-02 0. -1.
    10030    2    1    2    0    0  0.00000000000E+00  0.00000000000E+00  0.92102287813E+03  0.10972956154E+04  0.59646837760E+03 0.  0.
        3    1    3    3  502    0  0.25146646628E+03  0.15854046167E+02  0.75403222715E+03  0.79501656853E+03  0.10100000352E+00 0.  1.
       -3    1    3    3    0  502 -0.25146646628E+03 -0.15854046167E+02  0.16699065097E+03  0.30227904684E+03  0.10100000352E+00 0. -1.
</event>
<event>
 5   0  0.9866317E-03  0.6001252E+03  0.7818609E-02  0.9905146E-01
       -2   -1    0    0    0  501  0.00000000000E+00  0.00000000000E+00  0.12789643578E+03  0.12789643580E+03  0.25500000920E-02 0. -1.
        2   -1    0    0  501    0  0.00000000000E+00  0.00000000000E+00 -0.70398817167E+03  0.70398817167E+03  0.25500000920E-02 0.  1.
    10030    2    1    2    0    0  0.00000000000E+00  0.00000000000E+00 -0.57609173589E+03  0.83188460747E+03  0.60012524692E+03 0.  0.
        1    1    3    3  502    0 -0.85955940036E+02 -0.59609219598E+02 -0.67789642935E+03  0.68591927487E+03  0.50400001928E-02 0.  1.
       -1    1    3    3    0  502  0.85955940036E+02  0.59609219598E+02  0.10180469345E+03  0.14596533261E+03  0.50400001928E-02 0. -1.
</event>
<event>
 5   0  0.5653633E-03  0.6066214E+03  0.7818609E-02  0.9891763E-01
        1   -1    0    0  501    0  0.00000000000E+00  0.00000000000E+00  0.54882863677E+03  0.54882863679E+03  0.50400001928E-02 0. -1.
       -1   -1    0    0    0  501  0.00000000000E+00  0.00000000000E+00 -0.16762499202E+03  0.16762499210E+03  0.50400001928E-02 0.  1.
    10030    2    1    2    0    0  0.00000000000E+00  0.00000000000E+00  0.38120364475E+03  0.71645362889E+03  0.60662144998E+03 0.  0.
        2    1    3    3  502    0  0.81390050886E+02  0.25664621705E+03  0.35555167303E+03  0.44599171888E+03  0.25500000920E-02 0. -1.
       -2    1    3    3    0  502 -0.81390050886E+02 -0.25664621705E+03  0.25651971722E+02  0.27046191001E+03  0.25500000920E-02 0.  1.
</event>
<event>
 5   0  0.5785798E-03  0.6000946E+03  0.7818609E-02  0.9905210E-01
        1   -1    0    0  501    0  0.00000000000E+00  0.00000000000E+00  0.95246989986E+03  0.95246989988E+03  0.50400001928E-02 0.  1.
       -1   -1    0    0    0  501  0.00000000000E+00  0.00000000000E+00 -0.94520974730E+02  0.94520974864E+02  0.50400001928E-02 0. -1.
    10030    2    1    2    0    0  0.00000000000E+00  0.00000000000E+00  0.85794892513E+03  0.10469908747E+04  0.60009460392E+03 0.  0.
        1    1    3    3  502    0 -0.14269266910E+03 -0.25470971282E+03  0.30822154566E+03  0.42454535312E+03  0.50400001928E-02 0. -1.
       -1    1    3    3    0  502  0.14269266910E+03  0.25470971282E+03  0.54972737948E+03  0.62244552163E+03  0.50400001928E-02 0.  1.
</event>
<event>
 5   0  0.9571790E-03  0.6137341E+03  0.7818609E-02  0.9877315E-01
       -2   -1    0    0    0  501  0.00000000000E+00  0.00000000000E+00  0.35895957090E+03  0.35895957091E+03  0.25500000920E-02 0.  1.
        2   -1    0    0  501    0  0.00000000000E+00  0.00000000000E+00 -0.26233419965E+03  0.26233419967E+03  0.25500000920E-02 0. -1.
    10030    2    1    2    0    0  0.00000000000E+00  0.00000000000E+00  0.96625371250E+02  0.62129377058E+03  0.61373405233E+03 0.  0.
        5    1    3    3  502    0 -0.18533993451E+03  0.19396413823E+03  0.19905049041E+03  0.33409005668E+03  0.46999998093E+01 0.  1.
       -5    1    3    3    0  502  0.18533993451E+03 -0.19396413823E+03 -0.10242511916E+03  0.28720371390E+03  0.46999998093E+01 0. -1.
</event>
<event>
 5   0  0.5491236E-03  0.5994307E+03  0.7818609E-02  0.9906588E-01
        1   -1    0    0  501    0  0.00000000000E+00  0.00000000000E+00  0.11637390695E+03  0.11637390706E+03  0.50400001928E-02 0. -1.
       -1   -1    0    0    0  501  0.00000000000E+00  0.00000000000E+00 -0.77190223197E+03  0.77190223198E+03  0.50400001928E-02 0.  1.
    10030    2    1    2    0    0  0.00000000000E+00  0.00000000000E+00 -0.65552832501E+03  0.88827613904E+03  0.59943065846E+03 0.  0.
        3    1    3    3  502    0  0.21053743725E+03  0.73436335239E+02 -0.62454600559E+03  0.66315656607E+03  0.10100000352E+00 0.  1.
       -3    1    3    3    0  502 -0.21053743725E+03 -0.73436335239E+02 -0.30982319423E+02  0.22511957298E+03  0.10100000352E+00 0. -1.
</event>
<event>
 5   0  0.5503975E-03  0.6011520E+03  0.7818609E-02  0.9903019E-01
        1   -1    0    0  501    0  0.00000000000E+00  0.00000000000E+00  0.15947879752E+04  0.15947879752E+04  0.50400001928E-02 0. -1.
       -1   -1    0    0    0  501  0.00000000000E+00  0.00000000000E+00 -0.56650754855E+02  0.56650755079E+02  0.50400001928E-02 0.  1.
    10030    2    1    2    0    0  0.00000000000E+00  0.00000000000E+00  0.15381372203E+04  0.16514387303E+04  0.60115203674E+03 0.  0.
        4    1    3    3  502    0 -0.10891863732E+03  0.21670430419E+03  0.28134548520E+03  0.37145783065E+03  0.12699999809E+01 0.  1.
       -4    1    3    3    0  502  0.10891863732E+03 -0.21670430419E+03  0.12567917351E+04  0.12799808996E+04  0.12699999809E+01 0. -1.
</event>
<event>
 5   0  0.9571790E-03  0.6025050E+03  0.7818609E-02  0.9900223E-01
        2   -1    0    0  501    0  0.00000000000E+00  0.00000000000E+00  0.49787637862E+03  0.49787637862E+03  0.25500000920E-02 0.  1.
       -2   -1    0    0    0  501  0.00000000000E+00  0.00000000000E+00 -0.18228032459E+03  0.18228032460E+03  0.25500000920E-02 0. -1.
    10030    2    1    2    0    0  0.00000000000E+00  0.00000000000E+00  0.31559605403E+03  0.68015670323E+03  0.60250499718E+03 0.  0.
        5    1    3    3  502    0 -0.38274462020E+02  0.29074648062E+03  0.23545758262E+03  0.37611276720E+03  0.46999998093E+01 0.  1.
       -5    1    3    3    0  502  0.38274462020E+02 -0.29074648062E+03  0.80138471405E+02  0.30404393603E+03  0.46999998093E+01 0. -1.
</event>
<event>
 5   0  0.5574736E-03  0.6000415E+03  0.7818609E-02  0.9905320E-01
       -1   -1    0    0    0  501  0.00000000000E+00  0.00000000000E+00  0.79863119810E+03  0.79863119812E+03  0.50400001928E-02 0. -1.
        1   -1    0    0  501    0  0.00000000000E+00  0.00000000000E+00 -0.11270839278E+03  0.11270839289E+03  0.50400001928E-02 0.  1.
    10030    2    1    2    0    0  0.00000000000E+00  0.00000000000E+00  0.68592280532E+03  0.91133959101E+03  0.60004146130E+03 0.  0.
        5    1    3    3  502    0  0.66931488073E+01  0.21601687948E+03  0.65893728415E+03  0.69349010440E+03  0.46999998093E+01 0. -1.
       -5    1    3    3    0  502 -0.66931488073E+01 -0.21601687948E+03  0.26985521168E+02  0.21784948660E+03  0.46999998093E+01 0.  1.
</event>
<event>
 5   0  0.9571790E-03  0.5997090E+03  0.7818609E-02  0.9906010E-01
        2   -1    0    0  501    0  0.00000000000E+00  0.00000000000E+00  0.20468580793E+03  0.20468580795E+03  0.25500000920E-02 0.  1.
       -2   -1    0    0    0  501  0.00000000000E+00  0.00000000000E+00 -0.43927188299E+03  0.43927188299E+03  0.25500000920E-02 0. -1.
    10030    2    1    2    0    0  0.00000000000E+00  0.00000000000E+00 -0.23458607506E+03  0.64395769094E+03  0.59970899703E+03 0.  0.
        5    1    3    3  502    0  0.13446544708E+03 -0.24507787107E+02  0.16924635925E+03  0.21759597470E+03  0.46999998093E+01 0.  1.
       -5    1    3    3    0  502 -0.13446544708E+03  0.24507787107E+02 -0.40383243430E+03  0.42636171625E+03  0.46999998093E+01 0. -1.
</event>
<event>
 5   0  0.9681801E-03  0.5999128E+03  0.7818609E-02  0.9905587E-01
       -2   -1    0    0    0  501  0.00000000000E+00  0.00000000000E+00  0.15879618104E+03  0.15879618106E+03  0.25500000920E-02 0. -1.
        2   -1    0    0  501    0  0.00000000000E+00  0.00000000000E+00 -0.56659947732E+03  0.56659947733E+03  0.25500000920E-02 0.  1.
    10030    2    1    2    0    0  0.00000000000E+00  0.00000000000E+00 -0.40780329628E+03  0.72539565838E+03  0.59991277094E+03 0.  0.
        4    1    3    3  502    0 -0.21579074500E+03  0.14517131760E+03 -0.23205321437E+02  0.26111387731E+03  0.12699999809E+01 0. -1.
       -4    1    3    3    0  502  0.21579074500E+03 -0.14517131760E+03 -0.38459797485E+03  0.46428178107E+03  0.12699999809E+01 0.  1.
</event>
<event>
 5   0  0.9866317E-03  0.6053049E+03  0.7818609E-02  0.9894461E-01
       -2   -1    0    0    0  501  0.00000000000E+00  0.00000000000E+00  0.82742180715E+02  0.82742180755E+02  0.25500000920E-02 0.  1.
        2   -1    0    0  501    0  0.00000000000E+00  0.00000000000E+00 -0.11070350115E+04  0.11070350115E+04  0.25500000920E-02 0. -1.
    10030    2    1    2    0    0  0.00000000000E+00  0.00000000000E+00 -0.10242928308E+04  0.11897771922E+04  0.60530485213E+03 0.  0.
        1    1    3    3  502    0 -0.33733556284E+02  0.28396179019E+03 -0.31730325519E+03  0.42714588478E+03  0.50400001928E-02 0.  1.
       -1    1    3    3    0  502  0.33733556284E+02 -0.28396179019E+03 -0.70698957557E+03  0.76263130745E+03  0.50400001928E-02 0. -1.
</event>
<event>
 5   0  0.9866317E-03  0.6011143E+03  0.7818609E-02  0.9903097E-01
        2   -1    0    0  501    0  0.00000000000E+00  0.00000000000E+00  0.12732298062E+04  0.12732298062E+04  0.25500000920E-02 0. -1.
       -2   -1    0    0    0  501  0.00000000000E+00  0.00000000000E+00 -0.70949179895E+02  0.70949179940E+02  0.25500000920E-02 0.  1.
    10030    2    1    2    0    0  0.00000000000E+00  0.00000000000E+00  0.12022806263E+04  0.13441789861E+04  0.60111433387E+03 0.  0.
        1    1    3    3  502    0  0.59004927281E+02  0.90373521485E+02 -0.26119987467E+02  0.11104597516E+03  0.50400001928E-02 0.  1.
       -1    1    3    3    0  502 -0.59004927281E+02 -0.90373521485E+02  0.12284006137E+04  0.12331330109E+04  0.50400001928E-02 0. -1.
</event>
<event>
 5   0  0.3794375E-03  0.5993861E+03  0.7818609E-02  0.9906680E-01
        3   -1    0    0  501    0  0.00000000000E+00  0.00000000000E+00  0.26841973021E+03  0.26841974921E+03  0.10100000352E+00 0. -1.
       -3   -1    0    0    0  501  0.00000000000E+00  0.00000000000E+00 -0.33460998497E+03  0.33461000021E+03  0.10100000352E+00 0.  1.
    10030    2    1    2    0    0  0.00000000000E+00  0.00000000000E+00 -0.66190254765E+02  0.60302974942E+03  0.59938612668E+03 0.  0.
        3    1    3    3  502    0 -0.14967389500E+03 -0.24172683002E+03  0.62253275463E+02  0.29104916372E+03  0.10100000352E+00 0. -1.
       -3    1    3    3    0  502  0.14967389500E+03  0.24172683002E+03 -0.12844353023E+03  0.31198058570E+03  0.10100000352E+00 0.  1.
</event>
<event>
 5   0  0.5653633E-03  0.6003748E+03  0.7818609E-02  0.9904629E-01
       -1   -1    0    0    0  501  0.00000000000E+00  0.00000000000E+00  0.12646120493E+03  0.12646120503E+03  0.50400001928E-02 0.  1.
        1   -1    0    0  501    0  0.00000000000E+00  0.00000000000E+00 -0.71257013912E+03  0.71257013914E+03  0.50400001928E-02 0. -1.
    10030    2    1    2    0    0  0.00000000000E+00  0.00000000000E+00 -0.58610893419E+03  0.83903134417E+03  0.60037481107E+03 0.  0.
        2    1    3    3  502    0 -0.84427105497E+02  0.36463829520E+02 -0.69239825364E+03  0.69847898225E+03  0.25500000920E-02 0. -1.
       -2    1    3    3    0  502  0.84427105497E+02 -0.36463829520E+02  0.10628931945E+03  0.14055236192E+03  0.25500000920E-02 0.  1.
</event>
<event>
 5   0  0.9866317E-03  0.5999593E+03  0.7818609E-02  0.9905490E-01
        2   -1    0    0  501    0  0.00000000000E+00  0.00000000000E+00  0.27888347370E+03  0.27888347371E+03  0.25500000920E-02 0.  1.
       -2   -1    0    0    0  501  0.00000000000E+00  0.00000000000E+00 -0.32267167451E+03  0.32267167452E+03  0.25500000920E-02 0. -1.
    10030    2    1    2    0    0  0.00000000000E+00  0.00000000000E+00 -0.43788200809E+02  0.60155514823E+03  0.59995932348E+03 0.  0.
        1    1    3    3  502    0  0.20767240802E+03  0.84000816049E+02 -0.22193374743E+03  0.31533879308E+03  0.50400001928E-02 0. -1.
       -1    1    3    3    0  502 -0.20767240802E+03 -0.84000816049E+02  0.17814554662E+03  0.28621635515E+03  0.50400001928E-02 0.  1.
</event>
<event>
 5   0  0.5574736E-03  0.5996585E+03  0.7818609E-02  0.9906115E-01
        1   -1    0    0  501    0  0.00000000000E+00  0.00000000000E+00  0.95655047411E+02  0.95655047544E+02  0.50400001928E-02 0.  1.
       -1   -1    0    0    0  501  0.00000000000E+00  0.00000000000E+00 -0.93980998826E+03  0.93980998827E+03  0.50400001928E-02 0. -1.
    10030    2    1    2    0    0  0.00000000000E+00  0.00000000000E+00 -0.84415494084E+03  0.10354650358E+04  0.59965846633E+03 0.  0.
        5    1    3    3  502    0  0.50851540359E+01  0.29703081191E+03 -0.35252711795E+03  0.46103212567E+03  0.46999998093E+01 0.  1.
       -5    1    3    3    0  502 -0.50851540359E+01 -0.29703081191E+03 -0.49162782289E+03  0.57443291014E+03  0.46999998093E+01 0. -1.
</event>
<event>
 5   0  0.5491236E-03  0.5989318E+03  0.7818609E-02  0.9907625E-01
       -1   -1    0    0    0  501  0.00000000000E+00  0.00000000000E+00  0.15389957681E+03  0.15389957689E+03  0.50400001928E-02 0.  1.
        1   -1    0    0  501    0  0.00000000000E+00  0.00000000000E+00 -0.58271658114E+03  0.58271658116E+03  0.50400001928E-02 0. -1.
    10030    2    1    2    0    0  0.00000000000E+00  0.00000000000E+00 -0.42881700433E+03  0.73661615805E+03  0.59893183344E+03 0.  0.
        3    1    3    3  502    0  0.29573127257E+03  0.32889991524E+02 -0.17286305808E+03  0.34412262955E+03  0.10100000352E+00 0.  1.
       -3    1    3    3    0  502 -0.29573127257E+03 -0.32889991524E+02 -0.25595394625E+03  0.39249352851E+03  0.10100000352E+00 0. -1.
</event>
<event>
 5   0  0.9681801E-03  0.6014547E+03  0.7818609E-02  0.9902393E-01
       -2   -1    0    0    0  501  0.00000000000E+00  0.00000000000E+00  0.32701968578E+03  0.32701968579E+03  0.25500000920E-02 0.  1.
        2   -1    0    0  501    0  0.00000000000E+00  0.00000000000E+00 -0.27654895936E+03  0.27654895937E+03  0.25500000920E-02 0. -1.
    10030    2    1    2    0    0  0.00000000000E+00  0.00000000000E+00  0.50470726414E+02  0.60356864516E+03  0.60145474908E+03 0.  0.
        4    1    3    3  502    0  0.16825236050E+03  0.24622643862E+03 -0.13617958266E+02  0.29853538748E+03  0.12699999809E+01 0. -1.
       -4    1    3    3    0  502 -0.16825236050E+03 -0.24622643862E+03  0.64088684680E+02  0.30503325768E+03  0.12699999809E+01 0.  1.
</event>
<event>
 5   0  0.5503975E-03  0.6004808E+03  0.7818609E-02  0.9904409E-01
        1   -1    0    0  501    0  0.00000000000E+00  0.00000000000E+00  0.13396972113E+04  0.13396972113E+04  0.50400001928E-02 0.  1.
       -1   -1    0    0    0  501  0.00000000000E+00  0.00000000000E+00 -0.67287075103E+02  0.67287075292E+02  0.50400001928E-02 0. -1.
    10030    2    1    2    0    0  0.00000000000E+00  0.00000000000E+00  0.12724101362E+04  0.14069842866E+04  0.60048083070E+03 0.  0.
        4    1    3    3  502    0  0.23587079622E+03  0.11779753181E+03  0.97275885497E+03  0.10078554925E+04  0.12699999809E+01 0.  1.
       -4    1    3    3    0  502 -0.23587079622E+03 -0.11779753181E+03  0.29965128122E+03  0.39912879406E+03  0.12699999809E+01 0. -1.
</event>
<event>
 5   0  0.9428629E-03  0.5992579E+03  0.7818609E-02  0.9906947E-01
       -2   -1    0    0    0  501  0.00000000000E+00  0.00000000000E+00  0.58007732881E+02  0.58007732937E+02  0.25500000920E-02 0. -1.
        2   -1    0    0  501    0  0.00000000000E+00  0.00000000000E+00 -0.15476814900E+04  0.15476814900E+04  0.25500000920E-02 0.  1.
    10030    2    1    2    0    0  0.00000000000E+00  0.00000000000E+00 -0.14896737571E+04  0.16056892229E+04  0.59925785603E+03 0.  0.
        3    1    3    3  502    0 -0.53160324847E+02 -0.11254843094E+03 -0.14545258273E+02  0.12531857079E+03  0.10100000352E+00 0. -1.
       -3    1    3    3    0  502  0.53160324847E+02  0.11254843094E+03 -0.14751284988E+04  0.14803706522E+04  0.10100000352E+00 0.  1.
</event>
<event>
 5   0  0.9428629E-03  0.6001791E+03  0.7818609E-02  0.9905034E-01
       -2   -1    0    0    0  501  0.00000000000E+00  0.00000000000E+00  0.18683405023E+03  0.18683405025E+03  0.25500000920E-02 0. -1.
        2   -1    0    0  501    0  0.00000000000E+00  0.00000000000E+00 -0.48199858829E+03  0.48199858829E+03  0.25500000920E-02 0.  1.
    10030    2    1    2    0    0  0.00000000000E+00  0.00000000000E+00 -0.29516453806E+03  0.66883263854E+03  0.60017913480E+03 0.  0.
        3    1    3    3  502    0  0.10056051780E+03  0.28224109298E+03 -0.16627232437E+03  0.34266448366E+03  0.10100000352E+00 0.  1.
       -3    1    3    3    0  502 -0.10056051780E+03 -0.28224109298E+03 -0.12889221368E+03  0.32616815488E+03  0.10100000352E+00 0. -1.
</event>
<event>
 5   0  0.9428629E-03  0.5999418E+03  0.7818609E-02  0.9905527E-01
       -2   -1    0    0    0  501  0.00000000000E+00  0.00000000000E+00  0.90230103338E+03  0.90230103338E+03  0.25500000920E-02 0. -1.
        2   -1    0    0  501    0  0.00000000000E+00  0.00000000000E+00 -0.99725631430E+02  0.99725631462E+02  0.25500000920E-02 0.  1.
    10030    2    1    2    0    0  0.00000000000E+00  0.00000000000E+00  0.80257540195E+03  0.10020266648E+04  0.59994179821E+03 0.  0.
        3    1    3    3  502    0  0.22457158582E+03 -0.12547277334E+03  0.65899095633E+03  0.70742130639E+03  0.10100000352E+00 0. -1.
       -3    1    3    3    0  502 -0.22457158582E+03  0.12547277334E+03  0.14358444562E+03  0.29460535846E+03  0.10100000352E+00 0.  1.
</event>
<event>
 5   0  0.5653633E-03  0.6020753E+03  0.7818609E-02  0.9901110E-01
       -1   -1    0    0    0  501  0.00000000000E+00  0.00000000000E+00  0.23561145058E+03  0.23561145063E+03  0.50400001928E-02 0. -1.
        1   -1    0    0  501    0  0.00000000000E+00  0.00000000000E+00 -0.38463180847E+03  0.38463180850E+03  0.50400001928E-02 0.  1.
    10030    2    1    2    0    0  0.00000000000E+00  0.00000000000E+00 -0.14902035789E+03  0.62024325913E+03  0.60207527223E+03 0.  0.
        2    1    3    3  502    0  0.23031044892E+03 -0.10798161992E+03  0.91347214733E+02  0.27027254165E+03  0.25500000920E-02 0. -1.
       -2    1    3    3    0  502 -0.23031044892E+03  0.10798161992E+03 -0.24036757262E+03  0.34997071748E+03  0.25500000920E-02 0.  1.
</event>
<event>
 5   0  0.9571790E-03  0.5997828E+03  0.7818609E-02  0.9905857E-01
       -2   -1    0    0    0  501  0.00000000000E+00  0.00000000000E+00  0.76748289275E+02  0.76748289317E+02  0.25500000920E-02 0.  1.
        2   -1    0    0  501    0  0.00000000000E+00  0.00000000000E+00 -0.11718157055E+04  0.11718157055E+04  0.25500000920E-02 0. -1.
    10030    2    1    2    0    0  0.00000000000E+00  0.00000000000E+00 -0.10950674162E+04  0.12485639948E+04  0.59978279658E+03 0.  0.
        5    1    3    3  502    0 -0.20889649190E+03 -0.45632158670E+01 -0.99828281436E+02  0.23161680215E+03  0.46999998093E+01 0.  1.
       -5    1    3    3    0  502  0.20889649190E+03  0.45632158670E+01 -0.99523913475E+03  0.10169471926E+04  0.46999998093E+01 0. -1.
</event>
<event>
 5   0  0.9571790E-03  0.6121184E+03  0.7818609E-02  0.9880578E-01
       -2   -1    0    0    0  501  0.00000000000E+00  0.00000000000E+00  0.15172288001E+03  0.15172288003E+03  0.25500000920E-02 0.  1.
        2   -1    0    0  501    0  0.00000000000E+00  0.00000000000E+00 -0.61739033287E+03  0.61739033288E+03  0.25500000920E-02 0. -1.
    10030    2    1    2    0    0  0.00000000000E+00  0.00000000000E+00 -0.46566745286E+03  0.76911321291E+03  0.61211841797E+03 0.  0.
        5    1    3    3  502    0 -0.19972948218E+03  0.58529778373E+02 -0.51472347685E+03  0.55522963594E+03  0.46999998093E+01 0. -1.
       -5    1    3    3    0  502  0.19972948218E+03 -0.58529778373E+02  0.49056023983E+02  0.21388357697E+03  0.46999998093E+01 0.  1.
</event>
<event>
 5   0  0.9681801E-03  0.5999886E+03  0.7818609E-02  0.9905430E-01
       -2   -1    0    0    0  501  0.00000000000E+00  0.00000000000E+00  0.34343922214E+03  0.34343922215E+03  0.25500000920E-02 0.  1.
        2   -1    0    0  501    0  0.00000000000E+00  0.00000000000E+00 -0.26204512997E+03  0.26204512998E+03  0.25500000920E-02 0. -1.
    10030    2    1    2    0    0  0.00000000000E+00  0.00000000000E+00  0.81394092177E+02  0.60548435214E+03  0.59998858526E+03 0.  0.
        4    1    3    3  502    0 -0.25388352853E+02  0.27102606761E+03  0.16792830406E+03  0.31984562837E+03  0.12699999809E+01 0.  1.
       -4    1    3    3    0  502  0.25388352853E+02 -0.27102606761E+03 -0.86534211884E+02  0.28563872376E+03  0.12699999809E+01 0. -1.
</event>
<event>
 5   0  0.9681801E-03  0.6029956E+03  0.7818609E-02  0.9899211E-01
        2   -1    0    0  501    0  0.00000000000E+00  0.00000000000E+00  0.11892866235E+04  0.11892866235E+04  0.25500000920E-02 0.  1.
       -2   -1    0    0    0  501  0.00000000000E+00  0.00000000000E+00 -0.76433146431E+02  0.76433146474E+02  0.25500000920E-02 0. -1.
    10030    2    1    2    0    0  0.00000000000E+00  0.00000000000E+00  0.11128534771E+04  0.12657197700E+04  0.60299558430E+03 0.  0.
        4    1    3    3  502    0 -0.64812867379E+02 -0.22634677132E+03  0.95172775132E+03  0.98041873411E+03  0.12699999809E+01 0.  1.
       -4    1    3    3    0  502  0.64812867379E+02  0.22634677132E+03  0.16112572574E+03  0.28530103586E+03  0.12699999809E+01 0. -1.
</event>
<event>
 5   0  0.5653633E-03  0.6009972E+03  0.7818609E-02  0.9903339E-01
       -1   -1    0    0    0  501  0.00000000000E+00  0.00000000000E+00  0.26911832428E+03  0.26911832433E+03  0.50400001928E-02 0.  1.
        1   -1    0    0  501    0  0.00000000000E+00  0.00000000000E+00 -0.33553794272E+03  0.33553794275E+03  0.50400001928E-02 0. -1.
    10030    2    1    2    0    0  0.00000000000E+00  0.00000000000E+00 -0.66419618436E+02  0.60465626708E+03  0.60099720100E+03 0.  0.
        2    1    3    3  502    0 -0.21460660187E+03 -0.15571117118E+03  0.10906348290E+03  0.28669985299E+03  0.25500000920E-02 0. -1.
       -2    1    3    3    0  502  0.21460660187E+03  0.15571117118E+03 -0.17548310133E+03  0.31795641409E+03  0.25500000920E-02 0.  1.
</event>
<event>
 5   0  0.9428629E-03  0.6006610E+03  0.7818609E-02  0.9904036E-01
       -2   -1    0    0    0  501  0.00000000000E+00  0.00000000000E+00  0.21278253578E+03  0.21278253580E+03  0.25500000920E-02 0.  1.
        2   -1    0    0  501    0  0.00000000000E+00  0.00000000000E+00 -0.42389948858E+03  0.42389948859E+03  0.25500000920E-02 0. -1.
    10030    2    1    2    0    0  0.00000000000E+00  0.00000000000E+00 -0.21111695280E+03  0.63668202438E+03  0.60066099625E+03 0.  0.
        3    1    3    3  502    0  0.14140551887E+03 -0.19001055950E+03 -0.30129105357E+03  0.38324384229E+03  0.10100000352E+00 0. -1.
       -3    1    3    3    0  502 -0.14140551887E+03  0.19001055950E+03  0.90174100772E+02  0.25343818209E+03  0.10100000352E+00 0.  1.
</event>
<event>
 5   0  0.5503975E-03  0.6001270E+03  0.7818609E-02  0.9905143E-01
       -1   -1    0    0    0  501  0.00000000000E+00  0.00000000000E+00  0.60363953531E+02  0.60363953741E+02  0.50400001928E-02 0.  1.
        1   -1    0    0  501    0  0.00000000000E+00  0.00000000000E+00 -0.14915871741E+04  0.14915871741E+04  0.50400001928E-02 0. -1.
    10030    2    1    2    0    0  0.00000000000E+00  0.00000000000E+00 -0.14312232205E+04  0.15519511278E+04  0.60012698334E+03 0.  0.
        4    1    3    3  502    0  0.10956221382E+03 -0.20883389324E+03 -0.23582656514E+03  0.33351350106E+03  0.12699999809E+01 0.  1.
       -4    1    3    3    0  502 -0.10956221382E+03  0.20883389324E+03 -0.11953966554E+04  0.12184376268E+04  0.12699999809E+01 0. -1.
</event>
<event>
 5   0  0.9866317E-03  0.5995540E+03  0.7818609E-02  0.9906332E-01
       -2   -1    0    0    0  501  0.00000000000E+00  0.00000000000E+00  0.23582992819E+03  0.23582992820E+03  0.25500000920E-02 0.  1.
        2   -1    0    0  501    0  0.00000000000E+00  0.00000000000E+00 -0.38106376869E+03  0.38106376870E+03  0.25500000920E-02 0. -1.
    10030    2    1    2    0    0  0.00000000000E+00  0.00000000000E+00 -0.14523384050E+03  0.61689369690E+03  0.59955397159E+03 0.  0.
        1    1    3    3  502    0  0.14608824822E+03 -0.10700002539E+03 -0.31843100119E+03  0.36631828271E+03  0.50400001928E-02 0. -1.
       -1    1    3    3    0  502 -0.14608824822E+03  0.10700002539E+03  0.17319716069E+03  0.25057541419E+03  0.50400001928E-02 0.  1.
</event>
<event>
 5   0  0.9530666E-03  0.5999864E+03  0.7818609E-02  0.9905434E-01
        2   -1    0    0  501    0  0.00000000000E+00  0.00000000000E+00  0.38301403582E+03  0.38301403583E+03  0.25500000920E-02 0.  1.
       -2   -1    0    0    0  501  0.00000000000E+00  0.00000000000E+00 -0.23496764387E+03  0.23496764388E+03  0.25500000920E-02 0. -1.
    10030    2    1    2    0    0  0.00000000000E+00  0.00000000000E+00  0.14804639195E+03  0.61798167971E+03  0.59998635175E+03 0.  0.
        2    1    3    3  502    0 -0.19251348819E+03 -0.12197544028E+03 -0.12690847278E+03  0.26085477116E+03  0.25500000920E-02 0. -1.
       -2    1    3    3    0  502  0.19251348819E+03  0.12197544028E+03  0.27495486473E+03  0.35712690855E+03  0.25500000920E-02 0.  1.
</event>
<event>
 5   0  0.5503975E-03  0.6006385E+03  0.7818609E-02  0.9904082E-01
       -1   -1    0    0    0  501  0.00000000000E+00  0.00000000000E+00  0.95700716558E+02  0.95700716691E+02  0.50400001928E-02 0. -1.
        1   -1    0    0  501    0  0.00000000000E+00  0.00000000000E+00 -0.94243454236E+03  0.94243454238E+03  0.50400001928E-02 0.  1.
    10030    2    1    2    0    0  0.00000000000E+00  0.00000000000E+00 -0.84673382580E+03  0.10381352591E+04  0.60063853053E+03 0.  0.
        4    1    3    3  502    0 -0.81063937967E+02 -0.29677560344E+02  0.73789533390E+02  0.11357212583E+03  0.12699999809E+01 0. -1.
       -4    1    3    3    0  502  0.81063937967E+02  0.29677560344E+02 -0.92052335919E+03  0.92456313324E+03  0.12699999809E+01 0.  1.
</event>
<event>
 5   0  0.5653633E-03  0.5997678E+03  0.7818609E-02  0.9905888E-01
       -1   -1    0    0    0  501  0.00000000000E+00  0.00000000000E+00  0.15496001753E+03  0.15496001762E+03  0.50400001928E-02 0. -1.
        1   -1    0    0  501    0  0.00000000000E+00  0.00000000000E+00 -0.58034552439E+03  0.58034552441E+03  0.50400001928E-02 0.  1.
    10030    2    1    2    0    0  0.00000000000E+00  0.00000000000E+00 -0.42538550686E+03  0.73530554203E+03  0.59976779732E+03 0.  0.
        2    1    3    3  502    0 -0.12160607852E+03  0.18235589012E+03 -0.46361134697E+03  0.51281301664E+03  0.25500000920E-02 0.  1.
       -2    1    3    3    0  502  0.12160607852E+03 -0.18235589012E+03  0.38225840109E+02  0.22249252539E+03  0.25500000920E-02 0. -1.
</event>
<event>
 5   0  0.9681801E-03  0.5986096E+03  0.7818609E-02  0.9908295E-01
        2   -1    0    0  501    0  0.00000000000E+00  0.00000000000E+00  0.83812014202E+03  0.83812014202E+03  0.25500000920E-02 0.  1.
       -2   -1    0    0    0  501  0.00000000000E+00  0.00000000000E+00 -0.10688607092E+03  0.10688607095E+03  0.25500000920E-02 0. -1.
    10030    2    1    2    0    0  0.00000000000E+00  0.00000000000E+00  0.73123407110E+03  0.94500621297E+03  0.59860961888E+03 0.  0.
        4    1    3    3  502    0  0.16032972043E+03  0.13339536839E+03  0.70450469076E+03  0.73473016528E+03  0.12699999809E+01 0.  1.
       -4    1    3    3    0  502 -0.16032972043E+03 -0.13339536839E+03  0.26729380338E+02  0.21027604769E+03  0.12699999809E+01 0. -1.
</event>
<event>
 5   0  0.9681801E-03  0.5982048E+03  0.7818609E-02  0.9909138E-01
        2   -1    0    0  501    0  0.00000000000E+00  0.00000000000E+00  0.84313730394E+02  0.84313730432E+02  0.25500000920E-02 0. -1.
       -2   -1    0    0    0  501  0.00000000000E+00  0.00000000000E+00 -0.10610638195E+04  0.10610638196E+04  0.25500000920E-02 0.  1.
    10030    2    1    2    0    0  0.00000000000E+00  0.00000000000E+00 -0.97675008916E+03  0.11453775500E+04  0.59820481053E+03 0.  0.
        4    1    3    3  502    0  0.12738569724E+03 -0.19923775282E+03 -0.83901895109E+03  0.87170936166E+03  0.12699999809E+01 0.  1.
       -4    1    3    3    0  502 -0.12738569724E+03  0.19923775282E+03 -0.13773113807E+03  0.27366818833E+03  0.12699999809E+01 0. -1.
</event>
<event>
 5   0  0.5503975E-03  0.6008029E+03  0.7818609E-02  0.9903742E-01
       -1   -1    0    0    0  501  0.00000000000E+00  0.00000000000E+00  0.55725391253E+02  0.55725391481E+02  0.50400001928E-02 0. -1.
        1   -1    0    0  501    0  0.00000000000E+00  0.00000000000E+00 -0.16193881838E+04  0.16193881838E+04  0.50400001928E-02 0.  1.
    10030    2    1    2    0    0  0.00000000000E+00  0.00000000000E+00 -0.15636627926E+04  0.16751135753E+04  0.60080293053E+03 0.  0.
        4    1    3    3  502    0  0.22219351919E+03 -0.15679583425E+03 -0.42603636309E+03  0.50543396125E+03  0.12699999809E+01 0. -1.
       -4    1    3    3    0  502 -0.22219351919E+03  0.15679583425E+03 -0.11376264295E+04  0.11696796141E+04  0.12699999809E+01 0.  1.
</event>
<event>
 5   0  0.5653633E-03  0.5988093E+03  0.7818609E-02  0.9907879E-01
        1   -1    0    0  501    0  0.00000000000E+00  0.00000000000E+00  0.59825394856E+03  0.59825394858E+03  0.50400001928E-02 0. -1.
       -1   -1    0    0    0  501  0.00000000000E+00  0.00000000000E+00 -0.14984130187E+03  0.14984130196E+03  0.50400001928E-02 0.  1.
    10030    2    1    2    0    0  0.00000000000E+00  0.00000000000E+00  0.44841264669E+03  0.74809525054E+03  0.59880932038E+03 0.  0.
        2    1    3    3  502    0 -0.15289866346E+03 -0.24459650741E+03  0.12396803558E+03  0.31396421225E+03  0.25500000920E-02 0.  1.
       -2    1    3    3    0  502  0.15289866346E+03  0.24459650741E+03  0.32444461111E+03  0.43413103829E+03  0.25500000920E-02 0. -1.
</event>
<event>
 5   0  0.9571790E-03  0.6003293E+03  0.7818609E-02  0.9904723E-01
        2   -1    0    0  501    0  0.00000000000E+00  0.00000000000E+00  0.12827606471E+04  0.12827606471E+04  0.25500000920E-02 0.  1.
       -2   -1    0    0    0  501  0.00000000000E+00  0.00000000000E+00 -0.70238223058E+02  0.70238223104E+02  0.25500000920E-02 0. -1.
    10030    2    1    2    0    0  0.00000000000E+00  0.00000000000E+00  0.12125224240E+04  0.13529988702E+04  0.60032933793E+03 0.  0.
        5    1    3    3  502    0  0.22380718664E+03  0.19973945687E+03  0.58473442269E+03  0.65720768597E+03  0.46999998093E+01 0.  1.
       -5    1    3    3    0  502 -0.22380718664E+03 -0.19973945687E+03  0.62778800134E+03  0.69579118422E+03  0.46999998093E+01 0. -1.
</event>
<event>
 5   0  0.3794375E-03  0.5992543E+03  0.7818609E-02  0.9906954E-01
       -4   -1    0    0    0  501  0.00000000000E+00  0.00000000000E+00  0.14672025430E+03  0.14672575071E+03  0.12699999809E+01 0.  1.
        4   -1    0    0  501    0  0.00000000000E+00  0.00000000000E+00 -0.61187085277E+03  0.61187217077E+03  0.12699999809E+01 0. -1.
    10030    2    1    2    0    0  0.00000000000E+00  0.00000000000E+00 -0.46515059847E+03  0.75859792149E+03  0.59925430931E+03 0.  0.
        2    1    3    3  502    0  0.72827065815E+02  0.23183144190E+03 -0.10674236857E+02  0.24323556136E+03  0.25500000920E-02 0.  1.
       -2    1    3    3    0  502 -0.72827065815E+02 -0.23183144190E+03 -0.45447636161E+03  0.51536236013E+03  0.25500000920E-02 0. -1.
</event>
<event>
 5   0  0.5491236E-03  0.6006324E+03  0.7818609E-02  0.9904095E-01
        1   -1    0    0  501    0  0.00000000000E+00  0.00000000000E+00  0.17262452249E+04  0.17262452249E+04  0.50400001928E-02 0. -1.
       -1   -1    0    0    0  501  0.00000000000E+00  0.00000000000E+00 -0.52246231156E+02  0.52246231400E+02  0.50400001928E-02 0.  1.
    10030    2    1    2    0    0  0.00000000000E+00  0.00000000000E+00  0.16739989938E+04  0.17784914563E+04  0.60063235769E+03 0.  0.
        3    1    3    3  502    0 -0.26498092461E+03  0.85612253320E+01  0.41927765281E+03  0.49606647270E+03  0.10100000352E+00 0.  1.
       -3    1    3    3    0  502  0.26498092461E+03 -0.85612253320E+01  0.12547213410E+04  0.12824249836E+04  0.10100000352E+00 0. -1.
</event>
<event>
 5   0  0.9530666E-03  0.5990663E+03  0.7818609E-02  0.9907345E-01
       -2   -1    0    0    0  501  0.00000000000E+00  0.00000000000E+00  0.24731545815E+03  0.24731545816E+03  0.25500000920E-02 0.  1.
        2   -1    0    0  501    0  0.00000000000E+00  0.00000000000E+00 -0.36277592568E+03  0.36277592568E+03  0.25500000920E-02 0. -1.
    10030    2    1    2    0    0  0.00000000000E+00  0.00000000000E+00 -0.11546046753E+03  0.61009138385E+03  0.59906625434E+03 0.  0.
        2    1    3    3  502    0 -0.94577890547E+02 -0.25890482727E+03 -0.17712003910E+03  0.32764034431E+03  0.25500000920E-02 0. -1.
       -2    1    3    3    0  502  0.94577890547E+02  0.25890482727E+03  0.61659571576E+02  0.28245103954E+03  0.25500000920E-02 0.  1.
</event>
<event>
 5   0  0.5503975E-03  0.5985299E+03  0.7818609E-02  0.9908461E-01
        1   -1    0    0  501    0  0.00000000000E+00  0.00000000000E+00  0.46850919678E+03  0.46850919681E+03  0.50400001928E-02 0.  1.
       -1   -1    0    0    0  501  0.00000000000E+00  0.00000000000E+00 -0.19115851458E+03  0.19115851465E+03  0.50400001928E-02 0. -1.
    10030    2    1    2    0    0  0.00000000000E+00  0.00000000000E+00  0.27735068220E+03  0.65966771146E+03  0.59852993962E+03 0.  0.
        4    1    3    3  502    0  0.80377174412E+02 -0.67781445862E+02  0.44747921264E+03  0.45966735061E+03  0.12699999809E+01 0.  1.
       -4    1    3    3    0  502 -0.80377174412E+02  0.67781445862E+02 -0.17012853044E+03  0.20000036085E+03  0.12699999809E+01 0. -1.
</event>
<event>
 5   0  0.9428629E-03  0.5999351E+03  0.7818609E-02  0.9905541E-01
        2   -1    0    0  501    0  0.00000000000E+00  0.00000000000E+00  0.19803368176E+04  0.19803368176E+04  0.25500000920E-02 0.  1.
       -2   -1    0    0    0  501  0.00000000000E+00  0.00000000000E+00 -0.45436984029E+02  0.45436984101E+02  0.25500000920E-02 0. -1.
    10030    2    1    2    0    0  0.00000000000E+00  0.00000000000E+00  0.19348998336E+04  0.20257738017E+04  0.59993510458E+03 0.  0.
        3    1    3    3  502    0 -0.22871550048E+03 -0.18396469323E+03  0.75856802294E+03  0.81337521732E+03  0.10100000352E+00 0.  1.
       -3    1    3    3    0  502  0.22871550048E+03  0.18396469323E+03  0.11763318106E+04  0.12123985844E+04  0.10100000352E+00 0. -1.
</event>
<event>
 5   0  0.3794375E-03  0.5999526E+03  0.7818609E-02  0.9905504E-01
        4   -1    0    0  501    0  0.00000000000E+00  0.00000000000E+00  0.15003263381E+03  0.15003800888E+03  0.12699999809E+01 0.  1.
       -4   -1    0    0    0  501  0.00000000000E+00  0.00000000000E+00 -0.59975795361E+03  0.59975929823E+03  0.12699999809E+01 0. -1.
    10030    2    1    2    0    0  0.00000000000E+00  0.00000000000E+00 -0.44972531980E+03  0.74979730711E+03  0.59995261353E+03 0.  0.
        4    1    3    3  502    0 -0.28193545546E+03  0.37535382334E+02 -0.34400142639E+03  0.44635759233E+03  0.12699999809E+01 0. -1.
       -4    1    3    3    0  502  0.28193545546E+03 -0.37535382334E+02 -0.10572389341E+03  0.30343971478E+03  0.12699999809E+01 0.  1.
</event>
<event>
 5   0  0.9530666E-03  0.5997773E+03  0.7818609E-02  0.9905868E-01
        2   -1    0    0  501    0  0.00000000000E+00  0.00000000000E+00  0.88503676626E+03  0.88503676627E+03  0.25500000920E-02 0. -1.
       -2   -1    0    0    0  501  0.00000000000E+00  0.00000000000E+00 -0.10161523210E+03  0.10161523214E+03  0.25500000920E-02 0.  1.
    10030    2    1    2    0    0  0.00000000000E+00  0.00000000000E+00  0.78342153416E+03  0.98665199840E+03  0.59977734683E+03 0.  0.
        2    1    3    3  502    0  0.63962289050E+02  0.22715786168E+03  0.87307459419E+02  0.25162364956E+03  0.25500000920E-02 0.  1.
       -2    1    3    3    0  502 -0.63962289050E+02 -0.22715786168E+03  0.69611407474E+03  0.73502834884E+03  0.25500000920E-02 0. -1.
</event>
<event>
 5   0  0.5785798E-03  0.6005370E+03  0.7818609E-02  0.9904293E-01
       -1   -1    0    0    0  501  0.00000000000E+00  0.00000000000E+00  0.12990472296E+03  0.12990472306E+03  0.50400001928E-02 0. -1.
        1   -1    0    0  501    0  0.00000000000E+00  0.00000000000E+00 -0.69405622203E+03  0.69405622204E+03  0.50400001928E-02 0.  1.
    10030    2    1    2    0    0  0.00000000000E+00  0.00000000000E+00 -0.56415149907E+03  0.82396094510E+03  0.60053703062E+03 0.  0.
        1    1    3    3  502    0 -0.23720323579E+03 -0.73810354240E+02 -0.50660770590E+02  0.25353472575E+03  0.50400001928E-02 0. -1.
       -1    1    3    3    0  502  0.23720323579E+03  0.73810354240E+02 -0.51349072848E+03  0.57042621935E+03  0.50400001928E-02 0.  1.
</event>
<event>
 5   0  0.9530666E-03  0.5983197E+03  0.7818609E-02  0.9908898E-01
       -2   -1    0    0    0  501  0.00000000000E+00  0.00000000000E+00  0.19025826355E+03  0.19025826357E+03  0.25500000920E-02 0. -1.
        2   -1    0    0  501    0  0.00000000000E+00  0.00000000000E+00 -0.47039545379E+03  0.47039545380E+03  0.25500000920E-02 0.  1.
    10030    2    1    2    0    0  0.00000000000E+00  0.00000000000E+00 -0.28013719024E+03  0.66065371736E+03  0.59831972131E+03 0.  0.
        2    1    3    3  502    0 -0.10307614213E+03 -0.84123796999E+02 -0.43592980008E+03  0.45578097251E+03  0.25500000920E-02 0.  1.
       -2    1    3    3    0  502  0.10307614213E+03  0.84123796999E+02  0.15579260984E+03  0.20487274486E+03  0.25500000920E-02 0. -1.
</event>
<event>
 5   0  0.5491236E-03  0.5999822E+03  0.7818609E-02  0.9905443E-01
       -1   -1    0    0    0  501  0.00000000000E+00  0.00000000000E+00  0.25429762424E+03  0.25429762429E+03  0.50400001928E-02 0. -1.
        1   -1    0    0  501    0  0.00000000000E+00  0.00000000000E+00 -0.35389506401E+03  0.35389506404E+03  0.50400001928E-02 0.  1.
    10030    2    1    2    0    0  0.00000000000E+00  0.00000000000E+00 -0.99597439765E+02  0.60819268833E+03  0.59998224651E+03 0.  0.
        3    1    3    3  502    0 -0.27265214378E+03  0.13292621299E+02  0.76317556133E+02  0.28344358322E+03  0.10100000352E+00 0. -1.
       -3    1    3    3    0  502  0.27265214378E+03 -0.13292621299E+02 -0.17591499590E+03  0.32474910512E+03  0.10100000352E+00 0.  1.
</event>
<event>
 5   0  0.5503975E-03  0.5993858E+03  0.7818609E-02  0.9906681E-01
        1   -1    0    0  501    0  0.00000000000E+00  0.00000000000E+00  0.17738499291E+03  0.17738499298E+03  0.50400001928E-02 0. -1.
       -1   -1    0    0    0  501  0.00000000000E+00  0.00000000000E+00 -0.50633273707E+03  0.50633273710E+03  0.50400001928E-02 0.  1.
    10030    2    1    2    0    0  0.00000000000E+00  0.00000000000E+00 -0.32894774417E+03  0.68371773007E+03  0.59938578230E+03 0.  0.
        4    1    3    3  502    0  0.10582726364E+03 -0.93585519124E+02  0.13701687881E+03  0.19680675065E+03  0.12699999809E+01 0. -1.
       -4    1    3    3    0  502 -0.10582726364E+03  0.93585519124E+02 -0.46596462298E+03  0.48691097943E+03  0.12699999809E+01 0.  1.
</event>
<event>
 5   0  0.9428629E-03  0.6008803E+03  0.7818609E-02  0.9903581E-01
       -2   -1    0    0    0  501  0.00000000000E+00  0.00000000000E+00  0.11981797660E+03  0.11981797662E+03  0.25500000920E-02 0. -1.
        2   -1    0    0  501    0  0.00000000000E+00  0.00000000000E+00 -0.75334515661E+03  0.75334515662E+03  0.25500000920E-02 0.  1.
    10030    2    1    2    0    0  0.00000000000E+00  0.00000000000E+00 -0.63352718002E+03  0.87316313324E+03  0.60088032871E+03 0.  0.
        3    1    3    3  502    0 -0.29571073417E+03  0.18235171183E+02 -0.24429688412E+03  0.38400304369E+03  0.10100000352E+00 0. -1.
       -3    1    3    3    0  502  0.29571073417E+03 -0.18235171183E+02 -0.38923029590E+03  0.48916008956E+03  0.10100000352E+00 0.  1.
</event>
<event>
 5   0  0.5785798E-03  0.6002653E+03  0.7818609E-02  0.9904856E-01
       -1   -1    0    0    0  501  0.00000000000E+00  0.00000000000E+00  0.79522112711E+03  0.79522112712E+03  0.50400001928E-02 0.  1.
        1   -1    0    0  501    0  0.00000000000E+00  0.00000000000E+00 -0.11327616770E+03  0.11327616782E+03  0.50400001928E-02 0. -1.
    10030    2    1    2    0    0  0.00000000000E+00  0.00000000000E+00  0.68194495940E+03  0.90849729494E+03  0.60026528074E+03 0.  0.
        1    1    3    3  502    0 -0.17406313461E+03 -0.21112067368E+03  0.52762788374E+03  0.59435771840E+03  0.50400001928E-02 0.  1.
       -1    1    3    3    0  502  0.17406313461E+03  0.21112067368E+03  0.15431707566E+03  0.31413957654E+03  0.50400001928E-02 0. -1.
</event>
<event>
 5   0  0.5653633E-03  0.5993965E+03  0.7818609E-02  0.9906659E-01
        1   -1    0    0  501    0  0.00000000000E+00  0.00000000000E+00  0.54857170481E+03  0.54857170483E+03  0.50400001928E-02 0. -1.
       -1   -1    0    0    0  501  0.00000000000E+00  0.00000000000E+00 -0.16373254588E+03  0.16373254595E+03  0.50400001928E-02 0.  1.
    10030    2    1    2    0    0  0.00000000000E+00  0.00000000000E+00  0.38483915893E+03  0.71230425078E+03  0.59939650269E+03 0.  0.
        2    1    3    3  502    0 -0.29506651290E+03 -0.48680136707E+02  0.16910091069E+03  0.34355366502E+03  0.25500000920E-02 0.  1.
       -2    1    3    3    0  502  0.29506651290E+03  0.48680136707E+02  0.21573824824E+03  0.36875058577E+03  0.25500000920E-02 0. -1.
</event>
<event>
 5   0  0.5653633E-03  0.5996686E+03  0.7818609E-02  0.9906094E-01
       -1   -1    0    0    0  501  0.00000000000E+00  0.00000000000E+00  0.44432761215E+02  0.44432761501E+02  0.50400001928E-02 0.  1.
        1   -1    0    0  501    0  0.00000000000E+00  0.00000000000E+00 -0.20232952695E+04  0.20232952695E+04  0.50400001928E-02 0. -1.
    10030    2    1    2    0    0  0.00000000000E+00  0.00000000000E+00 -0.19788625082E+04  0.20677280310E+04  0.59966856138E+03 0.  0.
        2    1    3    3  502    0 -0.42615806658E+02  0.41285246375E+02 -0.20028496369E+04  0.20037283365E+04  0.25500000920E-02 0. -1.
       -2    1    3    3    0  502  0.42615806658E+02 -0.41285246375E+02  0.23987128633E+02  0.63999694467E+02  0.25500000920E-02 0.  1.
</event>
<event>
 5   0  0.9681801E-03  0.6009664E+03  0.7818609E-02  0.9903403E-01
        2   -1    0    0  501    0  0.00000000000E+00  0.00000000000E+00  0.99451718662E+03  0.99451718662E+03  0.25500000920E-02 0. -1.
       -2   -1    0    0    0  501  0.00000000000E+00  0.00000000000E+00 -0.90787932869E+02  0.90787932905E+02  0.25500000920E-02 0.  1.
    10030    2    1    2    0    0  0.00000000000E+00  0.00000000000E+00  0.90372925375E+03  0.10853051195E+04  0.60096642035E+03 0.  0.
        4    1    3    3  502    0 -0.22943723898E+03  0.16238034385E+03  0.26006362025E+03  0.38294062488E+03  0.12699999809E+01 0.  1.
       -4    1    3    3    0  502  0.22943723898E+03 -0.16238034385E+03  0.64366563349E+03  0.70236449465E+03  0.12699999809E+01 0. -1.
</event>
<event>
 5   0  0.5503975E-03  0.6005314E+03  0.7818609E-02  0.9904304E-01
        1   -1    0    0  501    0  0.00000000000E+00  0.00000000000E+00  0.37405510413E+03  0.37405510417E+03  0.50400001928E-02 0. -1.
       -1   -1    0    0    0  501  0.00000000000E+00  0.00000000000E+00 -0.24103265712E+03  0.24103265718E+03  0.50400001928E-02 0.  1.
    10030    2    1    2    0    0  0.00000000000E+00  0.00000000000E+00  0.13302244701E+03  0.61508776134E+03  0.60053141695E+03 0.  0.
        4    1    3    3  502    0  0.21897832292E+03  0.12653174166E+03  0.23228645135E+03  0.34339539300E+03  0.12699999809E+01 0. -1.
       -4    1    3    3    0  502 -0.21897832292E+03 -0.12653174166E+03 -0.99264004345E+02  0.27169236834E+03  0.12699999809E+01 0.  1.
</event>
<event>
 5   0  0.5503975E-03  0.5995077E+03  0.7818609E-02  0.9906428E-01
       -1   -1    0    0    0  501  0.00000000000E+00  0.00000000000E+00  0.20451359695E+03  0.20451359702E+03  0.50400001928E-02 0.  1.
        1   -1    0    0  501    0  0.00000000000E+00  0.00000000000E+00 -0.43934665289E+03  0.43934665292E+03  0.50400001928E-02 0. -1.
    10030    2    1    2    0    0  0.00000000000E+00  0.00000000000E+00 -0.23483305594E+03  0.64386024994E+03  0.59950767909E+03 0.  0.
        4    1    3    3  502    0  0.17139414865E+03  0.13976706818E+03  0.99888908301E+02  0.24267301960E+03  0.12699999809E+01 0.  1.
       -4    1    3    3    0  502 -0.17139414865E+03 -0.13976706818E+03 -0.33472196424E+03  0.40118723034E+03  0.12699999809E+01 0. -1.
</event>
<event>
 5   0  0.9571790E-03  0.5991881E+03  0.7818609E-02  0.9907092E-01
       -2   -1    0    0    0  501  0.00000000000E+00  0.00000000000E+00  0.98497042375E+02  0.98497042408E+02  0.25500000920E-02 0.  1.
        2   -1    0    0  501    0  0.00000000000E+00  0.00000000000E+00 -0.91126178577E+03  0.91126178577E+03  0.25500000920E-02 0. -1.
    10030    2    1    2    0    0  0.00000000000E+00  0.00000000000E+00 -0.81276474339E+03  0.10097588282E+04  0.59918808648E+03 0.  0.
        5    1    3    3  502    0 -0.62333986311E+02 -0.12697493809E+03  0.38610366338E+02  0.14670041288E+03  0.46999998093E+01 0.  1.
       -5    1    3    3    0  502  0.62333986311E+02  0.12697493809E+03 -0.85137510973E+03  0.86305841530E+03  0.46999998093E+01 0. -1.
</event>
<event>
 5   0  0.9866317E-03  0.5985510E+03  0.7818609E-02  0.9908417E-01
        2   -1    0    0  501    0  0.00000000000E+00  0.00000000000E+00  0.12331812070E+04  0.12331812070E+04  0.25500000920E-02 0. -1.
       -2   -1    0    0    0  501  0.00000000000E+00  0.00000000000E+00 -0.72629887537E+02  0.72629887582E+02  0.25500000920E-02 0.  1.
    10030    2    1    2    0    0  0.00000000000E+00  0.00000000000E+00  0.11605513195E+04  0.13058110946E+04  0.59855095826E+03 0.  0.
        1    1    3    3  502    0 -0.75765957028E+02  0.67481427507E+02 -0.33964214483E+02  0.10699435122E+03  0.50400001928E-02 0.  1.
       -1    1    3    3    0  502  0.75765957028E+02 -0.67481427507E+02  0.11945155340E+04  0.11988167434E+04  0.50400001928E-02 0. -1.
</event>
<event>
 5   0  0.9866317E-03  0.5998586E+03  0.7818609E-02  0.9905699E-01
        2   -1    0    0  501    0  0.00000000000E+00  0.00000000000E+00  0.99503403308E+03  0.99503403308E+03  0.25500000920E-02 0.  1.
       -2   -1    0    0    0  501  0.00000000000E+00  0.00000000000E+00 -0.90406539729E+02  0.90406539765E+02  0.25500000920E-02 0. -1.
    10030    2    1    2    0    0  0.00000000000E+00  0.00000000000E+00  0.90462749335E+03  0.10854405728E+04  0.59985859622E+03 0.  0.
        1    1    3    3  502    0  0.50894701996E+02  0.38073905841E+02  0.98270757550E+03  0.98476092122E+03  0.50400001928E-02 0.  1.
       -1    1    3    3    0  502 -0.50894701996E+02 -0.38073905841E+02 -0.78080082150E+02  0.10067965162E+03  0.50400001928E-02 0. -1.
</event>
<event>
 5   0  0.3794375E-03  0.5939876E+03  0.7818609E-02  0.9917959E-01
       -3   -1    0    0    0  501  0.00000000000E+00  0.00000000000E+00  0.46852211062E+03  0.46852212150E+03  0.10100000352E+00 0.  1.
        3   -1    0    0  501    0  0.00000000000E+00  0.00000000000E+00 -0.18826281971E+03  0.18826284680E+03  0.10100000352E+00 0. -1.
    10030    2    1    2    0    0  0.00000000000E+00  0.00000000000E+00  0.28025929090E+03  0.65678496831E+03  0.59398756254E+03 0.  0.
        1    1    3    3  502    0  0.20652547201E+02 -0.15520824877E+03 -0.13891820068E+03  0.20931888281E+03  0.50400001928E-02 0. -1.
       -1    1    3    3    0  502 -0.20652547201E+02  0.15520824877E+03  0.41917749159E+03  0.44746608550E+03  0.50400001928E-02 0.  1.
</event>
<event>
 5   0  0.5491236E-03  0.6004179E+03  0.7818609E-02  0.9904539E-01
        1   -1    0    0  501    0  0.00000000000E+00  0.00000000000E+00  0.52595211878E+03  0.52595211881E+03  0.50400001928E-02 0. -1.
       -1   -1    0    0    0  501  0.00000000000E+00  0.00000000000E+00 -0.17135668442E+03  0.17135668449E+03  0.50400001928E-02 0.  1.
    10030    2    1    2    0    0  0.00000000000E+00  0.00000000000E+00  0.35459543436E+03  0.69730880330E+03  0.60041789205E+03 0.  0.
        3    1    3    3  502    0  0.19585243349E+03 -0.84908275373E+02 -0.67853154585E+02  0.22399029380E+03  0.10100000352E+00 0.  1.
       -3    1    3    3    0  502 -0.19585243349E+03  0.84908275373E+02  0.42244858895E+03  0.47331850950E+03  0.10100000352E+00 0. -1.
</event>
<event>
 5   0  0.9571790E-03  0.6015967E+03  0.7818609E-02  0.9902099E-01
       -2   -1    0    0    0  501  0.00000000000E+00  0.00000000000E+00  0.53706117453E+02  0.53706117513E+02  0.25500000920E-02 0.  1.
        2   -1    0    0  501    0  0.00000000000E+00  0.00000000000E+00 -0.16847178585E+04  0.16847178585E+04  0.25500000920E-02 0. -1.
    10030    2    1    2    0    0  0.00000000000E+00  0.00000000000E+00 -0.16310117410E+04  0.17384239760E+04  0.60159672618E+03 0.  0.
        5    1    3    3  502    0 -0.20050913289E+03  0.51936065023E+02 -0.18534089886E+03  0.27798310383E+03  0.46999998093E+01 0.  1.
       -5    1    3    3    0  502  0.20050913289E+03 -0.51936065023E+02 -0.14456708422E+04  0.14604408722E+04  0.46999998093E+01 0. -1.
</event>
<event>
 5   0  0.9530666E-03  0.5932031E+03  0.7818609E-02  0.9919609E-01
       -2   -1    0    0    0  501  0.00000000000E+00  0.00000000000E+00  0.10079308290E+03  0.10079308293E+03  0.25500000920E-02 0. -1.
        2   -1    0    0  501    0  0.00000000000E+00  0.00000000000E+00 -0.87280271615E+03  0.87280271616E+03  0.25500000920E-02 0.  1.
    10030    2    1    2    0    0  0.00000000000E+00  0.00000000000E+00 -0.77200963325E+03  0.97359579909E+03  0.59320309016E+03 0.  0.
        2    1    3    3  502    0  0.32708412352E+02 -0.46322149973E+02 -0.86382314547E+03  0.86568239469E+03  0.25500000920E-02 0.  1.
       -2    1    3    3    0  502 -0.32708412352E+02  0.46322149973E+02  0.91813512220E+02  0.10791340440E+03  0.25500000920E-02 0. -1.
</event>
<event>
 5   0  0.5574736E-03  0.6000978E+03  0.7818609E-02  0.9905203E-01
       -1   -1    0    0    0  501  0.00000000000E+00  0.00000000000E+00  0.24840993000E+03  0.24840993005E+03  0.50400001928E-02 0.  1.
        1   -1    0    0  501    0  0.00000000000E+00  0.00000000000E+00 -0.36242249159E+03  0.36242249163E+03  0.50400001928E-02 0. -1.
    10030    2    1    2    0    0  0.00000000000E+00  0.00000000000E+00 -0.11401256160E+03  0.61083242168E+03  0.60009781133E+03 0.  0.
        5    1    3    3  502    0  0.13961648914E+03  0.18267534377E+02 -0.32666170497E+03  0.35574770040E+03  0.46999998093E+01 0. -1.
       -5    1    3    3    0  502 -0.13961648914E+03 -0.18267534377E+02  0.21264914337E+03  0.25508472127E+03  0.46999998093E+01 0.  1.
</event>
<event>
 5   0  0.9866317E-03  0.5997861E+03  0.7818609E-02  0.9905850E-01
        2   -1    0    0  501    0  0.00000000000E+00  0.00000000000E+00  0.99783466151E+03  0.99783466152E+03  0.25500000920E-02 0. -1.
       -2   -1    0    0    0  501  0.00000000000E+00  0.00000000000E+00 -0.90131006468E+02  0.90131006504E+02  0.25500000920E-02 0.  1.
    10030    2    1    2    0    0  0.00000000000E+00  0.00000000000E+00  0.90770365505E+03  0.10879656680E+04  0.59978610305E+03 0.  0.
        1    1    3    3  502    0  0.11585748871E+03 -0.55586886981E+02  0.94536459475E+03  0.95405821454E+03  0.50400001928E-02 0. -1.
       -1    1    3    3    0  502 -0.11585748871E+03  0.55586886981E+02 -0.37660939704E+02  0.13390745348E+03  0.50400001928E-02 0.  1.
</event>
<event>
 5   0  0.9681801E-03  0.5995955E+03  0.7818609E-02  0.9906246E-01
       -2   -1    0    0    0  501  0.00000000000E+00  0.00000000000E+00  0.34890479978E+03  0.34890479979E+03  0.25500000920E-02 0.  1.
        2   -1    0    0  501    0  0.00000000000E+00  0.00000000000E+00 -0.25760236542E+03  0.25760236543E+03  0.25500000920E-02 0. -1.
    10030    2    1    2    0    0  0.00000000000E+00  0.00000000000E+00  0.91302434366E+02  0.60650716522E+03  0.59959553613E+03 0.  0.
        4    1    3    3  502    0 -0.23843644220E+03  0.81116503786E+01  0.22929104795E+03  0.33089837324E+03  0.12699999809E+01 0.  1.
       -4    1    3    3    0  502  0.23843644220E+03 -0.81116503786E+01 -0.13798861358E+03  0.27560879199E+03  0.12699999809E+01 0. -1.
</event>
<event>
 5   0  0.9866317E-03  0.5999461E+03  0.7818609E-02  0.9905518E-01
        2   -1    0    0  501    0  0.00000000000E+00  0.00000000000E+00  0.75205343077E+03  0.75205343077E+03  0.25500000920E-02 0. -1.
       -2   -1    0    0    0  501  0.00000000000E+00  0.00000000000E+00 -0.11965084628E+03  0.11965084631E+03  0.25500000920E-02 0.  1.
    10030    2    1    2    0    0  0.00000000000E+00  0.00000000000E+00  0.63240258449E+03  0.87170427708E+03  0.59994609576E+03 0.  0.
        1    1    3    3  502    0 -0.21636278424E+03  0.39889973027E+02  0.61247830766E+03  0.65079470014E+03  0.50400001928E-02 0. -1.
       -1    1    3    3    0  502  0.21636278424E+03 -0.39889973027E+02  0.19924276831E+02  0.22090957694E+03  0.50400001928E-02 0.  1.
</event>
<event>
 5   0  0.9530666E-03  0.6009371E+03  0.7818609E-02  0.9903464E-01
        2   -1    0    0  501    0  0.00000000000E+00  0.00000000000E+00  0.64948315979E+03  0.64948315979E+03  0.25500000920E-02 0. -1.
       -2   -1    0    0    0  501  0.00000000000E+00  0.00000000000E+00 -0.13900489806E+03  0.13900489808E+03  0.25500000920E-02 0.  1.
    10030    2    1    2    0    0  0.00000000000E+00  0.00000000000E+00  0.51047826173E+03  0.78848805788E+03  0.60093706968E+03 0.  0.
        2    1    3    3  502    0 -0.57694765618E+02  0.21299529146E+03  0.52280944329E+03  0.56747281359E+03  0.25500000920E-02 0. -1.
       -2    1    3    3    0  502  0.57694765618E+02 -0.21299529146E+03 -0.12331181562E+02  0.22101524429E+03  0.25500000920E-02 0.  1.
</event>
<event>
 5   0  0.5653633E-03  0.6013189E+03  0.7818609E-02  0.9902673E-01
        1   -1    0    0  501    0  0.00000000000E+00  0.00000000000E+00  0.75553486819E+03  0.75553486821E+03  0.50400001928E-02 0.  1.
       -1   -1    0    0    0  501  0.00000000000E+00  0.00000000000E+00 -0.11964519870E+03  0.11964519880E+03  0.50400001928E-02 0. -1.
    10030    2    1    2    0    0  0.00000000000E+00  0.00000000000E+00  0.63588966950E+03  0.87518006701E+03  0.60131894858E+03 0.  0.
        2    1    3    3  502    0  0.19508812489E+03  0.22860834854E+03  0.30534326527E+03  0.42843396591E+03  0.25500000920E-02 0. -1.
       -2    1    3    3    0  502 -0.19508812489E+03 -0.22860834854E+03  0.33054640423E+03  0.44674610110E+03  0.25500000920E-02 0.  1.
</event>
<event>
 5   0  0.5653633E-03  0.6000390E+03  0.7818609E-02  0.9905325E-01
        1   -1    0    0  501    0  0.00000000000E+00  0.00000000000E+00  0.69484333919E+03  0.69484333920E+03  0.50400001928E-02 0. -1.
       -1   -1    0    0    0  501  0.00000000000E+00  0.00000000000E+00 -0.12954243594E+03  0.12954243604E+03  0.50400001928E-02 0.  1.
    10030    2    1    2    0    0  0.00000000000E+00  0.00000000000E+00  0.56530090324E+03  0.82438577525E+03  0.60003899475E+03 0.  0.
        2    1    3    3  502    0  0.29105862737E+03  0.26225665365E+02  0.37592097499E+03  0.47615070044E+03  0.25500000920E-02 0. -1.
       -2    1    3    3    0  502 -0.29105862737E+03 -0.26225665365E+02  0.18937992826E+03  0.34823507480E+03  0.25500000920E-02 0.  1.
</event>
<event>
 5   0  0.9866317E-03  0.6015976E+03  0.7818609E-02  0.9902097E-01
        2   -1    0    0  501    0  0.00000000000E+00  0.00000000000E+00  0.14525460346E+03  0.14525460348E+03  0.25500000920E-02 0. -1.
       -2   -1    0    0    0  501  0.00000000000E+00  0.00000000000E+00 -0.62290566523E+03  0.62290566523E+03  0.25500000920E-02 0.  1.
    10030    2    1    2    0    0  0.00000000000E+00  0.00000000000E+00 -0.47765106177E+03  0.76816026871E+03  0.60159759110E+03 0.  0.
        1    1    3    3  502    0  0.20256675795E+01  0.11951028886E+03  0.11362939294E+03  0.16491953019E+03  0.50400001928E-02 0. -1.
       -1    1    3    3    0  502 -0.20256675795E+01 -0.11951028886E+03 -0.59128045471E+03  0.60324073852E+03  0.50400001928E-02 0.  1.
</event>
<event>
 5   0  0.5785798E-03  0.5975224E+03  0.7818609E-02  0.9910560E-01
       -1   -1    0    0    0  501  0.00000000000E+00  0.00000000000E+00  0.20419567563E+03  0.20419567569E+03  0.50400001928E-02 0. -1.
        1   -1    0    0  501    0  0.00000000000E+00  0.00000000000E+00 -0.43712119920E+03  0.43712119923E+03  0.50400001928E-02 0.  1.
    10030    2    1    2    0    0  0.00000000000E+00  0.00000000000E+00 -0.23292552357E+03  0.64131687492E+03  0.59752241340E+03 0.  0.
        1    1    3    3  502    0  0.23633390956E+03 -0.44248281838E+02 -0.30679200983E+03  0.38978579319E+03  0.50400001928E-02 0.  1.
       -1    1    3    3    0  502 -0.23633390956E+03  0.44248281838E+02  0.73866486257E+02  0.25153108172E+03  0.50400001928E-02 0. -1.
</event>
<event>
 5   0  0.5574736E-03  0.5999923E+03  0.7818609E-02  0.9905422E-01
        1   -1    0    0  501    0  0.00000000000E+00  0.00000000000E+00  0.61696105205E+03  0.61696105207E+03  0.50400001928E-02 0.  1.
       -1   -1    0    0    0  501  0.00000000000E+00  0.00000000000E+00 -0.14587258292E+03  0.14587258300E+03  0.50400001928E-02 0. -1.
    10030    2    1    2    0    0  0.00000000000E+00  0.00000000000E+00  0.47108846913E+03  0.76283363507E+03  0.59999234083E+03 0.  0.
        5    1    3    3  502    0  0.10797762906E+03  0.15683545127E+03 -0.59134252319E+02  0.19943790249E+03  0.46999998093E+01 0. -1.
       -5    1    3    3    0  502 -0.10797762906E+03 -0.15683545127E+03  0.53022272145E+03  0.56339573258E+03  0.46999998093E+01 0.  1.
</event>
<event>
 5   0  0.9428629E-03  0.5990805E+03  0.7818609E-02  0.9907316E-01
        2   -1    0    0  501    0  0.00000000000E+00  0.00000000000E+00  0.73700903367E+03  0.73700903367E+03  0.25500000920E-02 0. -1.
       -2   -1    0    0    0  501  0.00000000000E+00  0.00000000000E+00 -0.12174119816E+03  0.12174119818E+03  0.25500000920E-02 0.  1.
    10030    2    1    2    0    0  0.00000000000E+00  0.00000000000E+00  0.61526783551E+03  0.85875023186E+03  0.59908050486E+03 0.  0.
        3    1    3    3  502    0  0.16436991506E+03  0.63654549463E+02 -0.39529642132E+02  0.18064322144E+03  0.10100000352E+00 0.  1.
       -3    1    3    3    0  502 -0.16436991506E+03 -0.63654549463E+02  0.65479747764E+03  0.67810701042E+03  0.10100000352E+00 0. -1.
</event>
<event>
 5   0  0.5503975E-03  0.5994172E+03  0.7818609E-02  0.9906616E-01
        1   -1    0    0  501    0  0.00000000000E+00  0.00000000000E+00  0.10842952434E+04  0.10842952434E+04  0.50400001928E-02 0.  1.
       -1   -1    0    0    0  501  0.00000000000E+00  0.00000000000E+00 -0.82842060569E+02  0.82842060722E+02  0.50400001928E-02 0. -1.
    10030    2    1    2    0    0  0.00000000000E+00  0.00000000000E+00  0.10014531828E+04  0.11671373041E+04  0.59941722473E+03 0.  0.
        4    1    3    3  502    0 -0.18788464100E+03 -0.23060857623E+03  0.57207428012E+03  0.64478798735E+03  0.12699999809E+01 0. -1.
       -4    1    3    3    0  502  0.18788464100E+03  0.23060857623E+03  0.42937890271E+03  0.52234931679E+03  0.12699999809E+01 0.  1.
</event>
<event>
 5   0  0.9530666E-03  0.6002993E+03  0.7818609E-02  0.9904785E-01
       -2   -1    0    0    0  501  0.00000000000E+00  0.00000000000E+00  0.14719071557E+03  0.14719071559E+03  0.25500000920E-02 0. -1.
        2   -1    0    0  501    0  0.00000000000E+00  0.00000000000E+00 -0.61206169652E+03  0.61206169652E+03  0.25500000920E-02 0.  1.
    10030    2    1    2    0    0  0.00000000000E+00  0.00000000000E+00 -0.46487098095E+03  0.75925241211E+03  0.60029925568E+03 0.  0.
        2    1    3    3  502    0  0.61546611306E+02  0.88084638558E+02  0.12202829388E+03  0.16259702773E+03  0.25500000920E-02 0. -1.
       -2    1    3    3    0  502 -0.61546611306E+02 -0.88084638558E+02 -0.58689927483E+03  0.59665538438E+03  0.25500000920E-02 0.  1.
</event>
<event>
 5   0  0.5503975E-03  0.5994370E+03  0.7818609E-02  0.9906575E-01
        1   -1    0    0  501    0  0.00000000000E+00  0.00000000000E+00  0.37648502850E+03  0.37648502853E+03  0.50400001928E-02 0.  1.
       -1   -1    0    0    0  501  0.00000000000E+00  0.00000000000E+00 -0.23860488047E+03  0.23860488053E+03  0.50400001928E-02 0. -1.
    10030    2    1    2    0    0  0.00000000000E+00  0.00000000000E+00  0.13788014802E+03  0.61508990906E+03  0.59943695332E+03 0.  0.
        4    1    3    3  502    0  0.12684323523E+03 -0.15712128342E+03  0.29620319988E+03  0.35848884578E+03  0.12699999809E+01 0.  1.
       -4    1    3    3    0  502 -0.12684323523E+03  0.15712128342E+03 -0.15832305186E+03  0.25660106328E+03  0.12699999809E+01 0. -1.
</event>
<event>
 5   0  0.5785798E-03  0.5996404E+03  0.7818609E-02  0.9906152E-01
       -1   -1    0    0    0  501  0.00000000000E+00  0.00000000000E+00  0.45865533703E+02  0.45865533980E+02  0.50400001928E-02 0. -1.
        1   -1    0    0  501    0  0.00000000000E+00  0.00000000000E+00 -0.19599063330E+04  0.19599063330E+04  0.50400001928E-02 0.  1.
    10030    2    1    2    0    0  0.00000000000E+00  0.00000000000E+00 -0.19140407993E+04  0.20057718670E+04  0.59964039308E+03 0.  0.
        1    1    3    3  502    0 -0.23501653822E+03  0.13042381583E+03 -0.14013965800E+04  0.14269392136E+04  0.50400001928E-02 0.  1.
       -1    1    3    3    0  502  0.23501653822E+03 -0.13042381583E+03 -0.51264421929E+03  0.57883265334E+03  0.50400001928E-02 0. -1.
</event>
<event>
 5   0  0.9571790E-03  0.6018981E+03  0.7818609E-02  0.9901476E-01
        2   -1    0    0  501    0  0.00000000000E+00  0.00000000000E+00  0.12659165896E+04  0.12659165896E+04  0.25500000920E-02 0. -1.
       -2   -1    0    0    0  501  0.00000000000E+00  0.00000000000E+00 -0.71545261140E+02  0.71545261186E+02  0.25500000920E-02 0.  1.
    10030    2    1    2    0    0  0.00000000000E+00  0.00000000000E+00  0.11943713284E+04  0.13374618508E+04  0.60189810770E+03 0.  0.
        5    1    3    3  502    0 -0.12855902073E+03  0.19097371340E+03  0.10277743340E+04  0.10532523689E+04  0.46999998093E+01 0. -1.
       -5    1    3    3    0  502  0.12855902073E+03 -0.19097371340E+03  0.16659699445E+03  0.28420948186E+03  0.46999998093E+01 0.  1.
</event>
<event>
 5   0  0.5491236E-03  0.5979643E+03  0.7818609E-02  0.9909638E-01
        1   -1    0    0  501    0  0.00000000000E+00  0.00000000000E+00  0.49085769514E+03  0.49085769517E+03  0.50400001928E-02 0. -1.
       -1   -1    0    0    0  501  0.00000000000E+00  0.00000000000E+00 -0.18211047334E+03  0.18211047341E+03  0.50400001928E-02 0.  1.
    10030    2    1    2    0    0  0.00000000000E+00  0.00000000000E+00  0.30874722180E+03  0.67296816858E+03  0.59796430408E+03 0.  0.
        3    1    3    3  502    0  0.29049817301E+03  0.13391779909E+02  0.23252259786E+03  0.37233761160E+03  0.10100000352E+00 0. -1.
       -3    1    3    3    0  502 -0.29049817301E+03 -0.13391779909E+02  0.76224623936E+02  0.30063055698E+03  0.10100000352E+00 0.  1.
</event>
<event>
 5   0  0.3794375E-03  0.6002374E+03  0.7818609E-02  0.9904914E-01
       -3   -1    0    0    0  501  0.00000000000E+00  0.00000000000E+00  0.20589422212E+03  0.20589424690E+03  0.10100000352E+00 0.  1.
        3   -1    0    0  501    0  0.00000000000E+00  0.00000000000E+00 -0.43746361180E+03  0.43746362346E+03  0.10100000352E+00 0. -1.
    10030    2    1    2    0    0  0.00000000000E+00  0.00000000000E+00 -0.23156938967E+03  0.64335787035E+03  0.60023742562E+03 0.  0.
        3    1    3    3  502    0  0.46849066445E+02  0.14567966613E+03  0.16093629772E+03  0.22207634335E+03  0.10100000352E+00 0.  1.
       -3    1    3    3    0  502 -0.46849066445E+02 -0.14567966613E+03 -0.39250568740E+03  0.42128152700E+03  0.10100000352E+00 0. -1.
</event>
<event>
 5   0  0.5491236E-03  0.5986516E+03  0.7818609E-02  0.9908207E-01
        1   -1    0    0  501    0  0.00000000000E+00  0.00000000000E+00  0.21433234794E+03  0.21433234800E+03  0.50400001928E-02 0. -1.
       -1   -1    0    0    0  501  0.00000000000E+00  0.00000000000E+00 -0.41802341725E+03  0.41802341728E+03  0.50400001928E-02 0.  1.
    10030    2    1    2    0    0  0.00000000000E+00  0.00000000000E+00 -0.20369106930E+03  0.63235576528E+03  0.59865162004E+03 0.  0.
        3    1    3    3  502    0  0.27924428255E+02  0.29793199333E+03 -0.94178512812E+02  0.31370822242E+03  0.10100000352E+00 0.  1.
       -3    1    3    3    0  502 -0.27924428255E+02 -0.29793199333E+03 -0.10951255649E+03  0.31864754286E+03  0.10100000352E+00 0. -1.
</event>
<event>
 5   0  0.9530666E-03  0.5993394E+03  0.7818609E-02  0.9906777E-01
       -2   -1    0    0    0  501  0.00000000000E+00  0.00000000000E+00  0.19609015142E+03  0.19609015144E+03  0.25500000920E-02 0. -1.
        2   -1    0    0  501    0  0.00000000000E+00  0.00000000000E+00 -0.45796252676E+03  0.45796252677E+03  0.25500000920E-02 0.  1.
    10030    2    1    2    0    0  0.00000000000E+00  0.00000000000E+00 -0.26187237534E+03  0.65405267821E+03  0.59933944047E+03 0.  0.
        2    1    3    3  502    0 -0.19664657519E+03  0.47386097672E+02  0.11035134985E+03  0.23041861515E+03  0.25500000920E-02 0. -1.
       -2    1    3    3    0  502  0.19664657519E+03 -0.47386097672E+02 -0.37222372519E+03  0.42363406306E+03  0.25500000920E-02 0.  1.
</event>
<event>
 5   0  0.9681801E-03  0.5974125E+03  0.7818609E-02  0.9910789E-01
       -2   -1    0    0    0  501  0.00000000000E+00  0.00000000000E+00  0.77695037855E+02  0.77695037897E+02  0.25500000920E-02 0.  1.
        2   -1    0    0  501    0  0.00000000000E+00  0.00000000000E+00 -0.11484057705E+04  0.11484057705E+04  0.25500000920E-02 0. -1.
    10030    2    1    2    0    0  0.00000000000E+00  0.00000000000E+00 -0.10707107326E+04  0.12261008084E+04  0.59741252025E+03 0.  0.
        4    1    3    3  502    0  0.10855520377E+03  0.27248400281E+03 -0.65130967673E+03  0.71430922713E+03  0.12699999809E+01 0.  1.
       -4    1    3    3    0  502 -0.10855520377E+03 -0.27248400281E+03 -0.41940105590E+03  0.51179158125E+03  0.12699999809E+01 0. -1.
</event>
<event>
 5   0  0.5491236E-03  0.6003096E+03  0.7818609E-02  0.9904764E-01
       -1   -1    0    0    0  501  0.00000000000E+00  0.00000000000E+00  0.94616871629E+02  0.94616871763E+02  0.50400001928E-02 0. -1.
        1   -1    0    0  501    0  0.00000000000E+00  0.00000000000E+00 -0.95218657686E+03  0.95218657688E+03  0.50400001928E-02 0.  1.
    10030    2    1    2    0    0  0.00000000000E+00  0.00000000000E+00 -0.85756970524E+03  0.10468034486E+04  0.60030963739E+03 0.  0.
        3    1    3    3  502    0 -0.55920255898E+02  0.28384843019E+03 -0.56824194804E+03  0.63764874975E+03  0.10100000352E+00 0.  1.
       -3    1    3    3    0  502  0.55920255898E+02 -0.28384843019E+03 -0.28932775720E+03  0.40915469889E+03  0.10100000352E+00 0. -1.
</event>
<event>
 5   0  0.9530666E-03  0.6007170E+03  0.7818609E-02  0.9903920E-01
       -2   -1    0    0    0  501  0.00000000000E+00  0.00000000000E+00  0.10651080287E+03  0.10651080291E+03  0.25500000920E-02 0. -1.
        2   -1    0    0  501    0  0.00000000000E+00  0.00000000000E+00 -0.84700539179E+03  0.84700539179E+03  0.25500000920E-02 0.  1.
    10030    2    1    2    0    0  0.00000000000E+00  0.00000000000E+00 -0.74049458892E+03  0.95351619470E+03  0.60071698606E+03 0.  0.
        2    1    3    3  502    0  0.24910242956E+03 -0.33329950442E+02 -0.63131936032E+03  0.67950499684E+03  0.25500000920E-02 0.  1.
       -2    1    3    3    0  502 -0.24910242956E+03  0.33329950442E+02 -0.10917522860E+03  0.27401119786E+03  0.25500000920E-02 0. -1.
</event>
<event>
 5   0  0.9681801E-03  0.5998337E+03  0.7818609E-02  0.9905751E-01
        2   -1    0    0  501    0  0.00000000000E+00  0.00000000000E+00  0.28747444419E+03  0.28747444420E+03  0.25500000920E-02 0.  1.
       -2   -1    0    0    0  501  0.00000000000E+00  0.00000000000E+00 -0.31289774446E+03  0.31289774447E+03  0.25500000920E-02 0. -1.
    10030    2    1    2    0    0  0.00000000000E+00  0.00000000000E+00 -0.25423300274E+02  0.60037218867E+03  0.59983366089E+03 0.  0.
        4    1    3    3  502    0 -0.61890626547E+02 -0.22066709433E+03  0.18091506441E+03  0.29198679697E+03  0.12699999809E+01 0.  1.
       -4    1    3    3    0  502  0.61890626547E+02  0.22066709433E+03 -0.20633836469E+03  0.30838539170E+03  0.12699999809E+01 0. -1.
</event>
<event>
 5   0  0.9428629E-03  0.6007379E+03  0.7818609E-02  0.9903876E-01
        2   -1    0    0  501    0  0.00000000000E+00  0.00000000000E+00  0.15813347355E+04  0.15813347355E+04  0.25500000920E-02 0.  1.
       -2   -1    0    0    0  501  0.00000000000E+00  0.00000000000E+00 -0.57054026612E+02  0.57054026669E+02  0.25500000920E-02 0. -1.
    10030    2    1    2    0    0  0.00000000000E+00  0.00000000000E+00  0.15242807089E+04  0.16383887622E+04  0.60073792665E+03 0.  0.
        3    1    3    3  502    0 -0.10351233650E+03 -0.23430879809E+03  0.33432813107E+03  0.42117778443E+03  0.10100000352E+00 0. -1.
       -3    1    3    3    0  502  0.10351233650E+03  0.23430879809E+03  0.11899525778E+04  0.12172109777E+04  0.10100000352E+00 0.  1.
</event>
<event>
 5   0  0.5491236E-03  0.6120914E+03  0.7818609E-02  0.9880633E-01
       -1   -1    0    0    0  501  0.00000000000E+00  0.00000000000E+00  0.76318500110E+03  0.76318500112E+03  0.50400001928E-02 0. -1.
        1   -1    0    0  501    0  0.00000000000E+00  0.00000000000E+00 -0.12272775870E+03  0.12272775881E+03  0.50400001928E-02 0.  1.
    10030    2    1    2    0    0  0.00000000000E+00  0.00000000000E+00  0.64045724240E+03  0.88591275992E+03  0.61209144648E+03 0.  0.
        3    1    3    3  502    0  0.23907099904E+03  0.12021502821E+03  0.10527161824E+03  0.28755646297E+03  0.10100000352E+00 0.  1.
       -3    1    3    3    0  502 -0.23907099904E+03 -0.12021502821E+03  0.53518562416E+03  0.59835629695E+03  0.10100000352E+00 0. -1.
</event>
<event>
 5   0  0.9530666E-03  0.5998043E+03  0.7818609E-02  0.9905812E-01
       -2   -1    0    0    0  501  0.00000000000E+00  0.00000000000E+00  0.10148064132E+03  0.10148064136E+03  0.25500000920E-02 0. -1.
        2   -1    0    0  501    0  0.00000000000E+00  0.00000000000E+00 -0.88629017961E+03  0.88629017961E+03  0.25500000920E-02 0.  1.
    10030    2    1    2    0    0  0.00000000000E+00  0.00000000000E+00 -0.78480953828E+03  0.98777082097E+03  0.59980428756E+03 0.  0.
        2    1    3    3  502    0  0.83202629460E+02 -0.22945065610E+03 -0.10540848224E+03  0.26585941636E+03  0.25500000920E-02 0. -1.
       -2    1    3    3    0  502 -0.83202629460E+02  0.22945065610E+03 -0.67940105605E+03  0.72191140460E+03  0.25500000920E-02 0.  1.
</event>
<event>
 5   0  0.5574736E-03  0.5998824E+03  0.7818609E-02  0.9905650E-01
        1   -1    0    0  501    0  0.00000000000E+00  0.00000000000E+00  0.60994251519E+03  0.60994251521E+03  0.50400001928E-02 0.  1.
       -1   -1    0    0    0  501  0.00000000000E+00  0.00000000000E+00 -0.14749705962E+03  0.14749705970E+03  0.50400001928E-02 0. -1.
    10030    2    1    2    0    0  0.00000000000E+00  0.00000000000E+00  0.46244545557E+03  0.75743957491E+03  0.59988241370E+03 0.  0.
        5    1    3    3  502    0 -0.14216119423E+03 -0.11043198662E+03 -0.71648324642E+02  0.19380557587E+03  0.46999998093E+01 0. -1.
       -5    1    3    3    0  502  0.14216119423E+03  0.11043198662E+03  0.53409378022E+03  0.56363399904E+03  0.46999998093E+01 0.  1.
</event>
<event>
 5   0  0.5503975E-03  0.5997459E+03  0.7818609E-02  0.9905933E-01
        1   -1    0    0  501    0  0.00000000000E+00  0.00000000000E+00  0.27402842633E+03  0.27402842638E+03  0.50400001928E-02 0.  1.
       -1   -1    0    0    0  501  0.00000000000E+00  0.00000000000E+00 -0.32815496757E+03  0.32815496761E+03  0.50400001928E-02 0. -1.
    10030    2    1    2    0    0  0.00000000000E+00  0.00000000000E+00 -0.54126541241E+02  0.60218339399E+03  0.59974591080E+03 0.  0.
        4    1    3    3  502    0  0.27272464675E+03  0.88289412525E+02 -0.11544614981E+03  0.30903588742E+03  0.12699999809E+01 0. -1.
       -4    1    3    3    0  502 -0.27272464675E+03 -0.88289412525E+02  0.61319608569E+02  0.29314750656E+03  0.12699999809E+01 0.  1.
</event>
<event>
 5   0  0.9530666E-03  0.5982984E+03  0.7818609E-02  0.9908943E-01
       -2   -1    0    0    0  501  0.00000000000E+00  0.00000000000E+00  0.26574907946E+03  0.26574907947E+03  0.25500000920E-02 0.  1.
        2   -1    0    0  501    0  0.00000000000E+00  0.00000000000E+00 -0.33674717962E+03  0.33674717963E+03  0.25500000920E-02 0. -1.
    10030    2    1    2    0    0  0.00000000000E+00  0.00000000000E+00 -0.70998100158E+02  0.60249625910E+03  0.59829843056E+03 0.  0.
        2    1    3    3  502    0  0.19531419345E+03  0.96376944796E+02 -0.24200885665E+03  0.32558322493E+03  0.25500000920E-02 0. -1.
       -2    1    3    3    0  502 -0.19531419345E+03 -0.96376944796E+02  0.17101075649E+03  0.27691303417E+03  0.25500000920E-02 0.  1.
</event>
<event>
 5   0  0.5491236E-03  0.6001463E+03  0.7818609E-02  0.9905103E-01
        1   -1    0    0  501    0  0.00000000000E+00  0.00000000000E+00  0.31284282025E+03  0.31284282029E+03  0.50400001928E-02 0.  1.
       -1   -1    0    0    0  501  0.00000000000E+00  0.00000000000E+00 -0.28782470606E+03  0.28782470611E+03  0.50400001928E-02 0. -1.
    10030    2    1    2    0    0  0.00000000000E+00  0.00000000000E+00  0.25018114183E+02  0.60066752639E+03  0.60014629152E+03 0.  0.
        3    1    3    3  502    0  0.10828441717E+03  0.16806577805E+03 -0.21145361044E+03  0.29100560187E+03  0.10100000352E+00 0. -1.
       -3    1    3    3    0  502 -0.10828441717E+03 -0.16806577805E+03  0.23647172462E+03  0.30966192452E+03  0.10100000352E+00 0.  1.
</event>
<event>
 5   0  0.5491236E-03  0.6063809E+03  0.7818609E-02  0.9892255E-01
        1   -1    0    0  501    0  0.00000000000E+00  0.00000000000E+00  0.86908639867E+02  0.86908640013E+02  0.50400001928E-02 0. -1.
       -1   -1    0    0    0  501  0.00000000000E+00  0.00000000000E+00 -0.10577135995E+04  0.10577135995E+04  0.50400001928E-02 0.  1.
    10030    2    1    2    0    0  0.00000000000E+00  0.00000000000E+00 -0.97080495958E+03  0.11446222395E+04  0.60638090467E+03 0.  0.
        3    1    3    3  502    0  0.57333004076E+02  0.92346042868E+02 -0.10196701288E+04  0.10254472423E+04  0.10100000352E+00 0.  1.
       -3    1    3    3    0  502 -0.57333004076E+02 -0.92346042868E+02  0.48865169206E+02  0.11917499718E+03  0.10100000352E+00 0. -1.
</event>
<event>
 5   0  0.5491236E-03  0.6019626E+03  0.7818609E-02  0.9901343E-01
       -1   -1    0    0    0  501  0.00000000000E+00  0.00000000000E+00  0.18724749686E+03  0.18724749693E+03  0.50400001928E-02 0. -1.
        1   -1    0    0  501    0  0.00000000000E+00  0.00000000000E+00 -0.48379675538E+03  0.48379675541E+03  0.50400001928E-02 0.  1.
    10030    2    1    2    0    0  0.00000000000E+00  0.00000000000E+00 -0.29654925852E+03  0.67104425234E+03  0.60196256185E+03 0.  0.
        3    1    3    3  502    0  0.14960003861E+03 -0.50289630478E+02  0.13741857722E+03  0.20926799576E+03  0.10100000352E+00 0. -1.
       -3    1    3    3    0  502 -0.14960003861E+03  0.50289630478E+02 -0.43396783574E+03  0.46177625658E+03  0.10100000352E+00 0.  1.
</event>
<event>
 5   0  0.5653633E-03  0.6011459E+03  0.7818609E-02  0.9903032E-01
       -1   -1    0    0    0  501  0.00000000000E+00  0.00000000000E+00  0.91907799180E+02  0.91907799318E+02  0.50400001928E-02 0. -1.
        1   -1    0    0  501    0  0.00000000000E+00  0.00000000000E+00 -0.98298609222E+03  0.98298609224E+03  0.50400001928E-02 0.  1.
    10030    2    1    2    0    0  0.00000000000E+00  0.00000000000E+00 -0.89107829304E+03  0.10748938916E+04  0.60114586730E+03 0.  0.
        2    1    3    3  502    0 -0.17370024837E+03  0.17060336041E+03 -0.13037701522E+03  0.27618010242E+03  0.25500000920E-02 0. -1.
       -2    1    3    3    0  502  0.17370024837E+03 -0.17060336041E+03 -0.76070127782E+03  0.79871378914E+03  0.25500000920E-02 0.  1.
</event>
<event>
 5   0  0.9571790E-03  0.5991057E+03  0.7818609E-02  0.9907263E-01
       -2   -1    0    0    0  501  0.00000000000E+00  0.00000000000E+00  0.59764725227E+03  0.59764725228E+03  0.25500000920E-02 0.  1.
        2   -1    0    0  501    0  0.00000000000E+00  0.00000000000E+00 -0.15014192518E+03  0.15014192520E+03  0.25500000920E-02 0. -1.
    10030    2    1    2    0    0  0.00000000000E+00  0.00000000000E+00  0.44750532709E+03  0.74778917748E+03  0.59910569701E+03 0.  0.
        5    1    3    3  502    0  0.21068283622E+03 -0.20883137424E+03  0.27539786529E+03  0.40480103082E+03  0.46999998093E+01 0. -1.
       -5    1    3    3    0  502 -0.21068283622E+03  0.20883137424E+03  0.17210746180E+03  0.34298814667E+03  0.46999998093E+01 0.  1.
</event>
<event>
 5   0  0.5503975E-03  0.5976493E+03  0.7818609E-02  0.9910295E-01
       -1   -1    0    0    0  501  0.00000000000E+00  0.00000000000E+00  0.20692002037E+03  0.20692002043E+03  0.50400001928E-02 0. -1.
        1   -1    0    0  501    0  0.00000000000E+00  0.00000000000E+00 -0.43154924788E+03  0.43154924791E+03  0.50400001928E-02 0.  1.
    10030    2    1    2    0    0  0.00000000000E+00  0.00000000000E+00 -0.22462922751E+03  0.63846926834E+03  0.59764932591E+03 0.  0.
        4    1    3    3  502    0 -0.12307721724E+03  0.20511321393E+03  0.79013066597E+02  0.25192083980E+03  0.12699999809E+01 0. -1.
       -4    1    3    3    0  502  0.12307721724E+03 -0.20511321393E+03 -0.30364229411E+03  0.38654842854E+03  0.12699999809E+01 0.  1.
</event>
<event>
 5   0  0.5491236E-03  0.6016607E+03  0.7818609E-02  0.9901967E-01
        1   -1    0    0  501    0  0.00000000000E+00  0.00000000000E+00  0.59312627521E+03  0.59312627523E+03  0.50400001928E-02 0. -1.
       -1   -1    0    0    0  501  0.00000000000E+00  0.00000000000E+00 -0.15257945813E+03  0.15257945822E+03  0.50400001928E-02 0.  1.
    10030    2    1    2    0    0  0.00000000000E+00  0.00000000000E+00  0.44054681707E+03  0.74570573345E+03  0.60166065424E+03 0.  0.
        3    1    3    3  502    0 -0.19228291868E+03 -0.14014404979E+03  0.44842565129E+03  0.50764027662E+03  0.10100000352E+00 0. -1.
       -3    1    3    3    0  502  0.19228291868E+03  0.14014404979E+03 -0.78788342157E+01  0.23806545683E+03  0.10100000352E+00 0.  1.
</event>
<event>
 5   0  0.3794375E-03  0.5996219E+03  0.7818609E-02  0.9906191E-01
       -3   -1    0    0    0  501  0.00000000000E+00  0.00000000000E+00  0.87694440445E+02  0.87694498607E+02  0.10100000352E+00 0. -1.
        3   -1    0    0  501    0  0.00000000000E+00  0.00000000000E+00 -0.10249973696E+04  0.10249973746E+04  0.10100000352E+00 0.  1.
    10030    2    1    2    0    0  0.00000000000E+00  0.00000000000E+00 -0.93730292915E+03  0.11126918732E+04  0.59962190057E+03 0.  0.
        5    1    3    3  502    0 -0.43401866283E+02 -0.28547241172E+03 -0.61810142812E+03  0.68223873043E+03  0.46999998093E+01 0.  1.
       -5    1    3    3    0  502  0.43401866283E+02  0.28547241172E+03 -0.31920150102E+03  0.43045314275E+03  0.46999998093E+01 0. -1.
</event>
<event>
 5   0  0.9530666E-03  0.5989906E+03  0.7818609E-02  0.9907502E-01
        2   -1    0    0  501    0  0.00000000000E+00  0.00000000000E+00  0.48952578927E+03  0.48952578928E+03  0.25500000920E-02 0.  1.
       -2   -1    0    0    0  501  0.00000000000E+00  0.00000000000E+00 -0.18323334046E+03  0.18323334048E+03  0.25500000920E-02 0. -1.
    10030    2    1    2    0    0  0.00000000000E+00  0.00000000000E+00  0.30629244881E+03  0.67275912976E+03  0.59899063639E+03 0.  0.
        2    1    3    3  502    0 -0.12233335580E+03  0.27012413571E+03  0.10596106806E+03  0.31489720003E+03  0.25500000920E-02 0. -1.
       -2    1    3    3    0  502  0.12233335580E+03 -0.27012413571E+03  0.20033138074E+03  0.35786192973E+03  0.25500000920E-02 0.  1.
</event>
<event>
 5   0  0.3794375E-03  0.6137452E+03  0.7818609E-02  0.9877293E-01
       -4   -1    0    0    0  501  0.00000000000E+00  0.00000000000E+00  0.39346417005E+03  0.39346621966E+03  0.12699999809E+01 0. -1.
        4   -1    0    0  501    0  0.00000000000E+00  0.00000000000E+00 -0.23933326898E+03  0.23933663852E+03  0.12699999809E+01 0.  1.
    10030    2    1    2    0    0  0.00000000000E+00  0.00000000000E+00  0.15413090107E+03  0.63280285818E+03  0.61374516101E+03 0.  0.
        3    1    3    3  502    0  0.22962600435E+03  0.20356151113E+03  0.74673994106E+02  0.31581894542E+03  0.10100000352E+00 0. -1.
       -3    1    3    3    0  502 -0.22962600435E+03 -0.20356151113E+03  0.79456906962E+02  0.31698391276E+03  0.10100000352E+00 0.  1.
</event>
<event>
 5   0  0.9571790E-03  0.6000662E+03  0.7818609E-02  0.9905269E-01
        2   -1    0    0  501    0  0.00000000000E+00  0.00000000000E+00  0.12675420138E+04  0.12675420138E+04  0.25500000920E-02 0. -1.
       -2   -1    0    0    0  501  0.00000000000E+00  0.00000000000E+00 -0.71019243848E+02  0.71019243894E+02  0.25500000920E-02 0.  1.
    10030    2    1    2    0    0  0.00000000000E+00  0.00000000000E+00  0.11965227699E+04  0.13385612577E+04  0.60006624766E+03 0.  0.
        5    1    3    3  502    0  0.74914790279E+02 -0.29046026711E+03  0.58869466117E+03  0.66072905692E+03  0.46999998093E+01 0.  1.
       -5    1    3    3    0  502 -0.74914790279E+02  0.29046026711E+03  0.60782810874E+03  0.67783220073E+03  0.46999998093E+01 0. -1.
</event>
<event>
 5   0  0.5785798E-03  0.6002410E+03  0.7818609E-02  0.9904906E-01
       -1   -1    0    0    0  501  0.00000000000E+00  0.00000000000E+00  0.40844383008E+02  0.40844383319E+02  0.50400001928E-02 0. -1.
        1   -1    0    0  501    0  0.00000000000E+00  0.00000000000E+00 -0.22052555523E+04  0.22052555523E+04  0.50400001928E-02 0.  1.
    10030    2    1    2    0    0  0.00000000000E+00  0.00000000000E+00 -0.21644111693E+04  0.22460999356E+04  0.60024096083E+03 0.  0.
        1    1    3    3  502    0 -0.43706410913E+02  0.29442809114E+03 -0.12258783698E+04  0.12614974946E+04  0.50400001928E-02 0. -1.
       -1    1    3    3    0  502  0.43706410913E+02 -0.29442809114E+03 -0.93853279945E+03  0.98460244103E+03  0.50400001928E-02 0.  1.
</event>
<event>
 5   0  0.9428629E-03  0.5941588E+03  0.7818609E-02  0.9917599E-01
       -2   -1    0    0    0  501  0.00000000000E+00  0.00000000000E+00  0.16127742996E+03  0.16127742998E+03  0.25500000920E-02 0.  1.
        2   -1    0    0  501    0  0.00000000000E+00  0.00000000000E+00 -0.54723194225E+03  0.54723194225E+03  0.25500000920E-02 0. -1.
    10030    2    1    2    0    0  0.00000000000E+00  0.00000000000E+00 -0.38595451229E+03  0.70850937223E+03  0.59415877086E+03 0.  0.
        3    1    3    3  502    0 -0.29397088482E+03  0.42513642548E+02 -0.19949337335E+03  0.35780428608E+03  0.10100000352E+00 0. -1.
       -3    1    3    3    0  502  0.29397088482E+03 -0.42513642548E+02 -0.18646113894E+03  0.35070508616E+03  0.10100000352E+00 0.  1.
</event>
<event>
 5   0  0.9571790E-03  0.5996731E+03  0.7818609E-02  0.9906085E-01
        2   -1    0    0  501    0  0.00000000000E+00  0.00000000000E+00  0.15090144324E+04  0.15090144324E+04  0.25500000920E-02 0. -1.
       -2   -1    0    0    0  501  0.00000000000E+00  0.00000000000E+00 -0.59576603900E+02  0.59576603954E+02  0.25500000920E-02 0.  1.
    10030    2    1    2    0    0  0.00000000000E+00  0.00000000000E+00  0.14494378285E+04  0.15685910364E+04  0.59967309483E+03 0.  0.
        5    1    3    3  502    0 -0.18625928835E+03 -0.11766254566E+03  0.12565766317E+04  0.12757522951E+04  0.46999998093E+01 0. -1.
       -5    1    3    3    0  502  0.18625928835E+03  0.11766254566E+03  0.19286119681E+03  0.29283874125E+03  0.46999998093E+01 0.  1.
</event>
<event>
 5   0  0.5785798E-03  0.6011772E+03  0.7818609E-02  0.9902967E-01
       -1   -1    0    0    0  501  0.00000000000E+00  0.00000000000E+00  0.18412702534E+03  0.18412702541E+03  0.50400001928E-02 0. -1.
        1   -1    0    0  501    0  0.00000000000E+00  0.00000000000E+00 -0.49071292993E+03  0.49071292996E+03  0.50400001928E-02 0.  1.
    10030    2    1    2    0    0  0.00000000000E+00  0.00000000000E+00 -0.30658590460E+03  0.67483995537E+03  0.60117721885E+03 0.  0.
        1    1    3    3  502    0 -0.10201808640E+02  0.29046045185E+03 -0.67200172560E+02  0.29830724800E+03  0.50400001928E-02 0.  1.
       -1    1    3    3    0  502  0.10201808640E+02 -0.29046045185E+03 -0.23938573204E+03  0.37653270737E+03  0.50400001928E-02 0. -1.
</event>
<event>
 5   0  0.9530666E-03  0.6004715E+03  0.7818609E-02  0.9904428E-01
        2   -1    0    0  501    0  0.00000000000E+00  0.00000000000E+00  0.80857062528E+03  0.80857062528E+03  0.25500000920E-02 0. -1.
       -2   -1    0    0    0  501  0.00000000000E+00  0.00000000000E+00 -0.11148255642E+03  0.11148255645E+03  0.25500000920E-02 0.  1.
    10030    2    1    2    0    0  0.00000000000E+00  0.00000000000E+00  0.69708806886E+03  0.92005318173E+03  0.60047154926E+03 0.  0.
        2    1    3    3  502    0 -0.18810809643E+03  0.23252900132E+03  0.30837981714E+03  0.42959574488E+03  0.25500000920E-02 0.  1.
       -2    1    3    3    0  502  0.18810809643E+03 -0.23252900132E+03  0.38870825172E+03  0.49045743685E+03  0.25500000920E-02 0. -1.
</event>
<event>
 5   0  0.9571790E-03  0.6036389E+03  0.7818609E-02  0.9897885E-01
       -2   -1    0    0    0  501  0.00000000000E+00  0.00000000000E+00  0.67382738513E+02  0.67382738561E+02  0.25500000920E-02 0. -1.
        2   -1    0    0  501    0  0.00000000000E+00  0.00000000000E+00 -0.13519038137E+04  0.13519038137E+04  0.25500000920E-02 0.  1.
    10030    2    1    2    0    0  0.00000000000E+00  0.00000000000E+00 -0.12845210751E+04  0.14192865522E+04  0.60363890268E+03 0.  0.
        5    1    3    3  502    0 -0.23354983409E+03 -0.18950042693E+03 -0.58385965651E+03  0.65678773231E+03  0.46999998093E+01 0. -1.
       -5    1    3    3    0  502  0.23354983409E+03  0.18950042693E+03 -0.70066141863E+03  0.76249881991E+03  0.46999998093E+01 0.  1.
</event>
<event>
 5   0  0.5653633E-03  0.5992457E+03  0.7818609E-02  0.9906972E-01
       -1   -1    0    0    0  501  0.00000000000E+00  0.00000000000E+00  0.25336166952E+03  0.25336166957E+03  0.50400001928E-02 0. -1.
        1   -1    0    0  501    0  0.00000000000E+00  0.00000000000E+00 -0.35433079860E+03  0.35433079864E+03  0.50400001928E-02 0.  1.
    10030    2    1    2    0    0  0.00000000000E+00  0.00000000000E+00 -0.10096912908E+03  0.60769246821E+03  0.59924566823E+03 0.  0.
        2    1    3    3  502    0  0.24739775988E+03  0.89485115262E+02  0.94926313898E+02  0.27968597127E+03  0.25500000920E-02 0. -1.
       -2    1    3    3    0  502 -0.24739775988E+03 -0.89485115262E+02 -0.19589544298E+03  0.32800649694E+03  0.25500000920E-02 0.  1.
</event>
<event>
 5   0  0.9571790E-03  0.5997212E+03  0.7818609E-02  0.9905985E-01
       -2   -1    0    0    0  501  0.00000000000E+00  0.00000000000E+00  0.50743116907E+03  0.50743116907E+03  0.25500000920E-02 0. -1.
        2   -1    0    0  501    0  0.00000000000E+00  0.00000000000E+00 -0.17719917134E+03  0.17719917136E+03  0.25500000920E-02 0.  1.
    10030    2    1    2    0    0  0.00000000000E+00  0.00000000000E+00  0.33023199773E+03  0.68463034043E+03  0.59972121083E+03 0.  0.
        5    1    3    3  502    0 -0.59414835517E+02  0.15018513881E+03 -0.12325150647E+03  0.20322087108E+03  0.46999998093E+01 0.  1.
       -5    1    3    3    0  502  0.59414835517E+02 -0.15018513881E+03  0.45348350420E+03  0.48140946935E+03  0.46999998093E+01 0. -1.
</event>
<event>
 5   0  0.5503975E-03  0.6017666E+03  0.7818609E-02  0.9901748E-01
        1   -1    0    0  501    0  0.00000000000E+00  0.00000000000E+00  0.61728548323E+03  0.61728548325E+03  0.50400001928E-02 0. -1.
       -1   -1    0    0    0  501  0.00000000000E+00  0.00000000000E+00 -0.14665946741E+03  0.14665946750E+03  0.50400001928E-02 0.  1.
    10030    2    1    2    0    0  0.00000000000E+00  0.00000000000E+00  0.47062601582E+03  0.76394495075E+03  0.60176660011E+03 0.  0.
        4    1    3    3  502    0 -0.14951902522E+03  0.49331216380E+02 -0.90184482586E+02  0.18145071400E+03  0.12699999809E+01 0.  1.
       -4    1    3    3    0  502  0.14951902522E+03 -0.49331216380E+02  0.56081049841E+03  0.58249423674E+03  0.12699999809E+01 0. -1.
</event>
<event>
 5   0  0.5574736E-03  0.6002295E+03  0.7818609E-02  0.9904930E-01
       -1   -1    0    0    0  501  0.00000000000E+00  0.00000000000E+00  0.11237598715E+03  0.11237598726E+03  0.50400001928E-02 0. -1.
        1   -1    0    0  501    0  0.00000000000E+00  0.00000000000E+00 -0.80149575019E+03  0.80149575020E+03  0.50400001928E-02 0.  1.
    10030    2    1    2    0    0  0.00000000000E+00  0.00000000000E+00 -0.68911976304E+03  0.91387173747E+03  0.60022954337E+03 0.  0.
        5    1    3    3  502    0 -0.13918566948E+03  0.34413680586E+02 -0.74591473257E+03  0.75958398500E+03  0.46999998093E+01 0.  1.
       -5    1    3    3    0  502  0.13918566948E+03 -0.34413680586E+02  0.56794969536E+02  0.15428775247E+03  0.46999998093E+01 0. -1.
</event>
<event>
 5   0  0.5574736E-03  0.5997311E+03  0.7818609E-02  0.9905964E-01
       -1   -1    0    0    0  501  0.00000000000E+00  0.00000000000E+00  0.54762515904E+02  0.54762516136E+02  0.50400001928E-02 0.  1.
        1   -1    0    0  501    0  0.00000000000E+00  0.00000000000E+00 -0.16419871382E+04  0.16419871382E+04  0.50400001928E-02 0. -1.
    10030    2    1    2    0    0  0.00000000000E+00  0.00000000000E+00 -0.15872246223E+04  0.16967496543E+04  0.59973109632E+03 0.  0.
        5    1    3    3  502    0  0.94116546103E+02 -0.18441179542E+03 -0.18005352161E+03  0.27442120032E+03  0.46999998093E+01 0.  1.
       -5    1    3    3    0  502 -0.94116546103E+02  0.18441179542E+03 -0.14071711007E+04  0.14223284540E+04  0.46999998093E+01 0. -1.
</event>
<event>
 5   0  0.5574736E-03  0.6011945E+03  0.7818609E-02  0.9902931E-01
        1   -1    0    0  501    0  0.00000000000E+00  0.00000000000E+00  0.20037002633E+03  0.20037002640E+03  0.50400001928E-02 0.  1.
       -1   -1    0    0    0  501  0.00000000000E+00  0.00000000000E+00 -0.45095925349E+03  0.45095925352E+03  0.50400001928E-02 0. -1.
    10030    2    1    2    0    0  0.00000000000E+00  0.00000000000E+00 -0.25058922715E+03  0.65132927991E+03  0.60119453599E+03 0.  0.
        5    1    3    3  502    0  0.10072741423E+03  0.14270075032E+03  0.13969850392E+03  0.22371248985E+03  0.46999998093E+01 0.  1.
       -5    1    3    3    0  502 -0.10072741423E+03 -0.14270075032E+03 -0.39028773107E+03  0.42761679006E+03  0.46999998093E+01 0. -1.
</event>
<event>
 5   0  0.9428629E-03  0.5994248E+03  0.7818609E-02  0.9906600E-01
        2   -1    0    0  501    0  0.00000000000E+00  0.00000000000E+00  0.93454722945E+02  0.93454722980E+02  0.25500000920E-02 0. -1.
       -2   -1    0    0    0  501  0.00000000000E+00  0.00000000000E+00 -0.96118766958E+03  0.96118766959E+03  0.25500000920E-02 0.  1.
    10030    2    1    2    0    0  0.00000000000E+00  0.00000000000E+00 -0.86773294664E+03  0.10546423926E+04  0.59942481557E+03 0.  0.
        3    1    3    3  502    0 -0.12506563616E+03  0.14783995283E+03 -0.31387125937E+02  0.19617142217E+03  0.10100000352E+00 0. -1.
       -3    1    3    3    0  502  0.12506563616E+03 -0.14783995283E+03 -0.83634582070E+03  0.85847097039E+03  0.10100000352E+00 0.  1.
</event>
<event>
 5   0  0.5491236E-03  0.5996259E+03  0.7818609E-02  0.9906183E-01
        1   -1    0    0  501    0  0.00000000000E+00  0.00000000000E+00  0.78728090191E+03  0.78728090193E+03  0.50400001928E-02 0.  1.
       -1   -1    0    0    0  501  0.00000000000E+00  0.00000000000E+00 -0.11417499115E+03  0.11417499126E+03  0.50400001928E-02 0. -1.
    10030    2    1    2    0    0  0.00000000000E+00  0.00000000000E+00  0.67310591076E+03  0.90145589319E+03  0.59962585022E+03 0.  0.
        3    1    3    3  502    0  0.18922723176E+03 -0.23135435342E+03  0.37200168401E+03  0.47719707165E+03  0.10100000352E+00 0.  1.
       -3    1    3    3    0  502 -0.18922723176E+03  0.23135435342E+03  0.30110422676E+03  0.42425882154E+03  0.10100000352E+00 0. -1.
</event>
<event>
 5   0  0.5574736E-03  0.5990735E+03  0.7818609E-02  0.9907330E-01
       -1   -1    0    0    0  501  0.00000000000E+00  0.00000000000E+00  0.61218178673E+02  0.61218178880E+02  0.50400001928E-02 0. -1.
        1   -1    0    0  501    0  0.00000000000E+00  0.00000000000E+00 -0.14656148589E+04  0.14656148589E+04  0.50400001928E-02 0.  1.
    10030    2    1    2    0    0  0.00000000000E+00  0.00000000000E+00 -0.14043966802E+04  0.15268330378E+04  0.59907352625E+03 0.  0.
        5    1    3    3  502    0 -0.25558762534E+02  0.29012562114E+03 -0.88013141399E+03  0.92708118429E+03  0.46999998093E+01 0.  1.
       -5    1    3    3    0  502  0.25558762534E+02 -0.29012562114E+03 -0.52426526623E+03  0.59975185348E+03  0.46999998093E+01 0. -1.
</event>
<event>
 5   0  0.9428629E-03  0.6001464E+03  0.7818609E-02  0.9905102E-01
        2   -1    0    0  501    0  0.00000000000E+00  0.00000000000E+00  0.16005728915E+04  0.16005728915E+04  0.25500000920E-02 0.  1.
       -2   -1    0    0    0  501  0.00000000000E+00  0.00000000000E+00 -0.56257313723E+02  0.56257313781E+02  0.25500000920E-02 0. -1.
    10030    2    1    2    0    0  0.00000000000E+00  0.00000000000E+00  0.15443155778E+04  0.16568302053E+04  0.60014641995E+03 0.  0.
        3    1    3    3  502    0 -0.69986428281E+02  0.11432894064E+03  0.30997317951E+02  0.13758652090E+03  0.10100000352E+00 0. -1.
       -3    1    3    3    0  502  0.69986428281E+02 -0.11432894064E+03  0.15133182598E+04  0.15192436844E+04  0.10100000352E+00 0.  1.
</event>
<event>
 5   0  0.3794375E-03  0.6025255E+03  0.7818609E-02  0.9900180E-01
       -3   -1    0    0    0  501  0.00000000000E+00  0.00000000000E+00  0.17593306599E+03  0.17593309498E+03  0.10100000352E+00 0. -1.
        3   -1    0    0  501    0  0.00000000000E+00  0.00000000000E+00 -0.51587365135E+03  0.51587366124E+03  0.10100000352E+00 0.  1.
    10030    2    1    2    0    0  0.00000000000E+00  0.00000000000E+00 -0.33994058536E+03  0.69180675622E+03  0.60252550683E+03 0.  0.
        5    1    3    3  502    0  0.37153718328E+02  0.82847229629E+02 -0.49974561963E+03  0.50794865545E+03  0.46999998093E+01 0.  1.
       -5    1    3    3    0  502 -0.37153718328E+02 -0.82847229629E+02  0.15980503427E+03  0.18385810077E+03  0.46999998093E+01 0. -1.
</event>
<event>
 5   0  0.9866317E-03  0.5996180E+03  0.7818609E-02  0.9906199E-01
       -2   -1    0    0    0  501  0.00000000000E+00  0.00000000000E+00  0.14175357962E+03  0.14175357965E+03  0.25500000920E-02 0.  1.
        2   -1    0    0  501    0  0.00000000000E+00  0.00000000000E+00 -0.63409651277E+03  0.63409651277E+03  0.25500000920E-02 0. -1.
    10030    2    1    2    0    0  0.00000000000E+00  0.00000000000E+00 -0.49234293314E+03  0.77585009242E+03  0.59961804684E+03 0.  0.
        1    1    3    3  502    0  0.30547501924E+02  0.29313056551E+03 -0.17498572917E+03  0.34275163566E+03  0.50400001928E-02 0. -1.
       -1    1    3    3    0  502 -0.30547501924E+02 -0.29313056551E+03 -0.31735720397E+03  0.43309845676E+03  0.50400001928E-02 0.  1.
</event>
<event>
 5   0  0.9681801E-03  0.5974846E+03  0.7818609E-02  0.9910638E-01
       -2   -1    0    0    0  501  0.00000000000E+00  0.00000000000E+00  0.22879078471E+03  0.22879078472E+03  0.25500000920E-02 0.  1.
        2   -1    0    0  501    0  0.00000000000E+00  0.00000000000E+00 -0.39008111668E+03  0.39008111669E+03  0.25500000920E-02 0. -1.
    10030    2    1    2    0    0  0.00000000000E+00  0.00000000000E+00 -0.16129033197E+03  0.61887190142E+03  0.59748460999E+03 0.  0.
        4    1    3    3  502    0 -0.89756914783E+02  0.99715101318E+01 -0.37560077996E+03  0.38630725281E+03  0.12699999809E+01 0. -1.
       -4    1    3    3    0  502  0.89756914783E+02 -0.99715101318E+01  0.21431044799E+03  0.23256464861E+03  0.12699999809E+01 0.  1.
</event>
<event>
 5   0  0.3794375E-03  0.6006425E+03  0.7818609E-02  0.9904074E-01
        3   -1    0    0  501    0  0.00000000000E+00  0.00000000000E+00  0.31957894420E+03  0.31957896016E+03  0.10100000352E+00 0.  1.
       -3   -1    0    0    0  501  0.00000000000E+00  0.00000000000E+00 -0.28222395622E+03  0.28222397429E+03  0.10100000352E+00 0. -1.
    10030    2    1    2    0    0  0.00000000000E+00  0.00000000000E+00  0.37354987983E+02  0.60180293445E+03  0.60064247002E+03 0.  0.
        5    1    3    3  502    0 -0.81435729882E+02 -0.20107590767E+03 -0.18934699231E+03  0.28798901409E+03  0.46999998093E+01 0. -1.
       -5    1    3    3    0  502  0.81435729882E+02  0.20107590767E+03  0.22670198029E+03  0.31381392036E+03  0.46999998093E+01 0.  1.
</event>
<event>
 5   0  0.5653633E-03  0.5996578E+03  0.7818609E-02  0.9906116E-01
       -1   -1    0    0    0  501  0.00000000000E+00  0.00000000000E+00  0.60418019815E+02  0.60418020025E+02  0.50400001928E-02 0. -1.
        1   -1    0    0  501    0  0.00000000000E+00  0.00000000000E+00 -0.14879229674E+04  0.14879229674E+04  0.50400001928E-02 0.  1.
    10030    2    1    2    0    0  0.00000000000E+00  0.00000000000E+00 -0.14275049476E+04  0.15483409874E+04  0.59965776738E+03 0.  0.
        2    1    3    3  502    0  0.21693547573E+03 -0.75387104908E+02 -0.21606016627E+03  0.31531922186E+03  0.25500000920E-02 0. -1.
       -2    1    3    3    0  502 -0.21693547573E+03  0.75387104908E+02 -0.12114447813E+04  0.12330217655E+04  0.25500000920E-02 0.  1.
</event>
<event>
 5   0  0.3794375E-03  0.5997771E+03  0.7818609E-02  0.9905869E-01
        4   -1    0    0  501    0  0.00000000000E+00  0.00000000000E+00  0.85416510137E+03  0.85416604551E+03  0.12699999809E+01 0. -1.
       -4   -1    0    0    0  501  0.00000000000E+00  0.00000000000E+00 -0.10528292555E+03  0.10529058511E+03  0.12699999809E+01 0.  1.
    10030    2    1    2    0    0  0.00000000000E+00  0.00000000000E+00  0.74888217581E+03  0.95945663062E+03  0.59977705257E+03 0.  0.
        2    1    3    3  502    0 -0.70004300831E+02  0.24418383195E+03  0.62942356494E+03  0.67874912157E+03  0.25500000920E-02 0. -1.
       -2    1    3    3    0  502  0.70004300831E+02 -0.24418383195E+03  0.11945861087E+03  0.28070750905E+03  0.25500000920E-02 0.  1.
</event>
<event>
 5   0  0.5503975E-03  0.6038844E+03  0.7818609E-02  0.9897380E-01
        1   -1    0    0  501    0  0.00000000000E+00  0.00000000000E+00  0.10445921588E+04  0.10445921589E+04  0.50400001928E-02 0.  1.
       -1   -1    0    0    0  501  0.00000000000E+00  0.00000000000E+00 -0.87277201561E+02  0.87277201706E+02  0.50400001928E-02 0. -1.
    10030    2    1    2    0    0  0.00000000000E+00  0.00000000000E+00  0.95731495729E+03  0.11318693606E+04  0.60388436140E+03 0.  0.
        4    1    3    3  502    0 -0.16940459607E+03 -0.72905880682E+02  0.92674919070E+03  0.94492267407E+03  0.12699999809E+01 0.  1.
       -4    1    3    3    0  502  0.16940459607E+03  0.72905880682E+02  0.30565766589E+02  0.18694668650E+03  0.12699999809E+01 0. -1.
</event>
<event>
 5   0  0.9866317E-03  0.6008208E+03  0.7818609E-02  0.9903705E-01
        2   -1    0    0  501    0  0.00000000000E+00  0.00000000000E+00  0.53073248218E+03  0.53073248218E+03  0.25500000920E-02 0.  1.
       -2   -1    0    0    0  501  0.00000000000E+00  0.00000000000E+00 -0.17004124169E+03  0.17004124171E+03  0.25500000920E-02 0. -1.
    10030    2    1    2    0    0  0.00000000000E+00  0.00000000000E+00  0.36069124048E+03  0.70077372389E+03  0.60082080618E+03 0.  0.
        1    1    3    3  502    0  0.17996673975E+03 -0.67984634968E+02 -0.88769116251E+02  0.21187235316E+03  0.50400001928E-02 0. -1.
       -1    1    3    3    0  502 -0.17996673975E+03  0.67984634968E+02  0.44946035674E+03  0.48890137074E+03  0.50400001928E-02 0.  1.
</event>
<event>
 5   0  0.3794375E-03  0.5994626E+03  0.7818609E-02  0.9906522E-01
        4   -1    0    0  501    0  0.00000000000E+00  0.00000000000E+00  0.14985387021E+03  0.14985925169E+03  0.12699999809E+01 0.  1.
       -4   -1    0    0    0  501  0.00000000000E+00  0.00000000000E+00 -0.59949281887E+03  0.59949416409E+03  0.12699999809E+01 0. -1.
    10030    2    1    2    0    0  0.00000000000E+00  0.00000000000E+00 -0.44963894866E+03  0.74935341578E+03  0.59946255729E+03 0.  0.
        2    1    3    3  502    0  0.22111669764E+03  0.39339442133E+02  0.23302552517E+02  0.22579458506E+03  0.25500000920E-02 0.  1.
       -2    1    3    3    0  502 -0.22111669764E+03 -0.39339442133E+02 -0.47294150118E+03  0.52355883072E+03  0.25500000920E-02 0. -1.
</event>
<event>
 5   0  0.9530666E-03  0.5997808E+03  0.7818609E-02  0.9905861E-01
       -2   -1    0    0    0  501  0.00000000000E+00  0.00000000000E+00  0.39269712588E+03  0.39269712589E+03  0.25500000920E-02 0. -1.
        2   -1    0    0  501    0  0.00000000000E+00  0.00000000000E+00 -0.22901685965E+03  0.22901685967E+03  0.25500000920E-02 0.  1.
    10030    2    1    2    0    0  0.00000000000E+00  0.00000000000E+00  0.16368026623E+03  0.62171398556E+03  0.59978083521E+03 0.  0.
        2    1    3    3  502    0 -0.69785649504E+02  0.27569987025E+03 -0.16790920894E+02  0.28489013735E+03  0.25500000920E-02 0. -1.
       -2    1    3    3    0  502  0.69785649504E+02 -0.27569987025E+03  0.18047118712E+03  0.33682384820E+03  0.25500000920E-02 0.  1.
</event>
<event>
 5   0  0.5785798E-03  0.5998529E+03  0.7818609E-02  0.9905711E-01
        1   -1    0    0  501    0  0.00000000000E+00  0.00000000000E+00  0.10903170313E+04  0.10903170313E+04  0.50400001928E-02 0.  1.
       -1   -1    0    0    0  501  0.00000000000E+00  0.00000000000E+00 -0.82504330220E+02  0.82504330373E+02  0.50400001928E-02 0. -1.
    10030    2    1    2    0    0  0.00000000000E+00  0.00000000000E+00  0.10078127011E+04  0.11728213617E+04  0.59985290360E+03 0.  0.
        1    1    3    3  502    0 -0.20560475259E+03 -0.30180352872E+02  0.81063765489E+02  0.22305941381E+03  0.50400001928E-02 0. -1.
       -1    1    3    3    0  502  0.20560475259E+03  0.30180352872E+02  0.92674893558E+03  0.94976194786E+03  0.50400001928E-02 0.  1.
</event>
<event>
 5   0  0.5503975E-03  0.5991025E+03  0.7818609E-02  0.9907270E-01
       -1   -1    0    0    0  501  0.00000000000E+00  0.00000000000E+00  0.41344808819E+03  0.41344808823E+03  0.50400001928E-02 0. -1.
        1   -1    0    0  501    0  0.00000000000E+00  0.00000000000E+00 -0.21703076718E+03  0.21703076724E+03  0.50400001928E-02 0.  1.
    10030    2    1    2    0    0  0.00000000000E+00  0.00000000000E+00  0.19641732101E+03  0.63047885547E+03  0.59910251476E+03 0.  0.
        4    1    3    3  502    0  0.86013370487E+01  0.14990810227E+03 -0.17456273399E+03  0.23026111943E+03  0.12699999809E+01 0.  1.
       -4    1    3    3    0  502 -0.86013370487E+01 -0.14990810227E+03  0.37098005500E+03  0.40021773603E+03  0.12699999809E+01 0. -1.
</event>
<event>
 5   0  0.9530666E-03  0.6007651E+03  0.7818609E-02  0.9903820E-01
       -2   -1    0    0    0  501  0.00000000000E+00  0.00000000000E+00  0.28793800179E+03  0.28793800180E+03  0.25500000920E-02 0. -1.
        2   -1    0    0  501    0  0.00000000000E+00  0.00000000000E+00 -0.31336497703E+03  0.31336497704E+03  0.25500000920E-02 0.  1.
    10030    2    1    2    0    0  0.00000000000E+00  0.00000000000E+00 -0.25426975239E+02  0.60130297884E+03  0.60076512989E+03 0.  0.
        2    1    3    3  502    0 -0.15629841292E+03  0.15330556454E+03  0.19313515961E+03  0.29194687853E+03  0.25500000920E-02 0. -1.
       -2    1    3    3    0  502  0.15629841292E+03 -0.15330556454E+03 -0.21856213485E+03  0.30935610031E+03  0.25500000920E-02 0.  1.
</event>
<event>
 5   0  0.9571790E-03  0.5998165E+03  0.7818609E-02  0.9905787E-01
       -2   -1    0    0    0  501  0.00000000000E+00  0.00000000000E+00  0.57972602954E+03  0.57972602954E+03  0.25500000920E-02 0.  1.
        2   -1    0    0  501    0  0.00000000000E+00  0.00000000000E+00 -0.15515081405E+03  0.15515081407E+03  0.25500000920E-02 0. -1.
    10030    2    1    2    0    0  0.00000000000E+00  0.00000000000E+00  0.42457521549E+03  0.73487684362E+03  0.59981652335E+03 0.  0.
        5    1    3    3  502    0  0.23469410904E+03  0.17774506366E+03  0.14246108914E+03  0.32709613937E+03  0.46999998093E+01 0. -1.
       -5    1    3    3    0  502 -0.23469410904E+03 -0.17774506366E+03  0.28211412635E+03  0.40778070425E+03  0.46999998093E+01 0.  1.
</event>
<event>
 5   0  0.5503975E-03  0.6013659E+03  0.7818609E-02  0.9902576E-01
       -1   -1    0    0    0  501  0.00000000000E+00  0.00000000000E+00  0.22753335895E+03  0.22753335900E+03  0.50400001928E-02 0. -1.
        1   -1    0    0  501    0  0.00000000000E+00  0.00000000000E+00 -0.39734943031E+03  0.39734943034E+03  0.50400001928E-02 0.  1.
    10030    2    1    2    0    0  0.00000000000E+00  0.00000000000E+00 -0.16981607136E+03  0.62488278934E+03  0.60136594710E+03 0.  0.
        4    1    3    3  502    0 -0.53290048007E+02  0.17881607423E+03  0.16009541924E+03  0.24586006951E+03  0.12699999809E+01 0. -1.
       -4    1    3    3    0  502  0.53290048007E+02 -0.17881607423E+03 -0.32991149060E+03  0.37902271983E+03  0.12699999809E+01 0.  1.
</event>
<event>
 5   0  0.5653633E-03  0.5996024E+03  0.7818609E-02  0.9906231E-01
        1   -1    0    0  501    0  0.00000000000E+00  0.00000000000E+00  0.31913308328E+03  0.31913308332E+03  0.50400001928E-02 0. -1.
       -1   -1    0    0    0  501  0.00000000000E+00  0.00000000000E+00 -0.28164039817E+03  0.28164039821E+03  0.50400001928E-02 0.  1.
    10030    2    1    2    0    0  0.00000000000E+00  0.00000000000E+00  0.37492685111E+02  0.60077348153E+03  0.59960243051E+03 0.  0.
        2    1    3    3  502    0  0.68359298070E+02 -0.14894810573E+03  0.27027894055E+03  0.31608422539E+03  0.25500000920E-02 0. -1.
       -2    1    3    3    0  502 -0.68359298070E+02  0.14894810573E+03 -0.23278625544E+03  0.28468925614E+03  0.25500000920E-02 0.  1.
</event>
<event>
 5   0  0.3794375E-03  0.6012107E+03  0.7818609E-02  0.9902897E-01
        3   -1    0    0  501    0  0.00000000000E+00  0.00000000000E+00  0.23094315588E+03  0.23094317796E+03  0.10100000352E+00 0. -1.
       -3   -1    0    0    0  501  0.00000000000E+00  0.00000000000E+00 -0.39128059398E+03  0.39128060702E+03  0.10100000352E+00 0.  1.
    10030    2    1    2    0    0  0.00000000000E+00  0.00000000000E+00 -0.16033743810E+03  0.62222378498E+03  0.60121073222E+03 0.  0.
        4    1    3    3  502    0  0.17612149776E+03  0.11739680491E+03  0.14074229663E+03  0.25418654319E+03  0.12699999809E+01 0. -1.
       -4    1    3    3    0  502 -0.17612149776E+03 -0.11739680491E+03 -0.30107973473E+03  0.36803724179E+03  0.12699999809E+01 0.  1.
</event>
<event>
 5   0  0.9681801E-03  0.6011713E+03  0.7818609E-02  0.9902979E-01
        2   -1    0    0  501    0  0.00000000000E+00  0.00000000000E+00  0.23920050996E+04  0.23920050996E+04  0.25500000920E-02 0. -1.
       -2   -1    0    0    0  501  0.00000000000E+00  0.00000000000E+00 -0.37772387304E+02  0.37772387390E+02  0.25500000920E-02 0.  1.
    10030    2    1    2    0    0  0.00000000000E+00  0.00000000000E+00  0.23542327123E+04  0.24297774870E+04  0.60117133385E+03 0.  0.
        4    1    3    3  502    0 -0.83930551498E+02  0.26097863068E+03  0.16753489405E+04  0.16976306632E+04  0.12699999809E+01 0. -1.
       -4    1    3    3    0  502  0.83930551498E+02 -0.26097863068E+03  0.67888377178E+03  0.73214682382E+03  0.12699999809E+01 0.  1.
</event>
<event>
 5   0  0.5574736E-03  0.5993340E+03  0.7818609E-02  0.9906789E-01
       -1   -1    0    0    0  501  0.00000000000E+00  0.00000000000E+00  0.18361720403E+03  0.18361720410E+03  0.50400001928E-02 0.  1.
        1   -1    0    0  501    0  0.00000000000E+00  0.00000000000E+00 -0.48906254387E+03  0.48906254390E+03  0.50400001928E-02 0. -1.
    10030    2    1    2    0    0  0.00000000000E+00  0.00000000000E+00 -0.30544533984E+03  0.67267974800E+03  0.59933395344E+03 0.  0.
        5    1    3    3  502    0 -0.88916106525E+02 -0.46013453364E+02 -0.46969265888E+03  0.48026721280E+03  0.46999998093E+01 0. -1.
       -5    1    3    3    0  502  0.88916106525E+02  0.46013453364E+02  0.16424731904E+03  0.19241253520E+03  0.46999998093E+01 0.  1.
</event>
<event>
 5   0  0.9681801E-03  0.6000443E+03  0.7818609E-02  0.9905314E-01
        2   -1    0    0  501    0  0.00000000000E+00  0.00000000000E+00  0.22759960030E+03  0.22759960032E+03  0.25500000920E-02 0.  1.
       -2   -1    0    0    0  501  0.00000000000E+00  0.00000000000E+00 -0.39548966570E+03  0.39548966570E+03  0.25500000920E-02 0. -1.
    10030    2    1    2    0    0  0.00000000000E+00  0.00000000000E+00 -0.16789006539E+03  0.62308926602E+03  0.60004429784E+03 0.  0.
        4    1    3    3  502    0  0.12693906711E+03 -0.15946799996E+03  0.14466484243E+03  0.24994619282E+03  0.12699999809E+01 0.  1.
       -4    1    3    3    0  502 -0.12693906711E+03  0.15946799996E+03 -0.31255490783E+03  0.37314307320E+03  0.12699999809E+01 0. -1.
</event>
<event>
 5   0  0.9681801E-03  0.5896416E+03  0.7818609E-02  0.9927132E-01
        2   -1    0    0  501    0  0.00000000000E+00  0.00000000000E+00  0.43883734358E+03  0.43883734359E+03  0.25500000920E-02 0.  1.
       -2   -1    0    0    0  501  0.00000000000E+00  0.00000000000E+00 -0.19806727548E+03  0.19806727550E+03  0.25500000920E-02 0. -1.
    10030    2    1    2    0    0  0.00000000000E+00  0.00000000000E+00  0.24077006810E+03  0.63690461908E+03  0.58964164381E+03 0.  0.
        4    1    3    3  502    0 -0.28586889967E+03  0.48295393827E+01  0.42693757049E+02  0.28908255229E+03  0.12699999809E+01 0.  1.
       -4    1    3    3    0  502  0.28586889967E+03 -0.48295393827E+01  0.19807631105E+03  0.34782206679E+03  0.12699999809E+01 0. -1.
</event>
<event>
 5   0  0.9571790E-03  0.6007649E+03  0.7818609E-02  0.9903820E-01
        2   -1    0    0  501    0  0.00000000000E+00  0.00000000000E+00  0.17087537105E+03  0.17087537107E+03  0.25500000920E-02 0. -1.
       -2   -1    0    0    0  501  0.00000000000E+00  0.00000000000E+00 -0.52804335455E+03  0.52804335455E+03  0.25500000920E-02 0.  1.
    10030    2    1    2    0    0  0.00000000000E+00  0.00000000000E+00 -0.35716798350E+03  0.69891872562E+03  0.60076485965E+03 0.  0.
        5    1    3    3  502    0  0.12230186119E+02  0.25204833057E+03  0.10906449552E+02  0.25262418537E+03  0.46999998093E+01 0. -1.
       -5    1    3    3    0  502 -0.12230186119E+02 -0.25204833057E+03 -0.36807443305E+03  0.44629454025E+03  0.46999998093E+01 0.  1.
</event>
<event>
 5   0  0.5653633E-03  0.5988843E+03  0.7818609E-02  0.9907723E-01
        1   -1    0    0  501    0  0.00000000000E+00  0.00000000000E+00  0.60997749742E+03  0.60997749744E+03  0.50400001928E-02 0. -1.
       -1   -1    0    0    0  501  0.00000000000E+00  0.00000000000E+00 -0.14699821291E+03  0.14699821300E+03  0.50400001928E-02 0.  1.
    10030    2    1    2    0    0  0.00000000000E+00  0.00000000000E+00  0.46297928451E+03  0.75697571044E+03  0.59888430294E+03 0.  0.
        2    1    3    3  502    0 -0.26738993979E+03 -0.46004178017E+02  0.71349063016E+02  0.28054313946E+03  0.25500000920E-02 0.  1.
       -2    1    3    3    0  502  0.26738993979E+03  0.46004178017E+02  0.39163022149E+03  0.47643257098E+03  0.25500000920E-02 0. -1.
</event>
<event>
 5   0  0.5503975E-03  0.5907725E+03  0.7818609E-02  0.9924737E-01
        1   -1    0    0  501    0  0.00000000000E+00  0.00000000000E+00  0.82526458530E+03  0.82526458531E+03  0.50400001928E-02 0.  1.
       -1   -1    0    0    0  501  0.00000000000E+00  0.00000000000E+00 -0.10572736110E+03  0.10572736122E+03  0.50400001928E-02 0. -1.
    10030    2    1    2    0    0  0.00000000000E+00  0.00000000000E+00  0.71953722420E+03  0.93099194653E+03  0.59077253449E+03 0.  0.
        4    1    3    3  502    0  0.45707177991E+02 -0.26560296311E+03  0.16924008601E+03  0.31824188873E+03  0.12699999809E+01 0. -1.
       -4    1    3    3    0  502 -0.45707177991E+02  0.26560296311E+03  0.55029713819E+03  0.61275005780E+03  0.12699999809E+01 0.  1.
</event>
<event>
 5   0  0.5574736E-03  0.5998581E+03  0.7818609E-02  0.9905701E-01
        1   -1    0    0  501    0  0.00000000000E+00  0.00000000000E+00  0.90947984333E+03  0.90947984334E+03  0.50400001928E-02 0.  1.
       -1   -1    0    0    0  501  0.00000000000E+00  0.00000000000E+00 -0.98910858749E+02  0.98910858878E+02  0.50400001928E-02 0. -1.
    10030    2    1    2    0    0  0.00000000000E+00  0.00000000000E+00  0.81056898458E+03  0.10083907022E+04  0.59985809119E+03 0.  0.
        5    1    3    3  502    0 -0.28341166949E+03 -0.20582302503E+02  0.24413567505E+03  0.37466001042E+03  0.46999998093E+01 0. -1.
       -5    1    3    3    0  502  0.28341166949E+03  0.20582302503E+02  0.56643330953E+03  0.63373069180E+03  0.46999998093E+01 0.  1.
</event>
<event>
 5   0  0.9866317E-03  0.5995697E+03  0.7818609E-02  0.9906299E-01
        2   -1    0    0  501    0  0.00000000000E+00  0.00000000000E+00  0.33613541556E+03  0.33613541557E+03  0.25500000920E-02 0. -1.
       -2   -1    0    0    0  501  0.00000000000E+00  0.00000000000E+00 -0.26736533217E+03  0.26736533218E+03  0.25500000920E-02 0.  1.
    10030    2    1    2    0    0  0.00000000000E+00  0.00000000000E+00  0.68770083393E+02  0.60350074775E+03  0.59956970251E+03 0.  0.
        1    1    3    3  502    0 -0.75096679805E+02 -0.19665359065E+03  0.24922958320E+03  0.32623232703E+03  0.50400001928E-02 0. -1.
       -1    1    3    3    0  502  0.75096679805E+02  0.19665359065E+03 -0.18045949981E+03  0.27726842072E+03  0.50400001928E-02 0.  1.
</event>
<event>
 5   0  0.3794375E-03  0.6022759E+03  0.7818609E-02  0.9900696E-01
       -4   -1    0    0    0  501  0.00000000000E+00  0.00000000000E+00  0.15428317874E+03  0.15428840572E+03  0.12699999809E+01 0.  1.
        4   -1    0    0  501    0  0.00000000000E+00  0.00000000000E+00 -0.58776085708E+03  0.58776222915E+03  0.12699999809E+01 0. -1.
    10030    2    1    2    0    0  0.00000000000E+00  0.00000000000E+00 -0.43347767835E+03  0.74205063488E+03  0.60227588952E+03 0.  0.
        2    1    3    3  502    0 -0.20870287299E+03 -0.23139961338E+02  0.49206516566E+02  0.21567018404E+03  0.25500000920E-02 0.  1.
       -2    1    3    3    0  502  0.20870287299E+03  0.23139961338E+02 -0.48268419491E+03  0.52638045084E+03  0.25500000920E-02 0. -1.
</event>
<event>
 5   0  0.9681801E-03  0.6000004E+03  0.7818609E-02  0.9905405E-01
        2   -1    0    0  501    0  0.00000000000E+00  0.00000000000E+00  0.17094751912E+04  0.17094751912E+04  0.25500000920E-02 0.  1.
       -2   -1    0    0    0  501  0.00000000000E+00  0.00000000000E+00 -0.52647800863E+02  0.52647800925E+02  0.25500000920E-02 0. -1.
    10030    2    1    2    0    0  0.00000000000E+00  0.00000000000E+00  0.16568273903E+04  0.17621229921E+04  0.60000036501E+03 0.  0.
        4    1    3    3  502    0  0.26930833468E+03  0.13128429432E+03  0.78330127672E+03  0.83864476870E+03  0.12699999809E+01 0.  1.
       -4    1    3    3    0  502 -0.26930833468E+03 -0.13128429432E+03  0.87352611361E+03  0.92347822342E+03  0.12699999809E+01 0. -1.
</event>
<event>
 5   0  0.5574736E-03  0.6000252E+03  0.7818609E-02  0.9905354E-01
       -1   -1    0    0    0  501  0.00000000000E+00  0.00000000000E+00  0.16600782474E+03  0.16600782482E+03  0.50400001928E-02 0. -1.
        1   -1    0    0  501    0  0.00000000000E+00  0.00000000000E+00 -0.54218874735E+03  0.54218874737E+03  0.50400001928E-02 0.  1.
    10030    2    1    2    0    0  0.00000000000E+00  0.00000000000E+00 -0.37618092260E+03  0.70819657219E+03  0.60002524808E+03 0.  0.
        5    1    3    3  502    0 -0.89232730017E+02  0.28313976978E+03 -0.23892298224E+03  0.38109958118E+03  0.46999998093E+01 0.  1.
       -5    1    3    3    0  502  0.89232730017E+02 -0.28313976978E+03 -0.13725794037E+03  0.32709699101E+03  0.46999998093E+01 0. -1.
</event>
<event>
 5   0  0.5785798E-03  0.5984168E+03  0.7818609E-02  0.9908696E-01
       -1   -1    0    0    0  501  0.00000000000E+00  0.00000000000E+00  0.37515542788E+03  0.37515542792E+03  0.50400001928E-02 0.  1.
        1   -1    0    0  501    0  0.00000000000E+00  0.00000000000E+00 -0.23863624152E+03  0.23863624157E+03  0.50400001928E-02 0. -1.
    10030    2    1    2    0    0  0.00000000000E+00  0.00000000000E+00  0.13651918636E+03  0.61379166949E+03  0.59841684910E+03 0.  0.
        1    1    3    3  502    0 -0.51718822818E+02  0.42979046503E+02 -0.23078499976E+03  0.24038251020E+03  0.50400001928E-02 0. -1.
       -1    1    3    3    0  502  0.51718822818E+02 -0.42979046503E+02  0.36730418612E+03  0.37340915929E+03  0.50400001928E-02 0.  1.
</event>
<event>
 5   0  0.3794375E-03  0.6003349E+03  0.7818609E-02  0.9904712E-01
        4   -1    0    0  501    0  0.00000000000E+00  0.00000000000E+00  0.51606020491E+03  0.51606176761E+03  0.12699999809E+01 0.  1.
       -4   -1    0    0    0  501  0.00000000000E+00  0.00000000000E+00 -0.17458884513E+03  0.17459346420E+03  0.12699999809E+01 0. -1.
    10030    2    1    2    0    0  0.00000000000E+00  0.00000000000E+00  0.34147135978E+03  0.69065523181E+03  0.60033487295E+03 0.  0.
        5    1    3    3  502    0 -0.22168492850E+02  0.74480844047E+02 -0.16277490615E+03  0.18043447086E+03  0.46999998093E+01 0. -1.
       -5    1    3    3    0  502  0.22168492850E+02 -0.74480844047E+02  0.50424626593E+03  0.51022076095E+03  0.46999998093E+01 0.  1.
</event>
<event>
 5   0  0.5653633E-03  0.5999954E+03  0.7818609E-02  0.9905416E-01
       -1   -1    0    0    0  501  0.00000000000E+00  0.00000000000E+00  0.11176216500E+03  0.11176216512E+03  0.50400001928E-02 0. -1.
        1   -1    0    0  501    0  0.00000000000E+00  0.00000000000E+00 -0.80526921859E+03  0.80526921861E+03  0.50400001928E-02 0.  1.
    10030    2    1    2    0    0  0.00000000000E+00  0.00000000000E+00 -0.69350705359E+03  0.91703138373E+03  0.59999543778E+03 0.  0.
        2    1    3    3  502    0 -0.28997504111E+03  0.63036540377E+02 -0.27944326116E+03  0.40761215156E+03  0.25500000920E-02 0. -1.
       -2    1    3    3    0  502  0.28997504111E+03 -0.63036540377E+02 -0.41406379243E+03  0.50941923217E+03  0.25500000920E-02 0.  1.
</event>
<event>
 5   0  0.5491236E-03  0.5986616E+03  0.7818609E-02  0.9908187E-01
        1   -1    0    0  501    0  0.00000000000E+00  0.00000000000E+00  0.31993518986E+03  0.31993518990E+03  0.50400001928E-02 0. -1.
       -1   -1    0    0    0  501  0.00000000000E+00  0.00000000000E+00 -0.28005336115E+03  0.28005336120E+03  0.50400001928E-02 0.  1.
    10030    2    1    2    0    0  0.00000000000E+00  0.00000000000E+00  0.39881828712E+02  0.59998855110E+03  0.59866159155E+03 0.  0.
        3    1    3    3  502    0 -0.11005527887E+03 -0.10318336054E+03  0.27904819040E+03  0.31721739086E+03  0.10100000352E+00 0. -1.
       -3    1    3    3    0  502  0.11005527887E+03  0.10318336054E+03 -0.23916636169E+03  0.28277116024E+03  0.10100000352E+00 0.  1.
</event>
<event>
 5   0  0.9866317E-03  0.5997658E+03  0.7818609E-02  0.9905892E-01
        2   -1    0    0  501    0  0.00000000000E+00  0.00000000000E+00  0.19159761248E+04  0.19159761248E+04  0.25500000920E-02 0.  1.
       -2   -1    0    0    0  501  0.00000000000E+00  0.00000000000E+00 -0.46936779544E+02  0.46936779613E+02  0.25500000920E-02 0. -1.
    10030    2    1    2    0    0  0.00000000000E+00  0.00000000000E+00  0.18690393453E+04  0.19629129044E+04  0.59976578445E+03 0.  0.
        1    1    3    3  502    0  0.16681209007E+03  0.20780184736E+03  0.13847153766E+04  0.14101221775E+04  0.50400001928E-02 0.  1.
       -1    1    3    3    0  502 -0.16681209007E+03 -0.20780184736E+03  0.48432396865E+03  0.55279072695E+03  0.50400001928E-02 0. -1.
</event>
<event>
 5   0  0.5653633E-03  0.5998410E+03  0.7818609E-02  0.9905736E-01
        1   -1    0    0  501    0  0.00000000000E+00  0.00000000000E+00  0.25099097220E+03  0.25099097225E+03  0.50400001928E-02 0. -1.
       -1   -1    0    0    0  501  0.00000000000E+00  0.00000000000E+00 -0.35838863358E+03  0.35838863361E+03  0.50400001928E-02 0.  1.
    10030    2    1    2    0    0  0.00000000000E+00  0.00000000000E+00 -0.10739766137E+03  0.60937960587E+03  0.59984101758E+03 0.  0.
        2    1    3    3  502    0 -0.24613336137E+02  0.29617474450E+03 -0.94676539005E+02  0.31191175457E+03  0.25500000920E-02 0.  1.
       -2    1    3    3    0  502  0.24613336137E+02 -0.29617474450E+03 -0.12721122370E+02  0.29746785130E+03  0.25500000920E-02 0. -1.
</event>
<event>
 5   0  0.5503975E-03  0.5998429E+03  0.7818609E-02  0.9905732E-01
        1   -1    0    0  501    0  0.00000000000E+00  0.00000000000E+00  0.67212032292E+03  0.67212032294E+03  0.50400001928E-02 0. -1.
       -1   -1    0    0    0  501  0.00000000000E+00  0.00000000000E+00 -0.13383448923E+03  0.13383448933E+03  0.50400001928E-02 0.  1.
    10030    2    1    2    0    0  0.00000000000E+00  0.00000000000E+00  0.53828583369E+03  0.80595481227E+03  0.59984291332E+03 0.  0.
        4    1    3    3  502    0 -0.13503265439E+03  0.25214663857E+03  0.39036245241E+03  0.48393822152E+03  0.12699999809E+01 0. -1.
       -4    1    3    3    0  502  0.13503265439E+03 -0.25214663857E+03  0.14792338127E+03  0.32201659075E+03  0.12699999809E+01 0.  1.
</event>
<event>
 5   0  0.9681801E-03  0.6004267E+03  0.7818609E-02  0.9904521E-01
        2   -1    0    0  501    0  0.00000000000E+00  0.00000000000E+00  0.34899669292E+03  0.34899669293E+03  0.25500000920E-02 0. -1.
       -2   -1    0    0    0  501  0.00000000000E+00  0.00000000000E+00 -0.25824898749E+03  0.25824898750E+03  0.25500000920E-02 0.  1.
    10030    2    1    2    0    0  0.00000000000E+00  0.00000000000E+00  0.90747705435E+02  0.60724568043E+03  0.60042665693E+03 0.  0.
        4    1    3    3  502    0  0.20773885819E+03  0.14889016050E+03  0.20465122947E+03  0.32742549033E+03  0.12699999809E+01 0. -1.
       -4    1    3    3    0  502 -0.20773885819E+03 -0.14889016050E+03 -0.11390352403E+03  0.27982019009E+03  0.12699999809E+01 0.  1.
</event>
<event>
 5   0  0.5574736E-03  0.6000217E+03  0.7818609E-02  0.9905361E-01
       -1   -1    0    0    0  501  0.00000000000E+00  0.00000000000E+00  0.15410697770E+03  0.15410697778E+03  0.50400001928E-02 0.  1.
        1   -1    0    0  501    0  0.00000000000E+00  0.00000000000E+00 -0.58405217282E+03  0.58405217284E+03  0.50400001928E-02 0. -1.
    10030    2    1    2    0    0  0.00000000000E+00  0.00000000000E+00 -0.42994519512E+03  0.73815915063E+03  0.60002171698E+03 0.  0.
        5    1    3    3  502    0  0.78883363509E+02 -0.28149702597E+03 -0.29769306842E+03  0.41726060640E+03  0.46999998093E+01 0. -1.
       -5    1    3    3    0  502 -0.78883363509E+02  0.28149702597E+03 -0.13225212670E+03  0.32089854423E+03  0.46999998093E+01 0.  1.
</event>
<event>
 5   0  0.5574736E-03  0.6017459E+03  0.7818609E-02  0.9901790E-01
        1   -1    0    0  501    0  0.00000000000E+00  0.00000000000E+00  0.11640101354E+04  0.11640101354E+04  0.50400001928E-02 0.  1.
       -1   -1    0    0    0  501  0.00000000000E+00  0.00000000000E+00 -0.77769546778E+02  0.77769546941E+02  0.50400001928E-02 0. -1.
    10030    2    1    2    0    0  0.00000000000E+00  0.00000000000E+00  0.10862405886E+04  0.12417796823E+04  0.60174592905E+03 0.  0.
        5    1    3    3  502    0 -0.24734520176E+03 -0.15910715519E+03  0.67376138878E+03  0.73516748750E+03  0.46999998093E+01 0.  1.
       -5    1    3    3    0  502  0.24734520176E+03  0.15910715519E+03  0.41247919982E+03  0.50661219483E+03  0.46999998093E+01 0. -1.
</event>
<event>
 5   0  0.3794375E-03  0.5999121E+03  0.7818609E-02  0.9905588E-01
        3   -1    0    0  501    0  0.00000000000E+00  0.00000000000E+00  0.37299945702E+03  0.37299947069E+03  0.10100000352E+00 0.  1.
       -3   -1    0    0    0  501  0.00000000000E+00  0.00000000000E+00 -0.24121653200E+03  0.24121655314E+03  0.10100000352E+00 0. -1.
    10030    2    1    2    0    0  0.00000000000E+00  0.00000000000E+00  0.13178292502E+03  0.61421602383E+03  0.59991214741E+03 0.  0.
        4    1    3    3  502    0  0.49333596965E+02 -0.27769412445E+03 -0.38641897545E+02  0.28467988986E+03  0.12699999809E+01 0. -1.
       -4    1    3    3    0  502 -0.49333596965E+02  0.27769412445E+03  0.17042482256E+03  0.32953613397E+03  0.12699999809E+01 0.  1.
</event>
<event>
 5   0  0.5653633E-03  0.5992915E+03  0.7818609E-02  0.9906877E-01
       -1   -1    0    0    0  501  0.00000000000E+00  0.00000000000E+00  0.38090082073E+03  0.38090082076E+03  0.50400001928E-02 0. -1.
        1   -1    0    0  501    0  0.00000000000E+00  0.00000000000E+00 -0.23572426361E+03  0.23572426367E+03  0.50400001928E-02 0.  1.
    10030    2    1    2    0    0  0.00000000000E+00  0.00000000000E+00  0.14517655712E+03  0.61662508443E+03  0.59929146666E+03 0.  0.
        2    1    3    3  502    0  0.42002470211E+02  0.19864316623E+03  0.29933522094E+03  0.36169723457E+03  0.25500000920E-02 0. -1.
       -2    1    3    3    0  502 -0.42002470211E+02 -0.19864316623E+03 -0.15415866383E+03  0.25492784986E+03  0.25500000920E-02 0.  1.
</event>
<event>
 5   0  0.9866317E-03  0.5898458E+03  0.7818609E-02  0.9926700E-01
        2   -1    0    0  501    0  0.00000000000E+00  0.00000000000E+00  0.15672248717E+03  0.15672248719E+03  0.25500000920E-02 0.  1.
       -2   -1    0    0    0  501  0.00000000000E+00  0.00000000000E+00 -0.55499057655E+03  0.55499057655E+03  0.25500000920E-02 0. -1.
    10030    2    1    2    0    0  0.00000000000E+00  0.00000000000E+00 -0.39826808937E+03  0.71171306375E+03  0.58984575449E+03 0.  0.
        1    1    3    3  502    0 -0.69832166776E+02 -0.16124132127E+03 -0.48493534397E+03  0.51578831225E+03  0.50400001928E-02 0. -1.
       -1    1    3    3    0  502  0.69832166776E+02  0.16124132127E+03  0.86667254596E+02  0.19592475149E+03  0.50400001928E-02 0.  1.
</event>
<event>
 5   0  0.5653633E-03  0.5997705E+03  0.7818609E-02  0.9905882E-01
       -1   -1    0    0    0  501  0.00000000000E+00  0.00000000000E+00  0.11361780795E+03  0.11361780807E+03  0.50400001928E-02 0. -1.
        1   -1    0    0  501    0  0.00000000000E+00  0.00000000000E+00 -0.79152339080E+03  0.79152339081E+03  0.50400001928E-02 0.  1.
    10030    2    1    2    0    0  0.00000000000E+00  0.00000000000E+00 -0.67790558284E+03  0.90514119888E+03  0.59977046498E+03 0.  0.
        2    1    3    3  502    0 -0.97479470785E+01 -0.18265141948E+03  0.19686441832E+02  0.18396771323E+03  0.25500000920E-02 0. -1.
       -2    1    3    3    0  502  0.97479470785E+01  0.18265141948E+03 -0.69759202467E+03  0.72117348565E+03  0.25500000920E-02 0.  1.
</event>
<event>
 5   0  0.9866317E-03  0.5962134E+03  0.7818609E-02  0.9913293E-01
        2   -1    0    0  501    0  0.00000000000E+00  0.00000000000E+00  0.38213923200E+03  0.38213923201E+03  0.25500000920E-02 0. -1.
       -2   -1    0    0    0  501  0.00000000000E+00  0.00000000000E+00 -0.23255298307E+03  0.23255298309E+03  0.25500000920E-02 0.  1.
    10030    2    1    2    0    0  0.00000000000E+00  0.00000000000E+00  0.14958624893E+03  0.61469221510E+03  0.59621344620E+03 0.  0.
        1    1    3    3  502    0 -0.23062555890E+03  0.11390456036E+03 -0.80559578455E+02  0.26954080024E+03  0.50400001928E-02 0.  1.
       -1    1    3    3    0  502  0.23062555890E+03 -0.11390456036E+03  0.23014582739E+03  0.34515141485E+03  0.50400001928E-02 0. -1.
</event>
<event>
 5   0  0.9428629E-03  0.6007522E+03  0.7818609E-02  0.9903847E-01
       -2   -1    0    0    0  501  0.00000000000E+00  0.00000000000E+00  0.17294429571E+03  0.17294429573E+03  0.25500000920E-02 0. -1.
        2   -1    0    0  501    0  0.00000000000E+00  0.00000000000E+00 -0.52170438992E+03  0.52170438993E+03  0.25500000920E-02 0.  1.
    10030    2    1    2    0    0  0.00000000000E+00  0.00000000000E+00 -0.34876009422E+03  0.69464868566E+03  0.60075218948E+03 0.  0.
        3    1    3    3  502    0 -0.41200992808E+02 -0.12531519051E+03  0.13765848204E+03  0.19066013390E+03  0.10100000352E+00 0. -1.
       -3    1    3    3    0  502  0.41200992808E+02  0.12531519051E+03 -0.48641857625E+03  0.50398855176E+03  0.10100000352E+00 0.  1.
</event>
<event>
 5   0  0.9428629E-03  0.6004362E+03  0.7818609E-02  0.9904501E-01
       -2   -1    0    0    0  501  0.00000000000E+00  0.00000000000E+00  0.12994934016E+03  0.12994934018E+03  0.25500000920E-02 0. -1.
        2   -1    0    0  501    0  0.00000000000E+00  0.00000000000E+00 -0.69358502115E+03  0.69358502115E+03  0.25500000920E-02 0.  1.
    10030    2    1    2    0    0  0.00000000000E+00  0.00000000000E+00 -0.56363568099E+03  0.82353436134E+03  0.60043622760E+03 0.  0.
        3    1    3    3  502    0  0.12486349708E+02 -0.34222268922E+02  0.12690667959E+03  0.13203176945E+03  0.10100000352E+00 0. -1.
       -3    1    3    3    0  502 -0.12486349708E+02  0.34222268922E+02 -0.69054236058E+03  0.69150259188E+03  0.10100000352E+00 0.  1.
</event>
<event>
 5   0  0.5785798E-03  0.6095439E+03  0.7818609E-02  0.9885801E-01
        1   -1    0    0  501    0  0.00000000000E+00  0.00000000000E+00  0.27142710283E+03  0.27142710287E+03  0.50400001928E-02 0. -1.
       -1   -1    0    0    0  501  0.00000000000E+00  0.00000000000E+00 -0.34221320659E+03  0.34221320663E+03  0.50400001928E-02 0.  1.
    10030    2    1    2    0    0  0.00000000000E+00  0.00000000000E+00 -0.70786103765E+02  0.61364030950E+03  0.60954389256E+03 0.  0.
        1    1    3    3  502    0  0.19598721138E+03 -0.97228354406E+02  0.17821585388E+03  0.28217942966E+03  0.50400001928E-02 0. -1.
       -1    1    3    3    0  502 -0.19598721138E+03  0.97228354406E+02 -0.24900195765E+03  0.33146087984E+03  0.50400001928E-02 0.  1.
</event>
<event>
 5   0  0.5491236E-03  0.6014646E+03  0.7818609E-02  0.9902372E-01
        1   -1    0    0  501    0  0.00000000000E+00  0.00000000000E+00  0.12767936711E+03  0.12767936721E+03  0.50400001928E-02 0.  1.
       -1   -1    0    0    0  501  0.00000000000E+00  0.00000000000E+00 -0.70833620404E+03  0.70833620406E+03  0.50400001928E-02 0. -1.
    10030    2    1    2    0    0  0.00000000000E+00  0.00000000000E+00 -0.58065683693E+03  0.83601557127E+03  0.60146460672E+03 0.  0.
        3    1    3    3  502    0 -0.10583958584E+03  0.92030314389E+02 -0.66009163555E+03  0.67482781079E+03  0.10100000352E+00 0. -1.
       -3    1    3    3    0  502  0.10583958584E+03 -0.92030314389E+02  0.79434798619E+02  0.16118776048E+03  0.10100000352E+00 0.  1.
</event>
<event>
 5   0  0.9428629E-03  0.5982437E+03  0.7818609E-02  0.9909057E-01
       -2   -1    0    0    0  501  0.00000000000E+00  0.00000000000E+00  0.53052074608E+03  0.53052074609E+03  0.25500000920E-02 0.  1.
        2   -1    0    0  501    0  0.00000000000E+00  0.00000000000E+00 -0.16865290733E+03  0.16865290735E+03  0.25500000920E-02 0. -1.
    10030    2    1    2    0    0  0.00000000000E+00  0.00000000000E+00  0.36186783875E+03  0.69917365344E+03  0.59824365015E+03 0.  0.
        3    1    3    3  502    0 -0.26033572525E+03 -0.78821041423E+02  0.35494434334E+02  0.27431243407E+03  0.10100000352E+00 0.  1.
       -3    1    3    3    0  502  0.26033572525E+03  0.78821041423E+02  0.32637340442E+03  0.42486121937E+03  0.10100000352E+00 0. -1.
</event>
<event>
 5   0  0.3794375E-03  0.6001972E+03  0.7818609E-02  0.9904997E-01
        3   -1    0    0  501    0  0.00000000000E+00  0.00000000000E+00  0.15534120190E+03  0.15534123474E+03  0.10100000352E+00 0. -1.
       -3   -1    0    0    0  501  0.00000000000E+00  0.00000000000E+00 -0.57975054949E+03  0.57975055829E+03  0.10100000352E+00 0.  1.
    10030    2    1    2    0    0  0.00000000000E+00  0.00000000000E+00 -0.42440934759E+03  0.73509179303E+03  0.60019717581E+03 0.  0.
        5    1    3    3  502    0  0.27382835688E+02 -0.17295242754E+03 -0.51063872838E+03  0.53984846281E+03  0.46999998093E+01 0.  1.
       -5    1    3    3    0  502 -0.27382835688E+02  0.17295242754E+03  0.86229380790E+02  0.19524333021E+03  0.46999998093E+01 0. -1.
</event>
<event>
 5   0  0.5491236E-03  0.6002621E+03  0.7818609E-02  0.9904862E-01
        1   -1    0    0  501    0  0.00000000000E+00  0.00000000000E+00  0.25937211459E+04  0.25937211459E+04  0.50400001928E-02 0.  1.
       -1   -1    0    0    0  501  0.00000000000E+00  0.00000000000E+00 -0.34729504350E+02  0.34729504716E+02  0.50400001928E-02 0. -1.
    10030    2    1    2    0    0  0.00000000000E+00  0.00000000000E+00  0.25589916416E+04  0.26284506506E+04  0.60026211044E+03 0.  0.
        3    1    3    3  502    0 -0.12954413258E+03 -0.14909031047E+03  0.22690457944E+04  0.22776256124E+04  0.10100000352E+00 0.  1.
       -3    1    3    3    0  502  0.12954413258E+03  0.14909031047E+03  0.28994584714E+03  0.35082503821E+03  0.10100000352E+00 0. -1.
</event>
<event>
 5   0  0.9530666E-03  0.5991523E+03  0.7818609E-02  0.9907166E-01
       -2   -1    0    0    0  501  0.00000000000E+00  0.00000000000E+00  0.19926700612E+03  0.19926700613E+03  0.25500000920E-02 0. -1.
        2   -1    0    0  501    0  0.00000000000E+00  0.00000000000E+00 -0.45037994328E+03  0.45037994329E+03  0.25500000920E-02 0.  1.
    10030    2    1    2    0    0  0.00000000000E+00  0.00000000000E+00 -0.25111293716E+03  0.64964694942E+03  0.59915227754E+03 0.  0.
        2    1    3    3  502    0 -0.30790199560E+02  0.16189117744E+03  0.14570583735E+03  0.21997040884E+03  0.25500000920E-02 0. -1.
       -2    1    3    3    0  502  0.30790199560E+02 -0.16189117744E+03 -0.39681877451E+03  0.42967654058E+03  0.25500000920E-02 0.  1.
</event>
<event>
 5   0  0.5785798E-03  0.5999000E+03  0.7818609E-02  0.9905614E-01
       -1   -1    0    0    0  501  0.00000000000E+00  0.00000000000E+00  0.21403414253E+03  0.21403414259E+03  0.50400001928E-02 0. -1.
        1   -1    0    0  501    0  0.00000000000E+00  0.00000000000E+00 -0.42035345799E+03  0.42035345802E+03  0.50400001928E-02 0.  1.
    10030    2    1    2    0    0  0.00000000000E+00  0.00000000000E+00 -0.20631931546E+03  0.63438760061E+03  0.59989996489E+03 0.  0.
        1    1    3    3  502    0 -0.89935178568E+02  0.10165866031E+03  0.17970070029E+03  0.22520026925E+03  0.50400001928E-02 0. -1.
       -1    1    3    3    0  502  0.89935178568E+02 -0.10165866031E+03 -0.38602001574E+03  0.40918733136E+03  0.50400001928E-02 0.  1.
</event>
<event>
 5   0  0.5785798E-03  0.6010939E+03  0.7818609E-02  0.9903139E-01
       -1   -1    0    0    0  501  0.00000000000E+00  0.00000000000E+00  0.37732821139E+02  0.37732821475E+02  0.50400001928E-02 0. -1.
        1   -1    0    0  501    0  0.00000000000E+00  0.00000000000E+00 -0.23938963686E+04  0.23938963686E+04  0.50400001928E-02 0.  1.
    10030    2    1    2    0    0  0.00000000000E+00  0.00000000000E+00 -0.23561635475E+04  0.24316291901E+04  0.60109388258E+03 0.  0.
        1    1    3    3  502    0 -0.44387436216E+02 -0.99903604664E+02 -0.45549170189E+02  0.11843015515E+03  0.50400001928E-02 0. -1.
       -1    1    3    3    0  502  0.44387436216E+02  0.99903604664E+02 -0.23106143773E+04  0.23131990350E+04  0.50400001928E-02 0.  1.
</event>
<event>
 5   0  0.5653633E-03  0.5996145E+03  0.7818609E-02  0.9906206E-01
       -1   -1    0    0    0  501  0.00000000000E+00  0.00000000000E+00  0.28092496510E+03  0.28092496514E+03  0.50400001928E-02 0. -1.
        1   -1    0    0  501    0  0.00000000000E+00  0.00000000000E+00 -0.31995871296E+03  0.31995871300E+03  0.50400001928E-02 0.  1.
    10030    2    1    2    0    0  0.00000000000E+00  0.00000000000E+00 -0.39033747862E+02  0.60088367814E+03  0.59961451048E+03 0.  0.
        2    1    3    3  502    0 -0.19351408120E+03 -0.36785983742E+02 -0.24601182209E+03  0.31515508062E+03  0.25500000920E-02 0.  1.
       -2    1    3    3    0  502  0.19351408120E+03  0.36785983742E+02  0.20697807423E+03  0.28572859752E+03  0.25500000920E-02 0. -1.
</event>
<event>
 5   0  0.9681801E-03  0.5999035E+03  0.7818609E-02  0.9905606E-01
       -2   -1    0    0    0  501  0.00000000000E+00  0.00000000000E+00  0.22440050434E+03  0.22440050435E+03  0.25500000920E-02 0.  1.
        2   -1    0    0  501    0  0.00000000000E+00  0.00000000000E+00 -0.40093966928E+03  0.40093966929E+03  0.25500000920E-02 0. -1.
    10030    2    1    2    0    0  0.00000000000E+00  0.00000000000E+00 -0.17653916494E+03  0.62534017364E+03  0.59990353892E+03 0.  0.
        4    1    3    3  502    0  0.27962267192E+03  0.10594615266E+03 -0.11284959716E+03  0.31960924641E+03  0.12699999809E+01 0.  1.
       -4    1    3    3    0  502 -0.27962267192E+03 -0.10594615266E+03 -0.63689567786E+02  0.30573092722E+03  0.12699999809E+01 0. -1.
</event>
<event>
 5   0  0.5491236E-03  0.5997198E+03  0.7818609E-02  0.9905988E-01
        1   -1    0    0  501    0  0.00000000000E+00  0.00000000000E+00  0.90667211962E+03  0.90667211963E+03  0.50400001928E-02 0.  1.
       -1   -1    0    0    0  501  0.00000000000E+00  0.00000000000E+00 -0.99171420690E+02  0.99171420818E+02  0.50400001928E-02 0. -1.
    10030    2    1    2    0    0  0.00000000000E+00  0.00000000000E+00  0.80750069893E+03  0.10058435405E+04  0.59971980883E+03 0.  0.
        3    1    3    3  502    0  0.26311354003E+03  0.60807222946E+02  0.62236279202E+03  0.67842590487E+03  0.10100000352E+00 0.  1.
       -3    1    3    3    0  502 -0.26311354003E+03 -0.60807222946E+02  0.18513790691E+03  0.32741763558E+03  0.10100000352E+00 0. -1.
</event>
<event>
 5   0  0.5574736E-03  0.5995522E+03  0.7818609E-02  0.9906335E-01
        1   -1    0    0  501    0  0.00000000000E+00  0.00000000000E+00  0.12619716225E+04  0.12619716225E+04  0.50400001928E-02 0. -1.
       -1   -1    0    0    0  501  0.00000000000E+00  0.00000000000E+00 -0.71210574981E+02  0.71210575159E+02  0.50400001928E-02 0.  1.
    10030    2    1    2    0    0  0.00000000000E+00  0.00000000000E+00  0.11907610475E+04  0.13331821977E+04  0.59955224951E+03 0.  0.
        5    1    3    3  502    0  0.13300625898E+03 -0.15176194459E+03  0.10882107276E+04  0.11067732516E+04  0.46999998093E+01 0.  1.
       -5    1    3    3    0  502 -0.13300625898E+03  0.15176194459E+03  0.10255031992E+03  0.22640894609E+03  0.46999998093E+01 0. -1.
</event>
<event>
 5   0  0.5653633E-03  0.6004080E+03  0.7818609E-02  0.9904560E-01
       -1   -1    0    0    0  501  0.00000000000E+00  0.00000000000E+00  0.24524108280E+03  0.24524108286E+03  0.50400001928E-02 0. -1.
        1   -1    0    0  501    0  0.00000000000E+00  0.00000000000E+00 -0.36748506582E+03  0.36748506586E+03  0.50400001928E-02 0.  1.
    10030    2    1    2    0    0  0.00000000000E+00  0.00000000000E+00 -0.12224398302E+03  0.61272614871E+03  0.60040797957E+03 0.  0.
        2    1    3    3  502    0  0.16495271192E+03 -0.18866167426E+03  0.10755614880E+03  0.27271037688E+03  0.25500000920E-02 0. -1.
       -2    1    3    3    0  502 -0.16495271192E+03  0.18866167426E+03 -0.22980013182E+03  0.34001577183E+03  0.25500000920E-02 0.  1.
</event>
<event>
 5   0  0.9530666E-03  0.5973384E+03  0.7818609E-02  0.9910943E-01
       -2   -1    0    0    0  501  0.00000000000E+00  0.00000000000E+00  0.18350831681E+03  0.18350831683E+03  0.25500000920E-02 0.  1.
        2   -1    0    0  501    0  0.00000000000E+00  0.00000000000E+00 -0.48609951339E+03  0.48609951340E+03  0.25500000920E-02 0. -1.
    10030    2    1    2    0    0  0.00000000000E+00  0.00000000000E+00 -0.30259119658E+03  0.66960783023E+03  0.59733844180E+03 0.  0.
        2    1    3    3  502    0 -0.12389830673E+03  0.63338324765E+02 -0.44754301185E+03  0.46867609418E+03  0.25500000920E-02 0. -1.
       -2    1    3    3    0  502  0.12389830673E+03 -0.63338324765E+02  0.14495181527E+03  0.20093173605E+03  0.25500000920E-02 0.  1.
</event>
<event>
 5   0  0.3794375E-03  0.5972299E+03  0.7818609E-02  0.9911170E-01
       -3   -1    0    0    0  501  0.00000000000E+00  0.00000000000E+00  0.19458546587E+03  0.19458549208E+03  0.10100000352E+00 0. -1.
        3   -1    0    0  501    0  0.00000000000E+00  0.00000000000E+00 -0.45826072463E+03  0.45826073576E+03  0.10100000352E+00 0.  1.
    10030    2    1    2    0    0  0.00000000000E+00  0.00000000000E+00 -0.26367525877E+03  0.65284622784E+03  0.59722990140E+03 0.  0.
        2    1    3    3  502    0  0.27179171519E+03 -0.11372889366E+03 -0.78667620984E+02  0.30494850761E+03  0.25500000920E-02 0.  1.
       -2    1    3    3    0  502 -0.27179171519E+03  0.11372889366E+03 -0.18500763778E+03  0.34789772023E+03  0.25500000920E-02 0. -1.
</event>
<event>
 5   0  0.9681801E-03  0.6000433E+03  0.7818609E-02  0.9905316E-01
       -2   -1    0    0    0  501  0.00000000000E+00  0.00000000000E+00  0.55590808882E+02  0.55590808940E+02  0.25500000920E-02 0.  1.
        2   -1    0    0  501    0  0.00000000000E+00  0.00000000000E+00 -0.16192063088E+04  0.16192063088E+04  0.25500000920E-02 0. -1.
    10030    2    1    2    0    0  0.00000000000E+00  0.00000000000E+00 -0.15636154999E+04  0.16747971177E+04  0.60004329344E+03 0.  0.
        4    1    3    3  502    0 -0.45589344692E+02  0.21950944136E+03 -0.13382761351E+04  0.13569257201E+04  0.12699999809E+01 0. -1.
       -4    1    3    3    0  502  0.45589344692E+02 -0.21950944136E+03 -0.22533936480E+03  0.31787139762E+03  0.12699999809E+01 0.  1.
</event>
<event>
 5   0  0.9681801E-03  0.5932083E+03  0.7818609E-02  0.9919598E-01
       -2   -1    0    0    0  501  0.00000000000E+00  0.00000000000E+00  0.54281617498E+03  0.54281617499E+03  0.25500000920E-02 0. -1.
        2   -1    0    0  501    0  0.00000000000E+00  0.00000000000E+00 -0.16206963001E+03  0.16206963003E+03  0.25500000920E-02 0.  1.
    10030    2    1    2    0    0  0.00000000000E+00  0.00000000000E+00  0.38074654497E+03  0.70488580501E+03  0.59320828264E+03 0.  0.
        4    1    3    3  502    0 -0.25696401968E+03 -0.67939647423E+02  0.34678235737E+03  0.43692781942E+03  0.12699999809E+01 0. -1.
       -4    1    3    3    0  502  0.25696401968E+03  0.67939647423E+02  0.33964187600E+02  0.26795798559E+03  0.12699999809E+01 0.  1.
</event>
<event>
 5   0  0.5503975E-03  0.6001847E+03  0.7818609E-02  0.9905023E-01
       -1   -1    0    0    0  501  0.00000000000E+00  0.00000000000E+00  0.20907789243E+03  0.20907789249E+03  0.50400001928E-02 0.  1.
        1   -1    0    0  501    0  0.00000000000E+00  0.00000000000E+00 -0.43072664795E+03  0.43072664798E+03  0.50400001928E-02 0. -1.
    10030    2    1    2    0    0  0.00000000000E+00  0.00000000000E+00 -0.22164875552E+03  0.63980454047E+03  0.60018470422E+03 0.  0.
        4    1    3    3  502    0 -0.72296144438E+02  0.28379291969E+03 -0.18063521641E+03  0.34408697749E+03  0.12699999809E+01 0.  1.
       -4    1    3    3    0  502  0.72296144438E+02 -0.28379291969E+03 -0.41013539111E+02  0.29571756298E+03  0.12699999809E+01 0. -1.
</event>
<event>
 5   0  0.9530666E-03  0.6012508E+03  0.7818609E-02  0.9902814E-01
        2   -1    0    0  501    0  0.00000000000E+00  0.00000000000E+00  0.15501315961E+03  0.15501315963E+03  0.25500000920E-02 0.  1.
       -2   -1    0    0    0  501  0.00000000000E+00  0.00000000000E+00 -0.58301909819E+03  0.58301909819E+03  0.25500000920E-02 0. -1.
    10030    2    1    2    0    0  0.00000000000E+00  0.00000000000E+00 -0.42800593858E+03  0.73803225783E+03  0.60125080469E+03 0.  0.
        2    1    3    3  502    0 -0.21279622004E+03 -0.21234793572E+03 -0.21562932373E+03  0.36995929820E+03  0.25500000920E-02 0.  1.
       -2    1    3    3    0  502  0.21279622004E+03  0.21234793572E+03 -0.21237661484E+03  0.36807295962E+03  0.25500000920E-02 0. -1.
</event>
<event>
 5   0  0.3794375E-03  0.5995549E+03  0.7818609E-02  0.9906330E-01
        3   -1    0    0  501    0  0.00000000000E+00  0.00000000000E+00  0.95884056279E+03  0.95884056811E+03  0.10100000352E+00 0.  1.
       -3   -1    0    0    0  501  0.00000000000E+00  0.00000000000E+00 -0.93724131219E+02  0.93724185639E+02  0.10100000352E+00 0. -1.
    10030    2    1    2    0    0  0.00000000000E+00  0.00000000000E+00  0.86511643157E+03  0.10525647537E+04  0.59955493548E+03 0.  0.
        4    1    3    3  502    0 -0.21018349251E+03  0.96285371653E+02  0.76757887554E+03  0.80164014145E+03  0.12699999809E+01 0.  1.
       -4    1    3    3    0  502  0.21018349251E+03 -0.96285371653E+02  0.97537556033E+02  0.25092461229E+03  0.12699999809E+01 0. -1.
</event>
<event>
 5   0  0.9681801E-03  0.6003307E+03  0.7818609E-02  0.9904720E-01
        2   -1    0    0  501    0  0.00000000000E+00  0.00000000000E+00  0.39810558946E+03  0.39810558947E+03  0.25500000920E-02 0.  1.
       -2   -1    0    0    0  501  0.00000000000E+00  0.00000000000E+00 -0.22631991675E+03  0.22631991676E+03  0.25500000920E-02 0. -1.
    10030    2    1    2    0    0  0.00000000000E+00  0.00000000000E+00  0.17178567271E+03  0.62442550624E+03  0.60033065513E+03 0.  0.
        4    1    3    3  502    0  0.13297480708E+03 -0.20190500220E+03  0.27093674254E+03  0.36312017376E+03  0.12699999809E+01 0.  1.
       -4    1    3    3    0  502 -0.13297480708E+03  0.20190500220E+03 -0.99151069827E+02  0.26130533248E+03  0.12699999809E+01 0. -1.
</event>
<event>
 5   0  0.9571790E-03  0.6002251E+03  0.7818609E-02  0.9904939E-01
        2   -1    0    0  501    0  0.00000000000E+00  0.00000000000E+00  0.53290850395E+03  0.53290850395E+03  0.25500000920E-02 0.  1.
       -2   -1    0    0    0  501  0.00000000000E+00  0.00000000000E+00 -0.16901126316E+03  0.16901126318E+03  0.25500000920E-02 0. -1.
    10030    2    1    2    0    0  0.00000000000E+00  0.00000000000E+00  0.36389724078E+03  0.70191976713E+03  0.60022508915E+03 0.  0.
        5    1    3    3  502    0 -0.29643917847E+03 -0.26807315973E+02  0.22648877897E+03  0.37405089990E+03  0.46999998093E+01 0. -1.
       -5    1    3    3    0  502  0.29643917847E+03  0.26807315973E+02  0.13740846181E+03  0.32786886723E+03  0.46999998093E+01 0.  1.
</event>
<event>
 5   0  0.3794375E-03  0.6006506E+03  0.7818609E-02  0.9904057E-01
       -4   -1    0    0    0  501  0.00000000000E+00  0.00000000000E+00  0.91857469745E+03  0.91857557539E+03  0.12699999809E+01 0.  1.
        4   -1    0    0  501    0  0.00000000000E+00  0.00000000000E+00 -0.98185452740E+02  0.98193665934E+02  0.12699999809E+01 0. -1.
    10030    2    1    2    0    0  0.00000000000E+00  0.00000000000E+00  0.82038924471E+03  0.10167692413E+04  0.60065062829E+03 0.  0.
        1    1    3    3  502    0  0.29834003337E+03 -0.33139411685E+02  0.42628032176E+03  0.52136350933E+03  0.50400001928E-02 0. -1.
       -1    1    3    3    0  502 -0.29834003337E+03  0.33139411685E+02  0.39410892295E+03  0.49540573199E+03  0.50400001928E-02 0.  1.
</event>
<event>
 5   0  0.9571790E-03  0.6005971E+03  0.7818609E-02  0.9904168E-01
        2   -1    0    0  501    0  0.00000000000E+00  0.00000000000E+00  0.17399512594E+04  0.17399512594E+04  0.25500000920E-02 0. -1.
       -2   -1    0    0    0  501  0.00000000000E+00  0.00000000000E+00 -0.51828592513E+02  0.51828592576E+02  0.25500000920E-02 0.  1.
    10030    2    1    2    0    0  0.00000000000E+00  0.00000000000E+00  0.16881226668E+04  0.17917798519E+04  0.60059711911E+03 0.  0.
        5    1    3    3  502    0 -0.71230062859E+02  0.20550437649E+03  0.14616278349E+04  0.14777292676E+04  0.46999998093E+01 0. -1.
       -5    1    3    3    0  502  0.71230062859E+02 -0.20550437649E+03  0.22649483191E+03  0.31405058429E+03  0.46999998093E+01 0.  1.
</event>
<event>
 5   0  0.5574736E-03  0.5998184E+03  0.7818609E-02  0.9905783E-01
       -1   -1    0    0    0  501  0.00000000000E+00  0.00000000000E+00  0.99704912005E+02  0.99704912133E+02  0.50400001928E-02 0.  1.
        1   -1    0    0  501    0  0.00000000000E+00  0.00000000000E+00 -0.90211731361E+03  0.90211731362E+03  0.50400001928E-02 0. -1.
    10030    2    1    2    0    0  0.00000000000E+00  0.00000000000E+00 -0.80241240160E+03  0.10018222258E+04  0.59981839732E+03 0.  0.
        5    1    3    3  502    0  0.26129329313E+03  0.14046501680E+03 -0.47436882861E+03  0.55951093067E+03  0.46999998093E+01 0. -1.
       -5    1    3    3    0  502 -0.26129329313E+03 -0.14046501680E+03 -0.32804357299E+03  0.44231129508E+03  0.46999998093E+01 0.  1.
</event>
<event>
 5   0  0.5653633E-03  0.5990768E+03  0.7818609E-02  0.9907323E-01
        1   -1    0    0  501    0  0.00000000000E+00  0.00000000000E+00  0.12372677038E+04  0.12372677038E+04  0.50400001928E-02 0. -1.
       -1   -1    0    0    0  501  0.00000000000E+00  0.00000000000E+00 -0.72517258189E+02  0.72517258364E+02  0.50400001928E-02 0.  1.
    10030    2    1    2    0    0  0.00000000000E+00  0.00000000000E+00  0.11647504456E+04  0.13097849622E+04  0.59907682861E+03 0.  0.
        2    1    3    3  502    0 -0.13207211853E+03 -0.26876583810E+03  0.56768578827E+03  0.64182963038E+03  0.25500000920E-02 0.  1.
       -2    1    3    3    0  502  0.13207211853E+03  0.26876583810E+03  0.59706465732E+03  0.66795533177E+03  0.25500000920E-02 0. -1.
</event>
<event>
 5   0  0.9866317E-03  0.5995792E+03  0.7818609E-02  0.9906279E-01
        2   -1    0    0  501    0  0.00000000000E+00  0.00000000000E+00  0.18575220014E+04  0.18575220014E+04  0.25500000920E-02 0.  1.
       -2   -1    0    0    0  501  0.00000000000E+00  0.00000000000E+00 -0.48383710679E+02  0.48383710746E+02  0.25500000920E-02 0. -1.
    10030    2    1    2    0    0  0.00000000000E+00  0.00000000000E+00  0.18091382907E+04  0.19059057122E+04  0.59957920965E+03 0.  0.
        1    1    3    3  502    0 -0.55888205399E+02 -0.19813871809E+03  0.21184206107E+03  0.29539719357E+03  0.50400001928E-02 0. -1.
       -1    1    3    3    0  502  0.55888205399E+02  0.19813871809E+03  0.15972962297E+04  0.16105085186E+04  0.50400001928E-02 0.  1.
</event>
<event>
 5   0  0.5503975E-03  0.6014425E+03  0.7818609E-02  0.9902418E-01
       -1   -1    0    0    0  501  0.00000000000E+00  0.00000000000E+00  0.28082304170E+03  0.28082304175E+03  0.50400001928E-02 0.  1.
        1   -1    0    0  501    0  0.00000000000E+00  0.00000000000E+00 -0.32202942673E+03  0.32202942677E+03  0.50400001928E-02 0. -1.
    10030    2    1    2    0    0  0.00000000000E+00  0.00000000000E+00 -0.41206385026E+02  0.60285246852E+03  0.60144254308E+03 0.  0.
        4    1    3    3  502    0 -0.21454457421E+03 -0.16886823825E+03 -0.14693759658E+03  0.31006148810E+03  0.12699999809E+01 0.  1.
       -4    1    3    3    0  502  0.21454457421E+03  0.16886823825E+03  0.10573121156E+03  0.29279098042E+03  0.12699999809E+01 0. -1.
</event>
<event>
 5   0  0.9428629E-03  0.6008153E+03  0.7818609E-02  0.9903716E-01
       -2   -1    0    0    0  501  0.00000000000E+00  0.00000000000E+00  0.29875916219E+03  0.29875916220E+03  0.25500000920E-02 0.  1.
        2   -1    0    0  501    0  0.00000000000E+00  0.00000000000E+00 -0.30206523601E+03  0.30206523602E+03  0.25500000920E-02 0. -1.
    10030    2    1    2    0    0  0.00000000000E+00  0.00000000000E+00 -0.33060738229E+01  0.60082439823E+03  0.60081530222E+03 0.  0.
        3    1    3    3  502    0 -0.18762669930E+03 -0.19423964020E+03  0.12992376469E+03  0.29968818953E+03  0.10100000352E+00 0.  1.
       -3    1    3    3    0  502  0.18762669930E+03  0.19423964020E+03 -0.13322983851E+03  0.30113620869E+03  0.10100000352E+00 0. -1.
</event>
<event>
 5   0  0.5491236E-03  0.5934320E+03  0.7818609E-02  0.9919127E-01
       -1   -1    0    0    0  501  0.00000000000E+00  0.00000000000E+00  0.19037494942E+03  0.19037494949E+03  0.50400001928E-02 0. -1.
        1   -1    0    0  501    0  0.00000000000E+00  0.00000000000E+00 -0.46245776743E+03  0.46245776746E+03  0.50400001928E-02 0.  1.
    10030    2    1    2    0    0  0.00000000000E+00  0.00000000000E+00 -0.27208281801E+03  0.65283271695E+03  0.59343196448E+03 0.  0.
        3    1    3    3  502    0  0.16937813590E+03 -0.21656544852E+03 -0.25879378568E+03  0.37757619115E+03  0.10100000352E+00 0.  1.
       -3    1    3    3    0  502 -0.16937813590E+03  0.21656544852E+03 -0.13289032324E+02  0.27525652580E+03  0.10100000352E+00 0. -1.
</event>
<event>
 5   0  0.5491236E-03  0.5985736E+03  0.7818609E-02  0.9908370E-01
       -1   -1    0    0    0  501  0.00000000000E+00  0.00000000000E+00  0.13417185389E+03  0.13417185399E+03  0.50400001928E-02 0.  1.
        1   -1    0    0  501    0  0.00000000000E+00  0.00000000000E+00 -0.66759604403E+03  0.66759604405E+03  0.50400001928E-02 0. -1.
    10030    2    1    2    0    0  0.00000000000E+00  0.00000000000E+00 -0.53342419014E+03  0.80176789804E+03  0.59857363431E+03 0.  0.
        3    1    3    3  502    0 -0.10330845205E+03  0.75426274993E+02  0.95713402659E+02  0.15975864569E+03  0.10100000352E+00 0.  1.
       -3    1    3    3    0  502  0.10330845205E+03 -0.75426274993E+02 -0.62913759280E+03  0.64200925235E+03  0.10100000352E+00 0. -1.
</event>
<event>
 5   0  0.5574736E-03  0.6020306E+03  0.7818609E-02  0.9901202E-01
        1   -1    0    0  501    0  0.00000000000E+00  0.00000000000E+00  0.46132270372E+03  0.46132270375E+03  0.50400001928E-02 0. -1.
       -1   -1    0    0    0  501  0.00000000000E+00  0.00000000000E+00 -0.19641394304E+03  0.19641394310E+03  0.50400001928E-02 0.  1.
    10030    2    1    2    0    0  0.00000000000E+00  0.00000000000E+00  0.26490876069E+03  0.65773664685E+03  0.60203060148E+03 0.  0.
        5    1    3    3  502    0 -0.66439895269E+02 -0.65023690860E+02  0.44520398739E+03  0.45483076022E+03  0.46999998093E+01 0. -1.
       -5    1    3    3    0  502  0.66439895269E+02  0.65023690860E+02 -0.18029522671E+03  0.20290588663E+03  0.46999998093E+01 0.  1.
</event>
<event>
 5   0  0.9530666E-03  0.6000903E+03  0.7818609E-02  0.9905219E-01
       -2   -1    0    0    0  501  0.00000000000E+00  0.00000000000E+00  0.15599549234E+03  0.15599549236E+03  0.25500000920E-02 0. -1.
        2   -1    0    0  501    0  0.00000000000E+00  0.00000000000E+00 -0.57711341212E+03  0.57711341212E+03  0.25500000920E-02 0.  1.
    10030    2    1    2    0    0  0.00000000000E+00  0.00000000000E+00 -0.42111791977E+03  0.73310890449E+03  0.60009029611E+03 0.  0.
        2    1    3    3  502    0  0.13863435271E+03 -0.25350779265E+03 -0.30936589977E+03  0.42331187632E+03  0.25500000920E-02 0.  1.
       -2    1    3    3    0  502 -0.13863435271E+03  0.25350779265E+03 -0.11175202000E+03  0.30979702817E+03  0.25500000920E-02 0. -1.
</event>
<event>
 5   0  0.9571790E-03  0.6026920E+03  0.7818609E-02  0.9899837E-01
       -2   -1    0    0    0  501  0.00000000000E+00  0.00000000000E+00  0.11791412381E+03  0.11791412384E+03  0.25500000920E-02 0.  1.
        2   -1    0    0  501    0  0.00000000000E+00  0.00000000000E+00 -0.77013168423E+03  0.77013168423E+03  0.25500000920E-02 0. -1.
    10030    2    1    2    0    0  0.00000000000E+00  0.00000000000E+00 -0.65221756042E+03  0.88804580807E+03  0.60269197034E+03 0.  0.
        5    1    3    3  502    0 -0.32626829114E+02  0.16645433356E+03  0.40827783931E+02  0.17452951922E+03  0.46999998093E+01 0.  1.
       -5    1    3    3    0  502  0.32626829114E+02 -0.16645433356E+03 -0.69304534435E+03  0.71351628885E+03  0.46999998093E+01 0. -1.
</event>
<event>
 5   0  0.5503975E-03  0.5997251E+03  0.7818609E-02  0.9905976E-01
       -1   -1    0    0    0  501  0.00000000000E+00  0.00000000000E+00  0.73133297752E+02  0.73133297926E+02  0.50400001928E-02 0. -1.
        1   -1    0    0  501    0  0.00000000000E+00  0.00000000000E+00 -0.12295023803E+04  0.12295023803E+04  0.50400001928E-02 0.  1.
    10030    2    1    2    0    0  0.00000000000E+00  0.00000000000E+00 -0.11563690825E+04  0.13026356782E+04  0.59972514966E+03 0.  0.
        4    1    3    3  502    0  0.16496884042E+03 -0.24521554893E+03 -0.46805972846E+03  0.55355840347E+03  0.12699999809E+01 0. -1.
       -4    1    3    3    0  502 -0.16496884042E+03  0.24521554893E+03 -0.68830935408E+03  0.74907727476E+03  0.12699999809E+01 0.  1.
</event>
<event>
 5   0  0.9681801E-03  0.5997116E+03  0.7818609E-02  0.9906005E-01
        2   -1    0    0  501    0  0.00000000000E+00  0.00000000000E+00  0.15132221137E+03  0.15132221139E+03  0.25500000920E-02 0.  1.
       -2   -1    0    0    0  501  0.00000000000E+00  0.00000000000E+00 -0.59418578446E+03  0.59418578446E+03  0.25500000920E-02 0. -1.
    10030    2    1    2    0    0  0.00000000000E+00  0.00000000000E+00 -0.44286357309E+03  0.74550799585E+03  0.59971162029E+03 0.  0.
        4    1    3    3  502    0 -0.10445353361E+03  0.14930978451E+03 -0.51745909963E+03  0.54860685844E+03  0.12699999809E+01 0. -1.
       -4    1    3    3    0  502  0.10445353361E+03 -0.14930978451E+03  0.74595526541E+02  0.19690113742E+03  0.12699999809E+01 0.  1.
</event>
<event>
 5   0  0.5574736E-03  0.5831557E+03  0.7818609E-02  0.9940982E-01
        1   -1    0    0  501    0  0.00000000000E+00  0.00000000000E+00  0.14444748578E+03  0.14444748587E+03  0.50400001928E-02 0. -1.
       -1   -1    0    0    0  501  0.00000000000E+00  0.00000000000E+00 -0.58857123026E+03  0.58857123029E+03  0.50400001928E-02 0.  1.
    10030    2    1    2    0    0  0.00000000000E+00  0.00000000000E+00 -0.44412374448E+03  0.73301871616E+03  0.58315567203E+03 0.  0.
        5    1    3    3  502    0 -0.14088087786E+03 -0.19382670225E+03 -0.13313819695E+02  0.24003241457E+03  0.46999998093E+01 0. -1.
       -5    1    3    3    0  502  0.14088087786E+03  0.19382670225E+03 -0.43080992479E+03  0.49298630158E+03  0.46999998093E+01 0.  1.
</event>
<event>
 5   0  0.9530666E-03  0.5996771E+03  0.7818609E-02  0.9906076E-01
       -2   -1    0    0    0  501  0.00000000000E+00  0.00000000000E+00  0.67182092536E+02  0.67182092584E+02  0.25500000920E-02 0. -1.
        2   -1    0    0  501    0  0.00000000000E+00  0.00000000000E+00 -0.13382012944E+04  0.13382012944E+04  0.25500000920E-02 0.  1.
    10030    2    1    2    0    0  0.00000000000E+00  0.00000000000E+00 -0.12710192019E+04  0.14053833870E+04  0.59967712389E+03 0.  0.
        2    1    3    3  502    0 -0.18143986151E+03  0.17623677795E+03 -0.25817833341E+03  0.36143585475E+03  0.25500000920E-02 0. -1.
       -2    1    3    3    0  502  0.18143986151E+03 -0.17623677795E+03 -0.10128408685E+04  0.10439475323E+04  0.25500000920E-02 0.  1.
</event>
<event>
 5   0  0.9428629E-03  0.5999077E+03  0.7818609E-02  0.9905598E-01
       -2   -1    0    0    0  501  0.00000000000E+00  0.00000000000E+00  0.65753909772E+02  0.65753909821E+02  0.25500000920E-02 0.  1.
        2   -1    0    0  501    0  0.00000000000E+00  0.00000000000E+00 -0.13683189665E+04  0.13683189665E+04  0.25500000920E-02 0. -1.
    10030    2    1    2    0    0  0.00000000000E+00  0.00000000000E+00 -0.13025650567E+04  0.14340728763E+04  0.59990773256E+03 0.  0.
        3    1    3    3  502    0  0.16657556472E+02  0.26279818602E+03 -0.30791682814E+03  0.40515817160E+03  0.10100000352E+00 0.  1.
       -3    1    3    3    0  502 -0.16657556472E+02 -0.26279818602E+03 -0.99464822855E+03  0.10289147047E+04  0.10100000352E+00 0. -1.
</event>
<event>
 5   0  0.5653633E-03  0.5995868E+03  0.7818609E-02  0.9906264E-01
        1   -1    0    0  501    0  0.00000000000E+00  0.00000000000E+00  0.12044222860E+03  0.12044222870E+03  0.50400001928E-02 0. -1.
       -1   -1    0    0    0  501  0.00000000000E+00  0.00000000000E+00 -0.74621743954E+03  0.74621743955E+03  0.50400001928E-02 0.  1.
    10030    2    1    2    0    0  0.00000000000E+00  0.00000000000E+00 -0.62577521094E+03  0.86665966826E+03  0.59958682937E+03 0.  0.
        2    1    3    3  502    0 -0.81707832489E+02 -0.28513019095E+03 -0.37590389232E+03  0.47883100563E+03  0.25500000920E-02 0. -1.
       -2    1    3    3    0  502  0.81707832489E+02  0.28513019095E+03 -0.24987131862E+03  0.38782866263E+03  0.25500000920E-02 0.  1.
</event>
<event>
 5   0  0.5574736E-03  0.6011888E+03  0.7818609E-02  0.9902943E-01
        1   -1    0    0  501    0  0.00000000000E+00  0.00000000000E+00  0.11595424353E+04  0.11595424353E+04  0.50400001928E-02 0. -1.
       -1   -1    0    0    0  501  0.00000000000E+00  0.00000000000E+00 -0.77924690631E+02  0.77924690794E+02  0.50400001928E-02 0.  1.
    10030    2    1    2    0    0  0.00000000000E+00  0.00000000000E+00  0.10816177446E+04  0.12374671261E+04  0.60118877451E+03 0.  0.
        5    1    3    3  502    0  0.21915238291E+03 -0.40889087821E+02  0.12587960566E+03  0.25606141754E+03  0.46999998093E+01 0.  1.
       -5    1    3    3    0  502 -0.21915238291E+03  0.40889087821E+02  0.95573813899E+03  0.98140570854E+03  0.46999998093E+01 0. -1.
</event>
<event>
 5   0  0.9428629E-03  0.5982960E+03  0.7818609E-02  0.9908948E-01
        2   -1    0    0  501    0  0.00000000000E+00  0.00000000000E+00  0.17760190196E+04  0.17760190196E+04  0.25500000920E-02 0. -1.
       -2   -1    0    0    0  501  0.00000000000E+00  0.00000000000E+00 -0.50387703529E+02  0.50387703594E+02  0.25500000920E-02 0.  1.
    10030    2    1    2    0    0  0.00000000000E+00  0.00000000000E+00  0.17256313160E+04  0.18264067232E+04  0.59829597986E+03 0.  0.
        3    1    3    3  502    0 -0.21356986862E+03 -0.30642271591E+02  0.14953799984E+04  0.15108647813E+04  0.10100000352E+00 0. -1.
       -3    1    3    3    0  502  0.21356986862E+03  0.30642271591E+02  0.23025131762E+03  0.31554194183E+03  0.10100000352E+00 0.  1.
</event>
<event>
 5   0  0.9428629E-03  0.5962066E+03  0.7818609E-02  0.9913307E-01
        2   -1    0    0  501    0  0.00000000000E+00  0.00000000000E+00  0.81221131449E+03  0.81221131450E+03  0.25500000920E-02 0.  1.
       -2   -1    0    0    0  501  0.00000000000E+00  0.00000000000E+00 -0.10941191015E+03  0.10941191018E+03  0.25500000920E-02 0. -1.
    10030    2    1    2    0    0  0.00000000000E+00  0.00000000000E+00  0.70279940434E+03  0.92162322468E+03  0.59620664667E+03 0.  0.
        3    1    3    3  502    0 -0.52304892920E+02  0.75287054206E+01 -0.10211389673E+03  0.11497713396E+03  0.10100000352E+00 0. -1.
       -3    1    3    3    0  502  0.52304892920E+02 -0.75287054206E+01  0.80491330107E+03  0.80664609072E+03  0.10100000352E+00 0.  1.
</event>
<event>
 5   0  0.9530666E-03  0.6141194E+03  0.7818609E-02  0.9876538E-01
        2   -1    0    0  501    0  0.00000000000E+00  0.00000000000E+00  0.63744324940E+03  0.63744324941E+03  0.25500000920E-02 0.  1.
       -2   -1    0    0    0  501  0.00000000000E+00  0.00000000000E+00 -0.14791226419E+03  0.14791226421E+03  0.25500000920E-02 0. -1.
    10030    2    1    2    0    0  0.00000000000E+00  0.00000000000E+00  0.48953098522E+03  0.78535551362E+03  0.61411944871E+03 0.  0.
        2    1    3    3  502    0  0.26067286617E+03  0.10877716145E+03  0.90758557674E+02  0.29668152926E+03  0.25500000920E-02 0. -1.
       -2    1    3    3    0  502 -0.26067286617E+03 -0.10877716145E+03  0.39877242754E+03  0.48867398435E+03  0.25500000920E-02 0.  1.
</event>
<event>
 5   0  0.5785798E-03  0.5994156E+03  0.7818609E-02  0.9906619E-01
       -1   -1    0    0    0  501  0.00000000000E+00  0.00000000000E+00  0.55637154816E+03  0.55637154819E+03  0.50400001928E-02 0. -1.
        1   -1    0    0  501    0  0.00000000000E+00  0.00000000000E+00 -0.16144743558E+03  0.16144743566E+03  0.50400001928E-02 0.  1.
    10030    2    1    2    0    0  0.00000000000E+00  0.00000000000E+00  0.39492411258E+03  0.71781898384E+03  0.59941558110E+03 0.  0.
        1    1    3    3  502    0 -0.16598275028E+03  0.17023016126E+03  0.41597849178E+03  0.47913117916E+03  0.50400001928E-02 0. -1.
       -1    1    3    3    0  502  0.16598275028E+03 -0.17023016126E+03 -0.21054379201E+02  0.23868780468E+03  0.50400001928E-02 0.  1.
</event>
<event>
 5   0  0.9681801E-03  0.6001974E+03  0.7818609E-02  0.9904997E-01
        2   -1    0    0  501    0  0.00000000000E+00  0.00000000000E+00  0.24989978263E+03  0.24989978265E+03  0.25500000920E-02 0.  1.
       -2   -1    0    0    0  501  0.00000000000E+00  0.00000000000E+00 -0.36038136250E+03  0.36038136251E+03  0.25500000920E-02 0. -1.
    10030    2    1    2    0    0  0.00000000000E+00  0.00000000000E+00 -0.11048157987E+03  0.61028114516E+03  0.60019738141E+03 0.  0.
        4    1    3    3  502    0  0.20663817030E+03 -0.18433648961E+03  0.62367223118E+02  0.28384953452E+03  0.12699999809E+01 0.  1.
       -4    1    3    3    0  502 -0.20663817030E+03  0.18433648961E+03 -0.17284880299E+03  0.32643161064E+03  0.12699999809E+01 0. -1.
</event>
<event>
 5   0  0.9428629E-03  0.5993572E+03  0.7818609E-02  0.9906741E-01
        2   -1    0    0  501    0  0.00000000000E+00  0.00000000000E+00  0.50605332980E+03  0.50605332981E+03  0.25500000920E-02 0. -1.
       -2   -1    0    0    0  501  0.00000000000E+00  0.00000000000E+00 -0.17746599277E+03  0.17746599279E+03  0.25500000920E-02 0.  1.
    10030    2    1    2    0    0  0.00000000000E+00  0.00000000000E+00  0.32858733703E+03  0.68351932259E+03  0.59935717757E+03 0.  0.
        3    1    3    3  502    0  0.89263933386E+02  0.24271837469E+02 -0.16077639011E+03  0.18548916333E+03  0.10100000352E+00 0.  1.
       -3    1    3    3    0  502 -0.89263933386E+02 -0.24271837469E+02  0.48936372713E+03  0.49803015926E+03  0.10100000352E+00 0. -1.
</event>
<event>
 5   0  0.3794375E-03  0.6013578E+03  0.7818609E-02  0.9902593E-01
       -4   -1    0    0    0  501  0.00000000000E+00  0.00000000000E+00  0.58393946044E+03  0.58394084149E+03  0.12699999809E+01 0. -1.
        4   -1    0    0  501    0  0.00000000000E+00  0.00000000000E+00 -0.15481977166E+03  0.15482498053E+03  0.12699999809E+01 0.  1.
    10030    2    1    2    0    0  0.00000000000E+00  0.00000000000E+00  0.42911968878E+03  0.73876582202E+03  0.60135782400E+03 0.  0.
        5    1    3    3  502    0  0.14344307159E+03 -0.72798423129E+02  0.52658384424E+03  0.55062524480E+03  0.46999998093E+01 0. -1.
       -5    1    3    3    0  502 -0.14344307159E+03  0.72798423129E+02 -0.97464155463E+02  0.18814057722E+03  0.46999998093E+01 0.  1.
</event>
<event>
 5   0  0.5503975E-03  0.5969295E+03  0.7818609E-02  0.9911797E-01
       -1   -1    0    0    0  501  0.00000000000E+00  0.00000000000E+00  0.16714934204E+03  0.16714934212E+03  0.50400001928E-02 0.  1.
        1   -1    0    0  501    0  0.00000000000E+00  0.00000000000E+00 -0.53294372862E+03  0.53294372864E+03  0.50400001928E-02 0. -1.
    10030    2    1    2    0    0  0.00000000000E+00  0.00000000000E+00 -0.36579438657E+03  0.70009307076E+03  0.59692945519E+03 0.  0.
        4    1    3    3  502    0 -0.62738595101E+02  0.19337602319E+02  0.15857284029E+03  0.17163051231E+03  0.12699999809E+01 0.  1.
       -4    1    3    3    0  502  0.62738595101E+02 -0.19337602319E+02 -0.52436722686E+03  0.52846255845E+03  0.12699999809E+01 0. -1.
</event>
<event>
 5   0  0.9866317E-03  0.6000523E+03  0.7818609E-02  0.9905298E-01
       -2   -1    0    0    0  501  0.00000000000E+00  0.00000000000E+00  0.37344088732E+02  0.37344088819E+02  0.25500000920E-02 0.  1.
        2   -1    0    0  501    0  0.00000000000E+00  0.00000000000E+00 -0.24104398477E+04  0.24104398477E+04  0.25500000920E-02 0. -1.
    10030    2    1    2    0    0  0.00000000000E+00  0.00000000000E+00 -0.23730957589E+04  0.24477839365E+04  0.60005226326E+03 0.  0.
        1    1    3    3  502    0 -0.25478885303E+03  0.13208720696E+02 -0.54253943186E+03  0.59953387317E+03  0.50400001928E-02 0.  1.
       -1    1    3    3    0  502  0.25478885303E+03 -0.13208720696E+02 -0.18305563271E+04  0.18482500633E+04  0.50400001928E-02 0. -1.
</event>
<event>
 5   0  0.5574736E-03  0.6001712E+03  0.7818609E-02  0.9905051E-01
       -1   -1    0    0    0  501  0.00000000000E+00  0.00000000000E+00  0.64367918325E+02  0.64367918522E+02  0.50400001928E-02 0. -1.
        1   -1    0    0  501    0  0.00000000000E+00  0.00000000000E+00 -0.13990098874E+04  0.13990098874E+04  0.50400001928E-02 0.  1.
    10030    2    1    2    0    0  0.00000000000E+00  0.00000000000E+00 -0.13346419691E+04  0.14633778060E+04  0.60017115666E+03 0.  0.
        5    1    3    3  502    0 -0.42497167896E+02  0.28553855228E+03 -0.86676754045E+03  0.91358980581E+03  0.46999998093E+01 0.  1.
       -5    1    3    3    0  502  0.42497167896E+02 -0.28553855228E+03 -0.46787442866E+03  0.54978800015E+03  0.46999998093E+01 0. -1.
</event>
<event>
 5   0  0.5503975E-03  0.6003658E+03  0.7818609E-02  0.9904647E-01
        1   -1    0    0  501    0  0.00000000000E+00  0.00000000000E+00  0.54658317617E+03  0.54658317619E+03  0.50400001928E-02 0.  1.
       -1   -1    0    0    0  501  0.00000000000E+00  0.00000000000E+00 -0.16486013054E+03  0.16486013062E+03  0.50400001928E-02 0. -1.
    10030    2    1    2    0    0  0.00000000000E+00  0.00000000000E+00  0.38172304563E+03  0.71144330681E+03  0.60036580119E+03 0.  0.
        4    1    3    3  502    0 -0.81873359551E+02 -0.19365475346E+03 -0.63027372825E+02  0.21949823044E+03  0.12699999809E+01 0. -1.
       -4    1    3    3    0  502  0.81873359551E+02  0.19365475346E+03  0.44475041846E+03  0.49194507637E+03  0.12699999809E+01 0.  1.
</event>
<event>
 5   0  0.9428629E-03  0.6134460E+03  0.7818609E-02  0.9877896E-01
        2   -1    0    0  501    0  0.00000000000E+00  0.00000000000E+00  0.12533243992E+04  0.12533243992E+04  0.25500000920E-02 0. -1.
       -2   -1    0    0    0  501  0.00000000000E+00  0.00000000000E+00 -0.75063557739E+02  0.75063557782E+02  0.25500000920E-02 0.  1.
    10030    2    1    2    0    0  0.00000000000E+00  0.00000000000E+00  0.11782608415E+04  0.13283879570E+04  0.61344596644E+03 0.  0.
        3    1    3    3  502    0 -0.18478053545E+03  0.21290866445E+03  0.85082810473E+03  0.89631602667E+03  0.10100000352E+00 0. -1.
       -3    1    3    3    0  502  0.18478053545E+03 -0.21290866445E+03  0.32743273676E+03  0.43207193033E+03  0.10100000352E+00 0.  1.
</event>
<event>
 5   0  0.5503975E-03  0.6007119E+03  0.7818609E-02  0.9903930E-01
       -1   -1    0    0    0  501  0.00000000000E+00  0.00000000000E+00  0.12763222593E+03  0.12763222603E+03  0.50400001928E-02 0.  1.
        1   -1    0    0  501    0  0.00000000000E+00  0.00000000000E+00 -0.70682535953E+03  0.70682535954E+03  0.50400001928E-02 0. -1.
    10030    2    1    2    0    0  0.00000000000E+00  0.00000000000E+00 -0.57919313359E+03  0.83445758558E+03  0.60071189111E+03 0.  0.
        4    1    3    3  502    0 -0.17110892234E+03  0.20835451729E+03 -0.47347572847E+03  0.54485846468E+03  0.12699999809E+01 0. -1.
       -4    1    3    3    0  502  0.17110892234E+03 -0.20835451729E+03 -0.10571740512E+03  0.28959912090E+03  0.12699999809E+01 0.  1.
</event>
<event>
 5   0  0.5785798E-03  0.5993617E+03  0.7818609E-02  0.9906731E-01
       -1   -1    0    0    0  501  0.00000000000E+00  0.00000000000E+00  0.49842065321E+03  0.49842065323E+03  0.50400001928E-02 0.  1.
        1   -1    0    0  501    0  0.00000000000E+00  0.00000000000E+00 -0.18018638220E+03  0.18018638227E+03  0.50400001928E-02 0. -1.
    10030    2    1    2    0    0  0.00000000000E+00  0.00000000000E+00  0.31823427100E+03  0.67860703550E+03  0.59936170831E+03 0.  0.
        1    1    3    3  502    0 -0.28708392946E+02  0.67287388955E+02  0.48815570132E+03  0.49360688133E+03  0.50400001928E-02 0.  1.
       -1    1    3    3    0  502  0.28708392946E+02 -0.67287388955E+02 -0.16992143032E+03  0.18500015417E+03  0.50400001928E-02 0. -1.
</event>
<event>
 5   0  0.5653633E-03  0.6010835E+03  0.7818609E-02  0.9903161E-01
       -1   -1    0    0    0  501  0.00000000000E+00  0.00000000000E+00  0.53712376085E+03  0.53712376088E+03  0.50400001928E-02 0.  1.
        1   -1    0    0  501    0  0.00000000000E+00  0.00000000000E+00 -0.16816483891E+03  0.16816483899E+03  0.50400001928E-02 0. -1.
    10030    2    1    2    0    0  0.00000000000E+00  0.00000000000E+00  0.36895892194E+03  0.70528859987E+03  0.60108345762E+03 0.  0.
        2    1    3    3  502    0 -0.21792360881E+03  0.34625040831E+02 -0.54943182595E+02  0.22739469222E+03  0.25500000920E-02 0. -1.
       -2    1    3    3    0  502  0.21792360881E+03 -0.34625040831E+02  0.42390210453E+03  0.47789390765E+03  0.25500000920E-02 0.  1.
</event>
<event>
 5   0  0.9866317E-03  0.6081032E+03  0.7818609E-02  0.9888736E-01
       -2   -1    0    0    0  501  0.00000000000E+00  0.00000000000E+00  0.25969823113E+03  0.25969823114E+03  0.25500000920E-02 0.  1.
        2   -1    0    0  501    0  0.00000000000E+00  0.00000000000E+00 -0.35598003716E+03  0.35598003717E+03  0.25500000920E-02 0. -1.
    10030    2    1    2    0    0  0.00000000000E+00  0.00000000000E+00 -0.96281806039E+02  0.61567826831E+03  0.60810323457E+03 0.  0.
        1    1    3    3  502    0 -0.23381337584E+03  0.14549344221E+03 -0.17862749736E+03  0.32824505981E+03  0.50400001928E-02 0. -1.
       -1    1    3    3    0  502  0.23381337584E+03 -0.14549344221E+03  0.82345691321E+02  0.28743320851E+03  0.50400001928E-02 0.  1.
</event>
<event>
 5   0  0.5574736E-03  0.6012067E+03  0.7818609E-02  0.9902906E-01
        1   -1    0    0  501    0  0.00000000000E+00  0.00000000000E+00  0.87537615636E+03  0.87537615638E+03  0.50400001928E-02 0. -1.
       -1   -1    0    0    0  501  0.00000000000E+00  0.00000000000E+00 -0.10322690866E+03  0.10322690879E+03  0.50400001928E-02 0.  1.
    10030    2    1    2    0    0  0.00000000000E+00  0.00000000000E+00  0.77214924770E+03  0.97860306516E+03  0.60120670192E+03 0.  0.
        5    1    3    3  502    0  0.19810599046E+03  0.22126452618E+03  0.31084048455E+03  0.42993938042E+03  0.46999998093E+01 0. -1.
       -5    1    3    3    0  502 -0.19810599046E+03 -0.22126452618E+03  0.46130876314E+03  0.54866368474E+03  0.46999998093E+01 0.  1.
</event>
<event>
 5   0  0.9428629E-03  0.5982049E+03  0.7818609E-02  0.9909137E-01
       -2   -1    0    0    0  501  0.00000000000E+00  0.00000000000E+00  0.59072257336E+03  0.59072257336E+03  0.25500000920E-02 0.  1.
        2   -1    0    0  501    0  0.00000000000E+00  0.00000000000E+00 -0.15144552475E+03  0.15144552478E+03  0.25500000920E-02 0. -1.
    10030    2    1    2    0    0  0.00000000000E+00  0.00000000000E+00  0.43927704860E+03  0.74216809814E+03  0.59820494855E+03 0.  0.
        3    1    3    3  502    0 -0.33510405937E+02  0.18097442897E+03 -0.72871799554E+02  0.19795201595E+03  0.10100000352E+00 0. -1.
       -3    1    3    3    0  502  0.33510405937E+02 -0.18097442897E+03  0.51214884816E+03  0.54421608219E+03  0.10100000352E+00 0.  1.
</event>
<event>
 5   0  0.9530666E-03  0.5993522E+03  0.7818609E-02  0.9906751E-01
        2   -1    0    0  501    0  0.00000000000E+00  0.00000000000E+00  0.34947241648E+03  0.34947241648E+03  0.25500000920E-02 0.  1.
       -2   -1    0    0    0  501  0.00000000000E+00  0.00000000000E+00 -0.25697529083E+03  0.25697529084E+03  0.25500000920E-02 0. -1.
    10030    2    1    2    0    0  0.00000000000E+00  0.00000000000E+00  0.92497125644E+02  0.60644770733E+03  0.59935223656E+03 0.  0.
        2    1    3    3  502    0 -0.20501680891E+02  0.22674252774E+03  0.24342286003E+03  0.33329743713E+03  0.25500000920E-02 0.  1.
       -2    1    3    3    0  502  0.20501680891E+02 -0.22674252774E+03 -0.15092573439E+03  0.27315027020E+03  0.25500000920E-02 0. -1.
</event>
<event>
 5   0  0.9866317E-03  0.6004897E+03  0.7818609E-02  0.9904391E-01
        2   -1    0    0  501    0  0.00000000000E+00  0.00000000000E+00  0.48616354366E+03  0.48616354367E+03  0.25500000920E-02 0.  1.
       -2   -1    0    0    0  501  0.00000000000E+00  0.00000000000E+00 -0.18542521571E+03  0.18542521572E+03  0.25500000920E-02 0. -1.
    10030    2    1    2    0    0  0.00000000000E+00  0.00000000000E+00  0.30073832795E+03  0.67158875939E+03  0.60048973333E+03 0.  0.
        1    1    3    3  502    0 -0.36738123472E+02 -0.21438272939E+03  0.38184680995E+03  0.43945037339E+03  0.50400001928E-02 0.  1.
       -1    1    3    3    0  502  0.36738123472E+02  0.21438272939E+03 -0.81108481996E+02  0.23213838600E+03  0.50400001928E-02 0. -1.
</event>
<event>
 5   0  0.9428629E-03  0.5999724E+03  0.7818609E-02  0.9905463E-01
       -2   -1    0    0    0  501  0.00000000000E+00  0.00000000000E+00  0.87482233511E+02  0.87482233548E+02  0.25500000920E-02 0. -1.
        2   -1    0    0  501    0  0.00000000000E+00  0.00000000000E+00 -0.10286855320E+04  0.10286855320E+04  0.25500000920E-02 0.  1.
    10030    2    1    2    0    0  0.00000000000E+00  0.00000000000E+00 -0.94120329848E+03  0.11161677655E+04  0.59997235917E+03 0.  0.
        3    1    3    3  502    0 -0.15585400092E+03  0.11230194471E+03 -0.89925138110E+03  0.91954078376E+03  0.10100000352E+00 0.  1.
       -3    1    3    3    0  502  0.15585400092E+03 -0.11230194471E+03 -0.41951917377E+02  0.19662698178E+03  0.10100000352E+00 0. -1.
</event>
<event>
 5   0  0.5785798E-03  0.5990537E+03  0.7818609E-02  0.9907371E-01
        1   -1    0    0  501    0  0.00000000000E+00  0.00000000000E+00  0.36324571916E+03  0.36324571920E+03  0.50400001928E-02 0.  1.
       -1   -1    0    0    0  501  0.00000000000E+00  0.00000000000E+00 -0.24698526320E+03  0.24698526325E+03  0.50400001928E-02 0. -1.
    10030    2    1    2    0    0  0.00000000000E+00  0.00000000000E+00  0.11626045596E+03  0.61023098245E+03  0.59905371906E+03 0.  0.
        1    1    3    3  502    0  0.19429106393E+03  0.19575512219E+03 -0.60870912895E+02  0.28244354028E+03  0.50400001928E-02 0. -1.
       -1    1    3    3    0  502 -0.19429106393E+03 -0.19575512219E+03  0.17713136885E+03  0.32778744217E+03  0.50400001928E-02 0.  1.
</event>
<event>
 5   0  0.5574736E-03  0.6000449E+03  0.7818609E-02  0.9905313E-01
        1   -1    0    0  501    0  0.00000000000E+00  0.00000000000E+00  0.61674626513E+03  0.61674626515E+03  0.50400001928E-02 0. -1.
       -1   -1    0    0    0  501  0.00000000000E+00  0.00000000000E+00 -0.14594893533E+03  0.14594893541E+03  0.50400001928E-02 0.  1.
    10030    2    1    2    0    0  0.00000000000E+00  0.00000000000E+00  0.47079732980E+03  0.76269520057E+03  0.60004486767E+03 0.  0.
        5    1    3    3  502    0  0.53123114828E+01 -0.25930592506E+03  0.42700317846E+03  0.49962144453E+03  0.46999998093E+01 0. -1.
       -5    1    3    3    0  502 -0.53123114828E+01  0.25930592506E+03  0.43794151341E+02  0.26307375603E+03  0.46999998093E+01 0.  1.
</event>
<event>
 5   0  0.5574736E-03  0.6003465E+03  0.7818609E-02  0.9904688E-01
       -1   -1    0    0    0  501  0.00000000000E+00  0.00000000000E+00  0.47086740124E+03  0.47086740126E+03  0.50400001928E-02 0.  1.
        1   -1    0    0  501    0  0.00000000000E+00  0.00000000000E+00 -0.19135741478E+03  0.19135741485E+03  0.50400001928E-02 0. -1.
    10030    2    1    2    0    0  0.00000000000E+00  0.00000000000E+00  0.27950998645E+03  0.66222481611E+03  0.60034646209E+03 0.  0.
        5    1    3    3  502    0  0.87687803580E+02 -0.21568692903E+03 -0.69165259715E+02  0.24293193573E+03  0.46999998093E+01 0. -1.
       -5    1    3    3    0  502 -0.87687803580E+02  0.21568692903E+03  0.34867524617E+03  0.41929288038E+03  0.46999998093E+01 0.  1.
</event>
<event>
 5   0  0.9681801E-03  0.5994861E+03  0.7818609E-02  0.9906473E-01
       -2   -1    0    0    0  501  0.00000000000E+00  0.00000000000E+00  0.18877831200E+03  0.18877831201E+03  0.25500000920E-02 0.  1.
        2   -1    0    0  501    0  0.00000000000E+00  0.00000000000E+00 -0.47593342249E+03  0.47593342250E+03  0.25500000920E-02 0. -1.
    10030    2    1    2    0    0  0.00000000000E+00  0.00000000000E+00 -0.28715511049E+03  0.66471173451E+03  0.59948614038E+03 0.  0.
        4    1    3    3  502    0  0.76078836612E+02  0.63071365804E+02 -0.45734771913E+03  0.46790440868E+03  0.12699999809E+01 0. -1.
       -4    1    3    3    0  502 -0.76078836612E+02 -0.63071365804E+02  0.17019260864E+03  0.19680732583E+03  0.12699999809E+01 0.  1.
</event>
<event>
 5   0  0.9530666E-03  0.6005654E+03  0.7818609E-02  0.9904234E-01
       -2   -1    0    0    0  501  0.00000000000E+00  0.00000000000E+00  0.52392694400E+03  0.52392694401E+03  0.25500000920E-02 0. -1.
        2   -1    0    0  501    0  0.00000000000E+00  0.00000000000E+00 -0.17210357389E+03  0.17210357391E+03  0.25500000920E-02 0.  1.
    10030    2    1    2    0    0  0.00000000000E+00  0.00000000000E+00  0.35182337011E+03  0.69603051791E+03  0.60056539869E+03 0.  0.
        2    1    3    3  502    0  0.26624127815E+03 -0.13546585284E+03  0.14048688222E+03  0.33010904192E+03  0.25500000920E-02 0.  1.
       -2    1    3    3    0  502 -0.26624127815E+03  0.13546585284E+03  0.21133648789E+03  0.36592147600E+03  0.25500000920E-02 0. -1.
</event>
<event>
 5   0  0.5653633E-03  0.5988776E+03  0.7818609E-02  0.9907737E-01
        1   -1    0    0  501    0  0.00000000000E+00  0.00000000000E+00  0.10387142312E+04  0.10387142313E+04  0.50400001928E-02 0. -1.
       -1   -1    0    0    0  501  0.00000000000E+00  0.00000000000E+00 -0.86321712538E+02  0.86321712685E+02  0.50400001928E-02 0.  1.
    10030    2    1    2    0    0  0.00000000000E+00  0.00000000000E+00  0.95239251871E+03  0.11250359439E+04  0.59887758806E+03 0.  0.
        2    1    3    3  502    0 -0.33593131434E+02 -0.76429874360E+02 -0.64015707699E+02  0.10520472904E+03  0.25500000920E-02 0.  1.
       -2    1    3    3    0  502  0.33593131434E+02  0.76429874360E+02  0.10164082264E+04  0.10198312149E+04  0.25500000920E-02 0. -1.
</event>
<event>
 5   0  0.3794375E-03  0.6003631E+03  0.7818609E-02  0.9904653E-01
       -3   -1    0    0    0  501  0.00000000000E+00  0.00000000000E+00  0.13017602566E+03  0.13017606484E+03  0.10100000352E+00 0. -1.
        3   -1    0    0  501    0  0.00000000000E+00  0.00000000000E+00 -0.69220853245E+03  0.69220853982E+03  0.10100000352E+00 0.  1.
    10030    2    1    2    0    0  0.00000000000E+00  0.00000000000E+00 -0.56203250680E+03  0.82238460466E+03  0.60036313951E+03 0.  0.
        5    1    3    3  502    0 -0.10051857654E+03  0.18615043377E+03 -0.57266371571E+03  0.61050945080E+03  0.46999998093E+01 0.  1.
       -5    1    3    3    0  502  0.10051857654E+03 -0.18615043377E+03  0.10631208915E+02  0.21187515386E+03  0.46999998093E+01 0. -1.
</event>
<event>
 5   0  0.3794375E-03  0.6002796E+03  0.7818609E-02  0.9904826E-01
        4   -1    0    0  501    0  0.00000000000E+00  0.00000000000E+00  0.45698959255E+03  0.45699135724E+03  0.12699999809E+01 0.  1.
       -4   -1    0    0    0  501  0.00000000000E+00  0.00000000000E+00 -0.19712040052E+03  0.19712449163E+03  0.12699999809E+01 0. -1.
    10030    2    1    2    0    0  0.00000000000E+00  0.00000000000E+00  0.25986919203E+03  0.65411584887E+03  0.60027955719E+03 0.  0.
        1    1    3    3  502    0  0.25151821464E+03  0.15041432248E+03  0.59331679053E+02  0.29900857658E+03  0.50400001928E-02 0.  1.
       -1    1    3    3    0  502 -0.25151821464E+03 -0.15041432248E+03  0.20053751298E+03  0.35510727230E+03  0.50400001928E-02 0. -1.
</event>
<event>
 5   0  0.9866317E-03  0.5993730E+03  0.7818609E-02  0.9906708E-01
       -2   -1    0    0    0  501  0.00000000000E+00  0.00000000000E+00  0.54764982699E+02  0.54764982759E+02  0.25500000920E-02 0.  1.
        2   -1    0    0  501    0  0.00000000000E+00  0.00000000000E+00 -0.16399527628E+04  0.16399527629E+04  0.25500000920E-02 0. -1.
    10030    2    1    2    0    0  0.00000000000E+00  0.00000000000E+00 -0.15851877801E+04  0.16947177456E+04  0.59937295480E+03 0.  0.
        1    1    3    3  502    0  0.70221698439E+02 -0.14078699705E+03 -0.15137960095E+04  0.15219495471E+04  0.50400001928E-02 0. -1.
       -1    1    3    3    0  502 -0.70221698439E+02  0.14078699705E+03 -0.71391770609E+02  0.17276819848E+03  0.50400001928E-02 0.  1.
</event>
<event>
 5   0  0.5503975E-03  0.5993653E+03  0.7818609E-02  0.9906724E-01
        1   -1    0    0  501    0  0.00000000000E+00  0.00000000000E+00  0.71069087669E+03  0.71069087671E+03  0.50400001928E-02 0. -1.
       -1   -1    0    0    0  501  0.00000000000E+00  0.00000000000E+00 -0.12636953642E+03  0.12636953652E+03  0.50400001928E-02 0.  1.
    10030    2    1    2    0    0  0.00000000000E+00  0.00000000000E+00  0.58432134027E+03  0.83706041323E+03  0.59936525316E+03 0.  0.
        4    1    3    3  502    0  0.46456598564E+02  0.28594384277E+03  0.18501511655E+03  0.34373580410E+03  0.12699999809E+01 0. -1.
       -4    1    3    3    0  502 -0.46456598564E+02 -0.28594384277E+03  0.39930622371E+03  0.49332460912E+03  0.12699999809E+01 0.  1.
</event>
<event>
 5   0  0.5574736E-03  0.6050905E+03  0.7818609E-02  0.9894901E-01
        1   -1    0    0  501    0  0.00000000000E+00  0.00000000000E+00  0.25411242938E+03  0.25411242943E+03  0.50400001928E-02 0. -1.
       -1   -1    0    0    0  501  0.00000000000E+00  0.00000000000E+00 -0.36020919503E+03  0.36020919506E+03  0.50400001928E-02 0.  1.
    10030    2    1    2    0    0  0.00000000000E+00  0.00000000000E+00 -0.10609676565E+03  0.61432162450E+03  0.60509051773E+03 0.  0.
        5    1    3    3  502    0 -0.17014887244E+03  0.10099674767E+03 -0.28536357150E+03  0.34728293907E+03  0.46999998093E+01 0.  1.
       -5    1    3    3    0  502  0.17014887244E+03 -0.10099674767E+03  0.17926680586E+03  0.26703868542E+03  0.46999998093E+01 0. -1.
</event>
<event>
 5   0  0.5785798E-03  0.5997167E+03  0.7818609E-02  0.9905994E-01
        1   -1    0    0  501    0  0.00000000000E+00  0.00000000000E+00  0.64393461834E+03  0.64393461836E+03  0.50400001928E-02 0. -1.
       -1   -1    0    0    0  501  0.00000000000E+00  0.00000000000E+00 -0.13963379594E+03  0.13963379603E+03  0.50400001928E-02 0.  1.
    10030    2    1    2    0    0  0.00000000000E+00  0.00000000000E+00  0.50430082239E+03  0.78356841439E+03  0.59971671693E+03 0.  0.
        1    1    3    3  502    0  0.23634460898E+03 -0.57228525130E+02  0.48138135119E+03  0.53931612583E+03  0.50400001928E-02 0. -1.
       -1    1    3    3    0  502 -0.23634460898E+03  0.57228525130E+02  0.22919471207E+02  0.24425228856E+03  0.50400001928E-02 0.  1.
</event>
<event>
 5   0  0.5491236E-03  0.5998444E+03  0.7818609E-02  0.9905729E-01
       -1   -1    0    0    0  501  0.00000000000E+00  0.00000000000E+00  0.12578319221E+03  0.12578319231E+03  0.50400001928E-02 0. -1.
        1   -1    0    0  501    0  0.00000000000E+00  0.00000000000E+00 -0.71514586554E+03  0.71514586556E+03  0.50400001928E-02 0.  1.
    10030    2    1    2    0    0  0.00000000000E+00  0.00000000000E+00 -0.58936267333E+03  0.84092905787E+03  0.59984441288E+03 0.  0.
        3    1    3    3  502    0  0.15502156122E+03  0.26931788743E+02  0.63276819980E+02  0.16959060067E+03  0.10100000352E+00 0. -1.
       -3    1    3    3    0  502 -0.15502156122E+03 -0.26931788743E+02 -0.65263949331E+03  0.67133845720E+03  0.10100000352E+00 0.  1.
</event>
<event>
 5   0  0.3794375E-03  0.6005409E+03  0.7818609E-02  0.9904285E-01
        3   -1    0    0  501    0  0.00000000000E+00  0.00000000000E+00  0.57666393127E+03  0.57666394012E+03  0.10100000352E+00 0. -1.
       -3   -1    0    0    0  501  0.00000000000E+00  0.00000000000E+00 -0.15635157875E+03  0.15635161138E+03  0.10100000352E+00 0.  1.
    10030    2    1    2    0    0  0.00000000000E+00  0.00000000000E+00  0.42031235252E+03  0.73301555149E+03  0.60054086043E+03 0.  0.
        5    1    3    3  502    0 -0.23075101949E+03  0.15426522931E+03  0.70471946771E+02  0.28641260316E+03  0.46999998093E+01 0.  1.
       -5    1    3    3    0  502  0.23075101949E+03 -0.15426522931E+03  0.34984040575E+03  0.44660294833E+03  0.46999998093E+01 0. -1.
</event>
<event>
 5   0  0.9428629E-03  0.5984996E+03  0.7818609E-02  0.9908524E-01
       -2   -1    0    0    0  501  0.00000000000E+00  0.00000000000E+00  0.65936720878E+02  0.65936720927E+02  0.25500000920E-02 0.  1.
        2   -1    0    0  501    0  0.00000000000E+00  0.00000000000E+00 -0.13581271874E+04  0.13581271874E+04  0.25500000920E-02 0. -1.
    10030    2    1    2    0    0  0.00000000000E+00  0.00000000000E+00 -0.12921904665E+04  0.14240639083E+04  0.59849963511E+03 0.  0.
        3    1    3    3  502    0  0.19679482864E+03 -0.47751817038E+02 -0.12186213911E+03  0.23634473076E+03  0.10100000352E+00 0.  1.
       -3    1    3    3    0  502 -0.19679482864E+03  0.47751817038E+02 -0.11703283274E+04  0.11877191775E+04  0.10100000352E+00 0. -1.
</event>
<event>
 5   0  0.9866317E-03  0.5999668E+03  0.7818609E-02  0.9905475E-01
       -2   -1    0    0    0  501  0.00000000000E+00  0.00000000000E+00  0.70263753893E+02  0.70263753939E+02  0.25500000920E-02 0. -1.
        2   -1    0    0  501    0  0.00000000000E+00  0.00000000000E+00 -0.12807461962E+04  0.12807461962E+04  0.25500000920E-02 0.  1.
    10030    2    1    2    0    0  0.00000000000E+00  0.00000000000E+00 -0.12104824423E+04  0.13510099501E+04  0.59996678428E+03 0.  0.
        1    1    3    3  502    0  0.19912238515E+03 -0.11416463008E+03 -0.10401769045E+04  0.10652001126E+04  0.50400001928E-02 0.  1.
       -1    1    3    3    0  502 -0.19912238515E+03  0.11416463008E+03 -0.17030553773E+03  0.28580983754E+03  0.50400001928E-02 0. -1.
</event>
<event>
 5   0  0.5574736E-03  0.5991083E+03  0.7818609E-02  0.9907258E-01
       -1   -1    0    0    0  501  0.00000000000E+00  0.00000000000E+00  0.15182887667E+04  0.15182887667E+04  0.50400001928E-02 0.  1.
        1   -1    0    0  501    0  0.00000000000E+00  0.00000000000E+00 -0.59101192040E+02  0.59101192255E+02  0.50400001928E-02 0. -1.
    10030    2    1    2    0    0  0.00000000000E+00  0.00000000000E+00  0.14591875747E+04  0.15773899590E+04  0.59910825783E+03 0.  0.
        5    1    3    3  502    0  0.11978030023E+03 -0.15042706487E+03  0.13342146005E+04  0.13480082761E+04  0.46999998093E+01 0.  1.
       -5    1    3    3    0  502 -0.11978030023E+03  0.15042706487E+03  0.12497297411E+03  0.22938168284E+03  0.46999998093E+01 0. -1.
</event>
<event>
 5   0  0.9681801E-03  0.5999963E+03  0.7818609E-02  0.9905414E-01
       -2   -1    0    0    0  501  0.00000000000E+00  0.00000000000E+00  0.65772904200E+02  0.65772904250E+02  0.25500000920E-02 0.  1.
        2   -1    0    0  501    0  0.00000000000E+00  0.00000000000E+00 -0.13683278700E+04  0.13683278700E+04  0.25500000920E-02 0. -1.
    10030    2    1    2    0    0  0.00000000000E+00  0.00000000000E+00 -0.13025549658E+04  0.14341007743E+04  0.59999632648E+03 0.  0.
        4    1    3    3  502    0 -0.13120477185E+03 -0.80228528022E+02 -0.35621118890E+02  0.15786635448E+03  0.12699999809E+01 0.  1.
       -4    1    3    3    0  502  0.13120477185E+03  0.80228528022E+02 -0.12669338469E+04  0.12762344198E+04  0.12699999809E+01 0. -1.
</event>
<event>
 5   0  0.5653633E-03  0.5980458E+03  0.7818609E-02  0.9909469E-01
       -1   -1    0    0    0  501  0.00000000000E+00  0.00000000000E+00  0.83444164989E+03  0.83444164991E+03  0.50400001928E-02 0.  1.
        1   -1    0    0  501    0  0.00000000000E+00  0.00000000000E+00 -0.10715513675E+03  0.10715513687E+03  0.50400001928E-02 0. -1.
    10030    2    1    2    0    0  0.00000000000E+00  0.00000000000E+00  0.72728651315E+03  0.94159678678E+03  0.59804584829E+03 0.  0.
        2    1    3    3  502    0 -0.45715486417E+02 -0.16841054531E+03  0.74595632061E+03  0.76609584892E+03  0.25500000920E-02 0.  1.
       -2    1    3    3    0  502  0.45715486417E+02  0.16841054531E+03 -0.18669807461E+02  0.17550093786E+03  0.25500000920E-02 0. -1.
</event>
<event>
 5   0  0.9571790E-03  0.6029201E+03  0.7818609E-02  0.9899366E-01
       -2   -1    0    0    0  501  0.00000000000E+00  0.00000000000E+00  0.17217819764E+03  0.17217819766E+03  0.25500000920E-02 0.  1.
        2   -1    0    0  501    0  0.00000000000E+00  0.00000000000E+00 -0.52781458597E+03  0.52781458598E+03  0.25500000920E-02 0. -1.
    10030    2    1    2    0    0  0.00000000000E+00  0.00000000000E+00 -0.35563638834E+03  0.69999278364E+03  0.60292010784E+03 0.  0.
        5    1    3    3  502    0 -0.68373350988E+02 -0.28341797392E+03 -0.26665899984E+03  0.39513260465E+03  0.46999998093E+01 0. -1.
       -5    1    3    3    0  502  0.68373350988E+02  0.28341797392E+03 -0.88977388502E+02  0.30486017898E+03  0.46999998093E+01 0.  1.
</event>
<event>
 5   0  0.9571790E-03  0.5998955E+03  0.7818609E-02  0.9905623E-01
        2   -1    0    0  501    0  0.00000000000E+00  0.00000000000E+00  0.13503916330E+04  0.13503916330E+04  0.25500000920E-02 0.  1.
       -2   -1    0    0    0  501  0.00000000000E+00  0.00000000000E+00 -0.66624118302E+02  0.66624118351E+02  0.25500000920E-02 0. -1.
    10030    2    1    2    0    0  0.00000000000E+00  0.00000000000E+00  0.12837675147E+04  0.14170157514E+04  0.59989549739E+03 0.  0.
        5    1    3    3  502    0  0.91594973741E+02  0.16531260342E+03  0.91819360893E+02  0.21016845885E+03  0.46999998093E+01 0. -1.
       -5    1    3    3    0  502 -0.91594973741E+02 -0.16531260342E+03  0.11919481538E+04  0.12068472925E+04  0.46999998093E+01 0.  1.
</event>
<event>
 5   0  0.9428629E-03  0.6052808E+03  0.7818609E-02  0.9894510E-01
        2   -1    0    0  501    0  0.00000000000E+00  0.00000000000E+00  0.25747512588E+04  0.25747512588E+04  0.25500000920E-02 0. -1.
       -2   -1    0    0    0  501  0.00000000000E+00  0.00000000000E+00 -0.35572839518E+02  0.35572839609E+02  0.25500000920E-02 0.  1.
    10030    2    1    2    0    0  0.00000000000E+00  0.00000000000E+00  0.25391784193E+04  0.26103240984E+04  0.60528080574E+03 0.  0.
        3    1    3    3  502    0  0.18943093580E+03  0.23572595568E+03  0.12184896199E+04  0.12554552041E+04  0.10100000352E+00 0. -1.
       -3    1    3    3    0  502 -0.18943093580E+03 -0.23572595568E+03  0.13206887994E+04  0.13548688943E+04  0.10100000352E+00 0.  1.
</event>
<event>
 5   0  0.9571790E-03  0.6066493E+03  0.7818609E-02  0.9891706E-01
        2   -1    0    0  501    0  0.00000000000E+00  0.00000000000E+00  0.13132462689E+04  0.13132462689E+04  0.25500000920E-02 0.  1.
       -2   -1    0    0    0  501  0.00000000000E+00  0.00000000000E+00 -0.70059843874E+02  0.70059843921E+02  0.25500000920E-02 0. -1.
    10030    2    1    2    0    0  0.00000000000E+00  0.00000000000E+00  0.12431864250E+04  0.13833061128E+04  0.60664925154E+03 0.  0.
        5    1    3    3  502    0 -0.83287117966E+02  0.35396883833E+02 -0.38472592052E+02  0.98447517702E+02  0.46999998093E+01 0. -1.
       -5    1    3    3    0  502  0.83287117966E+02 -0.35396883833E+02  0.12816590170E+04  0.12848585951E+04  0.46999998093E+01 0.  1.
</event>
<event>
 5   0  0.9530666E-03  0.5991901E+03  0.7818609E-02  0.9907088E-01
       -2   -1    0    0    0  501  0.00000000000E+00  0.00000000000E+00  0.30137391307E+03  0.30137391308E+03  0.25500000920E-02 0.  1.
        2   -1    0    0  501    0  0.00000000000E+00  0.00000000000E+00 -0.29782671183E+03  0.29782671184E+03  0.25500000920E-02 0. -1.
    10030    2    1    2    0    0  0.00000000000E+00  0.00000000000E+00  0.35472012356E+01  0.59920062492E+03  0.59919012531E+03 0.  0.
        2    1    3    3  502    0  0.12822432030E+03 -0.24201097028E+03 -0.11966334729E+03  0.29888141920E+03  0.25500000920E-02 0. -1.
       -2    1    3    3    0  502 -0.12822432030E+03  0.24201097028E+03  0.12321054853E+03  0.30031920572E+03  0.25500000920E-02 0.  1.
</event>
<event>
 5   0  0.9571790E-03  0.6018965E+03  0.7818609E-02  0.9901479E-01
       -2   -1    0    0    0  501  0.00000000000E+00  0.00000000000E+00  0.55309319484E+03  0.55309319485E+03  0.25500000920E-02 0.  1.
        2   -1    0    0  501    0  0.00000000000E+00  0.00000000000E+00 -0.16375151415E+03  0.16375151417E+03  0.25500000920E-02 0. -1.
    10030    2    1    2    0    0  0.00000000000E+00  0.00000000000E+00  0.38934168069E+03  0.71684470902E+03  0.60189649652E+03 0.  0.
        5    1    3    3  502    0  0.14982695363E+03  0.11074343966E+03  0.47609320022E+03  0.51127199293E+03  0.46999998093E+01 0.  1.
       -5    1    3    3    0  502 -0.14982695363E+03 -0.11074343966E+03 -0.86751519530E+02  0.20557271609E+03  0.46999998093E+01 0. -1.
</event>
<event>
 5   0  0.9530666E-03  0.5956970E+03  0.7818609E-02  0.9914374E-01
        2   -1    0    0  501    0  0.00000000000E+00  0.00000000000E+00  0.71596193088E+03  0.71596193088E+03  0.25500000920E-02 0. -1.
       -2   -1    0    0    0  501  0.00000000000E+00  0.00000000000E+00 -0.12390845806E+03  0.12390845809E+03  0.25500000920E-02 0.  1.
    10030    2    1    2    0    0  0.00000000000E+00  0.00000000000E+00  0.59205347282E+03  0.83987038897E+03  0.59569703339E+03 0.  0.
        2    1    3    3  502    0  0.24876464730E+03 -0.16318020340E+03  0.31607058547E+03  0.43406479186E+03  0.25500000920E-02 0. -1.
       -2    1    3    3    0  502 -0.24876464730E+03  0.16318020340E+03  0.27598288735E+03  0.40580559711E+03  0.25500000920E-02 0.  1.
</event>
<event>
 5   0  0.9681801E-03  0.6001109E+03  0.7818609E-02  0.9905176E-01
       -2   -1    0    0    0  501  0.00000000000E+00  0.00000000000E+00  0.10573569719E+03  0.10573569722E+03  0.25500000920E-02 0.  1.
        2   -1    0    0  501    0  0.00000000000E+00  0.00000000000E+00 -0.85149361606E+03  0.85149361606E+03  0.25500000920E-02 0. -1.
    10030    2    1    2    0    0  0.00000000000E+00  0.00000000000E+00 -0.74575791886E+03  0.95722931329E+03  0.60011089364E+03 0.  0.
        4    1    3    3  502    0  0.14878142372E+03 -0.16194874000E+03 -0.69848139168E+03  0.73228489937E+03  0.12699999809E+01 0. -1.
       -4    1    3    3    0  502 -0.14878142372E+03  0.16194874000E+03 -0.47276527187E+02  0.22494441392E+03  0.12699999809E+01 0.  1.
</event>
<event>
 5   0  0.9866317E-03  0.5984149E+03  0.7818609E-02  0.9908700E-01
       -2   -1    0    0    0  501  0.00000000000E+00  0.00000000000E+00  0.42092324073E+02  0.42092324151E+02  0.25500000920E-02 0.  1.
        2   -1    0    0  501    0  0.00000000000E+00  0.00000000000E+00 -0.21268744025E+04  0.21268744025E+04  0.25500000920E-02 0. -1.
    10030    2    1    2    0    0  0.00000000000E+00  0.00000000000E+00 -0.20847820785E+04  0.21689667267E+04  0.59841486178E+03 0.  0.
        1    1    3    3  502    0 -0.20238992626E+02 -0.22438947550E+03 -0.17560150900E+04  0.17704093453E+04  0.50400001928E-02 0. -1.
       -1    1    3    3    0  502  0.20238992626E+02  0.22438947550E+03 -0.32876698843E+03  0.39855738137E+03  0.50400001928E-02 0.  1.
</event>
<event>
 5   0  0.5785798E-03  0.6046096E+03  0.7818609E-02  0.9895889E-01
        1   -1    0    0  501    0  0.00000000000E+00  0.00000000000E+00  0.39964287514E+03  0.39964287517E+03  0.50400001928E-02 0.  1.
       -1   -1    0    0    0  501  0.00000000000E+00  0.00000000000E+00 -0.22867461301E+03  0.22867461306E+03  0.50400001928E-02 0. -1.
    10030    2    1    2    0    0  0.00000000000E+00  0.00000000000E+00  0.17096826213E+03  0.62831748823E+03  0.60460955943E+03 0.  0.
        1    1    3    3  502    0 -0.11743534153E+03 -0.27482346928E+03  0.13275606724E+03  0.32702166919E+03  0.50400001928E-02 0.  1.
       -1    1    3    3    0  502  0.11743534153E+03  0.27482346928E+03  0.38212194889E+02  0.30129581904E+03  0.50400001928E-02 0. -1.
</event>
<event>
 5   0  0.5574736E-03  0.6004802E+03  0.7818609E-02  0.9904410E-01
        1   -1    0    0  501    0  0.00000000000E+00  0.00000000000E+00  0.32514466947E+03  0.32514466951E+03  0.50400001928E-02 0.  1.
       -1   -1    0    0    0  501  0.00000000000E+00  0.00000000000E+00 -0.27724309696E+03  0.27724309701E+03  0.50400001928E-02 0. -1.
    10030    2    1    2    0    0  0.00000000000E+00  0.00000000000E+00  0.47901572507E+02  0.60238776652E+03  0.60048019168E+03 0.  0.
        5    1    3    3  502    0 -0.74864608389E+02  0.10452364284E+02 -0.26750281542E+03  0.27801763930E+03  0.46999998093E+01 0. -1.
       -5    1    3    3    0  502  0.74864608389E+02 -0.10452364284E+02  0.31540438793E+03  0.32437012721E+03  0.46999998093E+01 0.  1.
</event>
<event>
 5   0  0.5653633E-03  0.6001613E+03  0.7818609E-02  0.9905071E-01
       -1   -1    0    0    0  501  0.00000000000E+00  0.00000000000E+00  0.14574767140E+03  0.14574767149E+03  0.50400001928E-02 0. -1.
        1   -1    0    0  501    0  0.00000000000E+00  0.00000000000E+00 -0.61783769606E+03  0.61783769608E+03  0.50400001928E-02 0.  1.
    10030    2    1    2    0    0  0.00000000000E+00  0.00000000000E+00 -0.47209002465E+03  0.76358536757E+03  0.60016133014E+03 0.  0.
        2    1    3    3  502    0  0.22395284733E+03 -0.19254984996E+03 -0.30358585547E+03  0.42355010825E+03  0.25500000920E-02 0.  1.
       -2    1    3    3    0  502 -0.22395284733E+03  0.19254984996E+03 -0.16850416918E+03  0.34003525932E+03  0.25500000920E-02 0. -1.
</event>
<event>
 5   0  0.5574736E-03  0.5995029E+03  0.7818609E-02  0.9906438E-01
        1   -1    0    0  501    0  0.00000000000E+00  0.00000000000E+00  0.14113970746E+04  0.14113970746E+04  0.50400001928E-02 0.  1.
       -1   -1    0    0    0  501  0.00000000000E+00  0.00000000000E+00 -0.63660988002E+02  0.63660988202E+02  0.50400001928E-02 0. -1.
    10030    2    1    2    0    0  0.00000000000E+00  0.00000000000E+00  0.13477360866E+04  0.14750580628E+04  0.59950290204E+03 0.  0.
        5    1    3    3  502    0 -0.70983948051E+02  0.22589364193E+03  0.22176951578E+03  0.32445410535E+03  0.46999998093E+01 0. -1.
       -5    1    3    3    0  502  0.70983948051E+02 -0.22589364193E+03  0.11259665708E+04  0.11506039575E+04  0.46999998093E+01 0.  1.
</event>
<event>
 5   0  0.9428629E-03  0.5992482E+03  0.7818609E-02  0.9906967E-01
       -2   -1    0    0    0  501  0.00000000000E+00  0.00000000000E+00  0.81324016537E+03  0.81324016537E+03  0.25500000920E-02 0. -1.
        2   -1    0    0  501    0  0.00000000000E+00  0.00000000000E+00 -0.11039124664E+03  0.11039124667E+03  0.25500000920E-02 0.  1.
    10030    2    1    2    0    0  0.00000000000E+00  0.00000000000E+00  0.70284891873E+03  0.92363141204E+03  0.59924818126E+03 0.  0.
        3    1    3    3  502    0  0.13701769110E+03  0.58065145953E+02 -0.49404434256E+02  0.15679992721E+03  0.10100000352E+00 0.  1.
       -3    1    3    3    0  502 -0.13701769110E+03 -0.58065145953E+02  0.75225335298E+03  0.76683148483E+03  0.10100000352E+00 0. -1.
</event>
<event>
 5   0  0.9681801E-03  0.5997882E+03  0.7818609E-02  0.9905846E-01
       -2   -1    0    0    0  501  0.00000000000E+00  0.00000000000E+00  0.58821492885E+02  0.58821492941E+02  0.25500000920E-02 0.  1.
        2   -1    0    0  501    0  0.00000000000E+00  0.00000000000E+00 -0.15289728828E+04  0.15289728828E+04  0.25500000920E-02 0. -1.
    10030    2    1    2    0    0  0.00000000000E+00  0.00000000000E+00 -0.14701513899E+04  0.15877943757E+04  0.59978818792E+03 0.  0.
        4    1    3    3  502    0  0.15605705349E+03  0.11710228055E+02 -0.14122976162E+04  0.14209423292E+04  0.12699999809E+01 0. -1.
       -4    1    3    3    0  502 -0.15605705349E+03 -0.11710228055E+02 -0.57853773692E+02  0.16685204649E+03  0.12699999809E+01 0.  1.
</event>
<event>
 5   0  0.5503975E-03  0.5980595E+03  0.7818609E-02  0.9909440E-01
        1   -1    0    0  501    0  0.00000000000E+00  0.00000000000E+00  0.33099615631E+03  0.33099615635E+03  0.50400001928E-02 0. -1.
       -1   -1    0    0    0  501  0.00000000000E+00  0.00000000000E+00 -0.27015058703E+03  0.27015058707E+03  0.50400001928E-02 0.  1.
    10030    2    1    2    0    0  0.00000000000E+00  0.00000000000E+00  0.60845569288E+02  0.60114674343E+03  0.59805954873E+03 0.  0.
        4    1    3    3  502    0 -0.11840832227E+03  0.27261475800E+03 -0.25774053888E+01  0.29723322994E+03  0.12699999809E+01 0. -1.
       -4    1    3    3    0  502  0.11840832227E+03 -0.27261475800E+03  0.63422974677E+02  0.30391351349E+03  0.12699999809E+01 0.  1.
</event>
<event>
 5   0  0.5653633E-03  0.5993071E+03  0.7818609E-02  0.9906845E-01
       -1   -1    0    0    0  501  0.00000000000E+00  0.00000000000E+00  0.63515157050E+02  0.63515157250E+02  0.50400001928E-02 0.  1.
        1   -1    0    0  501    0  0.00000000000E+00  0.00000000000E+00 -0.14137137307E+04  0.14137137307E+04  0.50400001928E-02 0. -1.
    10030    2    1    2    0    0  0.00000000000E+00  0.00000000000E+00 -0.13501985737E+04  0.14772288880E+04  0.59930709919E+03 0.  0.
        2    1    3    3  502    0 -0.20507458916E+03 -0.13722242108E+03 -0.25601883781E+03  0.35557168796E+03  0.25500000920E-02 0.  1.
       -2    1    3    3    0  502  0.20507458916E+03  0.13722242108E+03 -0.10941797359E+04  0.11216572000E+04  0.25500000920E-02 0. -1.
</event>
<event>
 5   0  0.5653633E-03  0.6002512E+03  0.7818609E-02  0.9904885E-01
        1   -1    0    0  501    0  0.00000000000E+00  0.00000000000E+00  0.18807756237E+03  0.18807756244E+03  0.50400001928E-02 0.  1.
       -1   -1    0    0    0  501  0.00000000000E+00  0.00000000000E+00 -0.47892676360E+03  0.47892676363E+03  0.50400001928E-02 0. -1.
    10030    2    1    2    0    0  0.00000000000E+00  0.00000000000E+00 -0.29084920123E+03  0.66700432607E+03  0.60025120836E+03 0.  0.
        2    1    3    3  502    0 -0.21113848310E+03 -0.27301612744E+02 -0.38049327245E+03  0.43600454985E+03  0.25500000920E-02 0. -1.
       -2    1    3    3    0  502  0.21113848310E+03  0.27301612744E+02  0.89644071212E+02  0.23099977622E+03  0.25500000920E-02 0.  1.
</event>
<event>
 5   0  0.9530666E-03  0.6009631E+03  0.7818609E-02  0.9903410E-01
       -2   -1    0    0    0  501  0.00000000000E+00  0.00000000000E+00  0.77407020141E+03  0.77407020142E+03  0.25500000920E-02 0. -1.
        2   -1    0    0  501    0  0.00000000000E+00  0.00000000000E+00 -0.11664209214E+03  0.11664209217E+03  0.25500000920E-02 0.  1.
    10030    2    1    2    0    0  0.00000000000E+00  0.00000000000E+00  0.65742810928E+03  0.89071229358E+03  0.60096311956E+03 0.  0.
        2    1    3    3  502    0  0.21543649223E+03 -0.34056582899E+02  0.63504235744E+03  0.67145478535E+03  0.25500000920E-02 0. -1.
       -2    1    3    3    0  502 -0.21543649223E+03  0.34056582899E+02  0.22385751838E+02  0.21925750823E+03  0.25500000920E-02 0.  1.
</event>
<event>
 5   0  0.5503975E-03  0.5981890E+03  0.7818609E-02  0.9909171E-01
       -1   -1    0    0    0  501  0.00000000000E+00  0.00000000000E+00  0.17426173717E+03  0.17426173724E+03  0.50400001928E-02 0. -1.
        1   -1    0    0  501    0  0.00000000000E+00  0.00000000000E+00 -0.51335139818E+03  0.51335139820E+03  0.50400001928E-02 0.  1.
    10030    2    1    2    0    0  0.00000000000E+00  0.00000000000E+00 -0.33908966101E+03  0.68761313545E+03  0.59818895496E+03 0.  0.
        4    1    3    3  502    0 -0.20513443424E+03 -0.17880263955E+03 -0.26871798376E+02  0.27344876389E+03  0.12699999809E+01 0. -1.
       -4    1    3    3    0  502  0.20513443424E+03  0.17880263955E+03 -0.31221786263E+03  0.41416437156E+03  0.12699999809E+01 0.  1.
</event>
<event>
 5   0  0.5653633E-03  0.6003864E+03  0.7818609E-02  0.9904605E-01
        1   -1    0    0  501    0  0.00000000000E+00  0.00000000000E+00  0.16925479765E+04  0.16925479765E+04  0.50400001928E-02 0. -1.
       -1   -1    0    0    0  501  0.00000000000E+00  0.00000000000E+00 -0.53242776514E+02  0.53242776753E+02  0.50400001928E-02 0.  1.
    10030    2    1    2    0    0  0.00000000000E+00  0.00000000000E+00  0.16393052000E+04  0.17457907532E+04  0.60038638847E+03 0.  0.
        2    1    3    3  502    0 -0.18851808155E+03 -0.18401605071E+03  0.12381604504E+04  0.12658760899E+04  0.25500000920E-02 0. -1.
       -2    1    3    3    0  502  0.18851808155E+03  0.18401605071E+03  0.40114474954E+03  0.47991466334E+03  0.25500000920E-02 0.  1.
</event>
<event>
 5   0  0.5491236E-03  0.5996340E+03  0.7818609E-02  0.9906166E-01
        1   -1    0    0  501    0  0.00000000000E+00  0.00000000000E+00  0.19496767049E+04  0.19496767049E+04  0.50400001928E-02 0. -1.
       -1   -1    0    0    0  501  0.00000000000E+00  0.00000000000E+00 -0.46105197410E+02  0.46105197685E+02  0.50400001928E-02 0.  1.
    10030    2    1    2    0    0  0.00000000000E+00  0.00000000000E+00  0.19035715075E+04  0.19957819026E+04  0.59963398718E+03 0.  0.
        3    1    3    3  502    0  0.95681351115E+02  0.26345055819E+03  0.59752374507E+03  0.65999678309E+03  0.10100000352E+00 0.  1.
       -3    1    3    3    0  502 -0.95681351115E+02 -0.26345055819E+03  0.13060477624E+04  0.13357851195E+04  0.10100000352E+00 0. -1.
</event>
<event>
 5   0  0.5503975E-03  0.5999704E+03  0.7818609E-02  0.9905467E-01
       -1   -1    0    0    0  501  0.00000000000E+00  0.00000000000E+00  0.27460231762E+03  0.27460231767E+03  0.50400001928E-02 0.  1.
        1   -1    0    0  501    0  0.00000000000E+00  0.00000000000E+00 -0.32771435885E+03  0.32771435889E+03  0.50400001928E-02 0. -1.
    10030    2    1    2    0    0  0.00000000000E+00  0.00000000000E+00 -0.53112041229E+02  0.60231667656E+03  0.59997040755E+03 0.  0.
        4    1    3    3  502    0 -0.16986256528E+03  0.18287292482E+03  0.14050904375E+03  0.28642660839E+03  0.12699999809E+01 0.  1.
       -4    1    3    3    0  502  0.16986256528E+03 -0.18287292482E+03 -0.19362108498E+03  0.31589006817E+03  0.12699999809E+01 0. -1.
</event>
<event>
 5   0  0.9681801E-03  0.6003583E+03  0.7818609E-02  0.9904663E-01
       -2   -1    0    0    0  501  0.00000000000E+00  0.00000000000E+00  0.35576004901E+03  0.35576004902E+03  0.25500000920E-02 0.  1.
        2   -1    0    0  501    0  0.00000000000E+00  0.00000000000E+00 -0.25328173932E+03  0.25328173933E+03  0.25500000920E-02 0. -1.
    10030    2    1    2    0    0  0.00000000000E+00  0.00000000000E+00  0.10247830969E+03  0.60904178835E+03  0.60035830635E+03 0.  0.
        4    1    3    3  502    0 -0.25650261516E+03 -0.13155202543E+03 -0.33675674288E+02  0.29023299419E+03  0.12699999809E+01 0. -1.
       -4    1    3    3    0  502  0.25650261516E+03  0.13155202543E+03  0.13615398398E+03  0.31880879416E+03  0.12699999809E+01 0.  1.
</event>
<event>
 5   0  0.9530666E-03  0.5994118E+03  0.7818609E-02  0.9906627E-01
       -2   -1    0    0    0  501  0.00000000000E+00  0.00000000000E+00  0.59111053613E+02  0.59111053668E+02  0.25500000920E-02 0.  1.
        2   -1    0    0  501    0  0.00000000000E+00  0.00000000000E+00 -0.15195743362E+04  0.15195743362E+04  0.25500000920E-02 0. -1.
    10030    2    1    2    0    0  0.00000000000E+00  0.00000000000E+00 -0.14604632825E+04  0.15786853898E+04  0.59941184539E+03 0.  0.
        2    1    3    3  502    0 -0.12486268340E+03 -0.86680017620E+02 -0.49937483550E+02  0.15999333558E+03  0.25500000920E-02 0.  1.
       -2    1    3    3    0  502  0.12486268340E+03  0.86680017620E+02 -0.14105257990E+04  0.14186920543E+04  0.25500000920E-02 0. -1.
</event>
<event>
 5   0  0.9571790E-03  0.6009077E+03  0.7818609E-02  0.9903525E-01
       -2   -1    0    0    0  501  0.00000000000E+00  0.00000000000E+00  0.90969284481E+02  0.90969284517E+02  0.25500000920E-02 0. -1.
        2   -1    0    0  501    0  0.00000000000E+00  0.00000000000E+00 -0.99234060919E+03  0.99234060919E+03  0.25500000920E-02 0.  1.
    10030    2    1    2    0    0  0.00000000000E+00  0.00000000000E+00 -0.90137132471E+03  0.10833098937E+04  0.60090769741E+03 0.  0.
        5    1    3    3  502    0 -0.16184325837E+03  0.14131350066E+03 -0.82921850182E+03  0.85661435869E+03  0.46999998093E+01 0.  1.
       -5    1    3    3    0  502  0.16184325837E+03 -0.14131350066E+03 -0.72152822889E+02  0.22669553502E+03  0.46999998093E+01 0. -1.
</event>
<event>
 5   0  0.9428629E-03  0.6008014E+03  0.7818609E-02  0.9903745E-01
       -2   -1    0    0    0  501  0.00000000000E+00  0.00000000000E+00  0.74722426776E+02  0.74722426819E+02  0.25500000920E-02 0. -1.
        2   -1    0    0  501    0  0.00000000000E+00  0.00000000000E+00 -0.12076773232E+04  0.12076773232E+04  0.25500000920E-02 0.  1.
    10030    2    1    2    0    0  0.00000000000E+00  0.00000000000E+00 -0.11329548964E+04  0.12823997500E+04  0.60080139939E+03 0.  0.
        3    1    3    3  502    0 -0.28022311813E+03 -0.91785903014E+02 -0.44402955985E+03  0.53302148939E+03  0.10100000352E+00 0. -1.
       -3    1    3    3    0  502  0.28022311813E+03  0.91785903014E+02 -0.68892533652E+03  0.74937826058E+03  0.10100000352E+00 0.  1.
</event>
<event>
 5   0  0.9866317E-03  0.6000028E+03  0.7818609E-02  0.9905400E-01
        2   -1    0    0  501    0  0.00000000000E+00  0.00000000000E+00  0.18679378781E+03  0.18679378783E+03  0.25500000920E-02 0.  1.
       -2   -1    0    0    0  501  0.00000000000E+00  0.00000000000E+00 -0.48181931033E+03  0.48181931033E+03  0.25500000920E-02 0. -1.
    10030    2    1    2    0    0  0.00000000000E+00  0.00000000000E+00 -0.29502552252E+03  0.66861309816E+03  0.60000284674E+03 0.  0.
        1    1    3    3  502    0 -0.63382470967E+01  0.10923717105E+03 -0.45878944237E+03  0.47165738134E+03  0.50400001928E-02 0. -1.
       -1    1    3    3    0  502  0.63382470967E+01 -0.10923717105E+03  0.16376391986E+03  0.19695571682E+03  0.50400001928E-02 0.  1.
</event>
<event>
 5   0  0.5491236E-03  0.5997974E+03  0.7818609E-02  0.9905826E-01
        1   -1    0    0  501    0  0.00000000000E+00  0.00000000000E+00  0.21368780530E+04  0.21368780530E+04  0.50400001928E-02 0. -1.
       -1   -1    0    0    0  501  0.00000000000E+00  0.00000000000E+00 -0.42089082095E+02  0.42089082396E+02  0.50400001928E-02 0.  1.
    10030    2    1    2    0    0  0.00000000000E+00  0.00000000000E+00  0.20947889709E+04  0.21789671354E+04  0.59979741958E+03 0.  0.
        3    1    3    3  502    0  0.25956379609E+03  0.13950361198E+03  0.12498125132E+04  0.12840817538E+04  0.10100000352E+00 0. -1.
       -3    1    3    3    0  502 -0.25956379609E+03 -0.13950361198E+03  0.84497645767E+03  0.89488538161E+03  0.10100000352E+00 0.  1.
</event>
<event>
 5   0  0.5785798E-03  0.6044699E+03  0.7818609E-02  0.9896176E-01
       -1   -1    0    0    0  501  0.00000000000E+00  0.00000000000E+00  0.11133590546E+03  0.11133590557E+03  0.50400001928E-02 0.  1.
        1   -1    0    0  501    0  0.00000000000E+00  0.00000000000E+00 -0.82045376641E+03  0.82045376642E+03  0.50400001928E-02 0. -1.
    10030    2    1    2    0    0  0.00000000000E+00  0.00000000000E+00 -0.70911786095E+03  0.93178967199E+03  0.60446989348E+03 0.  0.
        1    1    3    3  502    0 -0.65448321527E+02  0.20019087153E+03 -0.68869848890E+03  0.72018433507E+03  0.50400001928E-02 0. -1.
       -1    1    3    3    0  502  0.65448321527E+02 -0.20019087153E+03 -0.20419372047E+02  0.21160533693E+03  0.50400001928E-02 0.  1.
</event>
<event>
 5   0  0.9571790E-03  0.5995046E+03  0.7818609E-02  0.9906434E-01
        2   -1    0    0  501    0  0.00000000000E+00  0.00000000000E+00  0.56077525653E+03  0.56077525653E+03  0.25500000920E-02 0.  1.
       -2   -1    0    0    0  501  0.00000000000E+00  0.00000000000E+00 -0.16022719345E+03  0.16022719347E+03  0.25500000920E-02 0. -1.
    10030    2    1    2    0    0  0.00000000000E+00  0.00000000000E+00  0.40054806308E+03  0.72100245000E+03  0.59950461388E+03 0.  0.
        5    1    3    3  502    0 -0.12677412081E+02 -0.18440279207E+03 -0.83473693180E+02  0.20286708445E+03  0.46999998093E+01 0. -1.
       -5    1    3    3    0  502  0.12677412081E+02  0.18440279207E+03  0.48402175626E+03  0.51813536555E+03  0.46999998093E+01 0.  1.
</event>
<event>
 5   0  0.5653633E-03  0.6017914E+03  0.7818609E-02  0.9901697E-01
       -1   -1    0    0    0  501  0.00000000000E+00  0.00000000000E+00  0.56532064255E+02  0.56532064479E+02  0.50400001928E-02 0. -1.
        1   -1    0    0  501    0  0.00000000000E+00  0.00000000000E+00 -0.16015372687E+04  0.16015372687E+04  0.50400001928E-02 0.  1.
    10030    2    1    2    0    0  0.00000000000E+00  0.00000000000E+00 -0.15450052045E+04  0.16580693332E+04  0.60179135246E+03 0.  0.
        2    1    3    3  502    0 -0.29176545677E+02 -0.25246667558E+03 -0.12163203129E+04  0.12425883456E+04  0.25500000920E-02 0.  1.
       -2    1    3    3    0  502  0.29176545677E+02  0.25246667558E+03 -0.32868489156E+03  0.41548098758E+03  0.25500000920E-02 0. -1.
</event>
<event>
 5   0  0.9866317E-03  0.5998649E+03  0.7818609E-02  0.9905686E-01
       -2   -1    0    0    0  501  0.00000000000E+00  0.00000000000E+00  0.91210789987E+02  0.91210790022E+02  0.25500000920E-02 0. -1.
        2   -1    0    0  501    0  0.00000000000E+00  0.00000000000E+00 -0.98628098108E+03  0.98628098108E+03  0.25500000920E-02 0.  1.
    10030    2    1    2    0    0  0.00000000000E+00  0.00000000000E+00 -0.89507019109E+03  0.10774917711E+04  0.59986487630E+03 0.  0.
        1    1    3    3  502    0 -0.23165258674E+03  0.19046740096E+03 -0.45530584814E+03  0.54520103370E+03  0.50400001928E-02 0.  1.
       -1    1    3    3    0  502  0.23165258674E+03 -0.19046740096E+03 -0.43976434295E+03  0.53229073740E+03  0.50400001928E-02 0. -1.
</event>
<event>
 5   0  0.3794375E-03  0.5988823E+03  0.7818609E-02  0.9907728E-01
       -3   -1    0    0    0  501  0.00000000000E+00  0.00000000000E+00  0.10746803313E+03  0.10746808059E+03  0.10100000352E+00 0. -1.
        3   -1    0    0  501    0  0.00000000000E+00  0.00000000000E+00 -0.83434080296E+03  0.83434080908E+03  0.10100000352E+00 0.  1.
    10030    2    1    2    0    0  0.00000000000E+00  0.00000000000E+00 -0.72687276984E+03  0.94180888966E+03  0.59888225981E+03 0.  0.
        3    1    3    3  502    0 -0.27861131874E+02 -0.29768487726E+03 -0.38939405733E+03  0.49093815385E+03  0.10100000352E+00 0.  1.
       -3    1    3    3    0  502  0.27861131874E+02  0.29768487726E+03 -0.33747871250E+03  0.45087073581E+03  0.10100000352E+00 0. -1.
</event>
<event>
 5   0  0.9428629E-03  0.5989554E+03  0.7818609E-02  0.9907576E-01
        2   -1    0    0  501    0  0.00000000000E+00  0.00000000000E+00  0.83187722671E+03  0.83187722672E+03  0.25500000920E-02 0. -1.
       -2   -1    0    0    0  501  0.00000000000E+00  0.00000000000E+00 -0.10781264003E+03  0.10781264006E+03  0.25500000920E-02 0.  1.
    10030    2    1    2    0    0  0.00000000000E+00  0.00000000000E+00  0.72406458668E+03  0.93968986678E+03  0.59895535730E+03 0.  0.
        3    1    3    3  502    0 -0.38481101096E+02 -0.10806655568E+03  0.79604196132E+03  0.80426487552E+03  0.10100000352E+00 0. -1.
       -3    1    3    3    0  502  0.38481101096E+02  0.10806655568E+03 -0.71977374642E+02  0.13542499126E+03  0.10100000352E+00 0.  1.
</event>
<event>
 5   0  0.3794375E-03  0.6012643E+03  0.7818609E-02  0.9902787E-01
        3   -1    0    0  501    0  0.00000000000E+00  0.00000000000E+00  0.63734119875E+03  0.63734120676E+03  0.10100000352E+00 0. -1.
       -3   -1    0    0    0  501  0.00000000000E+00  0.00000000000E+00 -0.14180734736E+03  0.14180738333E+03  0.10100000352E+00 0.  1.
    10030    2    1    2    0    0  0.00000000000E+00  0.00000000000E+00  0.49553385139E+03  0.77914859008E+03  0.60126427430E+03 0.  0.
        4    1    3    3  502    0  0.23139593897E+03  0.47297901460E+02  0.67356145826E+01  0.23627982025E+03  0.12699999809E+01 0.  1.
       -4    1    3    3    0  502 -0.23139593897E+03 -0.47297901460E+02  0.48879823681E+03  0.54286876984E+03  0.12699999809E+01 0. -1.
</event>
<event>
 5   0  0.5785798E-03  0.6004223E+03  0.7818609E-02  0.9904530E-01
       -1   -1    0    0    0  501  0.00000000000E+00  0.00000000000E+00  0.17918520988E+03  0.17918520995E+03  0.50400001928E-02 0.  1.
        1   -1    0    0  501    0  0.00000000000E+00  0.00000000000E+00 -0.50298095297E+03  0.50298095300E+03  0.50400001928E-02 0. -1.
    10030    2    1    2    0    0  0.00000000000E+00  0.00000000000E+00 -0.32379574309E+03  0.68216616294E+03  0.60042234354E+03 0.  0.
        1    1    3    3  502    0 -0.57306624373E+01 -0.25561389351E+03 -0.34065719131E+03  0.42593265321E+03  0.50400001928E-02 0. -1.
       -1    1    3    3    0  502  0.57306624373E+01  0.25561389351E+03  0.16861448220E+02  0.25623350974E+03  0.50400001928E-02 0.  1.
</event>
<event>
 5   0  0.9428629E-03  0.5996406E+03  0.7818609E-02  0.9906152E-01
        2   -1    0    0  501    0  0.00000000000E+00  0.00000000000E+00  0.51123773025E+03  0.51123773025E+03  0.25500000920E-02 0. -1.
       -2   -1    0    0    0  501  0.00000000000E+00  0.00000000000E+00 -0.17583251477E+03  0.17583251479E+03  0.25500000920E-02 0.  1.
    10030    2    1    2    0    0  0.00000000000E+00  0.00000000000E+00  0.33540521548E+03  0.68707024504E+03  0.59964061158E+03 0.  0.
        3    1    3    3  502    0 -0.84738154779E+02 -0.10321364124E+03 -0.13987378369E+03  0.19338639088E+03  0.10100000352E+00 0.  1.
       -3    1    3    3    0  502  0.84738154779E+02  0.10321364124E+03  0.47527899916E+03  0.49368385416E+03  0.10100000352E+00 0. -1.
</event>
<event>
 5   0  0.9866317E-03  0.5989762E+03  0.7818609E-02  0.9907532E-01
       -2   -1    0    0    0  501  0.00000000000E+00  0.00000000000E+00  0.95270416981E+02  0.95270417015E+02  0.25500000920E-02 0.  1.
        2   -1    0    0  501    0  0.00000000000E+00  0.00000000000E+00 -0.94145815857E+03  0.94145815857E+03  0.25500000920E-02 0. -1.
    10030    2    1    2    0    0  0.00000000000E+00  0.00000000000E+00 -0.84618774159E+03  0.10367285756E+04  0.59897616432E+03 0.  0.
        1    1    3    3  502    0  0.11243525646E+03 -0.48562196819E+02 -0.89613170764E+03  0.90446227745E+03  0.50400001928E-02 0. -1.
       -1    1    3    3    0  502 -0.11243525646E+03  0.48562196819E+02  0.49943966053E+02  0.13226629814E+03  0.50400001928E-02 0.  1.
</event>
<event>
 5   0  0.5653633E-03  0.5967438E+03  0.7818609E-02  0.9912185E-01
       -1   -1    0    0    0  501  0.00000000000E+00  0.00000000000E+00  0.79119259531E+02  0.79119259692E+02  0.50400001928E-02 0. -1.
        1   -1    0    0  501    0  0.00000000000E+00  0.00000000000E+00 -0.11252101635E+04  0.11252101635E+04  0.50400001928E-02 0.  1.
    10030    2    1    2    0    0  0.00000000000E+00  0.00000000000E+00 -0.10460909040E+04  0.12043294232E+04  0.59674381458E+03 0.  0.
        2    1    3    3  502    0 -0.11406956145E+03 -0.21531288321E+03 -0.87058253724E+03  0.90403841549E+03  0.25500000920E-02 0.  1.
       -2    1    3    3    0  502  0.11406956145E+03  0.21531288321E+03 -0.17550836677E+03  0.30029100775E+03  0.25500000920E-02 0. -1.
</event>
<event>
 5   0  0.9681801E-03  0.5992352E+03  0.7818609E-02  0.9906994E-01
        2   -1    0    0  501    0  0.00000000000E+00  0.00000000000E+00  0.13739608255E+03  0.13739608257E+03  0.25500000920E-02 0.  1.
       -2   -1    0    0    0  501  0.00000000000E+00  0.00000000000E+00 -0.65337175655E+03  0.65337175655E+03  0.25500000920E-02 0. -1.
    10030    2    1    2    0    0  0.00000000000E+00  0.00000000000E+00 -0.51597567400E+03  0.79076783913E+03  0.59923524532E+03 0.  0.
        4    1    3    3  502    0 -0.53593229408E+02  0.24879698597E+02  0.12962786735E+03  0.14246483964E+03  0.12699999809E+01 0.  1.
       -4    1    3    3    0  502  0.53593229408E+02 -0.24879698597E+02 -0.64560354135E+03  0.64830299949E+03  0.12699999809E+01 0. -1.
</event>
<event>
 5   0  0.9530666E-03  0.6000981E+03  0.7818609E-02  0.9905202E-01
       -2   -1    0    0    0  501  0.00000000000E+00  0.00000000000E+00  0.84271580527E+02  0.84271580566E+02  0.25500000920E-02 0. -1.
        2   -1    0    0  501    0  0.00000000000E+00  0.00000000000E+00 -0.10683250798E+04  0.10683250798E+04  0.25500000920E-02 0.  1.
    10030    2    1    2    0    0  0.00000000000E+00  0.00000000000E+00 -0.98405349929E+03  0.11525966604E+04  0.60009813537E+03 0.  0.
        2    1    3    3  502    0  0.84676101184E+02  0.27453006404E+03 -0.32577253910E+03  0.43435532161E+03  0.25500000920E-02 0.  1.
       -2    1    3    3    0  502 -0.84676101184E+02 -0.27453006404E+03 -0.65828096019E+03  0.71824133878E+03  0.25500000920E-02 0. -1.
</event>
<event>
 5   0  0.5491236E-03  0.5972576E+03  0.7818609E-02  0.9911112E-01
        1   -1    0    0  501    0  0.00000000000E+00  0.00000000000E+00  0.19897450944E+03  0.19897450951E+03  0.50400001928E-02 0.  1.
       -1   -1    0    0    0  501  0.00000000000E+00  0.00000000000E+00 -0.44819394579E+03  0.44819394582E+03  0.50400001928E-02 0. -1.
    10030    2    1    2    0    0  0.00000000000E+00  0.00000000000E+00 -0.24921943634E+03  0.64716845532E+03  0.59725763462E+03 0.  0.
        3    1    3    3  502    0 -0.16810179204E+03  0.19141974313E+03  0.44230098507E+02  0.25856535414E+03  0.10100000352E+00 0.  1.
       -3    1    3    3    0  502  0.16810179204E+03 -0.19141974313E+03 -0.29344953485E+03  0.38860310119E+03  0.10100000352E+00 0. -1.
</event>
<event>
 5   0  0.5503975E-03  0.5997223E+03  0.7818609E-02  0.9905982E-01
        1   -1    0    0  501    0  0.00000000000E+00  0.00000000000E+00  0.10329409859E+04  0.10329409859E+04  0.50400001928E-02 0. -1.
       -1   -1    0    0    0  501  0.00000000000E+00  0.00000000000E+00 -0.87049216045E+02  0.87049216191E+02  0.50400001928E-02 0.  1.
    10030    2    1    2    0    0  0.00000000000E+00  0.00000000000E+00  0.94589176981E+03  0.11199902021E+04  0.59972227949E+03 0.  0.
        4    1    3    3  502    0  0.15753440342E+03 -0.13421961729E+03  0.67720589025E+02  0.21776061399E+03  0.12699999809E+01 0.  1.
       -4    1    3    3    0  502 -0.15753440342E+03  0.13421961729E+03  0.87817118079E+03  0.90222958807E+03  0.12699999809E+01 0. -1.
</event>
<event>
 5   0  0.5574736E-03  0.5984991E+03  0.7818609E-02  0.9908525E-01
       -1   -1    0    0    0  501  0.00000000000E+00  0.00000000000E+00  0.84756210033E+02  0.84756210182E+02  0.50400001928E-02 0. -1.
        1   -1    0    0  501    0  0.00000000000E+00  0.00000000000E+00 -0.10565632096E+04  0.10565632096E+04  0.50400001928E-02 0.  1.
    10030    2    1    2    0    0  0.00000000000E+00  0.00000000000E+00 -0.97180699960E+03  0.11413194198E+04  0.59849910075E+03 0.  0.
        5    1    3    3  502    0  0.20031291318E+03  0.19694247780E+03 -0.68239168688E+03  0.73796484134E+03  0.46999998093E+01 0.  1.
       -5    1    3    3    0  502 -0.20031291318E+03 -0.19694247780E+03 -0.28941531273E+03  0.40335457849E+03  0.46999998093E+01 0. -1.
</event>
<event>
 5   0  0.5503975E-03  0.5966464E+03  0.7818609E-02  0.9912388E-01
        1   -1    0    0  501    0  0.00000000000E+00  0.00000000000E+00  0.30902758573E+03  0.30902758577E+03  0.50400001928E-02 0. -1.
       -1   -1    0    0    0  501  0.00000000000E+00  0.00000000000E+00 -0.28798963191E+03  0.28798963195E+03  0.50400001928E-02 0.  1.
    10030    2    1    2    0    0  0.00000000000E+00  0.00000000000E+00  0.21037953823E+02  0.59701721773E+03  0.59664643028E+03 0.  0.
        4    1    3    3  502    0 -0.14912726531E+03  0.17084051583E+03 -0.18343053913E+03  0.29167413099E+03  0.12699999809E+01 0.  1.
       -4    1    3    3    0  502  0.14912726531E+03 -0.17084051583E+03  0.20446849295E+03  0.30534308673E+03  0.12699999809E+01 0. -1.
</event>
<event>
 5   0  0.5785798E-03  0.6023029E+03  0.7818609E-02  0.9900640E-01
       -1   -1    0    0    0  501  0.00000000000E+00  0.00000000000E+00  0.66546706794E+03  0.66546706796E+03  0.50400001928E-02 0. -1.
        1   -1    0    0  501    0  0.00000000000E+00  0.00000000000E+00 -0.13628350508E+03  0.13628350518E+03  0.50400001928E-02 0.  1.
    10030    2    1    2    0    0  0.00000000000E+00  0.00000000000E+00  0.52918356286E+03  0.80175057313E+03  0.60230286262E+03 0.  0.
        1    1    3    3  502    0 -0.11284958951E+03  0.27880660216E+03  0.28451596962E+03  0.41402595118E+03  0.50400001928E-02 0. -1.
       -1    1    3    3    0  502  0.11284958951E+03 -0.27880660216E+03  0.24466759324E+03  0.38772462195E+03  0.50400001928E-02 0.  1.
</event>
<event>
 5   0  0.9571790E-03  0.6004454E+03  0.7818609E-02  0.9904482E-01
        2   -1    0    0  501    0  0.00000000000E+00  0.00000000000E+00  0.31970141488E+03  0.31970141489E+03  0.25500000920E-02 0.  1.
       -2   -1    0    0    0  501  0.00000000000E+00  0.00000000000E+00 -0.28193076265E+03  0.28193076266E+03  0.25500000920E-02 0. -1.
    10030    2    1    2    0    0  0.00000000000E+00  0.00000000000E+00  0.37770652233E+02  0.60163217755E+03  0.60044538044E+03 0.  0.
        5    1    3    3  502    0 -0.37107215193E+02 -0.15664847299E+03  0.27275518438E+03  0.31675411617E+03  0.46999998093E+01 0.  1.
       -5    1    3    3    0  502  0.37107215193E+02  0.15664847299E+03 -0.23498453214E+03  0.28487806138E+03  0.46999998093E+01 0. -1.
</event>
<event>
 5   0  0.5503975E-03  0.5996395E+03  0.7818609E-02  0.9906154E-01
       -1   -1    0    0    0  501  0.00000000000E+00  0.00000000000E+00  0.10527569941E+03  0.10527569953E+03  0.50400001928E-02 0. -1.
        1   -1    0    0  501    0  0.00000000000E+00  0.00000000000E+00 -0.85387101477E+03  0.85387101479E+03  0.50400001928E-02 0.  1.
    10030    2    1    2    0    0  0.00000000000E+00  0.00000000000E+00 -0.74859531537E+03  0.95914671432E+03  0.59963945284E+03 0.  0.
        4    1    3    3  502    0  0.29652693268E+03  0.31034125055E+01 -0.44497488748E+03  0.53473555741E+03  0.12699999809E+01 0.  1.
       -4    1    3    3    0  502 -0.29652693268E+03 -0.31034125055E+01 -0.30362042789E+03  0.42441115691E+03  0.12699999809E+01 0. -1.
</event>
<event>
 5   0  0.3794375E-03  0.6002751E+03  0.7818609E-02  0.9904836E-01
        4   -1    0    0  501    0  0.00000000000E+00  0.00000000000E+00  0.74782638339E+03  0.74782746178E+03  0.12699999809E+01 0.  1.
       -4   -1    0    0    0  501  0.00000000000E+00  0.00000000000E+00 -0.12045465457E+03  0.12046134943E+03  0.12699999809E+01 0. -1.
    10030    2    1    2    0    0  0.00000000000E+00  0.00000000000E+00  0.62737172882E+03  0.86828881121E+03  0.60027508157E+03 0.  0.
        4    1    3    3  502    0  0.19765245642E+03 -0.21719725226E+03  0.22405292103E+03  0.36938119096E+03  0.12699999809E+01 0. -1.
       -4    1    3    3    0  502 -0.19765245642E+03  0.21719725226E+03  0.40331880780E+03  0.49890762025E+03  0.12699999809E+01 0.  1.
</event>
<event>
 5   0  0.9428629E-03  0.6022830E+03  0.7818609E-02  0.9900681E-01
       -2   -1    0    0    0  501  0.00000000000E+00  0.00000000000E+00  0.55282686409E+02  0.55282686468E+02  0.25500000920E-02 0. -1.
        2   -1    0    0  501    0  0.00000000000E+00  0.00000000000E+00 -0.16404088366E+04  0.16404088366E+04  0.25500000920E-02 0.  1.
    10030    2    1    2    0    0  0.00000000000E+00  0.00000000000E+00 -0.15851261502E+04  0.16956915231E+04  0.60228301437E+03 0.  0.
        3    1    3    3  502    0 -0.22995281971E+03  0.10021262240E+03 -0.32342828646E+03  0.40930030010E+03  0.10100000352E+00 0. -1.
       -3    1    3    3    0  502  0.22995281971E+03 -0.10021262240E+03 -0.12616978637E+04  0.12863912230E+04  0.10100000352E+00 0.  1.
</event>
<event>
 5   0  0.9428629E-03  0.6010422E+03  0.7818609E-02  0.9903246E-01
        2   -1    0    0  501    0  0.00000000000E+00  0.00000000000E+00  0.89358858073E+03  0.89358858074E+03  0.25500000920E-02 0. -1.
       -2   -1    0    0    0  501  0.00000000000E+00  0.00000000000E+00 -0.10106767661E+03  0.10106767664E+03  0.25500000920E-02 0.  1.
    10030    2    1    2    0    0  0.00000000000E+00  0.00000000000E+00  0.79252090412E+03  0.99465625738E+03  0.60104216730E+03 0.  0.
        3    1    3    3  502    0 -0.20347162151E+03  0.83866436500E+02  0.57600128917E+02  0.22749080198E+03  0.10100000352E+00 0.  1.
       -3    1    3    3    0  502  0.20347162151E+03 -0.83866436500E+02  0.73492077521E+03  0.76716545540E+03  0.10100000352E+00 0. -1.
</event>
<event>
 5   0  0.5574736E-03  0.5992467E+03  0.7818609E-02  0.9906970E-01
       -1   -1    0    0    0  501  0.00000000000E+00  0.00000000000E+00  0.18460360872E+03  0.18460360879E+03  0.50400001928E-02 0.  1.
        1   -1    0    0  501    0  0.00000000000E+00  0.00000000000E+00 -0.48630771042E+03  0.48630771044E+03  0.50400001928E-02 0. -1.
    10030    2    1    2    0    0  0.00000000000E+00  0.00000000000E+00 -0.30170410170E+03  0.67091131923E+03  0.59924672156E+03 0.  0.
        5    1    3    3  502    0 -0.22678838915E+03 -0.15710585049E+03 -0.28159444401E+03  0.39424959430E+03  0.46999998093E+01 0. -1.
       -5    1    3    3    0  502  0.22678838915E+03  0.15710585049E+03 -0.20109657688E+02  0.27666172493E+03  0.46999998093E+01 0.  1.
</event>
<event>
 5   0  0.9571790E-03  0.6004740E+03  0.7818609E-02  0.9904423E-01
        2   -1    0    0  501    0  0.00000000000E+00  0.00000000000E+00  0.21581378758E+03  0.21581378760E+03  0.25500000920E-02 0. -1.
       -2   -1    0    0    0  501  0.00000000000E+00  0.00000000000E+00 -0.41768531910E+03  0.41768531911E+03  0.25500000920E-02 0.  1.
    10030    2    1    2    0    0  0.00000000000E+00  0.00000000000E+00 -0.20187153152E+03  0.63349910671E+03  0.60047398192E+03 0.  0.
        5    1    3    3  502    0  0.11840312725E+03 -0.26045838769E+03 -0.19683209638E+03  0.34730798497E+03  0.46999998093E+01 0.  1.
       -5    1    3    3    0  502 -0.11840312725E+03  0.26045838769E+03 -0.50394351382E+01  0.28619112174E+03  0.46999998093E+01 0. -1.
</event>
<event>
 5   0  0.9428629E-03  0.5997887E+03  0.7818609E-02  0.9905845E-01
       -2   -1    0    0    0  501  0.00000000000E+00  0.00000000000E+00  0.59791271965E+02  0.59791272019E+02  0.25500000920E-02 0. -1.
        2   -1    0    0  501    0  0.00000000000E+00  0.00000000000E+00 -0.15041762406E+04  0.15041762406E+04  0.25500000920E-02 0.  1.
    10030    2    1    2    0    0  0.00000000000E+00  0.00000000000E+00 -0.14443849686E+04  0.15639675126E+04  0.59978866521E+03 0.  0.
        3    1    3    3  502    0  0.24353543068E+03 -0.12358794403E+03 -0.10452856112E+04  0.10803728546E+04  0.10100000352E+00 0.  1.
       -3    1    3    3    0  502 -0.24353543068E+03  0.12358794403E+03 -0.39909935746E+03  0.48359465798E+03  0.10100000352E+00 0. -1.
</event>
<event>
 5   0  0.5785798E-03  0.6021159E+03  0.7818609E-02  0.9901026E-01
        1   -1    0    0  501    0  0.00000000000E+00  0.00000000000E+00  0.53426077989E+03  0.53426077992E+03  0.50400001928E-02 0. -1.
       -1   -1    0    0    0  501  0.00000000000E+00  0.00000000000E+00 -0.16964727358E+03  0.16964727365E+03  0.50400001928E-02 0.  1.
    10030    2    1    2    0    0  0.00000000000E+00  0.00000000000E+00  0.36461350632E+03  0.70390805357E+03  0.60211588493E+03 0.  0.
        1    1    3    3  502    0  0.26732840270E+03 -0.13832865188E+03  0.17523478881E+03  0.34829085841E+03  0.50400001928E-02 0.  1.
       -1    1    3    3    0  502 -0.26732840270E+03  0.13832865188E+03  0.18937871751E+03  0.35561719515E+03  0.50400001928E-02 0. -1.
</event>
<event>
 5   0  0.5491236E-03  0.5997513E+03  0.7818609E-02  0.9905922E-01
       -1   -1    0    0    0  501  0.00000000000E+00  0.00000000000E+00  0.11269108460E+03  0.11269108471E+03  0.50400001928E-02 0. -1.
        1   -1    0    0  501    0  0.00000000000E+00  0.00000000000E+00 -0.79798151473E+03  0.79798151475E+03  0.50400001928E-02 0.  1.
    10030    2    1    2    0    0  0.00000000000E+00  0.00000000000E+00 -0.68529043013E+03  0.91067259946E+03  0.59975128994E+03 0.  0.
        3    1    3    3  502    0  0.26845947124E+03  0.11174366733E+03 -0.23139323667E+03  0.37161804997E+03  0.10100000352E+00 0. -1.
       -3    1    3    3    0  502 -0.26845947124E+03 -0.11174366733E+03 -0.45389719346E+03  0.53905454949E+03  0.10100000352E+00 0.  1.
</event>
<event>
 5   0  0.5503975E-03  0.6007520E+03  0.7818609E-02  0.9903847E-01
        1   -1    0    0  501    0  0.00000000000E+00  0.00000000000E+00  0.52957883150E+03  0.52957883152E+03  0.50400001928E-02 0.  1.
       -1   -1    0    0    0  501  0.00000000000E+00  0.00000000000E+00 -0.17037263373E+03  0.17037263381E+03  0.50400001928E-02 0. -1.
    10030    2    1    2    0    0  0.00000000000E+00  0.00000000000E+00  0.35920619777E+03  0.69995146533E+03  0.60075199650E+03 0.  0.
        4    1    3    3  502    0  0.11473412378E+03 -0.27570466288E+03  0.14190004244E+03  0.33062700319E+03  0.12699999809E+01 0. -1.
       -4    1    3    3    0  502 -0.11473412378E+03  0.27570466288E+03  0.21730615533E+03  0.36932446214E+03  0.12699999809E+01 0.  1.
</event>
<event>
 5   0  0.3794375E-03  0.5992017E+03  0.7818609E-02  0.9907064E-01
       -3   -1    0    0    0  501  0.00000000000E+00  0.00000000000E+00  0.21346204259E+03  0.21346206648E+03  0.10100000352E+00 0.  1.
        3   -1    0    0  501    0  0.00000000000E+00  0.00000000000E+00 -0.42049937409E+03  0.42049938622E+03  0.10100000352E+00 0. -1.
    10030    2    1    2    0    0  0.00000000000E+00  0.00000000000E+00 -0.20703733151E+03  0.63396145270E+03  0.59920169132E+03 0.  0.
        4    1    3    3  502    0 -0.12401159374E+03  0.16857251260E+03  0.12330914601E+03  0.24290394352E+03  0.12699999809E+01 0.  1.
       -4    1    3    3    0  502  0.12401159374E+03 -0.16857251260E+03 -0.33034647751E+03  0.39105750919E+03  0.12699999809E+01 0. -1.
</event>
<event>
 5   0  0.9428629E-03  0.5993071E+03  0.7818609E-02  0.9906845E-01
        2   -1    0    0  501    0  0.00000000000E+00  0.00000000000E+00  0.34874982451E+03  0.34874982452E+03  0.25500000920E-02 0.  1.
       -2   -1    0    0    0  501  0.00000000000E+00  0.00000000000E+00 -0.25746898661E+03  0.25746898662E+03  0.25500000920E-02 0. -1.
    10030    2    1    2    0    0  0.00000000000E+00  0.00000000000E+00  0.91280837900E+02  0.60621881114E+03  0.59930714631E+03 0.  0.
        3    1    3    3  502    0 -0.17613323487E+03 -0.20553235347E+03 -0.84394817970E+02  0.28352946981E+03  0.10100000352E+00 0.  1.
       -3    1    3    3    0  502  0.17613323487E+03  0.20553235347E+03  0.17567565587E+03  0.32268934134E+03  0.10100000352E+00 0. -1.
</event>
<event>
 5   0  0.3794375E-03  0.5988459E+03  0.7818609E-02  0.9907803E-01
       -4   -1    0    0    0  501  0.00000000000E+00  0.00000000000E+00  0.20401591902E+03  0.20401987186E+03  0.12699999809E+01 0.  1.
        4   -1    0    0  501    0  0.00000000000E+00  0.00000000000E+00 -0.43943749465E+03  0.43943932983E+03  0.12699999809E+01 0. -1.
    10030    2    1    2    0    0  0.00000000000E+00  0.00000000000E+00 -0.23542157563E+03  0.64345920169E+03  0.59884591171E+03 0.  0.
        4    1    3    3  502    0 -0.35863578723E+02  0.26550040178E+03 -0.26137185325E+03  0.37429068676E+03  0.12699999809E+01 0. -1.
       -4    1    3    3    0  502  0.35863578723E+02 -0.26550040178E+03  0.25950277620E+02  0.26916851494E+03  0.12699999809E+01 0.  1.
</event>
<event>
 5   0  0.9530666E-03  0.5989194E+03  0.7818609E-02  0.9907651E-01
       -2   -1    0    0    0  501  0.00000000000E+00  0.00000000000E+00  0.14712023641E+03  0.14712023643E+03  0.25500000920E-02 0. -1.
        2   -1    0    0  501    0  0.00000000000E+00  0.00000000000E+00 -0.60954296674E+03  0.60954296675E+03  0.25500000920E-02 0.  1.
    10030    2    1    2    0    0  0.00000000000E+00  0.00000000000E+00 -0.46242273033E+03  0.75666320318E+03  0.59891937815E+03 0.  0.
        2    1    3    3  502    0 -0.21206084521E+03 -0.13879350252E+03 -0.29692566196E+02  0.25517657986E+03  0.25500000920E-02 0. -1.
       -2    1    3    3    0  502  0.21206084521E+03  0.13879350252E+03 -0.43273016413E+03  0.50148662332E+03  0.25500000920E-02 0.  1.
</event>
<event>
 5   0  0.9428629E-03  0.6126589E+03  0.7818609E-02  0.9879485E-01
        2   -1    0    0  501    0  0.00000000000E+00  0.00000000000E+00  0.13567993194E+03  0.13567993196E+03  0.25500000920E-02 0.  1.
       -2   -1    0    0    0  501  0.00000000000E+00  0.00000000000E+00 -0.69161094044E+03  0.69161094044E+03  0.25500000920E-02 0. -1.
    10030    2    1    2    0    0  0.00000000000E+00  0.00000000000E+00 -0.55593100850E+03  0.82729087240E+03  0.61265887846E+03 0.  0.
        3    1    3    3  502    0 -0.29620791958E+03 -0.54329524576E+02 -0.20221595983E+03  0.36274251678E+03  0.10100000352E+00 0.  1.
       -3    1    3    3    0  502  0.29620791958E+03  0.54329524576E+02 -0.35371504866E+03  0.46454835563E+03  0.10100000352E+00 0. -1.
</event>
<event>
 5   0  0.5653633E-03  0.5988109E+03  0.7818609E-02  0.9907876E-01
        1   -1    0    0  501    0  0.00000000000E+00  0.00000000000E+00  0.14959266245E+03  0.14959266253E+03  0.50400001928E-02 0. -1.
       -1   -1    0    0    0  501  0.00000000000E+00  0.00000000000E+00 -0.59925150620E+03  0.59925150622E+03  0.50400001928E-02 0.  1.
    10030    2    1    2    0    0  0.00000000000E+00  0.00000000000E+00 -0.44965884375E+03  0.74884416876E+03  0.59881091617E+03 0.  0.
        2    1    3    3  502    0 -0.25593572781E+03  0.99513566520E+02 -0.37404695539E+03  0.46402281359E+03  0.25500000920E-02 0. -1.
       -2    1    3    3    0  502  0.25593572781E+03 -0.99513566520E+02 -0.75611888360E+02  0.28482135517E+03  0.25500000920E-02 0.  1.
</event>
<event>
 5   0  0.5785798E-03  0.6170411E+03  0.7818609E-02  0.9870669E-01
       -1   -1    0    0    0  501  0.00000000000E+00  0.00000000000E+00  0.27020596732E+03  0.27020596736E+03  0.50400001928E-02 0.  1.
        1   -1    0    0  501    0  0.00000000000E+00  0.00000000000E+00 -0.35226808022E+03  0.35226808025E+03  0.50400001928E-02 0. -1.
    10030    2    1    2    0    0  0.00000000000E+00  0.00000000000E+00 -0.82062112902E+02  0.62247404762E+03  0.61704112471E+03 0.  0.
        1    1    3    3  502    0  0.89739022125E+02 -0.18562628210E+03  0.19049948801E+03  0.28071384657E+03  0.50400001928E-02 0.  1.
       -1    1    3    3    0  502 -0.89739022125E+02  0.18562628210E+03 -0.27256160091E+03  0.34176020104E+03  0.50400001928E-02 0. -1.
</event>
<event>
 5   0  0.9428629E-03  0.5996525E+03  0.7818609E-02  0.9906127E-01
        2   -1    0    0  501    0  0.00000000000E+00  0.00000000000E+00  0.83254237447E+03  0.83254237447E+03  0.25500000920E-02 0.  1.
       -2   -1    0    0    0  501  0.00000000000E+00  0.00000000000E+00 -0.10797742193E+03  0.10797742196E+03  0.25500000920E-02 0. -1.
    10030    2    1    2    0    0  0.00000000000E+00  0.00000000000E+00  0.72456495254E+03  0.94051979643E+03  0.59965249689E+03 0.  0.
        3    1    3    3  502    0  0.15744613766E+03  0.11533376175E+03  0.71926954363E+03  0.74527837044E+03  0.10100000352E+00 0.  1.
       -3    1    3    3    0  502 -0.15744613766E+03 -0.11533376175E+03  0.52954089144E+01  0.19524142598E+03  0.10100000352E+00 0. -1.
</event>
<event>
 5   0  0.9571790E-03  0.6005029E+03  0.7818609E-02  0.9904363E-01
       -2   -1    0    0    0  501  0.00000000000E+00  0.00000000000E+00  0.78984211337E+02  0.78984211378E+02  0.25500000920E-02 0.  1.
        2   -1    0    0  501    0  0.00000000000E+00  0.00000000000E+00 -0.11413789976E+04  0.11413789976E+04  0.25500000920E-02 0. -1.
    10030    2    1    2    0    0  0.00000000000E+00  0.00000000000E+00 -0.10623947862E+04  0.12203632089E+04  0.60050285590E+03 0.  0.
        5    1    3    3  502    0 -0.10772089519E+03  0.19265737223E+03 -0.11765781773E+03  0.25017215354E+03  0.46999998093E+01 0.  1.
       -5    1    3    3    0  502  0.10772089519E+03 -0.19265737223E+03 -0.94473696850E+03  0.97019105540E+03  0.46999998093E+01 0. -1.
</event>
<event>
 5   0  0.5491236E-03  0.6002786E+03  0.7818609E-02  0.9904828E-01
        1   -1    0    0  501    0  0.00000000000E+00  0.00000000000E+00  0.74455031995E+03  0.74455031996E+03  0.50400001928E-02 0.  1.
       -1   -1    0    0    0  501  0.00000000000E+00  0.00000000000E+00 -0.12099060614E+03  0.12099060625E+03  0.50400001928E-02 0. -1.
    10030    2    1    2    0    0  0.00000000000E+00  0.00000000000E+00  0.62355971380E+03  0.86554092621E+03  0.60027858389E+03 0.  0.
        3    1    3    3  502    0  0.25155737841E+03  0.24433706065E+02  0.78363824156E+02  0.26461107264E+03  0.10100000352E+00 0. -1.
       -3    1    3    3    0  502 -0.25155737841E+03 -0.24433706065E+02  0.54519588965E+03  0.60092985357E+03  0.10100000352E+00 0.  1.
</event>
<event>
 5   0  0.5653633E-03  0.5965079E+03  0.7818609E-02  0.9912678E-01
        1   -1    0    0  501    0  0.00000000000E+00  0.00000000000E+00  0.18983854426E+04  0.18983854426E+04  0.50400001928E-02 0. -1.
       -1   -1    0    0    0  501  0.00000000000E+00  0.00000000000E+00 -0.46858460476E+02  0.46858460747E+02  0.50400001928E-02 0.  1.
    10030    2    1    2    0    0  0.00000000000E+00  0.00000000000E+00  0.18515269822E+04  0.19452439034E+04  0.59650790272E+03 0.  0.
        2    1    3    3  502    0  0.20294156943E+03 -0.11550891558E+03  0.32068365338E+03  0.39669332706E+03  0.25500000920E-02 0.  1.
       -2    1    3    3    0  502 -0.20294156943E+03  0.11550891558E+03  0.15308433288E+04  0.15485505763E+04  0.25500000920E-02 0. -1.
</event>
<event>
 5   0  0.5653633E-03  0.5966265E+03  0.7818609E-02  0.9912430E-01
        1   -1    0    0  501    0  0.00000000000E+00  0.00000000000E+00  0.27284265695E+03  0.27284265700E+03  0.50400001928E-02 0. -1.
       -1   -1    0    0    0  501  0.00000000000E+00  0.00000000000E+00 -0.32616155888E+03  0.32616155891E+03  0.50400001928E-02 0.  1.
    10030    2    1    2    0    0  0.00000000000E+00  0.00000000000E+00 -0.53318901925E+02  0.59900421591E+03  0.59662647056E+03 0.  0.
        2    1    3    3  502    0  0.14723812721E+03 -0.19547876169E+03  0.14460694903E+03  0.28425724633E+03  0.25500000920E-02 0. -1.
       -2    1    3    3    0  502 -0.14723812721E+03  0.19547876169E+03 -0.19792585095E+03  0.31474696958E+03  0.25500000920E-02 0.  1.
</event>
<event>
 5   0  0.9681801E-03  0.5994835E+03  0.7818609E-02  0.9906478E-01
        2   -1    0    0  501    0  0.00000000000E+00  0.00000000000E+00  0.32742010646E+02  0.32742010745E+02  0.25500000920E-02 0.  1.
       -2   -1    0    0    0  501  0.00000000000E+00  0.00000000000E+00 -0.27440316317E+04  0.27440316317E+04  0.25500000920E-02 0. -1.
    10030    2    1    2    0    0  0.00000000000E+00  0.00000000000E+00 -0.27112896210E+04  0.27767736424E+04  0.59948348780E+03 0.  0.
        4    1    3    3  502    0 -0.84718230358E+02 -0.26218798111E+02 -0.29428740067E+02  0.93446602781E+02  0.12699999809E+01 0.  1.
       -4    1    3    3    0  502  0.84718230358E+02  0.26218798111E+02 -0.26818608809E+04  0.26833270396E+04  0.12699999809E+01 0. -1.
</event>
<event>
 5   0  0.3794375E-03  0.6089788E+03  0.7818609E-02  0.9886951E-01
        3   -1    0    0  501    0  0.00000000000E+00  0.00000000000E+00  0.78175725862E+03  0.78175726514E+03  0.10100000352E+00 0. -1.
       -3   -1    0    0    0  501  0.00000000000E+00  0.00000000000E+00 -0.11859661385E+03  0.11859665686E+03  0.10100000352E+00 0.  1.
    10030    2    1    2    0    0  0.00000000000E+00  0.00000000000E+00  0.66316064476E+03  0.90035392200E+03  0.60897877147E+03 0.  0.
        3    1    3    3  502    0 -0.18104328026E+03 -0.86225751104E+02  0.67034643999E+03  0.69969701249E+03  0.10100000352E+00 0.  1.
       -3    1    3    3    0  502  0.18104328026E+03  0.86225751104E+02 -0.71857952319E+01  0.20065690951E+03  0.10100000352E+00 0. -1.
</event>
<event>
 5   0  0.5574736E-03  0.5995501E+03  0.7818609E-02  0.9906340E-01
        1   -1    0    0  501    0  0.00000000000E+00  0.00000000000E+00  0.53678790858E+03  0.53678790860E+03  0.50400001928E-02 0.  1.
       -1   -1    0    0    0  501  0.00000000000E+00  0.00000000000E+00 -0.16741264889E+03  0.16741264896E+03  0.50400001928E-02 0. -1.
    10030    2    1    2    0    0  0.00000000000E+00  0.00000000000E+00  0.36937525969E+03  0.70420055756E+03  0.59955011700E+03 0.  0.
        5    1    3    3  502    0 -0.28508800328E+03 -0.54032803201E+02  0.96414389605E+02  0.30579819809E+03  0.46999998093E+01 0.  1.
       -5    1    3    3    0  502  0.28508800328E+03  0.54032803201E+02  0.27296087008E+03  0.39840235947E+03  0.46999998093E+01 0. -1.
</event>
<event>
 5   0  0.9571790E-03  0.6004795E+03  0.7818609E-02  0.9904412E-01
       -2   -1    0    0    0  501  0.00000000000E+00  0.00000000000E+00  0.18907302650E+03  0.18907302652E+03  0.25500000920E-02 0.  1.
        2   -1    0    0  501    0  0.00000000000E+00  0.00000000000E+00 -0.47676768919E+03  0.47676768920E+03  0.25500000920E-02 0. -1.
    10030    2    1    2    0    0  0.00000000000E+00  0.00000000000E+00 -0.28769466269E+03  0.66584071572E+03  0.60047950820E+03 0.  0.
        5    1    3    3  502    0 -0.13704047799E+03  0.50704388736E+02  0.14693912232E+03  0.20727813033E+03  0.46999998093E+01 0.  1.
       -5    1    3    3    0  502  0.13704047799E+03 -0.50704388736E+02 -0.43463378501E+03  0.45856258539E+03  0.46999998093E+01 0. -1.
</event>
<event>
 5   0  0.5653633E-03  0.6007975E+03  0.7818609E-02  0.9903753E-01
       -1   -1    0    0    0  501  0.00000000000E+00  0.00000000000E+00  0.11436017094E+03  0.11436017105E+03  0.50400001928E-02 0. -1.
        1   -1    0    0  501    0  0.00000000000E+00  0.00000000000E+00 -0.78908077563E+03  0.78908077565E+03  0.50400001928E-02 0.  1.
    10030    2    1    2    0    0  0.00000000000E+00  0.00000000000E+00 -0.67472060469E+03  0.90344094670E+03  0.60079751146E+03 0.  0.
        2    1    3    3  502    0 -0.10417380101E+03 -0.28144848804E+03 -0.31752578847E+03  0.43690737987E+03  0.25500000920E-02 0. -1.
       -2    1    3    3    0  502  0.10417380101E+03  0.28144848804E+03 -0.35719481622E+03  0.46653356683E+03  0.25500000920E-02 0.  1.
</event>
<event>
 5   0  0.3794375E-03  0.5997210E+03  0.7818609E-02  0.9905985E-01
       -3   -1    0    0    0  501  0.00000000000E+00  0.00000000000E+00  0.22540533601E+03  0.22540535863E+03  0.10100000352E+00 0.  1.
        3   -1    0    0  501    0  0.00000000000E+00  0.00000000000E+00 -0.39890946450E+03  0.39890947728E+03  0.10100000352E+00 0. -1.
    10030    2    1    2    0    0  0.00000000000E+00  0.00000000000E+00 -0.17350412849E+03  0.62431483592E+03  0.59972104494E+03 0.  0.
        5    1    3    3  502    0 -0.25893498432E+03 -0.13085433072E+03 -0.79919220275E+01  0.29026908686E+03  0.46999998093E+01 0. -1.
       -5    1    3    3    0  502  0.25893498432E+03  0.13085433072E+03 -0.16551220647E+03  0.33404574905E+03  0.46999998093E+01 0.  1.
</event>
<event>
 5   0  0.3794375E-03  0.5953603E+03  0.7818609E-02  0.9915079E-01
        3   -1    0    0  501    0  0.00000000000E+00  0.00000000000E+00  0.20625875852E+03  0.20625878325E+03  0.10100000352E+00 0. -1.
       -3   -1    0    0    0  501  0.00000000000E+00  0.00000000000E+00 -0.42962281485E+03  0.42962282672E+03  0.10100000352E+00 0.  1.
    10030    2    1    2    0    0  0.00000000000E+00  0.00000000000E+00 -0.22336405633E+03  0.63588160997E+03  0.59536032807E+03 0.  0.
        1    1    3    3  502    0  0.23085528593E+03 -0.92307948165E+02 -0.28652657822E+03  0.37935787904E+03  0.50400001928E-02 0.  1.
       -1    1    3    3    0  502 -0.23085528593E+03  0.92307948165E+02  0.63162521895E+02  0.25652373093E+03  0.50400001928E-02 0. -1.
</event>
<event>
 5   0  0.9866317E-03  0.6061469E+03  0.7818609E-02  0.9892735E-01
       -2   -1    0    0    0  501  0.00000000000E+00  0.00000000000E+00  0.21061027192E+03  0.21061027194E+03  0.25500000920E-02 0.  1.
        2   -1    0    0  501    0  0.00000000000E+00  0.00000000000E+00 -0.43613020889E+03  0.43613020890E+03  0.25500000920E-02 0. -1.
    10030    2    1    2    0    0  0.00000000000E+00  0.00000000000E+00 -0.22551993697E+03  0.64674048083E+03  0.60614685315E+03 0.  0.
        1    1    3    3  502    0  0.38189779234E+02 -0.14430121872E+03 -0.39418975521E+03  0.42150547340E+03  0.50400001928E-02 0. -1.
       -1    1    3    3    0  502 -0.38189779234E+02  0.14430121872E+03  0.16866981825E+03  0.22523500744E+03  0.50400001928E-02 0.  1.
</event>
<event>
 5   0  0.5491236E-03  0.5999135E+03  0.7818609E-02  0.9905586E-01
        1   -1    0    0  501    0  0.00000000000E+00  0.00000000000E+00  0.95142291940E+02  0.95142292073E+02  0.50400001928E-02 0.  1.
       -1   -1    0    0    0  501  0.00000000000E+00  0.00000000000E+00 -0.94567879159E+03  0.94567879160E+03  0.50400001928E-02 0. -1.
    10030    2    1    2    0    0  0.00000000000E+00  0.00000000000E+00 -0.85053649965E+03  0.10408210837E+04  0.59991348625E+03 0.  0.
        3    1    3    3  502    0  0.90667187775E+02  0.24776956858E+03 -0.17768787152E+03  0.31809320637E+03  0.10100000352E+00 0.  1.
       -3    1    3    3    0  502 -0.90667187775E+02 -0.24776956858E+03 -0.67284862814E+03  0.72272787731E+03  0.10100000352E+00 0. -1.
</event>
<event>
 5   0  0.3794375E-03  0.5995808E+03  0.7818609E-02  0.9906276E-01
       -4   -1    0    0    0  501  0.00000000000E+00  0.00000000000E+00  0.58326425060E+03  0.58326563325E+03  0.12699999809E+01 0. -1.
        4   -1    0    0  501    0  0.00000000000E+00  0.00000000000E+00 -0.15408425171E+03  0.15408948545E+03  0.12699999809E+01 0.  1.
    10030    2    1    2    0    0  0.00000000000E+00  0.00000000000E+00  0.42917999889E+03  0.73735511869E+03  0.59958076989E+03 0.  0.
        3    1    3    3  502    0 -0.26279345605E+03  0.53222121698E+02  0.49682964074E+02  0.27269287102E+03  0.10100000352E+00 0.  1.
       -3    1    3    3    0  502  0.26279345605E+03 -0.53222121698E+02  0.37949703482E+03  0.46466224768E+03  0.10100000352E+00 0. -1.
</event>
<event>
 5   0  0.9530666E-03  0.6034373E+03  0.7818609E-02  0.9898300E-01
       -2   -1    0    0    0  501  0.00000000000E+00  0.00000000000E+00  0.55461530160E+02  0.55461530219E+02  0.25500000920E-02 0. -1.
        2   -1    0    0  501    0  0.00000000000E+00  0.00000000000E+00 -0.16413926975E+04  0.16413926975E+04  0.25500000920E-02 0.  1.
    10030    2    1    2    0    0  0.00000000000E+00  0.00000000000E+00 -0.15859311674E+04  0.16968542278E+04  0.60343732284E+03 0.  0.
        2    1    3    3  502    0 -0.17253401138E+03 -0.58305130274E+01 -0.97137112820E+02  0.19808482693E+03  0.25500000920E-02 0. -1.
       -2    1    3    3    0  502  0.17253401138E+03  0.58305130274E+01 -0.14887940545E+04  0.14987694008E+04  0.25500000920E-02 0.  1.
</event>
<event>
 5   0  0.9530666E-03  0.5996935E+03  0.7818609E-02  0.9906042E-01
        2   -1    0    0  501    0  0.00000000000E+00  0.00000000000E+00  0.80174950748E+03  0.80174950749E+03  0.25500000920E-02 0. -1.
       -2   -1    0    0    0  501  0.00000000000E+00  0.00000000000E+00 -0.11213984956E+03  0.11213984959E+03  0.25500000920E-02 0.  1.
    10030    2    1    2    0    0  0.00000000000E+00  0.00000000000E+00  0.68960965792E+03  0.91388935708E+03  0.59969348561E+03 0.  0.
        2    1    3    3  502    0 -0.21209442627E+03  0.12049038647E+03  0.79072386817E+02  0.25642624914E+03  0.25500000920E-02 0.  1.
       -2    1    3    3    0  502  0.21209442627E+03 -0.12049038647E+03  0.61053727110E+03  0.65746310794E+03  0.25500000920E-02 0. -1.
</event>
<event>
 5   0  0.9681801E-03  0.6012165E+03  0.7818609E-02  0.9902886E-01
        2   -1    0    0  501    0  0.00000000000E+00  0.00000000000E+00  0.10137798645E+04  0.10137798645E+04  0.25500000920E-02 0.  1.
       -2   -1    0    0    0  501  0.00000000000E+00  0.00000000000E+00 -0.89137009710E+02  0.89137009746E+02  0.25500000920E-02 0. -1.
    10030    2    1    2    0    0  0.00000000000E+00  0.00000000000E+00  0.92464285480E+03  0.11029168743E+04  0.60121645236E+03 0.  0.
        4    1    3    3  502    0  0.22052118981E+03 -0.78568461692E+02  0.80826039409E+03  0.84148028847E+03  0.12699999809E+01 0.  1.
       -4    1    3    3    0  502 -0.22052118981E+03  0.78568461692E+02  0.11638246071E+03  0.26143658579E+03  0.12699999809E+01 0. -1.
</event>
<event>
 5   0  0.9530666E-03  0.5999886E+03  0.7818609E-02  0.9905430E-01
        2   -1    0    0  501    0  0.00000000000E+00  0.00000000000E+00  0.62407090775E+03  0.62407090776E+03  0.25500000920E-02 0. -1.
       -2   -1    0    0    0  501  0.00000000000E+00  0.00000000000E+00 -0.14420889551E+03  0.14420889553E+03  0.25500000920E-02 0.  1.
    10030    2    1    2    0    0  0.00000000000E+00  0.00000000000E+00  0.47986201224E+03  0.76827980329E+03  0.59998858769E+03 0.  0.
        2    1    3    3  502    0  0.55422545232E+00 -0.29103489162E+03  0.14675420196E+03  0.32594234322E+03  0.25500000920E-02 0. -1.
       -2    1    3    3    0  502 -0.55422545232E+00  0.29103489162E+03  0.33310781029E+03  0.44233746007E+03  0.25500000920E-02 0.  1.
</event>
<event>
 5   0  0.9530666E-03  0.5832067E+03  0.7818609E-02  0.9940873E-01
        2   -1    0    0  501    0  0.00000000000E+00  0.00000000000E+00  0.97130063345E+03  0.97130063345E+03  0.25500000920E-02 0. -1.
       -2   -1    0    0    0  501  0.00000000000E+00  0.00000000000E+00 -0.87545012568E+02  0.87545012605E+02  0.25500000920E-02 0.  1.
    10030    2    1    2    0    0  0.00000000000E+00  0.00000000000E+00  0.88375562088E+03  0.10588456461E+04  0.58320674270E+03 0.  0.
        2    1    3    3  502    0 -0.13202487123E+03 -0.16786868055E+03  0.80235667557E+03  0.83029313822E+03  0.25500000920E-02 0. -1.
       -2    1    3    3    0  502  0.13202487123E+03  0.16786868055E+03  0.81398945306E+02  0.22855250783E+03  0.25500000920E-02 0.  1.
</event>
<event>
 5   0  0.9428629E-03  0.6001461E+03  0.7818609E-02  0.9905103E-01
       -2   -1    0    0    0  501  0.00000000000E+00  0.00000000000E+00  0.12484022174E+03  0.12484022177E+03  0.25500000920E-02 0. -1.
        2   -1    0    0  501    0  0.00000000000E+00  0.00000000000E+00 -0.72127256194E+03  0.72127256195E+03  0.25500000920E-02 0.  1.
    10030    2    1    2    0    0  0.00000000000E+00  0.00000000000E+00 -0.59643234020E+03  0.84611278372E+03  0.60014607083E+03 0.  0.
        3    1    3    3  502    0  0.37969830321E+02 -0.11857686694E+03 -0.68313640912E+03  0.69439005254E+03  0.10100000352E+00 0.  1.
       -3    1    3    3    0  502 -0.37969830321E+02  0.11857686694E+03  0.86704068926E+02  0.15172273118E+03  0.10100000352E+00 0. -1.
</event>
<event>
 5   0  0.5653633E-03  0.6005862E+03  0.7818609E-02  0.9904191E-01
       -1   -1    0    0    0  501  0.00000000000E+00  0.00000000000E+00  0.40249778646E+02  0.40249778961E+02  0.50400001928E-02 0.  1.
        1   -1    0    0  501    0  0.00000000000E+00  0.00000000000E+00 -0.22404087492E+04  0.22404087492E+04  0.50400001928E-02 0. -1.
    10030    2    1    2    0    0  0.00000000000E+00  0.00000000000E+00 -0.22001589705E+04  0.22806585282E+04  0.60058623560E+03 0.  0.
        2    1    3    3  502    0  0.74277898998E+02  0.53548645437E+02 -0.21861009957E+04  0.21880178763E+04  0.25500000920E-02 0. -1.
       -2    1    3    3    0  502 -0.74277898998E+02 -0.53548645437E+02 -0.14057974837E+02  0.92640651825E+02  0.25500000920E-02 0.  1.
</event>
<event>
 5   0  0.5785798E-03  0.6002237E+03  0.7818609E-02  0.9904942E-01
        1   -1    0    0  501    0  0.00000000000E+00  0.00000000000E+00  0.84843697716E+03  0.84843697718E+03  0.50400001928E-02 0. -1.
       -1   -1    0    0    0  501  0.00000000000E+00  0.00000000000E+00 -0.10615653361E+03  0.10615653373E+03  0.50400001928E-02 0.  1.
    10030    2    1    2    0    0  0.00000000000E+00  0.00000000000E+00  0.74228044356E+03  0.95459351090E+03  0.60022372010E+03 0.  0.
        1    1    3    3  502    0 -0.21921443162E+03  0.20481203794E+03  0.35839812060E+03  0.46738865068E+03  0.50400001928E-02 0.  1.
       -1    1    3    3    0  502  0.21921443162E+03 -0.20481203794E+03  0.38388232296E+03  0.48720486022E+03  0.50400001928E-02 0. -1.
</event>
<event>
 5   0  0.5491236E-03  0.5987193E+03  0.7818609E-02  0.9908067E-01
        1   -1    0    0  501    0  0.00000000000E+00  0.00000000000E+00  0.54456711656E+03  0.54456711658E+03  0.50400001928E-02 0. -1.
       -1   -1    0    0    0  501  0.00000000000E+00  0.00000000000E+00 -0.16456410801E+03  0.16456410809E+03  0.50400001928E-02 0.  1.
    10030    2    1    2    0    0  0.00000000000E+00  0.00000000000E+00  0.38000300855E+03  0.70913122467E+03  0.59871930594E+03 0.  0.
        3    1    3    3  502    0  0.26875804013E+03 -0.11724737394E+02  0.34555174191E+03  0.43792050665E+03  0.10100000352E+00 0. -1.
       -3    1    3    3    0  502 -0.26875804013E+03  0.11724737394E+02  0.34451266634E+02  0.27121071803E+03  0.10100000352E+00 0.  1.
</event>
<event>
 5   0  0.3794375E-03  0.5991433E+03  0.7818609E-02  0.9907185E-01
        3   -1    0    0  501    0  0.00000000000E+00  0.00000000000E+00  0.28301391937E+03  0.28301393739E+03  0.10100000352E+00 0. -1.
       -3   -1    0    0    0  501  0.00000000000E+00  0.00000000000E+00 -0.31709809811E+03  0.31709811420E+03  0.10100000352E+00 0.  1.
    10030    2    1    2    0    0  0.00000000000E+00  0.00000000000E+00 -0.34084178744E+02  0.60011205159E+03  0.59914334113E+03 0.  0.
        4    1    3    3  502    0 -0.16219466080E+03 -0.15402137339E+02 -0.26883915478E+03  0.31435718199E+03  0.12699999809E+01 0.  1.
       -4    1    3    3    0  502  0.16219466080E+03  0.15402137339E+02  0.23475497603E+03  0.28575486960E+03  0.12699999809E+01 0. -1.
</event>
<event>
 5   0  0.5653633E-03  0.6007625E+03  0.7818609E-02  0.9903825E-01
       -1   -1    0    0    0  501  0.00000000000E+00  0.00000000000E+00  0.24570710487E+03  0.24570710492E+03  0.50400001928E-02 0. -1.
        1   -1    0    0  501    0  0.00000000000E+00  0.00000000000E+00 -0.36722138682E+03  0.36722138685E+03  0.50400001928E-02 0.  1.
    10030    2    1    2    0    0  0.00000000000E+00  0.00000000000E+00 -0.12151428195E+03  0.61292849177E+03  0.60076252822E+03 0.  0.
        2    1    3    3  502    0 -0.14009478804E+03  0.12809744344E+02  0.21001956300E+03  0.25278223046E+03  0.25500000920E-02 0. -1.
       -2    1    3    3    0  502  0.14009478804E+03 -0.12809744344E+02 -0.33153384495E+03  0.36014626131E+03  0.25500000920E-02 0.  1.
</event>
<event>
 5   0  0.5785798E-03  0.5996946E+03  0.7818609E-02  0.9906040E-01
       -1   -1    0    0    0  501  0.00000000000E+00  0.00000000000E+00  0.14245762797E+03  0.14245762806E+03  0.50400001928E-02 0.  1.
        1   -1    0    0  501    0  0.00000000000E+00  0.00000000000E+00 -0.63112378325E+03  0.63112378327E+03  0.50400001928E-02 0. -1.
    10030    2    1    2    0    0  0.00000000000E+00  0.00000000000E+00 -0.48866615529E+03  0.77358141133E+03  0.59969457946E+03 0.  0.
        1    1    3    3  502    0  0.21901659879E+03  0.14204068280E+03 -0.54027745091E+02  0.26657611179E+03  0.50400001928E-02 0.  1.
       -1    1    3    3    0  502 -0.21901659879E+03 -0.14204068280E+03 -0.43463841020E+03  0.50700529954E+03  0.50400001928E-02 0. -1.
</event>
<event>
 5   0  0.9681801E-03  0.5993040E+03  0.7818609E-02  0.9906851E-01
       -2   -1    0    0    0  501  0.00000000000E+00  0.00000000000E+00  0.16320545381E+03  0.16320545383E+03  0.25500000920E-02 0. -1.
        2   -1    0    0  501    0  0.00000000000E+00  0.00000000000E+00 -0.55017355321E+03  0.55017355322E+03  0.25500000920E-02 0.  1.
    10030    2    1    2    0    0  0.00000000000E+00  0.00000000000E+00 -0.38696809940E+03  0.71337900704E+03  0.59930401111E+03 0.  0.
        4    1    3    3  502    0  0.58431303284E+02  0.14390457802E+03 -0.49851690402E+03  0.52215271834E+03  0.12699999809E+01 0.  1.
       -4    1    3    3    0  502 -0.58431303284E+02 -0.14390457802E+03  0.11154880461E+03  0.19122628870E+03  0.12699999809E+01 0. -1.
</event>
<event>
 5   0  0.9681801E-03  0.6007221E+03  0.7818609E-02  0.9903909E-01
        2   -1    0    0  501    0  0.00000000000E+00  0.00000000000E+00  0.32597519854E+03  0.32597519855E+03  0.25500000920E-02 0.  1.
       -2   -1    0    0    0  501  0.00000000000E+00  0.00000000000E+00 -0.27675954043E+03  0.27675954044E+03  0.25500000920E-02 0. -1.
    10030    2    1    2    0    0  0.00000000000E+00  0.00000000000E+00  0.49215658112E+02  0.60273473899E+03  0.60072205268E+03 0.  0.
        4    1    3    3  502    0  0.29405162993E+03 -0.15298844006E+02 -0.34875855639E+02  0.29651029307E+03  0.12699999809E+01 0. -1.
       -4    1    3    3    0  502 -0.29405162993E+03  0.15298844006E+02  0.84091513751E+02  0.30622444592E+03  0.12699999809E+01 0.  1.
</event>
<event>
 5   0  0.9530666E-03  0.6003692E+03  0.7818609E-02  0.9904640E-01
       -2   -1    0    0    0  501  0.00000000000E+00  0.00000000000E+00  0.11536632806E+03  0.11536632808E+03  0.25500000920E-02 0.  1.
        2   -1    0    0  501    0  0.00000000000E+00  0.00000000000E+00 -0.78108395386E+03  0.78108395386E+03  0.25500000920E-02 0. -1.
    10030    2    1    2    0    0  0.00000000000E+00  0.00000000000E+00 -0.66571762580E+03  0.89645028195E+03  0.60036917867E+03 0.  0.
        2    1    3    3  502    0  0.29836746607E+03 -0.23199560808E+02 -0.29785935384E+03  0.42223400989E+03  0.25500000920E-02 0.  1.
       -2    1    3    3    0  502 -0.29836746607E+03  0.23199560808E+02 -0.36785827196E+03  0.47421627206E+03  0.25500000920E-02 0. -1.
</event>
<event>
 5   0  0.5574736E-03  0.6002134E+03  0.7818609E-02  0.9904963E-01
       -1   -1    0    0    0  501  0.00000000000E+00  0.00000000000E+00  0.45455638413E+02  0.45455638692E+02  0.50400001928E-02 0. -1.
        1   -1    0    0  501    0  0.00000000000E+00  0.00000000000E+00 -0.19813611771E+04  0.19813611771E+04  0.50400001928E-02 0.  1.
    10030    2    1    2    0    0  0.00000000000E+00  0.00000000000E+00 -0.19359055387E+04  0.20268168158E+04  0.60021342044E+03 0.  0.
        5    1    3    3  502    0 -0.15504567057E+03  0.21830630971E+03 -0.14253245275E+04  0.14502651149E+04  0.46999998093E+01 0.  1.
       -5    1    3    3    0  502  0.15504567057E+03 -0.21830630971E+03 -0.51058101120E+03  0.57655170091E+03  0.46999998093E+01 0. -1.
</event>
<event>
 5   0  0.5503975E-03  0.6000794E+03  0.7818609E-02  0.9905241E-01
        1   -1    0    0  501    0  0.00000000000E+00  0.00000000000E+00  0.62582245780E+03  0.62582245782E+03  0.50400001928E-02 0. -1.
       -1   -1    0    0    0  501  0.00000000000E+00  0.00000000000E+00 -0.14384883875E+03  0.14384883884E+03  0.50400001928E-02 0.  1.
    10030    2    1    2    0    0  0.00000000000E+00  0.00000000000E+00  0.48197361905E+03  0.76967129666E+03  0.60007944094E+03 0.  0.
        4    1    3    3  502    0 -0.13365232317E+03  0.17274820119E+03 -0.22862343937E+02  0.21961143908E+03  0.12699999809E+01 0.  1.
       -4    1    3    3    0  502  0.13365232317E+03 -0.17274820119E+03  0.50483596298E+03  0.55005985758E+03  0.12699999809E+01 0. -1.
</event>
<event>
 5   0  0.5491236E-03  0.5996985E+03  0.7818609E-02  0.9906032E-01
       -1   -1    0    0    0  501  0.00000000000E+00  0.00000000000E+00  0.43558865935E+03  0.43558865938E+03  0.50400001928E-02 0.  1.
        1   -1    0    0  501    0  0.00000000000E+00  0.00000000000E+00 -0.20640933320E+03  0.20640933326E+03  0.50400001928E-02 0. -1.
    10030    2    1    2    0    0  0.00000000000E+00  0.00000000000E+00  0.22917932615E+03  0.64199799264E+03  0.59969847342E+03 0.  0.
        3    1    3    3  502    0  0.24508354849E+03 -0.13637964120E+03  0.10715792221E+01  0.28047550830E+03  0.10100000352E+00 0.  1.
       -3    1    3    3    0  502 -0.24508354849E+03  0.13637964120E+03  0.22810774693E+03  0.36152248434E+03  0.10100000352E+00 0. -1.
</event>
<event>
 5   0  0.3794375E-03  0.6023942E+03  0.7818609E-02  0.9900451E-01
       -3   -1    0    0    0  501  0.00000000000E+00  0.00000000000E+00  0.68595273459E+02  0.68595347816E+02  0.10100000352E+00 0. -1.
        3   -1    0    0  501    0  0.00000000000E+00  0.00000000000E+00 -0.13225348728E+04  0.13225348766E+04  0.10100000352E+00 0.  1.
    10030    2    1    2    0    0  0.00000000000E+00  0.00000000000E+00 -0.12539395993E+04  0.13911302244E+04  0.60239420867E+03 0.  0.
        2    1    3    3  502    0 -0.14158556813E+03 -0.57831710876E+02 -0.12261909912E+04  0.12356922460E+04  0.25500000920E-02 0.  1.
       -2    1    3    3    0  502  0.14158556813E+03  0.57831710876E+02 -0.27748608106E+02  0.15543797845E+03  0.25500000920E-02 0. -1.
</event>
<event>
 5   0  0.5503975E-03  0.5991264E+03  0.7818609E-02  0.9907220E-01
        1   -1    0    0  501    0  0.00000000000E+00  0.00000000000E+00  0.24948941883E+03  0.24948941888E+03  0.50400001928E-02 0.  1.
       -1   -1    0    0    0  501  0.00000000000E+00  0.00000000000E+00 -0.35968705779E+03  0.35968705783E+03  0.50400001928E-02 0. -1.
    10030    2    1    2    0    0  0.00000000000E+00  0.00000000000E+00 -0.11019763897E+03  0.60917647671E+03  0.59912641416E+03 0.  0.
        4    1    3    3  502    0  0.13236226721E+03  0.26856260167E+03 -0.45406801280E+02  0.30283499022E+03  0.12699999809E+01 0.  1.
       -4    1    3    3    0  502 -0.13236226721E+03 -0.26856260167E+03 -0.64790837686E+02  0.30634148649E+03  0.12699999809E+01 0. -1.
</event>
<event>
 5   0  0.5653633E-03  0.5994725E+03  0.7818609E-02  0.9906501E-01
       -1   -1    0    0    0  501  0.00000000000E+00  0.00000000000E+00  0.17469341123E+03  0.17469341131E+03  0.50400001928E-02 0. -1.
        1   -1    0    0  501    0  0.00000000000E+00  0.00000000000E+00 -0.51428282267E+03  0.51428282269E+03  0.50400001928E-02 0.  1.
    10030    2    1    2    0    0  0.00000000000E+00  0.00000000000E+00 -0.33958941144E+03  0.68897623400E+03  0.59947250367E+03 0.  0.
        2    1    3    3  502    0 -0.19045287211E+03  0.20075279820E+03 -0.30217857075E+03  0.40973878399E+03  0.25500000920E-02 0.  1.
       -2    1    3    3    0  502  0.19045287211E+03 -0.20075279820E+03 -0.37410840683E+02  0.27923745001E+03  0.25500000920E-02 0. -1.
</event>
<event>
 5   0  0.9428629E-03  0.5977018E+03  0.7818609E-02  0.9910186E-01
       -2   -1    0    0    0  501  0.00000000000E+00  0.00000000000E+00  0.55104589642E+02  0.55104589701E+02  0.25500000920E-02 0.  1.
        2   -1    0    0  501    0  0.00000000000E+00  0.00000000000E+00 -0.16207697028E+04  0.16207697028E+04  0.25500000920E-02 0. -1.
    10030    2    1    2    0    0  0.00000000000E+00  0.00000000000E+00 -0.15656651132E+04  0.16758742925E+04  0.59770176319E+03 0.  0.
        3    1    3    3  502    0 -0.59886682802E+02 -0.15073180561E+03 -0.79038480927E+02  0.18042611692E+03  0.10100000352E+00 0.  1.
       -3    1    3    3    0  502  0.59886682802E+02  0.15073180561E+03 -0.14866266323E+04  0.14954481756E+04  0.10100000352E+00 0. -1.
</event>
<event>
 5   0  0.9530666E-03  0.6015901E+03  0.7818609E-02  0.9902113E-01
        2   -1    0    0  501    0  0.00000000000E+00  0.00000000000E+00  0.91241956903E+03  0.91241956904E+03  0.25500000920E-02 0.  1.
       -2   -1    0    0    0  501  0.00000000000E+00  0.00000000000E+00 -0.99162340074E+02  0.99162340107E+02  0.25500000920E-02 0. -1.
    10030    2    1    2    0    0  0.00000000000E+00  0.00000000000E+00  0.81325722896E+03  0.10115819091E+04  0.60159009172E+03 0.  0.
        2    1    3    3  502    0  0.22205490849E+03  0.13058857358E+03  0.14550140277E+03  0.29585877737E+03  0.25500000920E-02 0. -1.
       -2    1    3    3    0  502 -0.22205490849E+03 -0.13058857358E+03  0.66775582619E+03  0.71572313177E+03  0.25500000920E-02 0.  1.
</event>
<event>
 5   0  0.9428629E-03  0.6018916E+03  0.7818609E-02  0.9901489E-01
       -2   -1    0    0    0  501  0.00000000000E+00  0.00000000000E+00  0.16791402795E+03  0.16791402797E+03  0.25500000920E-02 0. -1.
        2   -1    0    0  501    0  0.00000000000E+00  0.00000000000E+00 -0.53937345530E+03  0.53937345531E+03  0.25500000920E-02 0.  1.
    10030    2    1    2    0    0  0.00000000000E+00  0.00000000000E+00 -0.37145942735E+03  0.70728748328E+03  0.60189158313E+03 0.  0.
        3    1    3    3  502    0  0.58178755037E+02  0.12575901082E+03  0.12819843978E+03  0.18877220797E+03  0.10100000352E+00 0. -1.
       -3    1    3    3    0  502 -0.58178755037E+02 -0.12575901082E+03 -0.49965786713E+03  0.51851527531E+03  0.10100000352E+00 0.  1.
</event>
<event>
 5   0  0.9571790E-03  0.5986669E+03  0.7818609E-02  0.9908176E-01
        2   -1    0    0  501    0  0.00000000000E+00  0.00000000000E+00  0.12002110493E+04  0.12002110493E+04  0.25500000920E-02 0.  1.
       -2   -1    0    0    0  501  0.00000000000E+00  0.00000000000E+00 -0.74653970769E+02  0.74653970812E+02  0.25500000920E-02 0. -1.
    10030    2    1    2    0    0  0.00000000000E+00  0.00000000000E+00  0.11255570786E+04  0.12748650201E+04  0.59866692116E+03 0.  0.
        5    1    3    3  502    0 -0.10407715269E+03 -0.24847418902E+03  0.28506809374E+03  0.39224658621E+03  0.46999998093E+01 0. -1.
       -5    1    3    3    0  502  0.10407715269E+03  0.24847418902E+03  0.84048898481E+03  0.88261843393E+03  0.46999998093E+01 0.  1.
</event>
<event>
 5   0  0.3794375E-03  0.6000680E+03  0.7818609E-02  0.9905265E-01
        3   -1    0    0  501    0  0.00000000000E+00  0.00000000000E+00  0.66975711747E+03  0.66975712508E+03  0.10100000352E+00 0. -1.
       -3   -1    0    0    0  501  0.00000000000E+00  0.00000000000E+00 -0.13440751824E+03  0.13440755619E+03  0.10100000352E+00 0.  1.
    10030    2    1    2    0    0  0.00000000000E+00  0.00000000000E+00  0.53534959922E+03  0.80416468128E+03  0.60006803050E+03 0.  0.
        1    1    3    3  502    0 -0.22424071155E+03 -0.19818698087E+03  0.23898133445E+03  0.38298048820E+03  0.50400001928E-02 0.  1.
       -1    1    3    3    0  502  0.22424071155E+03  0.19818698087E+03  0.29636826477E+03  0.42118419307E+03  0.50400001928E-02 0. -1.
</event>
<event>
 5   0  0.5491236E-03  0.5992478E+03  0.7818609E-02  0.9906968E-01
        1   -1    0    0  501    0  0.00000000000E+00  0.00000000000E+00  0.26148105221E+04  0.26148105221E+04  0.50400001928E-02 0.  1.
       -1   -1    0    0    0  501  0.00000000000E+00  0.00000000000E+00 -0.34333072577E+02  0.34333072947E+02  0.50400001928E-02 0. -1.
    10030    2    1    2    0    0  0.00000000000E+00  0.00000000000E+00  0.25804774495E+04  0.26491435951E+04  0.59924779491E+03 0.  0.
        3    1    3    3  502    0  0.16672958428E+03  0.18452660942E+03  0.20289941243E+04  0.20441785613E+04  0.10100000352E+00 0.  1.
       -3    1    3    3    0  502 -0.16672958428E+03 -0.18452660942E+03  0.55148332523E+03  0.60496503375E+03  0.10100000352E+00 0. -1.
</event>
<event>
 5   0  0.3794375E-03  0.6005753E+03  0.7818609E-02  0.9904213E-01
        3   -1    0    0  501    0  0.00000000000E+00  0.00000000000E+00  0.11179595861E+04  0.11179595907E+04  0.10100000352E+00 0. -1.
       -3   -1    0    0    0  501  0.00000000000E+00  0.00000000000E+00 -0.80658224016E+02  0.80658287252E+02  0.10100000352E+00 0.  1.
    10030    2    1    2    0    0  0.00000000000E+00  0.00000000000E+00  0.10373013621E+04  0.11986178779E+04  0.60057530875E+03 0.  0.
        5    1    3    3  502    0  0.24348518931E+03 -0.17184962425E+03  0.44577714819E+03  0.53624312267E+03  0.46999998093E+01 0.  1.
       -5    1    3    3    0  502 -0.24348518931E+03  0.17184962425E+03  0.59152421392E+03  0.66237475527E+03  0.46999998093E+01 0. -1.
</event>
<event>
 5   0  0.5653633E-03  0.6001052E+03  0.7818609E-02  0.9905188E-01
        1   -1    0    0  501    0  0.00000000000E+00  0.00000000000E+00  0.80760525858E+02  0.80760526015E+02  0.50400001928E-02 0. -1.
       -1   -1    0    0    0  501  0.00000000000E+00  0.00000000000E+00 -0.11147965330E+04  0.11147965331E+04  0.50400001928E-02 0.  1.
    10030    2    1    2    0    0  0.00000000000E+00  0.00000000000E+00 -0.10340360072E+04  0.11955570591E+04  0.60010517190E+03 0.  0.
        2    1    3    3  502    0 -0.27368081655E+03  0.80555432527E+01 -0.76154923058E+03  0.80927332326E+03  0.25500000920E-02 0. -1.
       -2    1    3    3    0  502  0.27368081655E+03 -0.80555432527E+01 -0.27248677660E+03  0.38628373581E+03  0.25500000920E-02 0.  1.
</event>
<event>
 5   0  0.5491236E-03  0.5987698E+03  0.7818609E-02  0.9907962E-01
        1   -1    0    0  501    0  0.00000000000E+00  0.00000000000E+00  0.43081151024E+03  0.43081151027E+03  0.50400001928E-02 0.  1.
       -1   -1    0    0    0  501  0.00000000000E+00  0.00000000000E+00 -0.20805231356E+03  0.20805231362E+03  0.50400001928E-02 0. -1.
    10030    2    1    2    0    0  0.00000000000E+00  0.00000000000E+00  0.22275919668E+03  0.63886382389E+03  0.59876984374E+03 0.  0.
        3    1    3    3  502    0 -0.22274595854E+03  0.12780452975E+03  0.27557218453E+03  0.37668262365E+03  0.10100000352E+00 0.  1.
       -3    1    3    3    0  502  0.22274595854E+03 -0.12780452975E+03 -0.52812987853E+02  0.26218120024E+03  0.10100000352E+00 0. -1.
</event>
<event>
 5   0  0.9530666E-03  0.5996229E+03  0.7818609E-02  0.9906189E-01
       -2   -1    0    0    0  501  0.00000000000E+00  0.00000000000E+00  0.84911703007E+02  0.84911703045E+02  0.25500000920E-02 0. -1.
        2   -1    0    0  501    0  0.00000000000E+00  0.00000000000E+00 -0.10585927861E+04  0.10585927861E+04  0.25500000920E-02 0.  1.
    10030    2    1    2    0    0  0.00000000000E+00  0.00000000000E+00 -0.97368108311E+03  0.11435044892E+04  0.59962293580E+03 0.  0.
        2    1    3    3  502    0 -0.17918338839E+03  0.23532129122E+03 -0.39333493250E+03  0.49213328063E+03  0.25500000920E-02 0. -1.
       -2    1    3    3    0  502  0.17918338839E+03 -0.23532129122E+03 -0.58034615060E+03  0.65137120853E+03  0.25500000920E-02 0.  1.
</event>
<event>
 5   0  0.9866317E-03  0.5994895E+03  0.7818609E-02  0.9906466E-01
        2   -1    0    0  501    0  0.00000000000E+00  0.00000000000E+00  0.11602485053E+04  0.11602485053E+04  0.25500000920E-02 0. -1.
       -2   -1    0    0    0  501  0.00000000000E+00  0.00000000000E+00 -0.77437656445E+02  0.77437656487E+02  0.25500000920E-02 0.  1.
    10030    2    1    2    0    0  0.00000000000E+00  0.00000000000E+00  0.10828108488E+04  0.12376861618E+04  0.59948953343E+03 0.  0.
        1    1    3    3  502    0 -0.28199909580E+03 -0.28048075590E+02  0.74302324433E+03  0.79523186947E+03  0.50400001928E-02 0. -1.
       -1    1    3    3    0  502  0.28199909580E+03  0.28048075590E+02  0.33978760452E+03  0.44245429232E+03  0.50400001928E-02 0.  1.
</event>
<event>
 5   0  0.9866317E-03  0.5901136E+03  0.7818609E-02  0.9926132E-01
        2   -1    0    0  501    0  0.00000000000E+00  0.00000000000E+00  0.10819870987E+04  0.10819870987E+04  0.25500000920E-02 0. -1.
       -2   -1    0    0    0  501  0.00000000000E+00  0.00000000000E+00 -0.80461684084E+02  0.80461684124E+02  0.25500000920E-02 0.  1.
    10030    2    1    2    0    0  0.00000000000E+00  0.00000000000E+00  0.10015254146E+04  0.11624487828E+04  0.59011356244E+03 0.  0.
        1    1    3    3  502    0  0.29132222366E+03 -0.18478499468E+02  0.58545375865E+03  0.65419125375E+03  0.50400001928E-02 0. -1.
       -1    1    3    3    0  502 -0.29132222366E+03  0.18478499468E+02  0.41607165597E+03  0.50825752908E+03  0.50400001928E-02 0.  1.
</event>
<event>
 5   0  0.9428629E-03  0.6002077E+03  0.7818609E-02  0.9904975E-01
       -2   -1    0    0    0  501  0.00000000000E+00  0.00000000000E+00  0.15350520850E+03  0.15350520852E+03  0.25500000920E-02 0. -1.
        2   -1    0    0  501    0  0.00000000000E+00  0.00000000000E+00 -0.58670539067E+03  0.58670539068E+03  0.25500000920E-02 0.  1.
    10030    2    1    2    0    0  0.00000000000E+00  0.00000000000E+00 -0.43320018218E+03  0.74021059920E+03  0.60020774181E+03 0.  0.
        3    1    3    3  502    0 -0.56864242388E+01  0.25492163264E+03 -0.21429767668E+02  0.25588399589E+03  0.10100000352E+00 0. -1.
       -3    1    3    3    0  502  0.56864242388E+01 -0.25492163264E+03 -0.41177041451E+03  0.48432660331E+03  0.10100000352E+00 0.  1.
</event>
<event>
 5   0  0.5503975E-03  0.6001911E+03  0.7818609E-02  0.9905010E-01
        1   -1    0    0  501    0  0.00000000000E+00  0.00000000000E+00  0.69704415812E+03  0.69704415814E+03  0.50400001928E-02 0. -1.
       -1   -1    0    0    0  501  0.00000000000E+00  0.00000000000E+00 -0.12919890404E+03  0.12919890414E+03  0.50400001928E-02 0.  1.
    10030    2    1    2    0    0  0.00000000000E+00  0.00000000000E+00  0.56784525409E+03  0.82624306228E+03  0.60019110738E+03 0.  0.
        4    1    3    3  502    0 -0.54761678346E+02  0.33853002319E+02 -0.11957622717E+03  0.13581220190E+03  0.12699999809E+01 0.  1.
       -4    1    3    3    0  502  0.54761678346E+02 -0.33853002319E+02  0.68742148125E+03  0.69043086038E+03  0.12699999809E+01 0. -1.
</event>
<event>
 5   0  0.9428629E-03  0.6042647E+03  0.7818609E-02  0.9896598E-01
       -2   -1    0    0    0  501  0.00000000000E+00  0.00000000000E+00  0.86395095726E+02  0.86395095764E+02  0.25500000920E-02 0. -1.
        2   -1    0    0  501    0  0.00000000000E+00  0.00000000000E+00 -0.10565871775E+04  0.10565871775E+04  0.25500000920E-02 0.  1.
    10030    2    1    2    0    0  0.00000000000E+00  0.00000000000E+00 -0.97019208175E+03  0.11429822732E+04  0.60426467831E+03 0.  0.
        3    1    3    3  502    0  0.25708835544E+03  0.35494879181E+02 -0.19249202055E+03  0.32312148974E+03  0.10100000352E+00 0.  1.
       -3    1    3    3    0  502 -0.25708835544E+03 -0.35494879181E+02 -0.77770006120E+03  0.81986078351E+03  0.10100000352E+00 0. -1.
</event>
<event>
 5   0  0.5653633E-03  0.6012252E+03  0.7818609E-02  0.9902867E-01
        1   -1    0    0  501    0  0.00000000000E+00  0.00000000000E+00  0.10247769748E+04  0.10247769748E+04  0.50400001928E-02 0.  1.
       -1   -1    0    0    0  501  0.00000000000E+00  0.00000000000E+00 -0.88183040216E+02  0.88183040360E+02  0.50400001928E-02 0. -1.
    10030    2    1    2    0    0  0.00000000000E+00  0.00000000000E+00  0.93659393457E+03  0.11129600152E+04  0.60122524653E+03 0.  0.
        2    1    3    3  502    0  0.22520538328E+03  0.12523702188E+03  0.18171972620E+03  0.31531545348E+03  0.25500000920E-02 0. -1.
       -2    1    3    3    0  502 -0.22520538328E+03 -0.12523702188E+03  0.75487420837E+03  0.79764456168E+03  0.25500000920E-02 0.  1.
</event>
<event>
 5   0  0.3794375E-03  0.5999139E+03  0.7818609E-02  0.9905585E-01
        4   -1    0    0  501    0  0.00000000000E+00  0.00000000000E+00  0.18182624233E+03  0.18183067756E+03  0.12699999809E+01 0. -1.
       -4   -1    0    0    0  501  0.00000000000E+00  0.00000000000E+00 -0.49482475208E+03  0.49482638185E+03  0.12699999809E+01 0.  1.
    10030    2    1    2    0    0  0.00000000000E+00  0.00000000000E+00 -0.31299850975E+03  0.67665705941E+03  0.59991391794E+03 0.  0.
        2    1    3    3  502    0 -0.52834636793E+02  0.23395511834E+03  0.46676326520E+02  0.24434642561E+03  0.25500000920E-02 0. -1.
       -2    1    3    3    0  502  0.52834636793E+02 -0.23395511834E+03 -0.35967483627E+03  0.43231063380E+03  0.25500000920E-02 0.  1.
</event>
<event>
 5   0  0.9428629E-03  0.5962135E+03  0.7818609E-02  0.9913293E-01
       -2   -1    0    0    0  501  0.00000000000E+00  0.00000000000E+00  0.10271606374E+04  0.10271606374E+04  0.25500000920E-02 0. -1.
        2   -1    0    0  501    0  0.00000000000E+00  0.00000000000E+00 -0.86517758893E+02  0.86517758931E+02  0.25500000920E-02 0.  1.
    10030    2    1    2    0    0  0.00000000000E+00  0.00000000000E+00  0.94064287847E+03  0.11136783963E+04  0.59621350669E+03 0.  0.
        3    1    3    3  502    0  0.11804915912E+03  0.27138228531E+03  0.53724606309E+03  0.61336554457E+03  0.10100000352E+00 0.  1.
       -3    1    3    3    0  502 -0.11804915912E+03 -0.27138228531E+03  0.40339681538E+03  0.50031285173E+03  0.10100000352E+00 0. -1.
</event>
<event>
 5   0  0.5653633E-03  0.6006368E+03  0.7818609E-02  0.9904086E-01
       -1   -1    0    0    0  501  0.00000000000E+00  0.00000000000E+00  0.11394001206E+03  0.11394001217E+03  0.50400001928E-02 0.  1.
        1   -1    0    0  501    0  0.00000000000E+00  0.00000000000E+00 -0.79156692291E+03  0.79156692293E+03  0.50400001928E-02 0. -1.
    10030    2    1    2    0    0  0.00000000000E+00  0.00000000000E+00 -0.67762691085E+03  0.90550693510E+03  0.60063681139E+03 0.  0.
        2    1    3    3  502    0  0.15146618345E+03 -0.16874296319E+03 -0.41950865313E+02  0.23059936570E+03  0.25500000920E-02 0.  1.
       -2    1    3    3    0  502 -0.15146618345E+03  0.16874296319E+03 -0.63567604554E+03  0.67490756940E+03  0.25500000920E-02 0. -1.
</event>
<event>
 5   0  0.5653633E-03  0.6018211E+03  0.7818609E-02  0.9901635E-01
       -1   -1    0    0    0  501  0.00000000000E+00  0.00000000000E+00  0.48306379130E+03  0.48306379133E+03  0.50400001928E-02 0.  1.
        1   -1    0    0  501    0  0.00000000000E+00  0.00000000000E+00 -0.18744346923E+03  0.18744346930E+03  0.50400001928E-02 0. -1.
    10030    2    1    2    0    0  0.00000000000E+00  0.00000000000E+00  0.29562032207E+03  0.67050726063E+03  0.60182107951E+03 0.  0.
        2    1    3    3  502    0  0.16349601170E+03 -0.24324656225E+03  0.22376181574E+03  0.36873999794E+03  0.25500000920E-02 0.  1.
       -2    1    3    3    0  502 -0.16349601170E+03  0.24324656225E+03  0.71858506325E+02  0.30176726269E+03  0.25500000920E-02 0. -1.
</event>
<event>
 5   0  0.3794375E-03  0.5993563E+03  0.7818609E-02  0.9906742E-01
        3   -1    0    0  501    0  0.00000000000E+00  0.00000000000E+00  0.46883770335E+03  0.46883771423E+03  0.10100000352E+00 0. -1.
       -3   -1    0    0    0  501  0.00000000000E+00  0.00000000000E+00 -0.19155238504E+03  0.19155241166E+03  0.10100000352E+00 0.  1.
    10030    2    1    2    0    0  0.00000000000E+00  0.00000000000E+00  0.27728531832E+03  0.66039012589E+03  0.59935629689E+03 0.  0.
        4    1    3    3  502    0 -0.21475820362E+03  0.90062251989E+02  0.34645735728E+03  0.41745252253E+03  0.12699999809E+01 0. -1.
       -4    1    3    3    0  502  0.21475820362E+03 -0.90062251989E+02 -0.69172038961E+02  0.24293760337E+03  0.12699999809E+01 0.  1.
</event>
<event>
 5   0  0.5574736E-03  0.6034191E+03  0.7818609E-02  0.9898338E-01
        1   -1    0    0  501    0  0.00000000000E+00  0.00000000000E+00  0.22177919051E+03  0.22177919057E+03  0.50400001928E-02 0.  1.
       -1   -1    0    0    0  501  0.00000000000E+00  0.00000000000E+00 -0.41044728767E+03  0.41044728770E+03  0.50400001928E-02 0. -1.
    10030    2    1    2    0    0  0.00000000000E+00  0.00000000000E+00 -0.18866809716E+03  0.63222647826E+03  0.60341914863E+03 0.  0.
        5    1    3    3  502    0  0.13037677462E+03 -0.26750224662E+03 -0.42462741595E+02  0.30063387988E+03  0.46999998093E+01 0.  1.
       -5    1    3    3    0  502 -0.13037677462E+03  0.26750224662E+03 -0.14620535557E+03  0.33159259839E+03  0.46999998093E+01 0. -1.
</event>
<event>
 5   0  0.9530666E-03  0.5995484E+03  0.7818609E-02  0.9906343E-01
        2   -1    0    0  501    0  0.00000000000E+00  0.00000000000E+00  0.10693462206E+04  0.10693462206E+04  0.25500000920E-02 0. -1.
       -2   -1    0    0    0  501  0.00000000000E+00  0.00000000000E+00 -0.84036939178E+02  0.84036939217E+02  0.25500000920E-02 0.  1.
    10030    2    1    2    0    0  0.00000000000E+00  0.00000000000E+00  0.98530928140E+03  0.11533831598E+04  0.59954844116E+03 0.  0.
        2    1    3    3  502    0 -0.15099913213E+02  0.17345048489E+03  0.96211151146E+03  0.97773802145E+03  0.25500000920E-02 0. -1.
       -2    1    3    3    0  502  0.15099913213E+02 -0.17345048489E+03  0.23197769937E+02  0.17564513835E+03  0.25500000920E-02 0.  1.
</event>
<event>
 5   0  0.9530666E-03  0.5982210E+03  0.7818609E-02  0.9909104E-01
       -2   -1    0    0    0  501  0.00000000000E+00  0.00000000000E+00  0.87835800597E+02  0.87835800634E+02  0.25500000920E-02 0. -1.
        2   -1    0    0  501    0  0.00000000000E+00  0.00000000000E+00 -0.10185720463E+04  0.10185720463E+04  0.25500000920E-02 0.  1.
    10030    2    1    2    0    0  0.00000000000E+00  0.00000000000E+00 -0.93073624570E+03  0.11064078469E+04  0.59822099988E+03 0.  0.
        2    1    3    3  502    0 -0.38673693813E+02  0.11972767580E+03  0.36512942554E+02  0.13100979325E+03  0.25500000920E-02 0. -1.
       -2    1    3    3    0  502  0.38673693813E+02 -0.11972767580E+03 -0.96724918826E+03  0.97539805369E+03  0.25500000920E-02 0.  1.
</event>
<event>
 5   0  0.5491236E-03  0.6000543E+03  0.7818609E-02  0.9905294E-01
       -1   -1    0    0    0  501  0.00000000000E+00  0.00000000000E+00  0.21105181152E+03  0.21105181158E+03  0.50400001928E-02 0. -1.
        1   -1    0    0  501    0  0.00000000000E+00  0.00000000000E+00 -0.42651269266E+03  0.42651269269E+03  0.50400001928E-02 0.  1.
    10030    2    1    2    0    0  0.00000000000E+00  0.00000000000E+00 -0.21546088113E+03  0.63756450427E+03  0.60005425238E+03 0.  0.
        3    1    3    3  502    0  0.15231434406E+02 -0.18603817917E+03  0.14184457429E+03  0.23443995853E+03  0.10100000352E+00 0. -1.
       -3    1    3    3    0  502 -0.15231434406E+02  0.18603817917E+03 -0.35730545542E+03  0.40312454574E+03  0.10100000352E+00 0.  1.
</event>
<event>
 5   0  0.9681801E-03  0.6002065E+03  0.7818609E-02  0.9904978E-01
        2   -1    0    0  501    0  0.00000000000E+00  0.00000000000E+00  0.49027870865E+03  0.49027870866E+03  0.25500000920E-02 0. -1.
       -2   -1    0    0    0  501  0.00000000000E+00  0.00000000000E+00 -0.18369546393E+03  0.18369546395E+03  0.25500000920E-02 0.  1.
    10030    2    1    2    0    0  0.00000000000E+00  0.00000000000E+00  0.30658324472E+03  0.67397417261E+03  0.60020654728E+03 0.  0.
        4    1    3    3  502    0 -0.29247266710E+03  0.11995949721E+02  0.79008352221E+02  0.30319646507E+03  0.12699999809E+01 0.  1.
       -4    1    3    3    0  502  0.29247266710E+03 -0.11995949721E+02  0.22757489249E+03  0.37077770754E+03  0.12699999809E+01 0. -1.
</event>
<event>
 5   0  0.5785798E-03  0.5956468E+03  0.7818609E-02  0.9914479E-01
       -1   -1    0    0    0  501  0.00000000000E+00  0.00000000000E+00  0.72898780363E+02  0.72898780537E+02  0.50400001928E-02 0.  1.
        1   -1    0    0  501    0  0.00000000000E+00  0.00000000000E+00 -0.12167387774E+04  0.12167387774E+04  0.50400001928E-02 0. -1.
    10030    2    1    2    0    0  0.00000000000E+00  0.00000000000E+00 -0.11438399970E+04  0.12896375579E+04  0.59564678463E+03 0.  0.
        1    1    3    3  502    0  0.47003134616E+02  0.28073051453E+03 -0.76165848160E+03  0.81310673290E+03  0.50400001928E-02 0. -1.
       -1    1    3    3    0  502 -0.47003134616E+02 -0.28073051453E+03 -0.38218151538E+03  0.47653082500E+03  0.50400001928E-02 0.  1.
</event>
<event>
 5   0  0.9530666E-03  0.6003732E+03  0.7818609E-02  0.9904632E-01
       -2   -1    0    0    0  501  0.00000000000E+00  0.00000000000E+00  0.16383834939E+03  0.16383834941E+03  0.25500000920E-02 0.  1.
        2   -1    0    0  501    0  0.00000000000E+00  0.00000000000E+00 -0.55000550301E+03  0.55000550301E+03  0.25500000920E-02 0. -1.
    10030    2    1    2    0    0  0.00000000000E+00  0.00000000000E+00 -0.38616715361E+03  0.71384385243E+03  0.60037319654E+03 0.  0.
        2    1    3    3  502    0  0.28247785431E+03 -0.96358245828E+02 -0.15486236941E+03  0.33624545080E+03  0.25500000920E-02 0.  1.
       -2    1    3    3    0  502 -0.28247785431E+03  0.96358245828E+02 -0.23130478420E+03  0.37759840163E+03  0.25500000920E-02 0. -1.
</event>
<event>
 5   0  0.5491236E-03  0.5989692E+03  0.7818609E-02  0.9907547E-01
        1   -1    0    0  501    0  0.00000000000E+00  0.00000000000E+00  0.10523757282E+04  0.10523757282E+04  0.50400001928E-02 0.  1.
       -1   -1    0    0    0  501  0.00000000000E+00  0.00000000000E+00 -0.85227190963E+02  0.85227191112E+02  0.50400001928E-02 0. -1.
    10030    2    1    2    0    0  0.00000000000E+00  0.00000000000E+00  0.96714853727E+03  0.11376029194E+04  0.59896920537E+03 0.  0.
        3    1    3    3  502    0  0.11411951997E+02 -0.21010254261E+03  0.78813137922E+02  0.22468829958E+03  0.10100000352E+00 0. -1.
       -3    1    3    3    0  502 -0.11411951997E+02  0.21010254261E+03  0.88833539935E+03  0.91291461977E+03  0.10100000352E+00 0.  1.
</event>
<event>
 5   0  0.3794375E-03  0.6001771E+03  0.7818609E-02  0.9905039E-01
        3   -1    0    0  501    0  0.00000000000E+00  0.00000000000E+00  0.62389618431E+03  0.62389619248E+03  0.10100000352E+00 0.  1.
       -3   -1    0    0    0  501  0.00000000000E+00  0.00000000000E+00 -0.14433993130E+03  0.14433996663E+03  0.10100000352E+00 0. -1.
    10030    2    1    2    0    0  0.00000000000E+00  0.00000000000E+00  0.47955625301E+03  0.76823615912E+03  0.60017713750E+03 0.  0.
        4    1    3    3  502    0  0.12884937957E+03 -0.22042033188E+03  0.44161615072E+03  0.51011148075E+03  0.12699999809E+01 0. -1.
       -4    1    3    3    0  502 -0.12884937957E+03  0.22042033188E+03  0.37940102297E+02  0.25812467837E+03  0.12699999809E+01 0.  1.
</event>
<event>
 5   0  0.9866317E-03  0.6001663E+03  0.7818609E-02  0.9905061E-01
       -2   -1    0    0    0  501  0.00000000000E+00  0.00000000000E+00  0.41631393493E+02  0.41631393571E+02  0.25500000920E-02 0. -1.
        2   -1    0    0  501    0  0.00000000000E+00  0.00000000000E+00 -0.21630285670E+04  0.21630285670E+04  0.25500000920E-02 0.  1.
    10030    2    1    2    0    0  0.00000000000E+00  0.00000000000E+00 -0.21213971735E+04  0.22046599606E+04  0.60016628861E+03 0.  0.
        1    1    3    3  502    0 -0.76760919969E+02  0.11827099946E+02  0.40709166355E+01  0.77773334218E+02  0.50400001928E-02 0. -1.
       -1    1    3    3    0  502  0.76760919969E+02 -0.11827099946E+02 -0.21254680901E+04  0.21268866263E+04  0.50400001928E-02 0.  1.
</event>
<event>
 5   0  0.3794375E-03  0.5985867E+03  0.7818609E-02  0.9908343E-01
       -4   -1    0    0    0  501  0.00000000000E+00  0.00000000000E+00  0.76056646326E+02  0.76067248868E+02  0.12699999809E+01 0. -1.
        4   -1    0    0  501    0  0.00000000000E+00  0.00000000000E+00 -0.11776672432E+04  0.11776679280E+04  0.12699999809E+01 0.  1.
    10030    2    1    2    0    0  0.00000000000E+00  0.00000000000E+00 -0.11016105969E+04  0.12537351768E+04  0.59858665750E+03 0.  0.
        4    1    3    3  502    0 -0.13096543741E+03  0.13974671829E+03 -0.10325102753E+04  0.10501238844E+04  0.12699999809E+01 0.  1.
       -4    1    3    3    0  502  0.13096543741E+03 -0.13974671829E+03 -0.69100321551E+02  0.20361129244E+03  0.12699999809E+01 0. -1.
</event>
<event>
 5   0  0.5785798E-03  0.5996718E+03  0.7818609E-02  0.9906087E-01
        1   -1    0    0  501    0  0.00000000000E+00  0.00000000000E+00  0.11708938178E+03  0.11708938188E+03  0.50400001928E-02 0.  1.
       -1   -1    0    0    0  501  0.00000000000E+00  0.00000000000E+00 -0.76780299003E+03  0.76780299004E+03  0.50400001928E-02 0. -1.
    10030    2    1    2    0    0  0.00000000000E+00  0.00000000000E+00 -0.65071360825E+03  0.88489237193E+03  0.59967183520E+03 0.  0.
        1    1    3    3  502    0  0.10585605685E+03 -0.27106481333E+03 -0.43196965113E+03  0.52084490716E+03  0.50400001928E-02 0.  1.
       -1    1    3    3    0  502 -0.10585605685E+03  0.27106481333E+03 -0.21874395712E+03  0.36404746476E+03  0.50400001928E-02 0. -1.
</event>
<event>
 5   0  0.5653633E-03  0.5998000E+03  0.7818609E-02  0.9905821E-01
       -1   -1    0    0    0  501  0.00000000000E+00  0.00000000000E+00  0.75054389177E+03  0.75054389178E+03  0.50400001928E-02 0. -1.
        1   -1    0    0  501    0  0.00000000000E+00  0.00000000000E+00 -0.11983311929E+03  0.11983311940E+03  0.50400001928E-02 0.  1.
    10030    2    1    2    0    0  0.00000000000E+00  0.00000000000E+00  0.63071077247E+03  0.87037701118E+03  0.59980001924E+03 0.  0.
        2    1    3    3  502    0 -0.22335818884E+03 -0.99100725146E+02  0.63053025693E+02  0.25235989836E+03  0.25500000920E-02 0.  1.
       -2    1    3    3    0  502  0.22335818884E+03  0.99100725146E+02  0.56765774678E+03  0.61801711282E+03  0.25500000920E-02 0. -1.
</event>
<event>
 5   0  0.5503975E-03  0.5998921E+03  0.7818609E-02  0.9905630E-01
        1   -1    0    0  501    0  0.00000000000E+00  0.00000000000E+00  0.10309525063E+04  0.10309525063E+04  0.50400001928E-02 0. -1.
       -1   -1    0    0    0  501  0.00000000000E+00  0.00000000000E+00 -0.87266517865E+02  0.87266518010E+02  0.50400001928E-02 0.  1.
    10030    2    1    2    0    0  0.00000000000E+00  0.00000000000E+00  0.94368598847E+03  0.11182190244E+04  0.59989210830E+03 0.  0.
        4    1    3    3  502    0  0.91345864959E+01 -0.14408315806E+03  0.96191945201E+03  0.97269421822E+03  0.12699999809E+01 0. -1.
       -4    1    3    3    0  502 -0.91345864959E+01  0.14408315806E+03 -0.18233463541E+02  0.14552480613E+03  0.12699999809E+01 0.  1.
</event>
<event>
 5   0  0.9530666E-03  0.6007337E+03  0.7818609E-02  0.9903885E-01
        2   -1    0    0  501    0  0.00000000000E+00  0.00000000000E+00  0.82722987105E+03  0.82722987106E+03  0.25500000920E-02 0.  1.
       -2   -1    0    0    0  501  0.00000000000E+00  0.00000000000E+00 -0.10906307871E+03  0.10906307874E+03  0.25500000920E-02 0. -1.
    10030    2    1    2    0    0  0.00000000000E+00  0.00000000000E+00  0.71816679235E+03  0.93629294980E+03  0.60073367328E+03 0.  0.
        2    1    3    3  502    0 -0.23503438261E+03 -0.18683609115E+03  0.34591816359E+03  0.45804831827E+03  0.25500000920E-02 0. -1.
       -2    1    3    3    0  502  0.23503438261E+03  0.18683609115E+03  0.37224862876E+03  0.47824463153E+03  0.25500000920E-02 0.  1.
</event>
<event>
 5   0  0.9530666E-03  0.6078295E+03  0.7818609E-02  0.9889294E-01
        2   -1    0    0  501    0  0.00000000000E+00  0.00000000000E+00  0.13694710396E+04  0.13694710396E+04  0.25500000920E-02 0.  1.
       -2   -1    0    0    0  501  0.00000000000E+00  0.00000000000E+00 -0.67445142806E+02  0.67445142854E+02  0.25500000920E-02 0. -1.
    10030    2    1    2    0    0  0.00000000000E+00  0.00000000000E+00  0.13020258968E+04  0.14369161824E+04  0.60782948224E+03 0.  0.
        2    1    3    3  502    0 -0.18189076396E+03 -0.15004752562E+02  0.12254959625E+04  0.12390116007E+04  0.25500000920E-02 0.  1.
       -2    1    3    3    0  502  0.18189076396E+03  0.15004752562E+02  0.76529934251E+02  0.19790458169E+03  0.25500000920E-02 0. -1.
</event>
<event>
 5   0  0.9681801E-03  0.5880150E+03  0.7818609E-02  0.9930588E-01
       -2   -1    0    0    0  501  0.00000000000E+00  0.00000000000E+00  0.14601893252E+03  0.14601893254E+03  0.25500000920E-02 0. -1.
        2   -1    0    0  501    0  0.00000000000E+00  0.00000000000E+00 -0.59198088936E+03  0.59198088937E+03  0.25500000920E-02 0.  1.
    10030    2    1    2    0    0  0.00000000000E+00  0.00000000000E+00 -0.44596195684E+03  0.73799982191E+03  0.58801502548E+03 0.  0.
        4    1    3    3  502    0 -0.28391269146E+03  0.47538713281E+02 -0.14796540024E+03  0.32366914929E+03  0.12699999809E+01 0. -1.
       -4    1    3    3    0  502  0.28391269146E+03 -0.47538713281E+02 -0.29799655659E+03  0.41433067262E+03  0.12699999809E+01 0.  1.
</event>
<event>
 5   0  0.3794375E-03  0.5985069E+03  0.7818609E-02  0.9908509E-01
        3   -1    0    0  501    0  0.00000000000E+00  0.00000000000E+00  0.15146995267E+03  0.15146998634E+03  0.10100000352E+00 0.  1.
       -3   -1    0    0    0  501  0.00000000000E+00  0.00000000000E+00 -0.59122353219E+03  0.59122354082E+03  0.10100000352E+00 0. -1.
    10030    2    1    2    0    0  0.00000000000E+00  0.00000000000E+00 -0.43975357952E+03  0.74269352716E+03  0.59850686260E+03 0.  0.
        3    1    3    3  502    0 -0.11207301400E+03  0.23692827531E+03 -0.40664040978E+02  0.26523375075E+03  0.10100000352E+00 0.  1.
       -3    1    3    3    0  502  0.11207301400E+03 -0.23692827531E+03 -0.39908953854E+03  0.47745977641E+03  0.10100000352E+00 0. -1.
</event>
<event>
 5   0  0.9571790E-03  0.6004562E+03  0.7818609E-02  0.9904460E-01
        2   -1    0    0  501    0  0.00000000000E+00  0.00000000000E+00  0.11248322344E+04  0.11248322344E+04  0.25500000920E-02 0.  1.
       -2   -1    0    0    0  501  0.00000000000E+00  0.00000000000E+00 -0.80133636353E+02  0.80133636393E+02  0.25500000920E-02 0. -1.
    10030    2    1    2    0    0  0.00000000000E+00  0.00000000000E+00  0.10446985980E+04  0.12049658708E+04  0.60045615078E+03 0.  0.
        5    1    3    3  502    0 -0.12272269196E+03  0.60616491734E+02  0.10584920890E+04  0.10673157034E+04  0.46999998093E+01 0.  1.
       -5    1    3    3    0  502  0.12272269196E+03 -0.60616491734E+02 -0.13793490985E+02  0.13765016739E+03  0.46999998093E+01 0. -1.
</event>
<event>
 5   0  0.9530666E-03  0.6019934E+03  0.7818609E-02  0.9901279E-01
       -2   -1    0    0    0  501  0.00000000000E+00  0.00000000000E+00  0.15163228039E+03  0.15163228041E+03  0.25500000920E-02 0.  1.
        2   -1    0    0  501    0  0.00000000000E+00  0.00000000000E+00 -0.59749154982E+03  0.59749154982E+03  0.25500000920E-02 0. -1.
    10030    2    1    2    0    0  0.00000000000E+00  0.00000000000E+00 -0.44585926943E+03  0.74912383024E+03  0.60199337612E+03 0.  0.
        2    1    3    3  502    0 -0.20145078040E+02 -0.17023250856E+03  0.84954667010E+02  0.19131708390E+03  0.25500000920E-02 0.  1.
       -2    1    3    3    0  502  0.20145078040E+02  0.17023250856E+03 -0.53081393644E+03  0.55780674634E+03  0.25500000920E-02 0. -1.
</event>
<event>
 5   0  0.9866317E-03  0.5999552E+03  0.7818609E-02  0.9905499E-01
       -2   -1    0    0    0  501  0.00000000000E+00  0.00000000000E+00  0.90414781424E+02  0.90414781460E+02  0.25500000920E-02 0. -1.
        2   -1    0    0  501    0  0.00000000000E+00  0.00000000000E+00 -0.99526376965E+03  0.99526376966E+03  0.25500000920E-02 0.  1.
    10030    2    1    2    0    0  0.00000000000E+00  0.00000000000E+00 -0.90484898823E+03  0.10856785511E+04  0.59995518571E+03 0.  0.
        1    1    3    3  502    0 -0.47827515213E+02 -0.37448378675E+02 -0.98401785763E+03  0.98589096579E+03  0.50400001928E-02 0.  1.
       -1    1    3    3    0  502  0.47827515213E+02  0.37448378675E+02  0.79168869400E+02  0.99787585322E+02  0.50400001928E-02 0. -1.
</event>
<event>
 5   0  0.9681801E-03  0.6008684E+03  0.7818609E-02  0.9903606E-01
        2   -1    0    0  501    0  0.00000000000E+00  0.00000000000E+00  0.56207588871E+03  0.56207588872E+03  0.25500000920E-02 0.  1.
       -2   -1    0    0    0  501  0.00000000000E+00  0.00000000000E+00 -0.16058455762E+03  0.16058455764E+03  0.25500000920E-02 0. -1.
    10030    2    1    2    0    0  0.00000000000E+00  0.00000000000E+00  0.40149133109E+03  0.72266044635E+03  0.60086839805E+03 0.  0.
        4    1    3    3  502    0  0.21697041105E+03  0.15140905720E+03  0.29564608315E+02  0.26622648411E+03  0.12699999809E+01 0. -1.
       -4    1    3    3    0  502 -0.21697041105E+03 -0.15140905720E+03  0.37192672278E+03  0.45643396225E+03  0.12699999809E+01 0.  1.
</event>
<event>
 5   0  0.9681801E-03  0.5917828E+03  0.7818609E-02  0.9922602E-01
       -2   -1    0    0    0  501  0.00000000000E+00  0.00000000000E+00  0.50921195882E+03  0.50921195883E+03  0.25500000920E-02 0. -1.
        2   -1    0    0  501    0  0.00000000000E+00  0.00000000000E+00 -0.17193573027E+03  0.17193573029E+03  0.25500000920E-02 0.  1.
    10030    2    1    2    0    0  0.00000000000E+00  0.00000000000E+00  0.33727622855E+03  0.68114768912E+03  0.59178283183E+03 0.  0.
        4    1    3    3  502    0 -0.23227453042E+03  0.15664914009E+03  0.59082158751E+02  0.28632625614E+03  0.12699999809E+01 0.  1.
       -4    1    3    3    0  502  0.23227453042E+03 -0.15664914009E+03  0.27819406980E+03  0.39482143298E+03  0.12699999809E+01 0. -1.
</event>
<event>
 5   0  0.9571790E-03  0.6004054E+03  0.7818609E-02  0.9904565E-01
       -2   -1    0    0    0  501  0.00000000000E+00  0.00000000000E+00  0.10451404341E+03  0.10451404344E+03  0.25500000920E-02 0.  1.
        2   -1    0    0  501    0  0.00000000000E+00  0.00000000000E+00 -0.86229247036E+03  0.86229247036E+03  0.25500000920E-02 0. -1.
    10030    2    1    2    0    0  0.00000000000E+00  0.00000000000E+00 -0.75777842694E+03  0.96680651380E+03  0.60040543868E+03 0.  0.
        5    1    3    3  502    0 -0.27511260754E+03  0.36726989331E+02 -0.56293637138E+03  0.62765855908E+03  0.46999998093E+01 0. -1.
       -5    1    3    3    0  502  0.27511260754E+03 -0.36726989331E+02 -0.19484205557E+03  0.33914795472E+03  0.46999998093E+01 0.  1.
</event>
<event>
 5   0  0.5653633E-03  0.5997535E+03  0.7818609E-02  0.9905918E-01
        1   -1    0    0  501    0  0.00000000000E+00  0.00000000000E+00  0.23249746672E+03  0.23249746678E+03  0.50400001928E-02 0.  1.
       -1   -1    0    0    0  501  0.00000000000E+00  0.00000000000E+00 -0.38678299600E+03  0.38678299603E+03  0.50400001928E-02 0. -1.
    10030    2    1    2    0    0  0.00000000000E+00  0.00000000000E+00 -0.15428552928E+03  0.61928046281E+03  0.59975350526E+03 0.  0.
        2    1    3    3  502    0 -0.24424186935E+03  0.90690977164E+02  0.76174316835E+02  0.27144331017E+03  0.25500000920E-02 0.  1.
       -2    1    3    3    0  502  0.24424186935E+03 -0.90690977164E+02 -0.23045984611E+03  0.34783715264E+03  0.25500000920E-02 0. -1.
</event>
<event>
 5   0  0.9571790E-03  0.5979748E+03  0.7818609E-02  0.9909617E-01
       -2   -1    0    0    0  501  0.00000000000E+00  0.00000000000E+00  0.14607861153E+03  0.14607861155E+03  0.25500000920E-02 0.  1.
        2   -1    0    0  501    0  0.00000000000E+00  0.00000000000E+00 -0.61195456122E+03  0.61195456122E+03  0.25500000920E-02 0. -1.
    10030    2    1    2    0    0  0.00000000000E+00  0.00000000000E+00 -0.46587594968E+03  0.75803317278E+03  0.59797482433E+03 0.  0.
        5    1    3    3  502    0 -0.15083482357E+03  0.22333650519E+03 -0.68918060181E+02  0.27821237853E+03  0.46999998093E+01 0.  1.
       -5    1    3    3    0  502  0.15083482357E+03 -0.22333650519E+03 -0.39695788950E+03  0.47982079424E+03  0.46999998093E+01 0. -1.
</event>
<event>
 5   0  0.9428629E-03  0.5932265E+03  0.7818609E-02  0.9919559E-01
        2   -1    0    0  501    0  0.00000000000E+00  0.00000000000E+00  0.11263393744E+04  0.11263393744E+04  0.25500000920E-02 0.  1.
       -2   -1    0    0    0  501  0.00000000000E+00  0.00000000000E+00 -0.78110929155E+02  0.78110929196E+02  0.25500000920E-02 0. -1.
    10030    2    1    2    0    0  0.00000000000E+00  0.00000000000E+00  0.10482284453E+04  0.12044503036E+04  0.59322648325E+03 0.  0.
        3    1    3    3  502    0  0.14042301320E+03 -0.20699786555E+03  0.84777753040E+03  0.88390807794E+03  0.10100000352E+00 0.  1.
       -3    1    3    3    0  502 -0.14042301320E+03  0.20699786555E+03  0.20045091487E+03  0.32054222569E+03  0.10100000352E+00 0. -1.
</event>
<event>
 5   0  0.3794375E-03  0.6001535E+03  0.7818609E-02  0.9905088E-01
        4   -1    0    0  501    0  0.00000000000E+00  0.00000000000E+00  0.16704147732E+03  0.16704630509E+03  0.12699999809E+01 0. -1.
       -4   -1    0    0    0  501  0.00000000000E+00  0.00000000000E+00 -0.53905060270E+03  0.53905209875E+03  0.12699999809E+01 0.  1.
    10030    2    1    2    0    0  0.00000000000E+00  0.00000000000E+00 -0.37200912537E+03  0.70609840384E+03  0.60015345250E+03 0.  0.
        4    1    3    3  502    0 -0.10245229068E+02  0.12997000577E+03  0.13197916108E+03  0.18551894506E+03  0.12699999809E+01 0. -1.
       -4    1    3    3    0  502  0.10245229068E+02 -0.12997000577E+03 -0.50398828646E+03  0.52057945878E+03  0.12699999809E+01 0.  1.
</event>
<event>
 5   0  0.5503975E-03  0.5990659E+03  0.7818609E-02  0.9907346E-01
       -1   -1    0    0    0  501  0.00000000000E+00  0.00000000000E+00  0.34574286723E+03  0.34574286727E+03  0.50400001928E-02 0. -1.
        1   -1    0    0  501    0  0.00000000000E+00  0.00000000000E+00 -0.25949917797E+03  0.25949917802E+03  0.50400001928E-02 0.  1.
    10030    2    1    2    0    0  0.00000000000E+00  0.00000000000E+00  0.86243689261E+02  0.60524204528E+03  0.59906590576E+03 0.  0.
        4    1    3    3  502    0  0.70982190295E+02 -0.22113798419E+03  0.23422237607E+03  0.32985180573E+03  0.12699999809E+01 0. -1.
       -4    1    3    3    0  502 -0.70982190295E+02  0.22113798419E+03 -0.14797868681E+03  0.27539023955E+03  0.12699999809E+01 0.  1.
</event>
<event>
 5   0  0.5574736E-03  0.5996239E+03  0.7818609E-02  0.9906187E-01
       -1   -1    0    0    0  501  0.00000000000E+00  0.00000000000E+00  0.49940955844E+02  0.49940956098E+02  0.50400001928E-02 0. -1.
        1   -1    0    0  501    0  0.00000000000E+00  0.00000000000E+00 -0.17998695266E+04  0.17998695266E+04  0.50400001928E-02 0.  1.
    10030    2    1    2    0    0  0.00000000000E+00  0.00000000000E+00 -0.17499285708E+04  0.18498104827E+04  0.59962389810E+03 0.  0.
        5    1    3    3  502    0  0.20249379836E+03  0.96062124485E+01 -0.19369209638E+03  0.28041885794E+03  0.46999998093E+01 0. -1.
       -5    1    3    3    0  502 -0.20249379836E+03 -0.96062124485E+01 -0.15562364744E+04  0.15693916248E+04  0.46999998093E+01 0.  1.
</event>
<event>
 5   0  0.5574736E-03  0.5997524E+03  0.7818609E-02  0.9905920E-01
       -1   -1    0    0    0  501  0.00000000000E+00  0.00000000000E+00  0.23160352429E+03  0.23160352435E+03  0.50400001928E-02 0. -1.
        1   -1    0    0  501    0  0.00000000000E+00  0.00000000000E+00 -0.38827452272E+03  0.38827452275E+03  0.50400001928E-02 0.  1.
    10030    2    1    2    0    0  0.00000000000E+00  0.00000000000E+00 -0.15667099843E+03  0.61987804710E+03  0.59975244187E+03 0.  0.
        5    1    3    3  502    0  0.24352535043E+03  0.15842066536E+03 -0.16712788602E+01  0.29056253490E+03  0.46999998093E+01 0. -1.
       -5    1    3    3    0  502 -0.24352535043E+03 -0.15842066536E+03 -0.15499971957E+03  0.32931551220E+03  0.46999998093E+01 0.  1.
</event>
<event>
 5   0  0.3794375E-03  0.6006523E+03  0.7818609E-02  0.9904054E-01
       -3   -1    0    0    0  501  0.00000000000E+00  0.00000000000E+00  0.19974079148E+03  0.19974081702E+03  0.10100000352E+00 0.  1.
        3   -1    0    0  501    0  0.00000000000E+00  0.00000000000E+00 -0.45156415750E+03  0.45156416880E+03  0.10100000352E+00 0. -1.
    10030    2    1    2    0    0  0.00000000000E+00  0.00000000000E+00 -0.25182336602E+03  0.65130498581E+03  0.60065229282E+03 0.  0.
        5    1    3    3  502    0 -0.31291350698E+02 -0.18788558994E+03  0.12581526043E+03  0.22832370287E+03  0.46999998093E+01 0.  1.
       -5    1    3    3    0  502  0.31291350698E+02  0.18788558994E+03 -0.37763862645E+03  0.42298128294E+03  0.46999998093E+01 0. -1.
</event>
<event>
 5   0  0.3794375E-03  0.6002837E+03  0.7818609E-02  0.9904818E-01
       -3   -1    0    0    0  501  0.00000000000E+00  0.00000000000E+00  0.12439167407E+03  0.12439171507E+03  0.10100000352E+00 0.  1.
        3   -1    0    0  501    0  0.00000000000E+00  0.00000000000E+00 -0.72420535682E+03  0.72420536386E+03  0.10100000352E+00 0. -1.
    10030    2    1    2    0    0  0.00000000000E+00  0.00000000000E+00 -0.59981368275E+03  0.84859707894E+03  0.60028372322E+03 0.  0.
        4    1    3    3  502    0 -0.10499976857E+03 -0.27304967829E+03 -0.20504987744E+03  0.35725081295E+03  0.12699999809E+01 0. -1.
       -4    1    3    3    0  502  0.10499976857E+03  0.27304967829E+03 -0.39476380531E+03  0.49134626599E+03  0.12699999809E+01 0.  1.
</event>
<event>
 5   0  0.9866317E-03  0.6037921E+03  0.7818609E-02  0.9897570E-01
       -2   -1    0    0    0  501  0.00000000000E+00  0.00000000000E+00  0.35867172323E+03  0.35867172323E+03  0.25500000920E-02 0. -1.
        2   -1    0    0  501    0  0.00000000000E+00  0.00000000000E+00 -0.25410766617E+03  0.25410766618E+03  0.25500000920E-02 0.  1.
    10030    2    1    2    0    0  0.00000000000E+00  0.00000000000E+00  0.10456405705E+03  0.61277938942E+03  0.60379213151E+03 0.  0.
        1    1    3    3  502    0 -0.15839144592E+03 -0.66186742319E+02  0.30431837747E+03  0.34939692313E+03  0.50400001928E-02 0. -1.
       -1    1    3    3    0  502  0.15839144592E+03  0.66186742319E+02 -0.19975432042E+03  0.26338246629E+03  0.50400001928E-02 0.  1.
</event>
<event>
 5   0  0.9866317E-03  0.5998604E+03  0.7818609E-02  0.9905696E-01
       -2   -1    0    0    0  501  0.00000000000E+00  0.00000000000E+00  0.94606251481E+02  0.94606251516E+02  0.25500000920E-02 0.  1.
        2   -1    0    0  501    0  0.00000000000E+00  0.00000000000E+00 -0.95086887049E+03  0.95086887049E+03  0.25500000920E-02 0. -1.
    10030    2    1    2    0    0  0.00000000000E+00  0.00000000000E+00 -0.85626261901E+03  0.10454751220E+04  0.59986044880E+03 0.  0.
        1    1    3    3  502    0  0.18803627440E+03 -0.97517220204E+02 -0.58040856411E+02  0.21962693315E+03  0.50400001928E-02 0.  1.
       -1    1    3    3    0  502 -0.18803627440E+03  0.97517220204E+02 -0.79822176260E+03  0.82584818886E+03  0.50400001928E-02 0. -1.
</event>
<event>
 5   0  0.5503975E-03  0.5962330E+03  0.7818609E-02  0.9913252E-01
        1   -1    0    0  501    0  0.00000000000E+00  0.00000000000E+00  0.12377475875E+04  0.12377475876E+04  0.50400001928E-02 0. -1.
       -1   -1    0    0    0  501  0.00000000000E+00  0.00000000000E+00 -0.71802550828E+02  0.71802551005E+02  0.50400001928E-02 0.  1.
    10030    2    1    2    0    0  0.00000000000E+00  0.00000000000E+00  0.11659450367E+04  0.13095501386E+04  0.59623295511E+03 0.  0.
        4    1    3    3  502    0 -0.27602494658E+03 -0.96273170218E+01  0.82941073950E+03  0.87418890640E+03  0.12699999809E+01 0. -1.
       -4    1    3    3    0  502  0.27602494658E+03  0.96273170218E+01  0.33653429722E+03  0.43536123216E+03  0.12699999809E+01 0.  1.
</event>
<event>
 5   0  0.9530666E-03  0.5970743E+03  0.7818609E-02  0.9911495E-01
       -2   -1    0    0    0  501  0.00000000000E+00  0.00000000000E+00  0.12463181871E+03  0.12463181874E+03  0.25500000920E-02 0.  1.
        2   -1    0    0  501    0  0.00000000000E+00  0.00000000000E+00 -0.71510176995E+03  0.71510176996E+03  0.25500000920E-02 0. -1.
    10030    2    1    2    0    0  0.00000000000E+00  0.00000000000E+00 -0.59046995124E+03  0.83973358869E+03  0.59707431419E+03 0.  0.
        2    1    3    3  502    0 -0.19368247797E+03 -0.21870033867E+02  0.22792590094E+02  0.19624144013E+03  0.25500000920E-02 0.  1.
       -2    1    3    3    0  502  0.19368247797E+03  0.21870033867E+02 -0.61326254133E+03  0.64349214856E+03  0.25500000920E-02 0. -1.
</event>
<event>
 5   0  0.5574736E-03  0.6001069E+03  0.7818609E-02  0.9905184E-01
        1   -1    0    0  501    0  0.00000000000E+00  0.00000000000E+00  0.40772544070E+03  0.40772544073E+03  0.50400001928E-02 0. -1.
       -1   -1    0    0    0  501  0.00000000000E+00  0.00000000000E+00 -0.22081542121E+03  0.22081542126E+03  0.50400001928E-02 0.  1.
    10030    2    1    2    0    0  0.00000000000E+00  0.00000000000E+00  0.18691001949E+03  0.62854086199E+03  0.60010687366E+03 0.  0.
        5    1    3    3  502    0 -0.10975532702E+03 -0.27058571643E+03  0.21291157254E+02  0.29281097165E+03  0.46999998093E+01 0. -1.
       -5    1    3    3    0  502  0.10975532702E+03  0.27058571643E+03  0.16561886224E+03  0.33572989034E+03  0.46999998093E+01 0.  1.
</event>
<event>
 5   0  0.9571790E-03  0.6014301E+03  0.7818609E-02  0.9902443E-01
        2   -1    0    0  501    0  0.00000000000E+00  0.00000000000E+00  0.19674417374E+03  0.19674417375E+03  0.25500000920E-02 0.  1.
       -2   -1    0    0    0  501  0.00000000000E+00  0.00000000000E+00 -0.45963008520E+03  0.45963008521E+03  0.25500000920E-02 0. -1.
    10030    2    1    2    0    0  0.00000000000E+00  0.00000000000E+00 -0.26288591147E+03  0.65637425896E+03  0.60143010016E+03 0.  0.
        5    1    3    3  502    0 -0.24353057156E+03 -0.31300283566E+02 -0.32085091362E+03  0.40404733114E+03  0.46999998093E+01 0. -1.
       -5    1    3    3    0  502  0.24353057156E+03  0.31300283566E+02  0.57965002149E+02  0.25232692783E+03  0.46999998093E+01 0.  1.
</event>
<event>
 5   0  0.9571790E-03  0.5996502E+03  0.7818609E-02  0.9906132E-01
       -2   -1    0    0    0  501  0.00000000000E+00  0.00000000000E+00  0.62667396655E+02  0.62667396707E+02  0.25500000920E-02 0. -1.
        2   -1    0    0  501    0  0.00000000000E+00  0.00000000000E+00 -0.14344791940E+04  0.14344791940E+04  0.25500000920E-02 0.  1.
    10030    2    1    2    0    0  0.00000000000E+00  0.00000000000E+00 -0.13718117974E+04  0.14971465907E+04  0.59965015362E+03 0.  0.
        5    1    3    3  502    0 -0.12820757834E+03 -0.23462734267E+03 -0.10244441940E+04  0.10587705935E+04  0.46999998093E+01 0.  1.
       -5    1    3    3    0  502  0.12820757834E+03  0.23462734267E+03 -0.34736760338E+03  0.43837599723E+03  0.46999998093E+01 0. -1.
</event>
<event>
 5   0  0.5785798E-03  0.6009579E+03  0.7818609E-02  0.9903421E-01
        1   -1    0    0  501    0  0.00000000000E+00  0.00000000000E+00  0.16924562157E+04  0.16924562157E+04  0.50400001928E-02 0.  1.
       -1   -1    0    0    0  501  0.00000000000E+00  0.00000000000E+00 -0.53347074370E+02  0.53347074608E+02  0.50400001928E-02 0. -1.
    10030    2    1    2    0    0  0.00000000000E+00  0.00000000000E+00  0.16391091413E+04  0.17458032903E+04  0.60095786149E+03 0.  0.
        1    1    3    3  502    0  0.15683583966E+03  0.60849115186E+02  0.15428293489E+04  0.15519737418E+04  0.50400001928E-02 0.  1.
       -1    1    3    3    0  502 -0.15683583966E+03 -0.60849115186E+02  0.96279792455E+02  0.19382954853E+03  0.50400001928E-02 0. -1.
</event>
<event>
 5   0  0.5503975E-03  0.5995918E+03  0.7818609E-02  0.9906253E-01
       -1   -1    0    0    0  501  0.00000000000E+00  0.00000000000E+00  0.14982275819E+03  0.14982275828E+03  0.50400001928E-02 0.  1.
        1   -1    0    0  501    0  0.00000000000E+00  0.00000000000E+00 -0.59989268015E+03  0.59989268017E+03  0.50400001928E-02 0. -1.
    10030    2    1    2    0    0  0.00000000000E+00  0.00000000000E+00 -0.45006992196E+03  0.74971543845E+03  0.59959178113E+03 0.  0.
        4    1    3    3  502    0  0.24431536788E+03 -0.17203787778E+03 -0.19469090529E+03  0.35664154536E+03  0.12699999809E+01 0.  1.
       -4    1    3    3    0  502 -0.24431536788E+03  0.17203787778E+03 -0.25537901666E+03  0.39307389309E+03  0.12699999809E+01 0. -1.
</event>
<event>
 5   0  0.9428629E-03  0.6009925E+03  0.7818609E-02  0.9903349E-01
       -2   -1    0    0    0  501  0.00000000000E+00  0.00000000000E+00  0.17288310839E+03  0.17288310841E+03  0.25500000920E-02 0.  1.
        2   -1    0    0  501    0  0.00000000000E+00  0.00000000000E+00 -0.52230671178E+03  0.52230671179E+03  0.25500000920E-02 0. -1.
    10030    2    1    2    0    0  0.00000000000E+00  0.00000000000E+00 -0.34942360339E+03  0.69518982019E+03  0.60099253863E+03 0.  0.
        3    1    3    3  502    0  0.51364165881E+02  0.48345063300E+02  0.16317096849E+03  0.17776472609E+03  0.10100000352E+00 0.  1.
       -3    1    3    3    0  502 -0.51364165881E+02 -0.48345063300E+02 -0.51259457188E+03  0.51742509410E+03  0.10100000352E+00 0. -1.
</event>
<event>
 5   0  0.9866317E-03  0.6010255E+03  0.7818609E-02  0.9903281E-01
        2   -1    0    0  501    0  0.00000000000E+00  0.00000000000E+00  0.19143170635E+04  0.19143170635E+04  0.25500000920E-02 0. -1.
       -2   -1    0    0    0  501  0.00000000000E+00  0.00000000000E+00 -0.47174995899E+02  0.47174995968E+02  0.25500000920E-02 0.  1.
    10030    2    1    2    0    0  0.00000000000E+00  0.00000000000E+00  0.18671420676E+04  0.19614920595E+04  0.60102545600E+03 0.  0.
        1    1    3    3  502    0  0.13693611142E+03 -0.84539277851E+02  0.17618348529E+04  0.17691694201E+04  0.50400001928E-02 0. -1.
       -1    1    3    3    0  502 -0.13693611142E+03  0.84539277851E+02  0.10530721464E+03  0.19232263931E+03  0.50400001928E-02 0.  1.
</event>
<event>
 5   0  0.9571790E-03  0.5997526E+03  0.7818609E-02  0.9905919E-01
        2   -1    0    0  501    0  0.00000000000E+00  0.00000000000E+00  0.23380264121E+04  0.23380264121E+04  0.25500000920E-02 0.  1.
       -2   -1    0    0    0  501  0.00000000000E+00  0.00000000000E+00 -0.38462272221E+02  0.38462272306E+02  0.25500000920E-02 0. -1.
    10030    2    1    2    0    0  0.00000000000E+00  0.00000000000E+00  0.22995641399E+04  0.23764886844E+04  0.59975264377E+03 0.  0.
        5    1    3    3  502    0 -0.27430391559E+03 -0.49391499061E+02  0.15878353175E+04  0.16121182474E+04  0.46999998093E+01 0.  1.
       -5    1    3    3    0  502  0.27430391559E+03  0.49391499061E+02  0.71172882243E+03  0.76437043700E+03  0.46999998093E+01 0. -1.
</event>
<event>
 5   0  0.3794375E-03  0.5996362E+03  0.7818609E-02  0.9906161E-01
       -4   -1    0    0    0  501  0.00000000000E+00  0.00000000000E+00  0.25946125463E+03  0.25946436279E+03  0.12699999809E+01 0.  1.
        4   -1    0    0  501    0  0.00000000000E+00  0.00000000000E+00 -0.34644579185E+03  0.34644811963E+03  0.12699999809E+01 0. -1.
    10030    2    1    2    0    0  0.00000000000E+00  0.00000000000E+00 -0.86984537220E+02  0.60591248241E+03  0.59963624526E+03 0.  0.
        1    1    3    3  502    0 -0.92393279141E+02  0.21440828195E+03 -0.23356607785E+03  0.33024315609E+03  0.50400001928E-02 0. -1.
       -1    1    3    3    0  502  0.92393279141E+02 -0.21440828195E+03  0.14658154063E+03  0.27566932632E+03  0.50400001928E-02 0.  1.
</event>
<event>
 5   0  0.9428629E-03  0.6004290E+03  0.7818609E-02  0.9904516E-01
       -2   -1    0    0    0  501  0.00000000000E+00  0.00000000000E+00  0.41780376926E+02  0.41780377004E+02  0.25500000920E-02 0. -1.
        2   -1    0    0  501    0  0.00000000000E+00  0.00000000000E+00 -0.21572025644E+04  0.21572025644E+04  0.25500000920E-02 0.  1.
    10030    2    1    2    0    0  0.00000000000E+00  0.00000000000E+00 -0.21154221875E+04  0.21989829414E+04  0.60042896777E+03 0.  0.
        3    1    3    3  502    0  0.10637785676E+02 -0.27209183209E+03 -0.15206997308E+04  0.15448866654E+04  0.10100000352E+00 0.  1.
       -3    1    3    3    0  502 -0.10637785676E+02  0.27209183209E+03 -0.59472245671E+03  0.65409627601E+03  0.10100000352E+00 0. -1.
</event>
<event>
 5   0  0.9681801E-03  0.6001405E+03  0.7818609E-02  0.9905115E-01
       -2   -1    0    0    0  501  0.00000000000E+00  0.00000000000E+00  0.13737557931E+03  0.13737557933E+03  0.25500000920E-02 0.  1.
        2   -1    0    0  501    0  0.00000000000E+00  0.00000000000E+00 -0.65544510876E+03  0.65544510877E+03  0.25500000920E-02 0. -1.
    10030    2    1    2    0    0  0.00000000000E+00  0.00000000000E+00 -0.51806952946E+03  0.79282068810E+03  0.60014048865E+03 0.  0.
        4    1    3    3  502    0 -0.17529132686E+03  0.23172704490E+03 -0.16003409126E+03  0.33171824773E+03  0.12699999809E+01 0.  1.
       -4    1    3    3    0  502  0.17529132686E+03 -0.23172704490E+03 -0.35803543820E+03  0.46110244037E+03  0.12699999809E+01 0. -1.
</event>
<event>
 5   0  0.5574736E-03  0.5999249E+03  0.7818609E-02  0.9905562E-01
       -1   -1    0    0    0  501  0.00000000000E+00  0.00000000000E+00  0.11760284072E+03  0.11760284083E+03  0.50400001928E-02 0. -1.
        1   -1    0    0  501    0  0.00000000000E+00  0.00000000000E+00 -0.76509603842E+03  0.76509603843E+03  0.50400001928E-02 0.  1.
    10030    2    1    2    0    0  0.00000000000E+00  0.00000000000E+00 -0.64749319770E+03  0.88269887926E+03  0.59992488729E+03 0.  0.
        5    1    3    3  502    0 -0.21965833652E+03  0.48832297101E+02 -0.61550809087E+03  0.65536758996E+03  0.46999998093E+01 0.  1.
       -5    1    3    3    0  502  0.21965833652E+03 -0.48832297101E+02 -0.31985106827E+02  0.22733128931E+03  0.46999998093E+01 0. -1.
</event>
<event>
 5   0  0.9428629E-03  0.5998171E+03  0.7818609E-02  0.9905786E-01
        2   -1    0    0  501    0  0.00000000000E+00  0.00000000000E+00  0.17736985515E+04  0.17736985515E+04  0.25500000920E-02 0.  1.
       -2   -1    0    0    0  501  0.00000000000E+00  0.00000000000E+00 -0.50710492671E+02  0.50710492735E+02  0.25500000920E-02 0. -1.
    10030    2    1    2    0    0  0.00000000000E+00  0.00000000000E+00  0.17229880588E+04  0.18244090442E+04  0.59981706363E+03 0.  0.
        3    1    3    3  502    0  0.11236131809E+02  0.10507307882E+03  0.77900727386E+01  0.10595894480E+03  0.10100000352E+00 0. -1.
       -3    1    3    3    0  502 -0.11236131809E+02 -0.10507307882E+03  0.17151979861E+04  0.17184500994E+04  0.10100000352E+00 0.  1.
</event>
<event>
 5   0  0.9681801E-03  0.6116712E+03  0.7818609E-02  0.9881484E-01
        2   -1    0    0  501    0  0.00000000000E+00  0.00000000000E+00  0.92488315307E+03  0.92488315307E+03  0.25500000920E-02 0. -1.
       -2   -1    0    0    0  501  0.00000000000E+00  0.00000000000E+00 -0.10113213881E+03  0.10113213884E+03  0.25500000920E-02 0.  1.
    10030    2    1    2    0    0  0.00000000000E+00  0.00000000000E+00  0.82375101426E+03  0.10260152919E+04  0.61167119087E+03 0.  0.
        4    1    3    3  502    0  0.14633129226E+02  0.44852616693E+02  0.91873783669E+03  0.91994929815E+03  0.12699999809E+01 0. -1.
       -4    1    3    3    0  502 -0.14633129226E+02 -0.44852616693E+02 -0.94986822436E+02  0.10606599376E+03  0.12699999809E+01 0.  1.
</event>
<event>
 5   0  0.9866317E-03  0.5997448E+03  0.7818609E-02  0.9905936E-01
       -2   -1    0    0    0  501  0.00000000000E+00  0.00000000000E+00  0.35722581396E+02  0.35722581487E+02  0.25500000920E-02 0. -1.
        2   -1    0    0  501    0  0.00000000000E+00  0.00000000000E+00 -0.25172720989E+04  0.25172720989E+04  0.25500000920E-02 0.  1.
    10030    2    1    2    0    0  0.00000000000E+00  0.00000000000E+00 -0.24815495175E+04  0.25529946804E+04  0.59974480428E+03 0.  0.
        1    1    3    3  502    0 -0.11158599978E+03 -0.26985944937E+03 -0.95056514650E+03  0.99440919924E+03  0.50400001928E-02 0. -1.
       -1    1    3    3    0  502  0.11158599978E+03  0.26985944937E+03 -0.15309843710E+04  0.15585854811E+04  0.50400001928E-02 0.  1.
</event>
<event>
 5   0  0.5503975E-03  0.5990901E+03  0.7818609E-02  0.9907296E-01
       -1   -1    0    0    0  501  0.00000000000E+00  0.00000000000E+00  0.36946612845E+03  0.36946612849E+03  0.50400001928E-02 0.  1.
        1   -1    0    0  501    0  0.00000000000E+00  0.00000000000E+00 -0.24285647467E+03  0.24285647472E+03  0.50400001928E-02 0. -1.
    10030    2    1    2    0    0  0.00000000000E+00  0.00000000000E+00  0.12660965378E+03  0.61232260321E+03  0.59909011507E+03 0.  0.
        4    1    3    3  502    0 -0.33189385544E+02  0.92456485752E+02  0.35253195728E+03  0.36596465796E+03  0.12699999809E+01 0.  1.
       -4    1    3    3    0  502  0.33189385544E+02 -0.92456485752E+02 -0.22592230350E+03  0.24635794525E+03  0.12699999809E+01 0. -1.
</event>
<event>
 5   0  0.9428629E-03  0.5903524E+03  0.7818609E-02  0.9925626E-01
       -2   -1    0    0    0  501  0.00000000000E+00  0.00000000000E+00  0.99079275398E+03  0.99079275399E+03  0.25500000920E-02 0.  1.
        2   -1    0    0  501    0  0.00000000000E+00  0.00000000000E+00 -0.87938667286E+02  0.87938667323E+02  0.25500000920E-02 0. -1.
    10030    2    1    2    0    0  0.00000000000E+00  0.00000000000E+00  0.90285408670E+03  0.10787314213E+04  0.59035241801E+03 0.  0.
        3    1    3    3  502    0 -0.25926041550E+03 -0.11932549807E+03  0.58907308932E+03  0.65456982233E+03  0.10100000352E+00 0. -1.
       -3    1    3    3    0  502  0.25926041550E+03  0.11932549807E+03  0.31378099737E+03  0.42416159898E+03  0.10100000352E+00 0.  1.
</event>
<event>
 5   0  0.9571790E-03  0.6006743E+03  0.7818609E-02  0.9904008E-01
       -2   -1    0    0    0  501  0.00000000000E+00  0.00000000000E+00  0.93356011418E+02  0.93356011453E+02  0.25500000920E-02 0. -1.
        2   -1    0    0  501    0  0.00000000000E+00  0.00000000000E+00 -0.96621962016E+03  0.96621962016E+03  0.25500000920E-02 0.  1.
    10030    2    1    2    0    0  0.00000000000E+00  0.00000000000E+00 -0.87286360874E+03  0.10595756316E+04  0.60067432078E+03 0.  0.
        5    1    3    3  502    0 -0.22920990343E+03  0.13197052029E+03 -0.68730704039E+03  0.73645533186E+03  0.46999998093E+01 0.  1.
       -5    1    3    3    0  502  0.22920990343E+03 -0.13197052029E+03 -0.18555656835E+03  0.32312029975E+03  0.46999998093E+01 0. -1.
</event>
<event>
 5   0  0.5785798E-03  0.5984607E+03  0.7818609E-02  0.9908605E-01
       -1   -1    0    0    0  501  0.00000000000E+00  0.00000000000E+00  0.78006151049E+03  0.78006151051E+03  0.50400001928E-02 0. -1.
        1   -1    0    0  501    0  0.00000000000E+00  0.00000000000E+00 -0.11478429922E+03  0.11478429934E+03  0.50400001928E-02 0.  1.
    10030    2    1    2    0    0  0.00000000000E+00  0.00000000000E+00  0.66527721127E+03  0.89484580984E+03  0.59846073853E+03 0.  0.
        1    1    3    3  502    0  0.17941630569E+03  0.23803293692E+03  0.37188486050E+03  0.47660071265E+03  0.50400001928E-02 0.  1.
       -1    1    3    3    0  502 -0.17941630569E+03 -0.23803293692E+03  0.29339235077E+03  0.41824509719E+03  0.50400001928E-02 0. -1.
</event>
<event>
 5   0  0.3794375E-03  0.6001052E+03  0.7818609E-02  0.9905188E-01
        3   -1    0    0  501    0  0.00000000000E+00  0.00000000000E+00  0.18443397881E+03  0.18443400647E+03  0.10100000352E+00 0. -1.
       -3   -1    0    0    0  501  0.00000000000E+00  0.00000000000E+00 -0.48815063112E+03  0.48815064157E+03  0.10100000352E+00 0.  1.
    10030    2    1    2    0    0  0.00000000000E+00  0.00000000000E+00 -0.30371665231E+03  0.67258464804E+03  0.60010524401E+03 0.  0.
        2    1    3    3  502    0 -0.17242572024E+02 -0.28024493037E+03 -0.27045467297E+03  0.38984645365E+03  0.25500000920E-02 0.  1.
       -2    1    3    3    0  502  0.17242572024E+02  0.28024493037E+03 -0.33261979343E+02  0.28273819439E+03  0.25500000920E-02 0. -1.
</event>
<event>
 5   0  0.5503975E-03  0.5957933E+03  0.7818609E-02  0.9914172E-01
        1   -1    0    0  501    0  0.00000000000E+00  0.00000000000E+00  0.45162739352E+03  0.45162739354E+03  0.50400001928E-02 0. -1.
       -1   -1    0    0    0  501  0.00000000000E+00  0.00000000000E+00 -0.19649475947E+03  0.19649475953E+03  0.50400001928E-02 0.  1.
    10030    2    1    2    0    0  0.00000000000E+00  0.00000000000E+00  0.25513263405E+03  0.64812215308E+03  0.59579330674E+03 0.  0.
        4    1    3    3  502    0  0.38214244660E+02 -0.28628160607E+03  0.20693558942E+03  0.35530471083E+03  0.12699999809E+01 0. -1.
       -4    1    3    3    0  502 -0.38214244660E+02  0.28628160607E+03  0.48197044623E+02  0.29281744224E+03  0.12699999809E+01 0.  1.
</event>
<event>
 5   0  0.9681801E-03  0.6010993E+03  0.7818609E-02  0.9903128E-01
        2   -1    0    0  501    0  0.00000000000E+00  0.00000000000E+00  0.12018375495E+04  0.12018375495E+04  0.25500000920E-02 0. -1.
       -2   -1    0    0    0  501  0.00000000000E+00  0.00000000000E+00 -0.75159992874E+02  0.75159992917E+02  0.25500000920E-02 0.  1.
    10030    2    1    2    0    0  0.00000000000E+00  0.00000000000E+00  0.11266775566E+04  0.12769975424E+04  0.60109933184E+03 0.  0.
        4    1    3    3  502    0  0.67712622537E+02  0.27449902411E+03  0.34675272972E+03  0.44740784744E+03  0.12699999809E+01 0.  1.
       -4    1    3    3    0  502 -0.67712622537E+02 -0.27449902411E+03  0.77992482690E+03  0.82958969497E+03  0.12699999809E+01 0. -1.
</event>
<event>
 5   0  0.5491236E-03  0.5995971E+03  0.7818609E-02  0.9906242E-01
       -1   -1    0    0    0  501  0.00000000000E+00  0.00000000000E+00  0.11246653520E+03  0.11246653531E+03  0.50400001928E-02 0. -1.
        1   -1    0    0  501    0  0.00000000000E+00  0.00000000000E+00 -0.79916363901E+03  0.79916363903E+03  0.50400001928E-02 0.  1.
    10030    2    1    2    0    0  0.00000000000E+00  0.00000000000E+00 -0.68669710382E+03  0.91163017434E+03  0.59959708337E+03 0.  0.
        3    1    3    3  502    0 -0.99774552380E+02 -0.27377148398E+03 -0.23612640318E+03  0.37504863048E+03  0.10100000352E+00 0.  1.
       -3    1    3    3    0  502  0.99774552380E+02  0.27377148398E+03 -0.45057070063E+03  0.53658154386E+03  0.10100000352E+00 0. -1.
</event>
<event>
 5   0  0.9571790E-03  0.5991775E+03  0.7818609E-02  0.9907114E-01
       -2   -1    0    0    0  501  0.00000000000E+00  0.00000000000E+00  0.49239772416E+03  0.49239772416E+03  0.25500000920E-02 0.  1.
        2   -1    0    0  501    0  0.00000000000E+00  0.00000000000E+00 -0.18227827979E+03  0.18227827981E+03  0.25500000920E-02 0. -1.
    10030    2    1    2    0    0  0.00000000000E+00  0.00000000000E+00  0.31011944437E+03  0.67467600397E+03  0.59917747000E+03 0.  0.
        5    1    3    3  502    0 -0.11513798979E+03  0.95153015703E+02  0.44743164740E+03  0.47172875912E+03  0.46999998093E+01 0.  1.
       -5    1    3    3    0  502  0.11513798979E+03 -0.95153015703E+02 -0.13731220303E+03  0.20294724485E+03  0.46999998093E+01 0. -1.
</event>
<event>
 5   0  0.9530666E-03  0.5999637E+03  0.7818609E-02  0.9905481E-01
       -2   -1    0    0    0  501  0.00000000000E+00  0.00000000000E+00  0.11710669128E+03  0.11710669131E+03  0.25500000920E-02 0.  1.
        2   -1    0    0  501    0  0.00000000000E+00  0.00000000000E+00 -0.76843699420E+03  0.76843699420E+03  0.25500000920E-02 0. -1.
    10030    2    1    2    0    0  0.00000000000E+00  0.00000000000E+00 -0.65133030292E+03  0.88554368551E+03  0.59996371178E+03 0.  0.
        2    1    3    3  502    0 -0.25358670811E+03  0.12409903477E+03 -0.47533374186E+03  0.55285527502E+03  0.25500000920E-02 0. -1.
       -2    1    3    3    0  502  0.25358670811E+03 -0.12409903477E+03 -0.17599656106E+03  0.33268841049E+03  0.25500000920E-02 0.  1.
</event>
<event>
 5   0  0.9571790E-03  0.6002502E+03  0.7818609E-02  0.9904887E-01
        2   -1    0    0  501    0  0.00000000000E+00  0.00000000000E+00  0.17472405760E+04  0.17472405760E+04  0.25500000920E-02 0. -1.
       -2   -1    0    0    0  501  0.00000000000E+00  0.00000000000E+00 -0.51552759723E+02  0.51552759786E+02  0.25500000920E-02 0.  1.
    10030    2    1    2    0    0  0.00000000000E+00  0.00000000000E+00  0.16956878162E+04  0.17987933357E+04  0.60025019333E+03 0.  0.
        5    1    3    3  502    0 -0.63233104660E+01 -0.16786405183E+03  0.10265746026E+03  0.19692376266E+03  0.46999998093E+01 0.  1.
       -5    1    3    3    0  502  0.63233104660E+01  0.16786405183E+03  0.15930303560E+04  0.16018695731E+04  0.46999998093E+01 0. -1.
</event>
<event>
 5   0  0.5491236E-03  0.5941210E+03  0.7818609E-02  0.9917679E-01
        1   -1    0    0  501    0  0.00000000000E+00  0.00000000000E+00  0.13455668167E+04  0.13455668167E+04  0.50400001928E-02 0.  1.
       -1   -1    0    0    0  501  0.00000000000E+00  0.00000000000E+00 -0.65581976537E+02  0.65581976731E+02  0.50400001928E-02 0. -1.
    10030    2    1    2    0    0  0.00000000000E+00  0.00000000000E+00  0.12799848402E+04  0.14111487935E+04  0.59412096932E+03 0.  0.
        3    1    3    3  502    0 -0.19764732041E+03 -0.84963161098E+02  0.11265391580E+04  0.11468974177E+04  0.10100000352E+00 0.  1.
       -3    1    3    3    0  502  0.19764732041E+03  0.84963161098E+02  0.15344568216E+03  0.26425137574E+03  0.10100000352E+00 0. -1.
</event>
<event>
 5   0  0.5653633E-03  0.6002360E+03  0.7818609E-02  0.9904917E-01
       -1   -1    0    0    0  501  0.00000000000E+00  0.00000000000E+00  0.19207647568E+03  0.19207647574E+03  0.50400001928E-02 0. -1.
        1   -1    0    0  501    0  0.00000000000E+00  0.00000000000E+00 -0.46893203925E+03  0.46893203928E+03  0.50400001928E-02 0.  1.
    10030    2    1    2    0    0  0.00000000000E+00  0.00000000000E+00 -0.27685556357E+03  0.66100851502E+03  0.60023599846E+03 0.  0.
        2    1    3    3  502    0  0.16053822674E+03  0.99002697304E+02  0.11865343448E+03  0.22282884427E+03  0.25500000920E-02 0. -1.
       -2    1    3    3    0  502 -0.16053822674E+03 -0.99002697304E+02 -0.39550899805E+03  0.43817967076E+03  0.25500000920E-02 0.  1.
</event>
<event>
 5   0  0.9428629E-03  0.5993797E+03  0.7818609E-02  0.9906694E-01
        2   -1    0    0  501    0  0.00000000000E+00  0.00000000000E+00  0.39613769366E+03  0.39613769367E+03  0.25500000920E-02 0.  1.
       -2   -1    0    0    0  501  0.00000000000E+00  0.00000000000E+00 -0.22672421342E+03  0.22672421343E+03  0.25500000920E-02 0. -1.
    10030    2    1    2    0    0  0.00000000000E+00  0.00000000000E+00  0.16941348025E+03  0.62286190710E+03  0.59937970272E+03 0.  0.
        3    1    3    3  502    0 -0.52615437659E+02  0.88263713931E+02 -0.20784550050E+03  0.23185907305E+03  0.10100000352E+00 0. -1.
       -3    1    3    3    0  502  0.52615437659E+02 -0.88263713931E+02  0.37725898075E+03  0.39100283405E+03  0.10100000352E+00 0.  1.
</event>
<event>
 5   0  0.5653633E-03  0.6001057E+03  0.7818609E-02  0.9905187E-01
        1   -1    0    0  501    0  0.00000000000E+00  0.00000000000E+00  0.29429876715E+03  0.29429876719E+03  0.50400001928E-02 0. -1.
       -1   -1    0    0    0  501  0.00000000000E+00  0.00000000000E+00 -0.30591944408E+03  0.30591944412E+03  0.50400001928E-02 0.  1.
    10030    2    1    2    0    0  0.00000000000E+00  0.00000000000E+00 -0.11620676932E+02  0.60021821131E+03  0.60010570823E+03 0.  0.
        2    1    3    3  502    0  0.20604939952E+03 -0.22066536865E+02  0.21122902514E+03  0.29590706000E+03  0.25500000920E-02 0. -1.
       -2    1    3    3    0  502 -0.20604939952E+03  0.22066536865E+02 -0.22284970207E+03  0.30431115131E+03  0.25500000920E-02 0.  1.
</event>
<event>
 5   0  0.9681801E-03  0.6008141E+03  0.7818609E-02  0.9903718E-01
       -2   -1    0    0    0  501  0.00000000000E+00  0.00000000000E+00  0.14114875325E+03  0.14114875327E+03  0.25500000920E-02 0. -1.
        2   -1    0    0  501    0  0.00000000000E+00  0.00000000000E+00 -0.63935671448E+03  0.63935671449E+03  0.25500000920E-02 0.  1.
    10030    2    1    2    0    0  0.00000000000E+00  0.00000000000E+00 -0.49820796123E+03  0.78050546776E+03  0.60081412481E+03 0.  0.
        4    1    3    3  502    0  0.18798994367E+03 -0.29153234337E+02  0.52922034159E+02  0.19746514779E+03  0.12699999809E+01 0. -1.
       -4    1    3    3    0  502 -0.18798994367E+03  0.29153234337E+02 -0.55112999539E+03  0.58304031997E+03  0.12699999809E+01 0.  1.
</event>
<event>
 5   0  0.3794375E-03  0.5994802E+03  0.7818609E-02  0.9906485E-01
       -3   -1    0    0    0  501  0.00000000000E+00  0.00000000000E+00  0.68101118899E+03  0.68101119648E+03  0.10100000352E+00 0.  1.
        3   -1    0    0  501    0  0.00000000000E+00  0.00000000000E+00 -0.13192751565E+03  0.13192755431E+03  0.10100000352E+00 0. -1.
    10030    2    1    2    0    0  0.00000000000E+00  0.00000000000E+00  0.54908367334E+03  0.81293875079E+03  0.59948021836E+03 0.  0.
        5    1    3    3  502    0  0.23771940729E+03  0.72091635784E+02  0.47164706820E+02  0.25289191391E+03  0.46999998093E+01 0.  1.
       -5    1    3    3    0  502 -0.23771940729E+03 -0.72091635784E+02  0.50191896652E+03  0.56004683688E+03  0.46999998093E+01 0. -1.
</event>
<event>
 5   0  0.5503975E-03  0.6000840E+03  0.7818609E-02  0.9905232E-01
        1   -1    0    0  501    0  0.00000000000E+00  0.00000000000E+00  0.13379790394E+04  0.13379790394E+04  0.50400001928E-02 0.  1.
       -1   -1    0    0    0  501  0.00000000000E+00  0.00000000000E+00 -0.67284463493E+02  0.67284463681E+02  0.50400001928E-02 0. -1.
    10030    2    1    2    0    0  0.00000000000E+00  0.00000000000E+00  0.12706945759E+04  0.14052635031E+04  0.60008400068E+03 0.  0.
        4    1    3    3  502    0  0.52796460202E+02  0.22325439862E+03  0.10881868244E+04  0.11121070858E+04  0.12699999809E+01 0.  1.
       -4    1    3    3    0  502 -0.52796460202E+02 -0.22325439862E+03  0.18250775153E+03  0.29315641726E+03  0.12699999809E+01 0. -1.
</event>
<event>
 5   0  0.5785798E-03  0.6006495E+03  0.7818609E-02  0.9904059E-01
        1   -1    0    0  501    0  0.00000000000E+00  0.00000000000E+00  0.35633990179E+03  0.35633990183E+03  0.50400001928E-02 0. -1.
       -1   -1    0    0    0  501  0.00000000000E+00  0.00000000000E+00 -0.25311497763E+03  0.25311497768E+03  0.50400001928E-02 0.  1.
    10030    2    1    2    0    0  0.00000000000E+00  0.00000000000E+00  0.10322492416E+03  0.60945487951E+03  0.60064953607E+03 0.  0.
        1    1    3    3  502    0 -0.52460672882E+02 -0.36898783443E+01  0.35163144641E+03  0.35554241876E+03  0.50400001928E-02 0. -1.
       -1    1    3    3    0  502  0.52460672882E+02  0.36898783443E+01 -0.24840652225E+03  0.25391246075E+03  0.50400001928E-02 0.  1.
</event>
<event>
 5   0  0.5491236E-03  0.5999209E+03  0.7818609E-02  0.9905570E-01
       -1   -1    0    0    0  501  0.00000000000E+00  0.00000000000E+00  0.17991057773E+03  0.17991057780E+03  0.50400001928E-02 0.  1.
        1   -1    0    0  501    0  0.00000000000E+00  0.00000000000E+00 -0.50011664719E+03  0.50011664722E+03  0.50400001928E-02 0. -1.
    10030    2    1    2    0    0  0.00000000000E+00  0.00000000000E+00 -0.32020606946E+03  0.68002722501E+03  0.59992091132E+03 0.  0.
        3    1    3    3  502    0  0.79534482501E+02 -0.23494428729E+03 -0.35130242688E+03  0.43004413422E+03  0.10100000352E+00 0. -1.
       -3    1    3    3    0  502 -0.79534482501E+02  0.23494428729E+03  0.31096357421E+02  0.24998309080E+03  0.10100000352E+00 0.  1.
</event>
<event>
 5   0  0.5491236E-03  0.5998483E+03  0.7818609E-02  0.9905721E-01
        1   -1    0    0  501    0  0.00000000000E+00  0.00000000000E+00  0.15523605243E+04  0.15523605243E+04  0.50400001928E-02 0.  1.
       -1   -1    0    0    0  501  0.00000000000E+00  0.00000000000E+00 -0.57946913834E+02  0.57946914053E+02  0.50400001928E-02 0. -1.
    10030    2    1    2    0    0  0.00000000000E+00  0.00000000000E+00  0.14944136105E+04  0.16103074384E+04  0.59984831991E+03 0.  0.
        3    1    3    3  502    0 -0.14068875003E+03 -0.23604398627E+03  0.42456758385E+03  0.50573484287E+03  0.10100000352E+00 0. -1.
       -3    1    3    3    0  502  0.14068875003E+03  0.23604398627E+03  0.10698460267E+04  0.11045725955E+04  0.10100000352E+00 0.  1.
</event>
<event>
 5   0  0.9530666E-03  0.6001073E+03  0.7818609E-02  0.9905184E-01
        2   -1    0    0  501    0  0.00000000000E+00  0.00000000000E+00  0.63918244470E+03  0.63918244471E+03  0.25500000920E-02 0.  1.
       -2   -1    0    0    0  501  0.00000000000E+00  0.00000000000E+00 -0.14085521300E+03  0.14085521302E+03  0.25500000920E-02 0. -1.
    10030    2    1    2    0    0  0.00000000000E+00  0.00000000000E+00  0.49832723171E+03  0.78003765773E+03  0.60010725509E+03 0.  0.
        2    1    3    3  502    0 -0.55195198415E+02 -0.12049678974E+03 -0.10074482236E+03  0.16647974503E+03  0.25500000920E-02 0. -1.
       -2    1    3    3    0  502  0.55195198415E+02  0.12049678974E+03  0.59907205407E+03  0.61355791270E+03  0.25500000920E-02 0.  1.
</event>
<event>
 5   0  0.5503975E-03  0.5999956E+03  0.7818609E-02  0.9905415E-01
        1   -1    0    0  501    0  0.00000000000E+00  0.00000000000E+00  0.77440101748E+03  0.77440101750E+03  0.50400001928E-02 0.  1.
       -1   -1    0    0    0  501  0.00000000000E+00  0.00000000000E+00 -0.11621714376E+03  0.11621714387E+03  0.50400001928E-02 0. -1.
    10030    2    1    2    0    0  0.00000000000E+00  0.00000000000E+00  0.65818387373E+03  0.89061816137E+03  0.59999558142E+03 0.  0.
        4    1    3    3  502    0 -0.22670203166E+03  0.28954725913E+02  0.40630663610E+02  0.23213067664E+03  0.12699999809E+01 0. -1.
       -4    1    3    3    0  502  0.22670203166E+03 -0.28954725913E+02  0.61755321012E+03  0.65848748472E+03  0.12699999809E+01 0.  1.
</event>
<event>
 5   0  0.9571790E-03  0.5945219E+03  0.7818609E-02  0.9916837E-01
       -2   -1    0    0    0  501  0.00000000000E+00  0.00000000000E+00  0.11128384533E+03  0.11128384536E+03  0.25500000920E-02 0. -1.
        2   -1    0    0  501    0  0.00000000000E+00  0.00000000000E+00 -0.79404227429E+03  0.79404227430E+03  0.25500000920E-02 0.  1.
    10030    2    1    2    0    0  0.00000000000E+00  0.00000000000E+00 -0.68275842896E+03  0.90532611966E+03  0.59452191769E+03 0.  0.
        5    1    3    3  502    0  0.92969610184E+02  0.20949478440E+03 -0.53213156931E+02  0.23534048351E+03  0.46999998093E+01 0. -1.
       -5    1    3    3    0  502 -0.92969610184E+02 -0.20949478440E+03 -0.62954527203E+03  0.66998563615E+03  0.46999998093E+01 0.  1.
</event>
<event>
 5   0  0.3794375E-03  0.5995234E+03  0.7818609E-02  0.9906395E-01
        3   -1    0    0  501    0  0.00000000000E+00  0.00000000000E+00  0.11134885974E+04  0.11134886020E+04  0.10100000352E+00 0.  1.
       -3   -1    0    0    0  501  0.00000000000E+00  0.00000000000E+00 -0.80698664171E+02  0.80698727375E+02  0.10100000352E+00 0. -1.
    10030    2    1    2    0    0  0.00000000000E+00  0.00000000000E+00  0.10327899333E+04  0.11941873294E+04  0.59952342025E+03 0.  0.
        2    1    3    3  502    0  0.16642860443E+03  0.11930543616E+03  0.95245524709E+03  0.97421931062E+03  0.25500000920E-02 0.  1.
       -2    1    3    3    0  502 -0.16642860443E+03 -0.11930543616E+03  0.80334686165E+02  0.21996801876E+03  0.25500000920E-02 0. -1.
</event>
<event>
 5   0  0.9681801E-03  0.5993076E+03  0.7818609E-02  0.9906844E-01
        2   -1    0    0  501    0  0.00000000000E+00  0.00000000000E+00  0.98957160107E+03  0.98957160108E+03  0.25500000920E-02 0.  1.
       -2   -1    0    0    0  501  0.00000000000E+00  0.00000000000E+00 -0.90738645961E+02  0.90738645996E+02  0.25500000920E-02 0. -1.
    10030    2    1    2    0    0  0.00000000000E+00  0.00000000000E+00  0.89883295511E+03  0.10803102471E+04  0.59930755771E+03 0.  0.
        4    1    3    3  502    0  0.18983090133E+03  0.20619404093E+03  0.25831547035E+03  0.38115646228E+03  0.12699999809E+01 0. -1.
       -4    1    3    3    0  502 -0.18983090133E+03 -0.20619404093E+03  0.64051748476E+03  0.69915378479E+03  0.12699999809E+01 0.  1.
</event>
<event>
 5   0  0.5785798E-03  0.5994835E+03  0.7818609E-02  0.9906478E-01
        1   -1    0    0  501    0  0.00000000000E+00  0.00000000000E+00  0.28818460003E+03  0.28818460007E+03  0.50400001928E-02 0. -1.
       -1   -1    0    0    0  501  0.00000000000E+00  0.00000000000E+00 -0.31176241916E+03  0.31176241920E+03  0.50400001928E-02 0.  1.
    10030    2    1    2    0    0  0.00000000000E+00  0.00000000000E+00 -0.23577819125E+02  0.59994701927E+03  0.59948353804E+03 0.  0.
        1    1    3    3  502    0 -0.27870404379E+02  0.17602215873E+03  0.22940482443E+03  0.29049463558E+03  0.50400001928E-02 0. -1.
       -1    1    3    3    0  502  0.27870404379E+02 -0.17602215873E+03 -0.25298264356E+03  0.30945238369E+03  0.50400001928E-02 0.  1.
</event>
<event>
 5   0  0.9571790E-03  0.6030700E+03  0.7818609E-02  0.9899057E-01
       -2   -1    0    0    0  501  0.00000000000E+00  0.00000000000E+00  0.32380742822E+03  0.32380742823E+03  0.25500000920E-02 0. -1.
        2   -1    0    0  501    0  0.00000000000E+00  0.00000000000E+00 -0.28079450906E+03  0.28079450907E+03  0.25500000920E-02 0.  1.
    10030    2    1    2    0    0  0.00000000000E+00  0.00000000000E+00  0.43012919166E+02  0.60460193730E+03  0.60306997220E+03 0.  0.
        5    1    3    3  502    0 -0.26437745042E+03 -0.13125495624E+03  0.83127693901E+02  0.30668485995E+03  0.46999998093E+01 0. -1.
       -5    1    3    3    0  502  0.26437745042E+03  0.13125495624E+03 -0.40114774735E+02  0.29791707735E+03  0.46999998093E+01 0.  1.
</event>
<event>
 5   0  0.5574736E-03  0.5996969E+03  0.7818609E-02  0.9906035E-01
       -1   -1    0    0    0  501  0.00000000000E+00  0.00000000000E+00  0.11732909892E+03  0.11732909902E+03  0.50400001928E-02 0. -1.
        1   -1    0    0  501    0  0.00000000000E+00  0.00000000000E+00 -0.76629834086E+03  0.76629834088E+03  0.50400001928E-02 0.  1.
    10030    2    1    2    0    0  0.00000000000E+00  0.00000000000E+00 -0.64896924195E+03  0.88362743990E+03  0.59969690307E+03 0.  0.
        5    1    3    3  502    0  0.47504722953E+02  0.78896819037E+02 -0.74488637654E+03  0.75057258857E+03  0.46999998093E+01 0.  1.
       -5    1    3    3    0  502 -0.47504722953E+02 -0.78896819037E+02  0.95917134593E+02  0.13305485134E+03  0.46999998093E+01 0. -1.
</event>
<event>
 5   0  0.9866317E-03  0.6010102E+03  0.7818609E-02  0.9903312E-01
       -2   -1    0    0    0  501  0.00000000000E+00  0.00000000000E+00  0.49437404489E+02  0.49437404555E+02  0.25500000920E-02 0.  1.
        2   -1    0    0  501    0  0.00000000000E+00  0.00000000000E+00 -0.18266194594E+04  0.18266194594E+04  0.25500000920E-02 0. -1.
    10030    2    1    2    0    0  0.00000000000E+00  0.00000000000E+00 -0.17771820549E+04  0.18760568639E+04  0.60101023328E+03 0.  0.
        1    1    3    3  502    0  0.11138178086E+02  0.42158231402E+02  0.39509570921E+02  0.58842006303E+02  0.50400001928E-02 0.  1.
       -1    1    3    3    0  502 -0.11138178086E+02 -0.42158231402E+02 -0.18166916258E+04  0.18172148576E+04  0.50400001928E-02 0. -1.
</event>
<event>
 5   0  0.9428629E-03  0.6015260E+03  0.7818609E-02  0.9902245E-01
       -2   -1    0    0    0  501  0.00000000000E+00  0.00000000000E+00  0.31749845478E+03  0.31749845479E+03  0.25500000920E-02 0. -1.
        2   -1    0    0  501    0  0.00000000000E+00  0.00000000000E+00 -0.28490970393E+03  0.28490970394E+03  0.25500000920E-02 0.  1.
    10030    2    1    2    0    0  0.00000000000E+00  0.00000000000E+00  0.32588750850E+02  0.60240815873E+03  0.60152602855E+03 0.  0.
        3    1    3    3  502    0  0.79528130559E+02  0.17838634216E+03  0.24534788904E+03  0.31359529249E+03  0.10100000352E+00 0. -1.
       -3    1    3    3    0  502 -0.79528130559E+02 -0.17838634216E+03 -0.21275913819E+03  0.28881286623E+03  0.10100000352E+00 0.  1.
</event>
<event>
 5   0  0.5503975E-03  0.6004468E+03  0.7818609E-02  0.9904480E-01
       -1   -1    0    0    0  501  0.00000000000E+00  0.00000000000E+00  0.10971476976E+04  0.10971476976E+04  0.50400001928E-02 0.  1.
        1   -1    0    0  501    0  0.00000000000E+00  0.00000000000E+00 -0.82153103653E+02  0.82153103808E+02  0.50400001928E-02 0. -1.
    10030    2    1    2    0    0  0.00000000000E+00  0.00000000000E+00  0.10149945940E+04  0.11793008015E+04  0.60044679573E+03 0.  0.
        4    1    3    3  502    0  0.11342762715E+03 -0.46710607686E+02 -0.30680757594E+02  0.12645405987E+03  0.12699999809E+01 0. -1.
       -4    1    3    3    0  502 -0.11342762715E+03  0.46710607686E+02  0.10456753516E+04  0.10528467416E+04  0.12699999809E+01 0.  1.
</event>
<event>
 5   0  0.3794375E-03  0.5917670E+03  0.7818609E-02  0.9922636E-01
        4   -1    0    0  501    0  0.00000000000E+00  0.00000000000E+00  0.19861275448E+03  0.19861681485E+03  0.12699999809E+01 0. -1.
       -4   -1    0    0    0  501  0.00000000000E+00  0.00000000000E+00 -0.44078322007E+03  0.44078504965E+03  0.12699999809E+01 0.  1.
    10030    2    1    2    0    0  0.00000000000E+00  0.00000000000E+00 -0.24217046559E+03  0.63940186450E+03  0.59176702334E+03 0.  0.
        5    1    3    3  502    0  0.24087059876E+03 -0.11389853848E+03 -0.26001802081E+03  0.37232107590E+03  0.46999998093E+01 0.  1.
       -5    1    3    3    0  502 -0.24087059876E+03  0.11389853848E+03  0.17847555221E+02  0.26708078860E+03  0.46999998093E+01 0. -1.
</event>
<event>
 5   0  0.9866317E-03  0.5983087E+03  0.7818609E-02  0.9908921E-01
        2   -1    0    0  501    0  0.00000000000E+00  0.00000000000E+00  0.35156390522E+03  0.35156390523E+03  0.25500000920E-02 0. -1.
       -2   -1    0    0    0  501  0.00000000000E+00  0.00000000000E+00 -0.25455776474E+03  0.25455776475E+03  0.25500000920E-02 0.  1.
    10030    2    1    2    0    0  0.00000000000E+00  0.00000000000E+00  0.97006140481E+02  0.60612166998E+03  0.59830868916E+03 0.  0.
        1    1    3    3  502    0 -0.15636052859E+03  0.25483271237E+03  0.38122524749E+02  0.30139949090E+03  0.50400001928E-02 0.  1.
       -1    1    3    3    0  502  0.15636052859E+03 -0.25483271237E+03  0.58883615733E+02  0.30472217908E+03  0.50400001928E-02 0. -1.
</event>
<event>
 5   0  0.9428629E-03  0.6015442E+03  0.7818609E-02  0.9902208E-01
       -2   -1    0    0    0  501  0.00000000000E+00  0.00000000000E+00  0.59299917529E+02  0.59299917584E+02  0.25500000920E-02 0. -1.
        2   -1    0    0  501    0  0.00000000000E+00  0.00000000000E+00 -0.15255307771E+04  0.15255307772E+04  0.25500000920E-02 0.  1.
    10030    2    1    2    0    0  0.00000000000E+00  0.00000000000E+00 -0.14662308596E+04  0.15848306947E+04  0.60154417732E+03 0.  0.
        3    1    3    3  502    0 -0.37750661723E+02 -0.31343650482E+02  0.48684394712E+02  0.69121034248E+02  0.10100000352E+00 0. -1.
       -3    1    3    3    0  502  0.37750661723E+02  0.31343650482E+02 -0.15149152543E+04  0.15157096605E+04  0.10100000352E+00 0.  1.
</event>
<event>
 5   0  0.5574736E-03  0.5986978E+03  0.7818609E-02  0.9908111E-01
       -1   -1    0    0    0  501  0.00000000000E+00  0.00000000000E+00  0.39101125692E+03  0.39101125695E+03  0.50400001928E-02 0. -1.
        1   -1    0    0  501    0  0.00000000000E+00  0.00000000000E+00 -0.22917439948E+03  0.22917439954E+03  0.50400001928E-02 0.  1.
    10030    2    1    2    0    0  0.00000000000E+00  0.00000000000E+00  0.16183685743E+03  0.62018565649E+03  0.59869782035E+03 0.  0.
        5    1    3    3  502    0  0.17778311687E+03 -0.20576676704E+03 -0.48633727638E+02  0.27628631621E+03  0.46999998093E+01 0.  1.
       -5    1    3    3    0  502 -0.17778311687E+03  0.20576676704E+03  0.21047058507E+03  0.34389934028E+03  0.46999998093E+01 0. -1.
</event>
<event>
 5   0  0.9428629E-03  0.6004323E+03  0.7818609E-02  0.9904510E-01
        2   -1    0    0  501    0  0.00000000000E+00  0.00000000000E+00  0.19019860792E+03  0.19019860794E+03  0.25500000920E-02 0. -1.
       -2   -1    0    0    0  501  0.00000000000E+00  0.00000000000E+00 -0.47387173394E+03  0.47387173395E+03  0.25500000920E-02 0.  1.
    10030    2    1    2    0    0  0.00000000000E+00  0.00000000000E+00 -0.28367312602E+03  0.66407034189E+03  0.60043232470E+03 0.  0.
        3    1    3    3  502    0 -0.12038035283E+03  0.27499295796E+03 -0.13725269547E+03  0.33007706507E+03  0.10100000352E+00 0.  1.
       -3    1    3    3    0  502  0.12038035283E+03 -0.27499295796E+03 -0.14642043055E+03  0.33399327681E+03  0.10100000352E+00 0. -1.
</event>
<event>
 5   0  0.5653633E-03  0.6029012E+03  0.7818609E-02  0.9899405E-01
       -1   -1    0    0    0  501  0.00000000000E+00  0.00000000000E+00  0.68450552117E+02  0.68450552302E+02  0.50400001928E-02 0. -1.
        1   -1    0    0  501    0  0.00000000000E+00  0.00000000000E+00 -0.13275634555E+04  0.13275634555E+04  0.50400001928E-02 0.  1.
    10030    2    1    2    0    0  0.00000000000E+00  0.00000000000E+00 -0.12591129033E+04  0.13960140078E+04  0.60290115818E+03 0.  0.
        2    1    3    3  502    0 -0.55370235468E+02 -0.27767135853E+03 -0.86913126485E+03  0.91408774298E+03  0.25500000920E-02 0.  1.
       -2    1    3    3    0  502  0.55370235468E+02  0.27767135853E+03 -0.38998163849E+03  0.48192626478E+03  0.25500000920E-02 0. -1.
</event>
<event>
 5   0  0.5503975E-03  0.5990030E+03  0.7818609E-02  0.9907477E-01
       -1   -1    0    0    0  501  0.00000000000E+00  0.00000000000E+00  0.31396428419E+03  0.31396428423E+03  0.50400001928E-02 0. -1.
        1   -1    0    0  501    0  0.00000000000E+00  0.00000000000E+00 -0.28570492408E+03  0.28570492412E+03  0.50400001928E-02 0.  1.
    10030    2    1    2    0    0  0.00000000000E+00  0.00000000000E+00  0.28259360114E+02  0.59966920836E+03  0.59900297831E+03 0.  0.
        4    1    3    3  502    0 -0.27557929130E+03 -0.70541591684E+02 -0.79673345579E+02  0.29541414463E+03  0.12699999809E+01 0. -1.
       -4    1    3    3    0  502  0.27557929130E+03  0.70541591684E+02  0.10793270569E+03  0.30425506373E+03  0.12699999809E+01 0.  1.
</event>
<event>
 5   0  0.9428629E-03  0.6002608E+03  0.7818609E-02  0.9904865E-01
       -2   -1    0    0    0  501  0.00000000000E+00  0.00000000000E+00  0.94677238235E+02  0.94677238270E+02  0.25500000920E-02 0.  1.
        2   -1    0    0  501    0  0.00000000000E+00  0.00000000000E+00 -0.95142459169E+03  0.95142459170E+03  0.25500000920E-02 0. -1.
    10030    2    1    2    0    0  0.00000000000E+00  0.00000000000E+00 -0.85674735346E+03  0.10461018300E+04  0.60026078583E+03 0.  0.
        3    1    3    3  502    0 -0.52902816585E+02 -0.33452437050E+02 -0.93992359136E+03  0.94200538286E+03  0.10100000352E+00 0. -1.
       -3    1    3    3    0  502  0.52902816585E+02  0.33452437050E+02  0.83176237901E+02  0.10409644710E+03  0.10100000352E+00 0.  1.
</event>
<event>
 5   0  0.5491236E-03  0.6034840E+03  0.7818609E-02  0.9898204E-01
       -1   -1    0    0    0  501  0.00000000000E+00  0.00000000000E+00  0.20180293225E+04  0.20180293225E+04  0.50400001928E-02 0. -1.
        1   -1    0    0  501    0  0.00000000000E+00  0.00000000000E+00 -0.45117403535E+02  0.45117403816E+02  0.50400001928E-02 0.  1.
    10030    2    1    2    0    0  0.00000000000E+00  0.00000000000E+00  0.19729119190E+04  0.20631467263E+04  0.60348402990E+03 0.  0.
        3    1    3    3  502    0 -0.20030415557E+03 -0.15078363550E+03  0.15604638107E+04  0.15804761226E+04  0.10100000352E+00 0. -1.
       -3    1    3    3    0  502  0.20030415557E+03  0.15078363550E+03  0.41244810833E+03  0.48267060377E+03  0.10100000352E+00 0.  1.
</event>
<event>
 5   0  0.5785798E-03  0.6001715E+03  0.7818609E-02  0.9905050E-01
        1   -1    0    0  501    0  0.00000000000E+00  0.00000000000E+00  0.48092648310E+03  0.48092648312E+03  0.50400001928E-02 0.  1.
       -1   -1    0    0    0  501  0.00000000000E+00  0.00000000000E+00 -0.18724579020E+03  0.18724579027E+03  0.50400001928E-02 0. -1.
    10030    2    1    2    0    0  0.00000000000E+00  0.00000000000E+00  0.29368069290E+03  0.66817227339E+03  0.60017150677E+03 0.  0.
        1    1    3    3  502    0 -0.20525594317E+03  0.21335247868E+03  0.20140552475E+03  0.35806908243E+03  0.50400001928E-02 0.  1.
       -1    1    3    3    0  502  0.20525594317E+03 -0.21335247868E+03  0.92275168145E+02  0.31010319096E+03  0.50400001928E-02 0. -1.
</event>
<event>
 5   0  0.5503975E-03  0.6005857E+03  0.7818609E-02  0.9904192E-01
       -1   -1    0    0    0  501  0.00000000000E+00  0.00000000000E+00  0.33277336390E+03  0.33277336394E+03  0.50400001928E-02 0. -1.
        1   -1    0    0  501    0  0.00000000000E+00  0.00000000000E+00 -0.27098258610E+03  0.27098258614E+03  0.50400001928E-02 0.  1.
    10030    2    1    2    0    0  0.00000000000E+00  0.00000000000E+00  0.61790777801E+02  0.60375595008E+03  0.60058567002E+03 0.  0.
        4    1    3    3  502    0  0.18431814702E+03  0.97377842147E+02  0.24818108491E+03  0.32411585470E+03  0.12699999809E+01 0. -1.
       -4    1    3    3    0  502 -0.18431814702E+03 -0.97377842147E+02 -0.18639030710E+03  0.27964009538E+03  0.12699999809E+01 0.  1.
</event>
<event>
 5   0  0.9530666E-03  0.6002572E+03  0.7818609E-02  0.9904873E-01
       -2   -1    0    0    0  501  0.00000000000E+00  0.00000000000E+00  0.15847422866E+03  0.15847422868E+03  0.25500000920E-02 0. -1.
        2   -1    0    0  501    0  0.00000000000E+00  0.00000000000E+00 -0.56840261831E+03  0.56840261832E+03  0.25500000920E-02 0.  1.
    10030    2    1    2    0    0  0.00000000000E+00  0.00000000000E+00 -0.40992838965E+03  0.72687684700E+03  0.60025716661E+03 0.  0.
        2    1    3    3  502    0  0.20440136632E+03  0.14417633556E+03 -0.40581435785E+03  0.47670958385E+03  0.25500000920E-02 0.  1.
       -2    1    3    3    0  502 -0.20440136632E+03 -0.14417633556E+03 -0.41140317987E+01  0.25016726315E+03  0.25500000920E-02 0. -1.
</event>
<event>
 5   0  0.9530666E-03  0.6006237E+03  0.7818609E-02  0.9904113E-01
        2   -1    0    0  501    0  0.00000000000E+00  0.00000000000E+00  0.46851138645E+03  0.46851138646E+03  0.25500000920E-02 0. -1.
       -2   -1    0    0    0  501  0.00000000000E+00  0.00000000000E+00 -0.19249739301E+03  0.19249739303E+03  0.25500000920E-02 0.  1.
    10030    2    1    2    0    0  0.00000000000E+00  0.00000000000E+00  0.27601399344E+03  0.66100877949E+03  0.60062374411E+03 0.  0.
        2    1    3    3  502    0  0.12024887398E+03  0.10148870386E+03 -0.14349715238E+03  0.21295816831E+03  0.25500000920E-02 0.  1.
       -2    1    3    3    0  502 -0.12024887398E+03 -0.10148870386E+03  0.41951114581E+03  0.44805061117E+03  0.25500000920E-02 0. -1.
</event>
<event>
 5   0  0.9530666E-03  0.5988289E+03  0.7818609E-02  0.9907839E-01
       -2   -1    0    0    0  501  0.00000000000E+00  0.00000000000E+00  0.14651184632E+03  0.14651184634E+03  0.25500000920E-02 0. -1.
        2   -1    0    0  501    0  0.00000000000E+00  0.00000000000E+00 -0.61188920661E+03  0.61188920661E+03  0.25500000920E-02 0.  1.
    10030    2    1    2    0    0  0.00000000000E+00  0.00000000000E+00 -0.46537736029E+03  0.75840105295E+03  0.59882891517E+03 0.  0.
        2    1    3    3  502    0 -0.53819429558E+02 -0.15622166862E+03  0.83542660172E+02  0.18515160496E+03  0.25500000920E-02 0. -1.
       -2    1    3    3    0  502  0.53819429558E+02  0.15622166862E+03 -0.54892002046E+03  0.57324944799E+03  0.25500000920E-02 0.  1.
</event>
<event>
 5   0  0.3794375E-03  0.5997999E+03  0.7818609E-02  0.9905821E-01
       -4   -1    0    0    0  501  0.00000000000E+00  0.00000000000E+00  0.11436542094E+04  0.11436549146E+04  0.12699999809E+01 0. -1.
        4   -1    0    0  501    0  0.00000000000E+00  0.00000000000E+00 -0.78636781004E+02  0.78647035714E+02  0.12699999809E+01 0.  1.
    10030    2    1    2    0    0  0.00000000000E+00  0.00000000000E+00  0.10650174284E+04  0.12223019503E+04  0.59979991234E+03 0.  0.
        5    1    3    3  502    0 -0.17008768511E+03 -0.18988750407E+03  0.21074261059E+03  0.33078939333E+03  0.46999998093E+01 0.  1.
       -5    1    3    3    0  502  0.17008768511E+03  0.18988750407E+03  0.85427481782E+03  0.89151255695E+03  0.46999998093E+01 0. -1.
</event>
<event>
 5   0  0.5503975E-03  0.6008676E+03  0.7818609E-02  0.9903608E-01
       -1   -1    0    0    0  501  0.00000000000E+00  0.00000000000E+00  0.40582697597E+03  0.40582697600E+03  0.50400001928E-02 0.  1.
        1   -1    0    0  501    0  0.00000000000E+00  0.00000000000E+00 -0.22241122353E+03  0.22241122359E+03  0.50400001928E-02 0. -1.
    10030    2    1    2    0    0  0.00000000000E+00  0.00000000000E+00  0.18341575244E+03  0.62823819959E+03  0.60086762035E+03 0.  0.
        4    1    3    3  502    0 -0.13796815330E+03 -0.25938412709E+03  0.26049850412E+02  0.29495007089E+03  0.12699999809E+01 0.  1.
       -4    1    3    3    0  502  0.13796815330E+03  0.25938412709E+03  0.15736590203E+03  0.33328812870E+03  0.12699999809E+01 0. -1.
</event>
<event>
 5   0  0.5491236E-03  0.5977152E+03  0.7818609E-02  0.9910158E-01
       -1   -1    0    0    0  501  0.00000000000E+00  0.00000000000E+00  0.14694951220E+03  0.14694951229E+03  0.50400001928E-02 0. -1.
        1   -1    0    0  501    0  0.00000000000E+00  0.00000000000E+00 -0.60779959199E+03  0.60779959201E+03  0.50400001928E-02 0.  1.
    10030    2    1    2    0    0  0.00000000000E+00  0.00000000000E+00 -0.46085007979E+03  0.75474910429E+03  0.59771516159E+03 0.  0.
        3    1    3    3  502    0  0.23218678261E+03 -0.68715182590E+02 -0.45161215672E+03  0.51243148677E+03  0.10100000352E+00 0.  1.
       -3    1    3    3    0  502 -0.23218678261E+03  0.68715182590E+02 -0.92379230696E+01  0.24231761752E+03  0.10100000352E+00 0. -1.
</event>
<event>
 5   0  0.9571790E-03  0.6005144E+03  0.7818609E-02  0.9904339E-01
        2   -1    0    0  501    0  0.00000000000E+00  0.00000000000E+00  0.25101152707E+03  0.25101152708E+03  0.25500000920E-02 0. -1.
       -2   -1    0    0    0  501  0.00000000000E+00  0.00000000000E+00 -0.35916429238E+03  0.35916429239E+03  0.25500000920E-02 0.  1.
    10030    2    1    2    0    0  0.00000000000E+00  0.00000000000E+00 -0.10815276531E+03  0.61017581947E+03  0.60051437120E+03 0.  0.
        5    1    3    3  502    0  0.61262236316E+02 -0.84418121433E+02  0.23197161603E+03  0.25438632327E+03  0.46999998093E+01 0. -1.
       -5    1    3    3    0  502 -0.61262236316E+02  0.84418121433E+02 -0.34012438134E+03  0.35578949620E+03  0.46999998093E+01 0.  1.
</event>
<event>
 5   0  0.5653633E-03  0.6001600E+03  0.7818609E-02  0.9905074E-01
       -1   -1    0    0    0  501  0.00000000000E+00  0.00000000000E+00  0.16641032989E+03  0.16641032997E+03  0.50400001928E-02 0.  1.
        1   -1    0    0  501    0  0.00000000000E+00  0.00000000000E+00 -0.54112038110E+03  0.54112038112E+03  0.50400001928E-02 0. -1.
    10030    2    1    2    0    0  0.00000000000E+00  0.00000000000E+00 -0.37471005121E+03  0.70753071109E+03  0.60016004920E+03 0.  0.
        2    1    3    3  502    0 -0.40960438859E+02 -0.17664598224E+03  0.94514980661E+02  0.20448628846E+03  0.25500000920E-02 0.  1.
       -2    1    3    3    0  502  0.40960438859E+02  0.17664598224E+03 -0.46922503187E+03  0.50304442262E+03  0.25500000920E-02 0. -1.
</event>
<event>
 5   0  0.9571790E-03  0.6002120E+03  0.7818609E-02  0.9904966E-01
        2   -1    0    0  501    0  0.00000000000E+00  0.00000000000E+00  0.46070781112E+03  0.46070781113E+03  0.25500000920E-02 0.  1.
       -2   -1    0    0    0  501  0.00000000000E+00  0.00000000000E+00 -0.19548962899E+03  0.19548962901E+03  0.25500000920E-02 0. -1.
    10030    2    1    2    0    0  0.00000000000E+00  0.00000000000E+00  0.26521818213E+03  0.65619744014E+03  0.60021195949E+03 0.  0.
        5    1    3    3  502    0  0.29142850570E+03  0.23270193118E+02  0.20651191883E+03  0.35796834838E+03  0.46999998093E+01 0. -1.
       -5    1    3    3    0  502 -0.29142850570E+03 -0.23270193118E+02  0.58706263299E+02  0.29822909176E+03  0.46999998093E+01 0.  1.
</event>
<event>
 5   0  0.5503975E-03  0.5999826E+03  0.7818609E-02  0.9905442E-01
        1   -1    0    0  501    0  0.00000000000E+00  0.00000000000E+00  0.12566710735E+04  0.12566710735E+04  0.50400001928E-02 0. -1.
       -1   -1    0    0    0  501  0.00000000000E+00  0.00000000000E+00 -0.71613621827E+02  0.71613622004E+02  0.50400001928E-02 0.  1.
    10030    2    1    2    0    0  0.00000000000E+00  0.00000000000E+00  0.11850574517E+04  0.13282846955E+04  0.59998255688E+03 0.  0.
        4    1    3    3  502    0 -0.28896228191E+03  0.79125213689E+02  0.62633321540E+03  0.69430174234E+03  0.12699999809E+01 0.  1.
       -4    1    3    3    0  502  0.28896228191E+03 -0.79125213689E+02  0.55872423625E+03  0.63398295315E+03  0.12699999809E+01 0. -1.
</event>
<event>
 5   0  0.5574736E-03  0.5997679E+03  0.7818609E-02  0.9905888E-01
        1   -1    0    0  501    0  0.00000000000E+00  0.00000000000E+00  0.12510881603E+04  0.12510881604E+04  0.50400001928E-02 0.  1.
       -1   -1    0    0    0  501  0.00000000000E+00  0.00000000000E+00 -0.71881742650E+02  0.71881742827E+02  0.50400001928E-02 0. -1.
    10030    2    1    2    0    0  0.00000000000E+00  0.00000000000E+00  0.11792064177E+04  0.13229699032E+04  0.59976794612E+03 0.  0.
        5    1    3    3  502    0 -0.15322296838E+03 -0.22635663855E+03  0.86149650945E+03  0.90383235815E+03  0.46999998093E+01 0.  1.
       -5    1    3    3    0  502  0.15322296838E+03  0.22635663855E+03  0.31770990825E+03  0.41913754503E+03  0.46999998093E+01 0. -1.
</event>
<event>
 5   0  0.5491236E-03  0.6005912E+03  0.7818609E-02  0.9904180E-01
       -1   -1    0    0    0  501  0.00000000000E+00  0.00000000000E+00  0.89123917132E+02  0.89123917274E+02  0.50400001928E-02 0.  1.
        1   -1    0    0  501    0  0.00000000000E+00  0.00000000000E+00 -0.10118208719E+04  0.10118208719E+04  0.50400001928E-02 0. -1.
    10030    2    1    2    0    0  0.00000000000E+00  0.00000000000E+00 -0.92269695475E+03  0.11009447892E+04  0.60059117417E+03 0.  0.
        3    1    3    3  502    0 -0.29789251107E+03 -0.37280126679E+02 -0.44869165254E+03  0.53986476571E+03  0.10100000352E+00 0. -1.
       -3    1    3    3    0  502  0.29789251107E+03  0.37280126679E+02 -0.47400530221E+03  0.56108002346E+03  0.10100000352E+00 0.  1.
</event>
<event>
 5   0  0.5785798E-03  0.5993768E+03  0.7818609E-02  0.9906700E-01
       -1   -1    0    0    0  501  0.00000000000E+00  0.00000000000E+00  0.19480942814E+03  0.19480942820E+03  0.50400001928E-02 0. -1.
        1   -1    0    0  501    0  0.00000000000E+00  0.00000000000E+00 -0.46103077477E+03  0.46103077480E+03  0.50400001928E-02 0.  1.
    10030    2    1    2    0    0  0.00000000000E+00  0.00000000000E+00 -0.26622134664E+03  0.65584020301E+03  0.59937681510E+03 0.  0.
        1    1    3    3  502    0  0.16861775025E+03 -0.16091868189E+03 -0.33923483703E+03  0.41159086793E+03  0.50400001928E-02 0.  1.
       -1    1    3    3    0  502 -0.16861775025E+03  0.16091868189E+03  0.73013490394E+02  0.24424933508E+03  0.50400001928E-02 0. -1.
</event>
<event>
 5   0  0.9681801E-03  0.6003497E+03  0.7818609E-02  0.9904681E-01
       -2   -1    0    0    0  501  0.00000000000E+00  0.00000000000E+00  0.50284415428E+03  0.50284415429E+03  0.25500000920E-02 0. -1.
        2   -1    0    0  501    0  0.00000000000E+00  0.00000000000E+00 -0.17919060779E+03  0.17919060781E+03  0.25500000920E-02 0.  1.
    10030    2    1    2    0    0  0.00000000000E+00  0.00000000000E+00  0.32365354649E+03  0.68203476210E+03  0.60034973020E+03 0.  0.
        4    1    3    3  502    0  0.18623942549E+03  0.18074834909E+03 -0.95200915484E+01  0.25970624626E+03  0.12699999809E+01 0.  1.
       -4    1    3    3    0  502 -0.18623942549E+03 -0.18074834909E+03  0.33317363804E+03  0.42232851584E+03  0.12699999809E+01 0. -1.
</event>
<event>
 5   0  0.9530666E-03  0.5998380E+03  0.7818609E-02  0.9905742E-01
       -2   -1    0    0    0  501  0.00000000000E+00  0.00000000000E+00  0.56597068396E+02  0.56597068454E+02  0.25500000920E-02 0.  1.
        2   -1    0    0  501    0  0.00000000000E+00  0.00000000000E+00 -0.15893299373E+04  0.15893299373E+04  0.25500000920E-02 0. -1.
    10030    2    1    2    0    0  0.00000000000E+00  0.00000000000E+00 -0.15327328689E+04  0.16459270057E+04  0.59983802885E+03 0.  0.
        2    1    3    3  502    0  0.15857649272E+03 -0.18193912408E+03 -0.27779596945E+03  0.36799313793E+03  0.25500000920E-02 0.  1.
       -2    1    3    3    0  502 -0.15857649272E+03  0.18193912408E+03 -0.12549368994E+04  0.12779338678E+04  0.25500000920E-02 0. -1.
</event>
<event>
 5   0  0.5491236E-03  0.6000971E+03  0.7818609E-02  0.9905205E-01
        1   -1    0    0  501    0  0.00000000000E+00  0.00000000000E+00  0.81149386658E+03  0.81149386659E+03  0.50400001928E-02 0. -1.
       -1   -1    0    0    0  501  0.00000000000E+00  0.00000000000E+00 -0.11094246326E+03  0.11094246338E+03  0.50400001928E-02 0.  1.
    10030    2    1    2    0    0  0.00000000000E+00  0.00000000000E+00  0.70055140331E+03  0.92243632997E+03  0.60009708728E+03 0.  0.
        3    1    3    3  502    0 -0.14856372579E+03  0.13194522582E+03  0.69587158937E+03  0.72368363415E+03  0.10100000352E+00 0. -1.
       -3    1    3    3    0  502  0.14856372579E+03 -0.13194522582E+03  0.46798139417E+01  0.19875269582E+03  0.10100000352E+00 0.  1.
</event>
<event>
 5   0  0.9428629E-03  0.5971755E+03  0.7818609E-02  0.9911283E-01
        2   -1    0    0  501    0  0.00000000000E+00  0.00000000000E+00  0.18756171919E+04  0.18756171919E+04  0.25500000920E-02 0.  1.
       -2   -1    0    0    0  501  0.00000000000E+00  0.00000000000E+00 -0.47533497762E+02  0.47533497831E+02  0.25500000920E-02 0. -1.
    10030    2    1    2    0    0  0.00000000000E+00  0.00000000000E+00  0.18280836942E+04  0.19231506898E+04  0.59717550406E+03 0.  0.
        3    1    3    3  502    0  0.12715425445E+03 -0.24547438735E+03  0.12773744032E+04  0.13069473040E+04  0.10100000352E+00 0. -1.
       -3    1    3    3    0  502 -0.12715425445E+03  0.24547438735E+03  0.55070929099E+03  0.61620338579E+03  0.10100000352E+00 0.  1.
</event>
<event>
 5   0  0.5785798E-03  0.6006912E+03  0.7818609E-02  0.9903973E-01
        1   -1    0    0  501    0  0.00000000000E+00  0.00000000000E+00  0.16859331113E+03  0.16859331121E+03  0.50400001928E-02 0.  1.
       -1   -1    0    0    0  501  0.00000000000E+00  0.00000000000E+00 -0.53505957574E+03  0.53505957577E+03  0.50400001928E-02 0. -1.
    10030    2    1    2    0    0  0.00000000000E+00  0.00000000000E+00 -0.36646626461E+03  0.70365288698E+03  0.60069115380E+03 0.  0.
        1    1    3    3  502    0  0.10978511102E+03 -0.13710047288E+03 -0.46862883883E+03  0.50046208536E+03  0.50400001928E-02 0. -1.
       -1    1    3    3    0  502 -0.10978511102E+03  0.13710047288E+03  0.10216257422E+03  0.20319080162E+03  0.50400001928E-02 0.  1.
</event>
<event>
 5   0  0.5503975E-03  0.6007654E+03  0.7818609E-02  0.9903819E-01
        1   -1    0    0  501    0  0.00000000000E+00  0.00000000000E+00  0.25492379933E+04  0.25492379933E+04  0.50400001928E-02 0. -1.
       -1   -1    0    0    0  501  0.00000000000E+00  0.00000000000E+00 -0.35394794732E+02  0.35394795091E+02  0.50400001928E-02 0.  1.
    10030    2    1    2    0    0  0.00000000000E+00  0.00000000000E+00  0.25138431985E+04  0.25846327883E+04  0.60076536506E+03 0.  0.
        4    1    3    3  502    0 -0.76695946222E+02 -0.17980203400E+03  0.22381430751E+04  0.22466635433E+04  0.12699999809E+01 0. -1.
       -4    1    3    3    0  502  0.76695946222E+02  0.17980203400E+03  0.27570012344E+03  0.33796924500E+03  0.12699999809E+01 0.  1.
</event>
<event>
 5   0  0.5574736E-03  0.6002223E+03  0.7818609E-02  0.9904945E-01
       -1   -1    0    0    0  501  0.00000000000E+00  0.00000000000E+00  0.74085792436E+03  0.74085792437E+03  0.50400001928E-02 0. -1.
        1   -1    0    0  501    0  0.00000000000E+00  0.00000000000E+00 -0.12157079607E+03  0.12157079617E+03  0.50400001928E-02 0.  1.
    10030    2    1    2    0    0  0.00000000000E+00  0.00000000000E+00  0.61928712829E+03  0.86242872055E+03  0.60022225114E+03 0.  0.
        5    1    3    3  502    0 -0.27887946239E+03  0.31468059903E+02  0.15703556324E+03  0.32163061337E+03  0.46999998093E+01 0.  1.
       -5    1    3    3    0  502  0.27887946239E+03 -0.31468059903E+02  0.46225156505E+03  0.54079810718E+03  0.46999998093E+01 0. -1.
</event>
<event>
 5   0  0.9428629E-03  0.6002075E+03  0.7818609E-02  0.9904976E-01
       -2   -1    0    0    0  501  0.00000000000E+00  0.00000000000E+00  0.80279897874E+02  0.80279897915E+02  0.25500000920E-02 0. -1.
        2   -1    0    0  501    0  0.00000000000E+00  0.00000000000E+00 -0.11218531494E+04  0.11218531494E+04  0.25500000920E-02 0.  1.
    10030    2    1    2    0    0  0.00000000000E+00  0.00000000000E+00 -0.10415732515E+04  0.12021330473E+04  0.60020748509E+03 0.  0.
        3    1    3    3  502    0  0.70225073685E+00 -0.78249283599E+02 -0.11010598268E+04  0.11038370333E+04  0.10100000352E+00 0.  1.
       -3    1    3    3    0  502 -0.70225073685E+00  0.78249283599E+02  0.59486575295E+02  0.98296014066E+02  0.10100000352E+00 0. -1.
</event>
<event>
 5   0  0.5503975E-03  0.5990868E+03  0.7818609E-02  0.9907302E-01
        1   -1    0    0  501    0  0.00000000000E+00  0.00000000000E+00  0.14523866615E+04  0.14523866615E+04  0.50400001928E-02 0.  1.
       -1   -1    0    0    0  501  0.00000000000E+00  0.00000000000E+00 -0.61778493764E+02  0.61778493969E+02  0.50400001928E-02 0. -1.
    10030    2    1    2    0    0  0.00000000000E+00  0.00000000000E+00  0.13906081678E+04  0.15141651555E+04  0.59908684003E+03 0.  0.
        4    1    3    3  502    0 -0.23371479997E+03 -0.83729556239E+02  0.11189179524E+04  0.11461292437E+04  0.12699999809E+01 0.  1.
       -4    1    3    3    0  502  0.23371479997E+03  0.83729556239E+02  0.27169021541E+03  0.36803591179E+03  0.12699999809E+01 0. -1.
</event>
<event>
 5   0  0.9866317E-03  0.6008662E+03  0.7818609E-02  0.9903611E-01
        2   -1    0    0  501    0  0.00000000000E+00  0.00000000000E+00  0.18055326421E+04  0.18055326421E+04  0.25500000920E-02 0. -1.
       -2   -1    0    0    0  501  0.00000000000E+00  0.00000000000E+00 -0.49990820667E+02  0.49990820732E+02  0.25500000920E-02 0.  1.
    10030    2    1    2    0    0  0.00000000000E+00  0.00000000000E+00  0.17555418214E+04  0.18555234628E+04  0.60086623663E+03 0.  0.
        1    1    3    3  502    0  0.10040269616E+03  0.18102281817E+02  0.17504019083E+04  0.17533725317E+04  0.50400001928E-02 0. -1.
       -1    1    3    3    0  502 -0.10040269616E+03 -0.18102281817E+02  0.51399130578E+01  0.10215093115E+03  0.50400001928E-02 0.  1.
</event>
<event>
 5   0  0.5503975E-03  0.6011646E+03  0.7818609E-02  0.9902993E-01
       -1   -1    0    0    0  501  0.00000000000E+00  0.00000000000E+00  0.13801274683E+03  0.13801274692E+03  0.50400001928E-02 0. -1.
        1   -1    0    0  501    0  0.00000000000E+00  0.00000000000E+00 -0.65464771977E+03  0.65464771979E+03  0.50400001928E-02 0.  1.
    10030    2    1    2    0    0  0.00000000000E+00  0.00000000000E+00 -0.51663497294E+03  0.79266046672E+03  0.60116463654E+03 0.  0.
        4    1    3    3  502    0  0.19811439928E+03 -0.13655715743E+03 -0.49584145760E+03  0.55114202927E+03  0.12699999809E+01 0.  1.
       -4    1    3    3    0  502 -0.19811439928E+03  0.13655715743E+03 -0.20793515341E+02  0.24151843745E+03  0.12699999809E+01 0. -1.
</event>
<event>
 5   0  0.5574736E-03  0.5994214E+03  0.7818609E-02  0.9906607E-01
        1   -1    0    0  501    0  0.00000000000E+00  0.00000000000E+00  0.10904699175E+03  0.10904699187E+03  0.50400001928E-02 0.  1.
       -1   -1    0    0    0  501  0.00000000000E+00  0.00000000000E+00 -0.82374133015E+03  0.82374133017E+03  0.50400001928E-02 0. -1.
    10030    2    1    2    0    0  0.00000000000E+00  0.00000000000E+00 -0.71469433840E+03  0.93278832204E+03  0.59942143471E+03 0.  0.
        5    1    3    3  502    0 -0.38641862542E+01 -0.24501493869E+03 -0.62578681618E+03  0.67207029500E+03  0.46999998093E+01 0. -1.
       -5    1    3    3    0  502  0.38641862542E+01  0.24501493869E+03 -0.88907522222E+02  0.26071802704E+03  0.46999998093E+01 0.  1.
</event>
<event>
 5   0  0.3794375E-03  0.5991776E+03  0.7818609E-02  0.9907114E-01
       -3   -1    0    0    0  501  0.00000000000E+00  0.00000000000E+00  0.11026395720E+03  0.11026400345E+03  0.10100000352E+00 0.  1.
        3   -1    0    0  501    0  0.00000000000E+00  0.00000000000E+00 -0.81398700586E+03  0.81398701213E+03  0.10100000352E+00 0. -1.
    10030    2    1    2    0    0  0.00000000000E+00  0.00000000000E+00 -0.70372304867E+03  0.92425101559E+03  0.59917761189E+03 0.  0.
        4    1    3    3  502    0 -0.70896345896E+02 -0.24199186876E+03 -0.60137771964E+03  0.65210668682E+03  0.12699999809E+01 0. -1.
       -4    1    3    3    0  502  0.70896345896E+02  0.24199186876E+03 -0.10234532903E+03  0.27214432877E+03  0.12699999809E+01 0.  1.
</event>
<event>
 5   0  0.3794375E-03  0.6024004E+03  0.7818609E-02  0.9900439E-01
        3   -1    0    0  501    0  0.00000000000E+00  0.00000000000E+00  0.68877307845E+03  0.68877308586E+03  0.10100000352E+00 0. -1.
       -3   -1    0    0    0  501  0.00000000000E+00  0.00000000000E+00 -0.13171469038E+03  0.13171472910E+03  0.10100000352E+00 0.  1.
    10030    2    1    2    0    0  0.00000000000E+00  0.00000000000E+00  0.55705838808E+03  0.82048781496E+03  0.60240037083E+03 0.  0.
        3    1    3    3  502    0 -0.24437030138E+03 -0.71408665748E+02  0.49775056663E+03  0.55908110192E+03  0.10100000352E+00 0. -1.
       -3    1    3    3    0  502  0.24437030138E+03  0.71408665748E+02  0.59307821444E+02  0.26140671304E+03  0.10100000352E+00 0.  1.
</event>
<event>
 5   0  0.5653633E-03  0.5994127E+03  0.7818609E-02  0.9906625E-01
        1   -1    0    0  501    0  0.00000000000E+00  0.00000000000E+00  0.56364383260E+03  0.56364383262E+03  0.50400001928E-02 0. -1.
       -1   -1    0    0    0  501  0.00000000000E+00  0.00000000000E+00 -0.15936288263E+03  0.15936288271E+03  0.50400001928E-02 0.  1.
    10030    2    1    2    0    0  0.00000000000E+00  0.00000000000E+00  0.40428094996E+03  0.72300671533E+03  0.59941273252E+03 0.  0.
        2    1    3    3  502    0  0.19497313019E+03  0.14488736653E+03 -0.96038582889E+01  0.24310307398E+03  0.25500000920E-02 0.  1.
       -2    1    3    3    0  502 -0.19497313019E+03 -0.14488736653E+03  0.41388480825E+03  0.47990364135E+03  0.25500000920E-02 0. -1.
</event>
<event>
 5   0  0.3794375E-03  0.6004421E+03  0.7818609E-02  0.9904489E-01
       -3   -1    0    0    0  501  0.00000000000E+00  0.00000000000E+00  0.31136189402E+03  0.31136191040E+03  0.10100000352E+00 0.  1.
        3   -1    0    0  501    0  0.00000000000E+00  0.00000000000E+00 -0.28947884871E+03  0.28947886633E+03  0.10100000352E+00 0. -1.
    10030    2    1    2    0    0  0.00000000000E+00  0.00000000000E+00  0.21883045310E+02  0.60084077673E+03  0.60044214651E+03 0.  0.
        1    1    3    3  502    0  0.18968319645E+03 -0.67155843236E+02 -0.21201364752E+03  0.29230020365E+03  0.50400001928E-02 0. -1.
       -1    1    3    3    0  502 -0.18968319645E+03  0.67155843236E+02  0.23389669283E+03  0.30854057308E+03  0.50400001928E-02 0.  1.
</event>
<event>
 5   0  0.5653633E-03  0.6004874E+03  0.7818609E-02  0.9904395E-01
        1   -1    0    0  501    0  0.00000000000E+00  0.00000000000E+00  0.28846671674E+03  0.28846671678E+03  0.50400001928E-02 0.  1.
       -1   -1    0    0    0  501  0.00000000000E+00  0.00000000000E+00 -0.31250146594E+03  0.31250146598E+03  0.50400001928E-02 0. -1.
    10030    2    1    2    0    0  0.00000000000E+00  0.00000000000E+00 -0.24034749202E+02  0.60096818276E+03  0.60048737499E+03 0.  0.
        2    1    3    3  502    0  0.91264492236E+02 -0.24211753403E+03  0.14040744315E+03  0.29438810765E+03  0.25500000920E-02 0.  1.
       -2    1    3    3    0  502 -0.91264492236E+02  0.24211753403E+03 -0.16444219235E+03  0.30658007512E+03  0.25500000920E-02 0. -1.
</event>
<event>
 5   0  0.3794375E-03  0.5997053E+03  0.7818609E-02  0.9906018E-01
        3   -1    0    0  501    0  0.00000000000E+00  0.00000000000E+00  0.21779865273E+03  0.21779867615E+03  0.10100000352E+00 0.  1.
       -3   -1    0    0    0  501  0.00000000000E+00  0.00000000000E+00 -0.41281978017E+03  0.41281979253E+03  0.10100000352E+00 0. -1.
    10030    2    1    2    0    0  0.00000000000E+00  0.00000000000E+00 -0.19502112744E+03  0.63061846867E+03  0.59970527168E+03 0.  0.
        4    1    3    3  502    0 -0.81036497443E+02 -0.28790770886E+03 -0.75148733666E+02  0.30839375449E+03  0.12699999809E+01 0. -1.
       -4    1    3    3    0  502  0.81036497443E+02  0.28790770886E+03 -0.11987239378E+03  0.32222471418E+03  0.12699999809E+01 0.  1.
</event>
<event>
 5   0  0.5574736E-03  0.6013929E+03  0.7818609E-02  0.9902520E-01
       -1   -1    0    0    0  501  0.00000000000E+00  0.00000000000E+00  0.39776042568E+02  0.39776042887E+02  0.50400001928E-02 0. -1.
        1   -1    0    0  501    0  0.00000000000E+00  0.00000000000E+00 -0.22731865252E+04  0.22731865252E+04  0.50400001928E-02 0.  1.
    10030    2    1    2    0    0  0.00000000000E+00  0.00000000000E+00 -0.22334104826E+04  0.23129625680E+04  0.60139293100E+03 0.  0.
        5    1    3    3  502    0  0.13299398193E+03  0.26334917461E+03 -0.13395112580E+04  0.13716241057E+04  0.46999998093E+01 0.  1.
       -5    1    3    3    0  502 -0.13299398193E+03 -0.26334917461E+03 -0.89389922458E+03  0.94133846235E+03  0.46999998093E+01 0. -1.
</event>
<event>
 5   0  0.3794375E-03  0.5996093E+03  0.7818609E-02  0.9906217E-01
       -3   -1    0    0    0  501  0.00000000000E+00  0.00000000000E+00  0.21275327866E+03  0.21275330263E+03  0.10100000352E+00 0. -1.
        3   -1    0    0  501    0  0.00000000000E+00  0.00000000000E+00 -0.42247445311E+03  0.42247446518E+03  0.10100000352E+00 0.  1.
    10030    2    1    2    0    0  0.00000000000E+00  0.00000000000E+00 -0.20972117445E+03  0.63522776781E+03  0.59960932781E+03 0.  0.
        5    1    3    3  502    0 -0.48982815685E+02 -0.14394624862E+00  0.20844585865E+03  0.21417540228E+03  0.46999998093E+01 0. -1.
       -5    1    3    3    0  502  0.48982815685E+02  0.14394624862E+00 -0.41816703310E+03  0.42105236554E+03  0.46999998093E+01 0.  1.
</event>
<event>
 5   0  0.9530666E-03  0.5993745E+03  0.7818609E-02  0.9906705E-01
       -2   -1    0    0    0  501  0.00000000000E+00  0.00000000000E+00  0.89635273238E+02  0.89635273275E+02  0.25500000920E-02 0.  1.
        2   -1    0    0  501    0  0.00000000000E+00  0.00000000000E+00 -0.10019766911E+04  0.10019766911E+04  0.25500000920E-02 0. -1.
    10030    2    1    2    0    0  0.00000000000E+00  0.00000000000E+00 -0.91234141789E+03  0.10916119644E+04  0.59937452235E+03 0.  0.
        2    1    3    3  502    0  0.11252651521E+03  0.31628676874E+02  0.46408567279E+02  0.12576305081E+03  0.25500000920E-02 0.  1.
       -2    1    3    3    0  502 -0.11252651521E+03 -0.31628676874E+02 -0.95874998517E+03  0.96584891360E+03  0.25500000920E-02 0. -1.
</event>
<event>
 5   0  0.5503975E-03  0.6058775E+03  0.7818609E-02  0.9893287E-01
       -1   -1    0    0    0  501  0.00000000000E+00  0.00000000000E+00  0.77811316328E+02  0.77811316491E+02  0.50400001928E-02 0.  1.
        1   -1    0    0  501    0  0.00000000000E+00  0.00000000000E+00 -0.11794158039E+04  0.11794158039E+04  0.50400001928E-02 0. -1.
    10030    2    1    2    0    0  0.00000000000E+00  0.00000000000E+00 -0.11016044876E+04  0.12572271204E+04  0.60587753320E+03 0.  0.
        4    1    3    3  502    0  0.13485078696E+03  0.23854335624E+03 -0.28278609206E+03  0.39377310004E+03  0.12699999809E+01 0. -1.
       -4    1    3    3    0  502 -0.13485078696E+03 -0.23854335624E+03 -0.81881839551E+03  0.86345402036E+03  0.12699999809E+01 0.  1.
</event>
<event>
 5   0  0.5785798E-03  0.6011873E+03  0.7818609E-02  0.9902946E-01
       -1   -1    0    0    0  501  0.00000000000E+00  0.00000000000E+00  0.21052572633E+03  0.21052572639E+03  0.50400001928E-02 0. -1.
        1   -1    0    0  501    0  0.00000000000E+00  0.00000000000E+00 -0.42919471607E+03  0.42919471610E+03  0.50400001928E-02 0.  1.
    10030    2    1    2    0    0  0.00000000000E+00  0.00000000000E+00 -0.21866898974E+03  0.63972044249E+03  0.60118725657E+03 0.  0.
        1    1    3    3  502    0  0.26170164376E+03  0.39584718012E+02 -0.26095154630E+03  0.37168590206E+03  0.50400001928E-02 0.  1.
       -1    1    3    3    0  502 -0.26170164376E+03 -0.39584718012E+02  0.42282556562E+02  0.26803454043E+03  0.50400001928E-02 0. -1.
</event>
<event>
 5   0  0.5785798E-03  0.6002323E+03  0.7818609E-02  0.9904924E-01
        1   -1    0    0  501    0  0.00000000000E+00  0.00000000000E+00  0.85562722496E+03  0.85562722497E+03  0.50400001928E-02 0. -1.
       -1   -1    0    0    0  501  0.00000000000E+00  0.00000000000E+00 -0.10526744436E+03  0.10526744448E+03  0.50400001928E-02 0.  1.
    10030    2    1    2    0    0  0.00000000000E+00  0.00000000000E+00  0.75035978059E+03  0.96089466946E+03  0.60023225959E+03 0.  0.
        1    1    3    3  502    0  0.24089987781E+03 -0.17450604152E+03  0.43890546590E+03  0.53021044660E+03  0.50400001928E-02 0. -1.
       -1    1    3    3    0  502 -0.24089987781E+03  0.17450604152E+03  0.31145431469E+03  0.43068422286E+03  0.50400001928E-02 0.  1.
</event>
<event>
 5   0  0.3794375E-03  0.6004469E+03  0.7818609E-02  0.9904479E-01
       -3   -1    0    0    0  501  0.00000000000E+00  0.00000000000E+00  0.12610375458E+03  0.12610379503E+03  0.10100000352E+00 0. -1.
        3   -1    0    0  501    0  0.00000000000E+00  0.00000000000E+00 -0.71476135499E+03  0.71476136213E+03  0.10100000352E+00 0.  1.
    10030    2    1    2    0    0  0.00000000000E+00  0.00000000000E+00 -0.58865760041E+03  0.84086515716E+03  0.60044686859E+03 0.  0.
        2    1    3    3  502    0  0.28287258397E+03  0.42598459241E+02 -0.16672653451E+03  0.33110310299E+03  0.25500000920E-02 0. -1.
       -2    1    3    3    0  502 -0.28287258397E+03 -0.42598459241E+02 -0.42193106590E+03  0.50976205417E+03  0.25500000920E-02 0.  1.
</event>
<event>
 5   0  0.9681801E-03  0.5992780E+03  0.7818609E-02  0.9906905E-01
        2   -1    0    0  501    0  0.00000000000E+00  0.00000000000E+00  0.95912699769E+03  0.95912699770E+03  0.25500000920E-02 0. -1.
       -2   -1    0    0    0  501  0.00000000000E+00  0.00000000000E+00 -0.93609644728E+02  0.93609644762E+02  0.25500000920E-02 0.  1.
    10030    2    1    2    0    0  0.00000000000E+00  0.00000000000E+00  0.86551735296E+03  0.10527366425E+04  0.59927802403E+03 0.  0.
        4    1    3    3  502    0  0.27352516667E+03 -0.12068164443E+03  0.39754409156E+03  0.49741631833E+03  0.12699999809E+01 0.  1.
       -4    1    3    3    0  502 -0.27352516667E+03  0.12068164443E+03  0.46797326141E+03  0.55532032413E+03  0.12699999809E+01 0. -1.
</event>
<event>
 5   0  0.5785798E-03  0.5995088E+03  0.7818609E-02  0.9906426E-01
        1   -1    0    0  501    0  0.00000000000E+00  0.00000000000E+00  0.42132611539E+03  0.42132611542E+03  0.50400001928E-02 0.  1.
       -1   -1    0    0    0  501  0.00000000000E+00  0.00000000000E+00 -0.21326161807E+03  0.21326161813E+03  0.50400001928E-02 0. -1.
    10030    2    1    2    0    0  0.00000000000E+00  0.00000000000E+00  0.20806449732E+03  0.63458773354E+03  0.59950876267E+03 0.  0.
        1    1    3    3  502    0 -0.17338147970E+03 -0.13474111464E+03 -0.11195725099E+03  0.24647663490E+03  0.50400001928E-02 0. -1.
       -1    1    3    3    0  502  0.17338147970E+03  0.13474111464E+03  0.32002174831E+03  0.38811109864E+03  0.50400001928E-02 0.  1.
</event>
<event>
 5   0  0.9681801E-03  0.6000914E+03  0.7818609E-02  0.9905216E-01
       -2   -1    0    0    0  501  0.00000000000E+00  0.00000000000E+00  0.12304411079E+03  0.12304411082E+03  0.25500000920E-02 0.  1.
        2   -1    0    0  501    0  0.00000000000E+00  0.00000000000E+00 -0.73166798057E+03  0.73166798058E+03  0.25500000920E-02 0. -1.
    10030    2    1    2    0    0  0.00000000000E+00  0.00000000000E+00 -0.60862386978E+03  0.85471209140E+03  0.60009144663E+03 0.  0.
        4    1    3    3  502    0  0.16287026921E+02  0.27845591584E+03 -0.14684520455E+03  0.31522704724E+03  0.12699999809E+01 0. -1.
       -4    1    3    3    0  502 -0.16287026921E+02 -0.27845591584E+03 -0.46177866523E+03  0.53948504416E+03  0.12699999809E+01 0.  1.
</event>
<event>
 5   0  0.9428629E-03  0.6009611E+03  0.7818609E-02  0.9903414E-01
        2   -1    0    0  501    0  0.00000000000E+00  0.00000000000E+00  0.14001579030E+04  0.14001579030E+04  0.25500000920E-02 0.  1.
       -2   -1    0    0    0  501  0.00000000000E+00  0.00000000000E+00 -0.64484551046E+02  0.64484551097E+02  0.25500000920E-02 0. -1.
    10030    2    1    2    0    0  0.00000000000E+00  0.00000000000E+00  0.13356733519E+04  0.14646424541E+04  0.60096107630E+03 0.  0.
        3    1    3    3  502    0 -0.21638844660E+03  0.74184502512E+02  0.19298771862E+03  0.29928509815E+03  0.10100000352E+00 0. -1.
       -3    1    3    3    0  502  0.21638844660E+03 -0.74184502512E+02  0.11426856333E+04  0.11653573559E+04  0.10100000352E+00 0.  1.
</event>
<event>
 5   0  0.9866317E-03  0.5998789E+03  0.7818609E-02  0.9905657E-01
       -2   -1    0    0    0  501  0.00000000000E+00  0.00000000000E+00  0.35292480509E+03  0.35292480509E+03  0.25500000920E-02 0. -1.
        2   -1    0    0  501    0  0.00000000000E+00  0.00000000000E+00 -0.25490892021E+03  0.25490892023E+03  0.25500000920E-02 0.  1.
    10030    2    1    2    0    0  0.00000000000E+00  0.00000000000E+00  0.98015884871E+02  0.60783372532E+03  0.59987892441E+03 0.  0.
        1    1    3    3  502    0 -0.18674081905E+03 -0.12756746452E+03  0.24864367013E+03  0.33610900944E+03  0.50400001928E-02 0. -1.
       -1    1    3    3    0  502  0.18674081905E+03  0.12756746452E+03 -0.15062778526E+03  0.27172471588E+03  0.50400001928E-02 0.  1.
</event>
<event>
 5   0  0.9681801E-03  0.6008885E+03  0.7818609E-02  0.9903564E-01
       -2   -1    0    0    0  501  0.00000000000E+00  0.00000000000E+00  0.12586426556E+03  0.12586426559E+03  0.25500000920E-02 0.  1.
        2   -1    0    0  501    0  0.00000000000E+00  0.00000000000E+00 -0.71717524271E+03  0.71717524272E+03  0.25500000920E-02 0. -1.
    10030    2    1    2    0    0  0.00000000000E+00  0.00000000000E+00 -0.59131097715E+03  0.84303950831E+03  0.60088845959E+03 0.  0.
        4    1    3    3  502    0 -0.18175827568E+03  0.22884937189E+03 -0.19787800514E+03  0.35293827167E+03  0.12699999809E+01 0.  1.
       -4    1    3    3    0  502  0.18175827568E+03 -0.22884937189E+03 -0.39343297201E+03  0.49010123664E+03  0.12699999809E+01 0. -1.
</event>
<event>
 5   0  0.5785798E-03  0.6000566E+03  0.7818609E-02  0.9905289E-01
       -1   -1    0    0    0  501  0.00000000000E+00  0.00000000000E+00  0.77774825059E+03  0.77774825060E+03  0.50400001928E-02 0.  1.
        1   -1    0    0  501    0  0.00000000000E+00  0.00000000000E+00 -0.11574050812E+03  0.11574050823E+03  0.50400001928E-02 0. -1.
    10030    2    1    2    0    0  0.00000000000E+00  0.00000000000E+00  0.66200774247E+03  0.89348875883E+03  0.60005658989E+03 0.  0.
        1    1    3    3  502    0  0.28418616123E+03  0.78148307339E+02  0.41454827967E+03  0.50864448132E+03  0.50400001928E-02 0.  1.
       -1    1    3    3    0  502 -0.28418616123E+03 -0.78148307339E+02  0.24745946280E+03  0.38484427751E+03  0.50400001928E-02 0. -1.
</event>
<event>
 5   0  0.9428629E-03  0.6002460E+03  0.7818609E-02  0.9904896E-01
        2   -1    0    0  501    0  0.00000000000E+00  0.00000000000E+00  0.40836178670E+03  0.40836178671E+03  0.25500000920E-02 0.  1.
       -2   -1    0    0    0  501  0.00000000000E+00  0.00000000000E+00 -0.22057353167E+03  0.22057353169E+03  0.25500000920E-02 0. -1.
    10030    2    1    2    0    0  0.00000000000E+00  0.00000000000E+00  0.18778825503E+03  0.62893531840E+03  0.60024595459E+03 0.  0.
        3    1    3    3  502    0 -0.31095931875E+02  0.25084165677E+03 -0.75658880300E+02  0.26384232057E+03  0.10100000352E+00 0. -1.
       -3    1    3    3    0  502  0.31095931875E+02 -0.25084165677E+03  0.26344713533E+03  0.36509299783E+03  0.10100000352E+00 0.  1.
</event>
<event>
 5   0  0.5785798E-03  0.5914172E+03  0.7818609E-02  0.9923374E-01
        1   -1    0    0  501    0  0.00000000000E+00  0.00000000000E+00  0.68665631279E+03  0.68665631281E+03  0.50400001928E-02 0. -1.
       -1   -1    0    0    0  501  0.00000000000E+00  0.00000000000E+00 -0.12734691774E+03  0.12734691784E+03  0.50400001928E-02 0.  1.
    10030    2    1    2    0    0  0.00000000000E+00  0.00000000000E+00  0.55930939505E+03  0.81400323064E+03  0.59141716251E+03 0.  0.
        1    1    3    3  502    0  0.12932868484E+03  0.17977950209E+03  0.99548020681E+01  0.22168824101E+03  0.50400001928E-02 0.  1.
       -1    1    3    3    0  502 -0.12932868484E+03 -0.17977950209E+03  0.54935459298E+03  0.59231498964E+03  0.50400001928E-02 0. -1.
</event>
<event>
 5   0  0.9681801E-03  0.6020178E+03  0.7818609E-02  0.9901229E-01
       -2   -1    0    0    0  501  0.00000000000E+00  0.00000000000E+00  0.17540287608E+03  0.17540287610E+03  0.25500000920E-02 0.  1.
        2   -1    0    0  501    0  0.00000000000E+00  0.00000000000E+00 -0.51656137556E+03  0.51656137556E+03  0.25500000920E-02 0. -1.
    10030    2    1    2    0    0  0.00000000000E+00  0.00000000000E+00 -0.34115849948E+03  0.69196425166E+03  0.60201777699E+03 0.  0.
        4    1    3    3  502    0  0.46439576789E+02  0.12679114751E+03 -0.47979382446E+03  0.49843390362E+03  0.12699999809E+01 0. -1.
       -4    1    3    3    0  502 -0.46439576789E+02 -0.12679114751E+03  0.13863532498E+03  0.19353034804E+03  0.12699999809E+01 0.  1.
</event>
<event>
 5   0  0.9530666E-03  0.5998589E+03  0.7818609E-02  0.9905699E-01
        2   -1    0    0  501    0  0.00000000000E+00  0.00000000000E+00  0.13324378134E+03  0.13324378137E+03  0.25500000920E-02 0.  1.
       -2   -1    0    0    0  501  0.00000000000E+00  0.00000000000E+00 -0.67513596681E+03  0.67513596682E+03  0.25500000920E-02 0. -1.
    10030    2    1    2    0    0  0.00000000000E+00  0.00000000000E+00 -0.54189218547E+03  0.80837974818E+03  0.59985888058E+03 0.  0.
        2    1    3    3  502    0 -0.73807001713E+02 -0.67420121312E+02  0.11013337542E+03  0.14873569393E+03  0.25500000920E-02 0.  1.
       -2    1    3    3    0  502  0.73807001713E+02  0.67420121312E+02 -0.65202556089E+03  0.65964405426E+03  0.25500000920E-02 0. -1.
</event>
<event>
 5   0  0.9866317E-03  0.6001365E+03  0.7818609E-02  0.9905123E-01
        2   -1    0    0  501    0  0.00000000000E+00  0.00000000000E+00  0.91934576450E+03  0.91934576450E+03  0.25500000920E-02 0. -1.
       -2   -1    0    0    0  501  0.00000000000E+00  0.00000000000E+00 -0.97940257172E+02  0.97940257205E+02  0.25500000920E-02 0.  1.
    10030    2    1    2    0    0  0.00000000000E+00  0.00000000000E+00  0.82140550733E+03  0.10172860217E+04  0.60013651988E+03 0.  0.
        1    1    3    3  502    0 -0.64645416868E+02 -0.18779719425E+03  0.79198198538E+03  0.81650614283E+03  0.50400001928E-02 0. -1.
       -1    1    3    3    0  502  0.64645416868E+02  0.18779719425E+03  0.29423521944E+02  0.20077987887E+03  0.50400001928E-02 0.  1.
</event>
<event>
 5   0  0.9428629E-03  0.5952959E+03  0.7818609E-02  0.9915214E-01
        2   -1    0    0  501    0  0.00000000000E+00  0.00000000000E+00  0.36089186678E+03  0.36089186679E+03  0.25500000920E-02 0. -1.
       -2   -1    0    0    0  501  0.00000000000E+00  0.00000000000E+00 -0.24548711077E+03  0.24548711079E+03  0.25500000920E-02 0.  1.
    10030    2    1    2    0    0  0.00000000000E+00  0.00000000000E+00  0.11540475601E+03  0.60637897758E+03  0.59529589848E+03 0.  0.
        3    1    3    3  502    0 -0.14451192696E+03  0.80832183224E+02  0.30964663089E+03  0.35113898260E+03  0.10100000352E+00 0. -1.
       -3    1    3    3    0  502  0.14451192696E+03 -0.80832183224E+02 -0.19424187488E+03  0.25523999498E+03  0.10100000352E+00 0.  1.
</event>
<event>
 5   0  0.3794375E-03  0.5995354E+03  0.7818609E-02  0.9906370E-01
       -3   -1    0    0    0  501  0.00000000000E+00  0.00000000000E+00  0.47976912885E+03  0.47976913948E+03  0.10100000352E+00 0.  1.
        3   -1    0    0  501    0  0.00000000000E+00  0.00000000000E+00 -0.18729979008E+03  0.18729981731E+03  0.10100000352E+00 0. -1.
    10030    2    1    2    0    0  0.00000000000E+00  0.00000000000E+00  0.29246933878E+03  0.66706895679E+03  0.59953538594E+03 0.  0.
        2    1    3    3  502    0  0.46796137229E+02  0.16917608577E+03 -0.12414046908E+03  0.21499135453E+03  0.25500000920E-02 0. -1.
       -2    1    3    3    0  502 -0.46796137229E+02 -0.16917608577E+03  0.41660980786E+03  0.45207760226E+03  0.25500000920E-02 0.  1.
</event>
<event>
 5   0  0.9530666E-03  0.5998439E+03  0.7818609E-02  0.9905730E-01
       -2   -1    0    0    0  501  0.00000000000E+00  0.00000000000E+00  0.11340470774E+03  0.11340470777E+03  0.25500000920E-02 0. -1.
        2   -1    0    0  501    0  0.00000000000E+00  0.00000000000E+00 -0.79320487671E+03  0.79320487672E+03  0.25500000920E-02 0.  1.
    10030    2    1    2    0    0  0.00000000000E+00  0.00000000000E+00 -0.67980016897E+03  0.90660958449E+03  0.59984387048E+03 0.  0.
        2    1    3    3  502    0  0.29230010267E+03 -0.58883907254E+02 -0.29100645775E+03  0.41664304028E+03  0.25500000920E-02 0. -1.
       -2    1    3    3    0  502 -0.29230010267E+03  0.58883907254E+02 -0.38879371122E+03  0.48996654421E+03  0.25500000920E-02 0.  1.
</event>
<event>
 5   0  0.5653633E-03  0.5993047E+03  0.7818609E-02  0.9906850E-01
        1   -1    0    0  501    0  0.00000000000E+00  0.00000000000E+00  0.61790990954E+03  0.61790990956E+03  0.50400001928E-02 0.  1.
       -1   -1    0    0    0  501  0.00000000000E+00  0.00000000000E+00 -0.14531494644E+03  0.14531494653E+03  0.50400001928E-02 0. -1.
    10030    2    1    2    0    0  0.00000000000E+00  0.00000000000E+00  0.47259496309E+03  0.76322485609E+03  0.59930474869E+03 0.  0.
        2    1    3    3  502    0 -0.19911387893E+03  0.18530022645E+03  0.39642186247E+03  0.48076273125E+03  0.25500000920E-02 0.  1.
       -2    1    3    3    0  502  0.19911387893E+03 -0.18530022645E+03  0.76173100621E+02  0.28246212484E+03  0.25500000920E-02 0. -1.
</event>
<event>
 5   0  0.5653633E-03  0.6004167E+03  0.7818609E-02  0.9904542E-01
        1   -1    0    0  501    0  0.00000000000E+00  0.00000000000E+00  0.34012159586E+03  0.34012159590E+03  0.50400001928E-02 0. -1.
       -1   -1    0    0    0  501  0.00000000000E+00  0.00000000000E+00 -0.26497892725E+03  0.26497892729E+03  0.50400001928E-02 0.  1.
    10030    2    1    2    0    0  0.00000000000E+00  0.00000000000E+00  0.75142668616E+02  0.60510052319E+03  0.60041670740E+03 0.  0.
        2    1    3    3  502    0  0.18152284836E+03 -0.18382556118E+03 -0.11653548225E+03  0.28341294969E+03  0.25500000920E-02 0.  1.
       -2    1    3    3    0  502 -0.18152284836E+03  0.18382556118E+03  0.19167815087E+03  0.32168757351E+03  0.25500000920E-02 0. -1.
</event>
<event>
 5   0  0.5503975E-03  0.6013131E+03  0.7818609E-02  0.9902686E-01
        1   -1    0    0  501    0  0.00000000000E+00  0.00000000000E+00  0.45299939288E+03  0.45299939290E+03  0.50400001928E-02 0. -1.
       -1   -1    0    0    0  501  0.00000000000E+00  0.00000000000E+00 -0.19954630992E+03  0.19954630999E+03  0.50400001928E-02 0.  1.
    10030    2    1    2    0    0  0.00000000000E+00  0.00000000000E+00  0.25345308295E+03  0.65254570289E+03  0.60131308742E+03 0.  0.
        4    1    3    3  502    0  0.68367467204E+02 -0.27071323567E+03  0.57230623069E+01  0.27927429685E+03  0.12699999809E+01 0.  1.
       -4    1    3    3    0  502 -0.68367467204E+02  0.27071323567E+03  0.24773002065E+03  0.37327140604E+03  0.12699999809E+01 0. -1.
</event>
<event>
 5   0  0.5574736E-03  0.6063801E+03  0.7818609E-02  0.9892257E-01
       -1   -1    0    0    0  501  0.00000000000E+00  0.00000000000E+00  0.54336323033E+03  0.54336323035E+03  0.50400001928E-02 0. -1.
        1   -1    0    0  501    0  0.00000000000E+00  0.00000000000E+00 -0.16917633440E+03  0.16917633448E+03  0.50400001928E-02 0.  1.
    10030    2    1    2    0    0  0.00000000000E+00  0.00000000000E+00  0.37418689593E+03  0.71253956483E+03  0.60638007749E+03 0.  0.
        5    1    3    3  502    0  0.27827015260E+03  0.12020184200E+03  0.18192461234E+03  0.35355539201E+03  0.46999998093E+01 0. -1.
       -5    1    3    3    0  502 -0.27827015260E+03 -0.12020184200E+03  0.19226228359E+03  0.35898417282E+03  0.46999998093E+01 0.  1.
</event>
<event>
 5   0  0.5574736E-03  0.5974476E+03  0.7818609E-02  0.9910716E-01
       -1   -1    0    0    0  501  0.00000000000E+00  0.00000000000E+00  0.16377066223E+03  0.16377066230E+03  0.50400001928E-02 0. -1.
        1   -1    0    0  501    0  0.00000000000E+00  0.00000000000E+00 -0.54488338513E+03  0.54488338516E+03  0.50400001928E-02 0.  1.
    10030    2    1    2    0    0  0.00000000000E+00  0.00000000000E+00 -0.38111272291E+03  0.70865404746E+03  0.59744761396E+03 0.  0.
        5    1    3    3  502    0  0.13546716281E+02 -0.25101583813E+03 -0.38189356514E+03  0.45722778744E+03  0.46999998093E+01 0.  1.
       -5    1    3    3    0  502 -0.13546716281E+02  0.25101583813E+03  0.78084223845E+00  0.25142626002E+03  0.46999998093E+01 0. -1.
</event>
<event>
 5   0  0.9428629E-03  0.6002934E+03  0.7818609E-02  0.9904797E-01
        2   -1    0    0  501    0  0.00000000000E+00  0.00000000000E+00  0.79795306722E+03  0.79795306722E+03  0.25500000920E-02 0. -1.
       -2   -1    0    0    0  501  0.00000000000E+00  0.00000000000E+00 -0.11289893868E+03  0.11289893871E+03  0.25500000920E-02 0.  1.
    10030    2    1    2    0    0  0.00000000000E+00  0.00000000000E+00  0.68505412854E+03  0.91085200593E+03  0.60029344298E+03 0.  0.
        3    1    3    3  502    0 -0.28211536436E+02 -0.18876284457E+03 -0.89625977379E+01  0.19106972717E+03  0.10100000352E+00 0.  1.
       -3    1    3    3    0  502  0.28211536436E+02  0.18876284457E+03  0.69401672627E+03  0.71978227877E+03  0.10100000352E+00 0. -1.
</event>
<event>
 5   0  0.9428629E-03  0.6000097E+03  0.7818609E-02  0.9905386E-01
        2   -1    0    0  501    0  0.00000000000E+00  0.00000000000E+00  0.14423508493E+03  0.14423508496E+03  0.25500000920E-02 0.  1.
       -2   -1    0    0    0  501  0.00000000000E+00  0.00000000000E+00 -0.62400156893E+03  0.62400156893E+03  0.25500000920E-02 0. -1.
    10030    2    1    2    0    0  0.00000000000E+00  0.00000000000E+00 -0.47976648400E+03  0.76823665389E+03  0.60000973093E+03 0.  0.
        3    1    3    3  502    0 -0.99349884189E+02  0.27414703839E+03 -0.33020097549E+03  0.44052206819E+03  0.10100000352E+00 0. -1.
       -3    1    3    3    0  502  0.99349884189E+02 -0.27414703839E+03 -0.14956550850E+03  0.32771458570E+03  0.10100000352E+00 0.  1.
</event>
<event>
 5   0  0.5574736E-03  0.5988522E+03  0.7818609E-02  0.9907790E-01
       -1   -1    0    0    0  501  0.00000000000E+00  0.00000000000E+00  0.57494825709E+02  0.57494825929E+02  0.50400001928E-02 0. -1.
        1   -1    0    0  501    0  0.00000000000E+00  0.00000000000E+00 -0.15593748930E+04  0.15593748930E+04  0.50400001928E-02 0.  1.
    10030    2    1    2    0    0  0.00000000000E+00  0.00000000000E+00 -0.15018800673E+04  0.16168697190E+04  0.59885219504E+03 0.  0.
        5    1    3    3  502    0 -0.23872522619E+03 -0.11306639272E+03 -0.37044700886E+03  0.45500199907E+03  0.46999998093E+01 0. -1.
       -5    1    3    3    0  502  0.23872522619E+03  0.11306639272E+03 -0.11314330585E+04  0.11618677199E+04  0.46999998093E+01 0.  1.
</event>
<event>
 5   0  0.9866317E-03  0.5986021E+03  0.7818609E-02  0.9908311E-01
        2   -1    0    0  501    0  0.00000000000E+00  0.00000000000E+00  0.28025643114E+03  0.28025643115E+03  0.25500000920E-02 0.  1.
       -2   -1    0    0    0  501  0.00000000000E+00  0.00000000000E+00 -0.31963979907E+03  0.31963979908E+03  0.25500000920E-02 0. -1.
    10030    2    1    2    0    0  0.00000000000E+00  0.00000000000E+00 -0.39383367937E+02  0.59989623023E+03  0.59860206931E+03 0.  0.
        1    1    3    3  502    0  0.12480258046E+03 -0.13639526633E+03  0.21619296920E+03  0.28446221669E+03  0.50400001928E-02 0. -1.
       -1    1    3    3    0  502 -0.12480258046E+03  0.13639526633E+03 -0.25557633714E+03  0.31543401354E+03  0.50400001928E-02 0.  1.
</event>
<event>
 5   0  0.5653633E-03  0.5999366E+03  0.7818609E-02  0.9905538E-01
       -1   -1    0    0    0  501  0.00000000000E+00  0.00000000000E+00  0.70781603544E+02  0.70781603724E+02  0.50400001928E-02 0.  1.
        1   -1    0    0  501    0  0.00000000000E+00  0.00000000000E+00 -0.12712482130E+04  0.12712482130E+04  0.50400001928E-02 0. -1.
    10030    2    1    2    0    0  0.00000000000E+00  0.00000000000E+00 -0.12004666095E+04  0.13420298167E+04  0.59993662048E+03 0.  0.
        2    1    3    3  502    0  0.34823681646E+01  0.26932768493E+03 -0.89557424576E+03  0.93520198804E+03  0.25500000920E-02 0. -1.
       -2    1    3    3    0  502 -0.34823681646E+01 -0.26932768493E+03 -0.30489236371E+03  0.40682782871E+03  0.25500000920E-02 0.  1.
</event>
<event>
 5   0  0.9428629E-03  0.5999889E+03  0.7818609E-02  0.9905429E-01
        2   -1    0    0  501    0  0.00000000000E+00  0.00000000000E+00  0.32756632023E+03  0.32756632024E+03  0.25500000920E-02 0. -1.
       -2   -1    0    0    0  501  0.00000000000E+00  0.00000000000E+00 -0.27474335365E+03  0.27474335367E+03  0.25500000920E-02 0.  1.
    10030    2    1    2    0    0  0.00000000000E+00  0.00000000000E+00  0.52822966571E+02  0.60230967390E+03  0.59998889780E+03 0.  0.
        3    1    3    3  502    0  0.10589815167E+03 -0.14883334744E+03  0.26530439375E+03  0.32210590709E+03  0.10100000352E+00 0. -1.
       -3    1    3    3    0  502 -0.10589815167E+03  0.14883334744E+03 -0.21248142718E+03  0.28020376681E+03  0.10100000352E+00 0.  1.
</event>
<event>
 5   0  0.9681801E-03  0.6000893E+03  0.7818609E-02  0.9905221E-01
        2   -1    0    0  501    0  0.00000000000E+00  0.00000000000E+00  0.13545424338E+04  0.13545424338E+04  0.25500000920E-02 0.  1.
       -2   -1    0    0    0  501  0.00000000000E+00  0.00000000000E+00 -0.66462869513E+02  0.66462869562E+02  0.25500000920E-02 0. -1.
    10030    2    1    2    0    0  0.00000000000E+00  0.00000000000E+00  0.12880795643E+04  0.14210053033E+04  0.60008925024E+03 0.  0.
        4    1    3    3  502    0  0.28779444428E+03 -0.58037732194E+01  0.84449314720E+03  0.89220491733E+03  0.12699999809E+01 0. -1.
       -4    1    3    3    0  502 -0.28779444428E+03  0.58037732194E+01  0.44358641706E+03  0.52880038601E+03  0.12699999809E+01 0.  1.
</event>
<event>
 5   0  0.9571790E-03  0.5983517E+03  0.7818609E-02  0.9908832E-01
       -2   -1    0    0    0  501  0.00000000000E+00  0.00000000000E+00  0.80234664190E+02  0.80234664231E+02  0.25500000920E-02 0. -1.
        2   -1    0    0  501    0  0.00000000000E+00  0.00000000000E+00 -0.11155550382E+04  0.11155550382E+04  0.25500000920E-02 0.  1.
    10030    2    1    2    0    0  0.00000000000E+00  0.00000000000E+00 -0.10353203740E+04  0.11957897024E+04  0.59835168222E+03 0.  0.
        5    1    3    3  502    0  0.27585763009E+03 -0.10285065035E+03 -0.62356804975E+03  0.68959037915E+03  0.46999998093E+01 0.  1.
       -5    1    3    3    0  502 -0.27585763009E+03  0.10285065035E+03 -0.41175232428E+03  0.50619932329E+03  0.46999998093E+01 0. -1.
</event>
<event>
 5   0  0.5785798E-03  0.6015691E+03  0.7818609E-02  0.9902156E-01
       -1   -1    0    0    0  501  0.00000000000E+00  0.00000000000E+00  0.39290650958E+03  0.39290650961E+03  0.50400001928E-02 0.  1.
        1   -1    0    0  501    0  0.00000000000E+00  0.00000000000E+00 -0.23026175485E+03  0.23026175491E+03  0.50400001928E-02 0. -1.
    10030    2    1    2    0    0  0.00000000000E+00  0.00000000000E+00  0.16264475473E+03  0.62316826452E+03  0.60156908968E+03 0.  0.
        1    1    3    3  502    0 -0.14345341887E+03 -0.26375816603E+03  0.99971219143E+02  0.31645141526E+03  0.50400001928E-02 0. -1.
       -1    1    3    3    0  502  0.14345341887E+03  0.26375816603E+03  0.62673535584E+02  0.30671684926E+03  0.50400001928E-02 0.  1.
</event>
<event>
 5   0  0.3794375E-03  0.5985185E+03  0.7818609E-02  0.9908485E-01
       -3   -1    0    0    0  501  0.00000000000E+00  0.00000000000E+00  0.96787792794E+02  0.96787845492E+02  0.10100000352E+00 0. -1.
        3   -1    0    0  501    0  0.00000000000E+00  0.00000000000E+00 -0.92528260143E+03  0.92528260694E+03  0.10100000352E+00 0.  1.
    10030    2    1    2    0    0  0.00000000000E+00  0.00000000000E+00 -0.82849480863E+03  0.10220704524E+04  0.59851847240E+03 0.  0.
        1    1    3    3  502    0 -0.19905918102E+03 -0.27299216539E+02 -0.79297355016E+03  0.81803230746E+03  0.50400001928E-02 0.  1.
       -1    1    3    3    0  502  0.19905918102E+03  0.27299216539E+02 -0.35521258469E+02  0.20403814497E+03  0.50400001928E-02 0. -1.
</event>
<event>
 5   0  0.3794375E-03  0.6003053E+03  0.7818609E-02  0.9904773E-01
       -3   -1    0    0    0  501  0.00000000000E+00  0.00000000000E+00  0.10253423162E+04  0.10253423211E+04  0.10100000352E+00 0.  1.
        3   -1    0    0  501    0  0.00000000000E+00  0.00000000000E+00 -0.87864864976E+02  0.87864923026E+02  0.10100000352E+00 0. -1.
    10030    2    1    2    0    0  0.00000000000E+00  0.00000000000E+00  0.93747745118E+03  0.11132072442E+04  0.60030525316E+03 0.  0.
        5    1    3    3  502    0 -0.12477121426E+03 -0.22269429656E+03  0.76141073284E+03  0.80307471615E+03  0.46999998093E+01 0.  1.
       -5    1    3    3    0  502  0.12477121426E+03  0.22269429656E+03  0.17606671834E+03  0.31013252801E+03  0.46999998093E+01 0. -1.
</event>
<event>
 5   0  0.5785798E-03  0.5982991E+03  0.7818609E-02  0.9908941E-01
        1   -1    0    0  501    0  0.00000000000E+00  0.00000000000E+00  0.59626913408E+03  0.59626913410E+03  0.50400001928E-02 0. -1.
       -1   -1    0    0    0  501  0.00000000000E+00  0.00000000000E+00 -0.15008400642E+03  0.15008400650E+03  0.50400001928E-02 0.  1.
    10030    2    1    2    0    0  0.00000000000E+00  0.00000000000E+00  0.44618512766E+03  0.74635314060E+03  0.59829912447E+03 0.  0.
        1    1    3    3  502    0  0.14457541603E+03 -0.25351231033E+03  0.14110202198E+03  0.32416095237E+03  0.50400001928E-02 0.  1.
       -1    1    3    3    0  502 -0.14457541603E+03  0.25351231033E+03  0.30508310568E+03  0.42219218823E+03  0.50400001928E-02 0. -1.
</event>
<event>
 5   0  0.3794375E-03  0.6000748E+03  0.7818609E-02  0.9905251E-01
        3   -1    0    0  501    0  0.00000000000E+00  0.00000000000E+00  0.61286819904E+03  0.61286820736E+03  0.10100000352E+00 0.  1.
       -3   -1    0    0    0  501  0.00000000000E+00  0.00000000000E+00 -0.14688706624E+03  0.14688710097E+03  0.10100000352E+00 0. -1.
    10030    2    1    2    0    0  0.00000000000E+00  0.00000000000E+00  0.46598113280E+03  0.75975530833E+03  0.60007475569E+03 0.  0.
        5    1    3    3  502    0 -0.26441419969E+03 -0.84048126513E+00  0.41242332688E+03  0.48992924587E+03  0.46999998093E+01 0. -1.
       -5    1    3    3    0  502  0.26441419969E+03  0.84048126513E+00  0.53557805913E+02  0.26982606245E+03  0.46999998093E+01 0.  1.
</event>
<event>
 5   0  0.5503975E-03  0.5999813E+03  0.7818609E-02  0.9905445E-01
        1   -1    0    0  501    0  0.00000000000E+00  0.00000000000E+00  0.51444020558E+03  0.51444020561E+03  0.50400001928E-02 0. -1.
       -1   -1    0    0    0  501  0.00000000000E+00  0.00000000000E+00 -0.17493651384E+03  0.17493651391E+03  0.50400001928E-02 0.  1.
    10030    2    1    2    0    0  0.00000000000E+00  0.00000000000E+00  0.33950369174E+03  0.68937671952E+03  0.59998125363E+03 0.  0.
        4    1    3    3  502    0  0.22145070794E+02  0.19999367629E+03  0.42540018498E+03  0.47058984796E+03  0.12699999809E+01 0. -1.
       -4    1    3    3    0  502 -0.22145070794E+02 -0.19999367629E+03 -0.85896493239E+02  0.21878687156E+03  0.12699999809E+01 0.  1.
</event>
<event>
 5   0  0.5491236E-03  0.6000074E+03  0.7818609E-02  0.9905391E-01
       -1   -1    0    0    0  501  0.00000000000E+00  0.00000000000E+00  0.35313722714E+03  0.35313722718E+03  0.50400001928E-02 0.  1.
        1   -1    0    0  501    0  0.00000000000E+00  0.00000000000E+00 -0.25486476034E+03  0.25486476039E+03  0.50400001928E-02 0. -1.
    10030    2    1    2    0    0  0.00000000000E+00  0.00000000000E+00  0.98272466802E+02  0.60800198757E+03  0.60000744925E+03 0.  0.
        3    1    3    3  502    0  0.22962749667E+03  0.15228837615E+03 -0.71111171686E+02  0.28456518705E+03  0.10100000352E+00 0.  1.
       -3    1    3    3    0  502 -0.22962749667E+03 -0.15228837615E+03  0.16938363849E+03  0.32343680052E+03  0.10100000352E+00 0. -1.
</event>
<event>
 5   0  0.9428629E-03  0.6013908E+03  0.7818609E-02  0.9902525E-01
       -2   -1    0    0    0  501  0.00000000000E+00  0.00000000000E+00  0.16435795526E+03  0.16435795528E+03  0.25500000920E-02 0.  1.
        2   -1    0    0  501    0  0.00000000000E+00  0.00000000000E+00 -0.55012680875E+03  0.55012680876E+03  0.25500000920E-02 0. -1.
    10030    2    1    2    0    0  0.00000000000E+00  0.00000000000E+00 -0.38576885349E+03  0.71448476403E+03  0.60139077953E+03 0.  0.
        3    1    3    3  502    0  0.13572361448E+03  0.18327931372E+03  0.39942348767E+02  0.23153316780E+03  0.10100000352E+00 0.  1.
       -3    1    3    3    0  502 -0.13572361448E+03 -0.18327931372E+03 -0.42571120226E+03  0.48295159623E+03  0.10100000352E+00 0. -1.
</event>
<event>
 5   0  0.5653633E-03  0.6022479E+03  0.7818609E-02  0.9900753E-01
       -1   -1    0    0    0  501  0.00000000000E+00  0.00000000000E+00  0.59110778316E+03  0.59110778318E+03  0.50400001928E-02 0.  1.
        1   -1    0    0  501    0  0.00000000000E+00  0.00000000000E+00 -0.15339948294E+03  0.15339948302E+03  0.50400001928E-02 0. -1.
    10030    2    1    2    0    0  0.00000000000E+00  0.00000000000E+00  0.43770830022E+03  0.74450726621E+03  0.60224788364E+03 0.  0.
        2    1    3    3  502    0  0.10111353789E+03 -0.60700456940E+02  0.56137051439E+03  0.57362474446E+03  0.25500000920E-02 0.  1.
       -2    1    3    3    0  502 -0.10111353789E+03  0.60700456940E+02 -0.12366221417E+03  0.17088252175E+03  0.25500000920E-02 0. -1.
</event>
<event>
 5   0  0.5503975E-03  0.6006794E+03  0.7818609E-02  0.9903998E-01
       -1   -1    0    0    0  501  0.00000000000E+00  0.00000000000E+00  0.95238992478E+02  0.95238992612E+02  0.50400001928E-02 0. -1.
        1   -1    0    0  501    0  0.00000000000E+00  0.00000000000E+00 -0.94713236777E+03  0.94713236779E+03  0.50400001928E-02 0.  1.
    10030    2    1    2    0    0  0.00000000000E+00  0.00000000000E+00 -0.85189337530E+03  0.10423713604E+04  0.60067939045E+03 0.  0.
        4    1    3    3  502    0  0.14309164850E+03 -0.13800506345E+03 -0.81661243546E+03  0.84046302718E+03  0.12699999809E+01 0. -1.
       -4    1    3    3    0  502 -0.14309164850E+03  0.13800506345E+03 -0.35280939835E+02  0.20190833322E+03  0.12699999809E+01 0.  1.
</event>
<event>
 5   0  0.5491236E-03  0.6005775E+03  0.7818609E-02  0.9904209E-01
        1   -1    0    0  501    0  0.00000000000E+00  0.00000000000E+00  0.94320248208E+03  0.94320248209E+03  0.50400001928E-02 0.  1.
       -1   -1    0    0    0  501  0.00000000000E+00  0.00000000000E+00 -0.95603379240E+02  0.95603379373E+02  0.50400001928E-02 0. -1.
    10030    2    1    2    0    0  0.00000000000E+00  0.00000000000E+00  0.84759910284E+03  0.10388058615E+04  0.60057753761E+03 0.  0.
        3    1    3    3  502    0 -0.14155729145E+03  0.26144324576E+03  0.35077727989E+03  0.45982143035E+03  0.10100000352E+00 0. -1.
       -3    1    3    3    0  502  0.14155729145E+03 -0.26144324576E+03  0.49682182294E+03  0.57898443112E+03  0.10100000352E+00 0.  1.
</event>
<event>
 5   0  0.5503975E-03  0.5996289E+03  0.7818609E-02  0.9906176E-01
       -1   -1    0    0    0  501  0.00000000000E+00  0.00000000000E+00  0.17902349161E+03  0.17902349168E+03  0.50400001928E-02 0. -1.
        1   -1    0    0  501    0  0.00000000000E+00  0.00000000000E+00 -0.50210558046E+03  0.50210558048E+03  0.50400001928E-02 0.  1.
    10030    2    1    2    0    0  0.00000000000E+00  0.00000000000E+00 -0.32308208885E+03  0.68112907216E+03  0.59962886589E+03 0.  0.
        4    1    3    3  502    0  0.18955268106E+03  0.22168457762E+03 -0.82737406891E+02  0.30318535956E+03  0.12699999809E+01 0. -1.
       -4    1    3    3    0  502 -0.18955268106E+03 -0.22168457762E+03 -0.24034468196E+03  0.37794371260E+03  0.12699999809E+01 0.  1.
</event>
<event>
 5   0  0.9530666E-03  0.6005014E+03  0.7818609E-02  0.9904366E-01
        2   -1    0    0  501    0  0.00000000000E+00  0.00000000000E+00  0.34261311853E+03  0.34261311853E+03  0.25500000920E-02 0.  1.
       -2   -1    0    0    0  501  0.00000000000E+00  0.00000000000E+00 -0.26312619660E+03  0.26312619662E+03  0.25500000920E-02 0. -1.
    10030    2    1    2    0    0  0.00000000000E+00  0.00000000000E+00  0.79486921921E+02  0.60573931515E+03  0.60050141312E+03 0.  0.
        2    1    3    3  502    0  0.12622494599E+03  0.13719313354E+03 -0.19767261568E+03  0.27171521098E+03  0.25500000920E-02 0. -1.
       -2    1    3    3    0  502 -0.12622494599E+03 -0.13719313354E+03  0.27715953760E+03  0.33402410417E+03  0.25500000920E-02 0.  1.
</event>
<event>
 5   0  0.9571790E-03  0.5990276E+03  0.7818609E-02  0.9907426E-01
        2   -1    0    0  501    0  0.00000000000E+00  0.00000000000E+00  0.22569830303E+03  0.22569830304E+03  0.25500000920E-02 0.  1.
       -2   -1    0    0    0  501  0.00000000000E+00  0.00000000000E+00 -0.39747092512E+03  0.39747092513E+03  0.25500000920E-02 0. -1.
    10030    2    1    2    0    0  0.00000000000E+00  0.00000000000E+00 -0.17177262209E+03  0.62316922817E+03  0.59902758972E+03 0.  0.
        5    1    3    3  502    0  0.39148460259E+02 -0.23538995663E+03  0.10236337307E+03  0.25969478964E+03  0.46999998093E+01 0.  1.
       -5    1    3    3    0  502 -0.39148460259E+02  0.23538995663E+03 -0.27413599516E+03  0.36347443853E+03  0.46999998093E+01 0. -1.
</event>
<event>
 5   0  0.9428629E-03  0.6002257E+03  0.7818609E-02  0.9904938E-01
       -2   -1    0    0    0  501  0.00000000000E+00  0.00000000000E+00  0.56073409061E+03  0.56073409062E+03  0.25500000920E-02 0. -1.
        2   -1    0    0  501    0  0.00000000000E+00  0.00000000000E+00 -0.16062464080E+03  0.16062464082E+03  0.25500000920E-02 0.  1.
    10030    2    1    2    0    0  0.00000000000E+00  0.00000000000E+00  0.40010944981E+03  0.72135873144E+03  0.60022566389E+03 0.  0.
        3    1    3    3  502    0 -0.83994601411E+02  0.22616766815E+03 -0.14463914172E+02  0.24169427423E+03  0.10100000352E+00 0.  1.
       -3    1    3    3    0  502  0.83994601411E+02 -0.22616766815E+03  0.41457336398E+03  0.47966445721E+03  0.10100000352E+00 0. -1.
</event>
<event>
 5   0  0.9571790E-03  0.6004655E+03  0.7818609E-02  0.9904441E-01
        2   -1    0    0  501    0  0.00000000000E+00  0.00000000000E+00  0.30997342711E+03  0.30997342712E+03  0.25500000920E-02 0.  1.
       -2   -1    0    0    0  501  0.00000000000E+00  0.00000000000E+00 -0.29079817672E+03  0.29079817673E+03  0.25500000920E-02 0. -1.
    10030    2    1    2    0    0  0.00000000000E+00  0.00000000000E+00  0.19175250395E+02  0.60077160385E+03  0.60046551089E+03 0.  0.
        5    1    3    3  502    0  0.17616853930E+03 -0.50322722236E+02  0.24751104818E+03  0.30797977138E+03  0.46999998093E+01 0.  1.
       -5    1    3    3    0  502 -0.17616853930E+03  0.50322722236E+02 -0.22833579779E+03  0.29279183247E+03  0.46999998093E+01 0. -1.
</event>
<event>
 5   0  0.5503975E-03  0.5998241E+03  0.7818609E-02  0.9905771E-01
       -1   -1    0    0    0  501  0.00000000000E+00  0.00000000000E+00  0.88239425616E+02  0.88239425760E+02  0.50400001928E-02 0. -1.
        1   -1    0    0  501    0  0.00000000000E+00  0.00000000000E+00 -0.10193543386E+04  0.10193543386E+04  0.50400001928E-02 0.  1.
    10030    2    1    2    0    0  0.00000000000E+00  0.00000000000E+00 -0.93111491296E+03  0.11075937643E+04  0.59982411229E+03 0.  0.
        4    1    3    3  502    0  0.22308931980E+03 -0.18829802697E+03 -0.33868805734E+03  0.44714226444E+03  0.12699999809E+01 0.  1.
       -4    1    3    3    0  502 -0.22308931980E+03  0.18829802697E+03 -0.59242685562E+03  0.66045149991E+03  0.12699999809E+01 0. -1.
</event>
<event>
 5   0  0.5491236E-03  0.6007013E+03  0.7818609E-02  0.9903952E-01
       -1   -1    0    0    0  501  0.00000000000E+00  0.00000000000E+00  0.15137569464E+03  0.15137569473E+03  0.50400001928E-02 0.  1.
        1   -1    0    0  501    0  0.00000000000E+00  0.00000000000E+00 -0.59593790837E+03  0.59593790839E+03  0.50400001928E-02 0. -1.
    10030    2    1    2    0    0  0.00000000000E+00  0.00000000000E+00 -0.44456221373E+03  0.74731360312E+03  0.60070130642E+03 0.  0.
        3    1    3    3  502    0  0.11053212277E+03  0.12962177279E+03  0.85462706115E+02  0.19058603958E+03  0.10100000352E+00 0.  1.
       -3    1    3    3    0  502 -0.11053212277E+03 -0.12962177279E+03 -0.53002491984E+03  0.55672756353E+03  0.10100000352E+00 0. -1.
</event>
<event>
 5   0  0.5491236E-03  0.6033699E+03  0.7818609E-02  0.9898439E-01
        1   -1    0    0  501    0  0.00000000000E+00  0.00000000000E+00  0.10836287032E+03  0.10836287043E+03  0.50400001928E-02 0. -1.
       -1   -1    0    0    0  501  0.00000000000E+00  0.00000000000E+00 -0.83989854900E+03  0.83989854902E+03  0.50400001928E-02 0.  1.
    10030    2    1    2    0    0  0.00000000000E+00  0.00000000000E+00 -0.73153567869E+03  0.94826141945E+03  0.60336992835E+03 0.  0.
        3    1    3    3  502    0  0.14714868425E+03 -0.26162542904E+03 -0.41326077756E+03  0.51076910720E+03  0.10100000352E+00 0. -1.
       -3    1    3    3    0  502 -0.14714868425E+03  0.26162542904E+03 -0.31827490112E+03  0.43749231225E+03  0.10100000352E+00 0.  1.
</event>
<event>
 5   0  0.5574736E-03  0.5999301E+03  0.7818609E-02  0.9905551E-01
        1   -1    0    0  501    0  0.00000000000E+00  0.00000000000E+00  0.11043430426E+04  0.11043430426E+04  0.50400001928E-02 0. -1.
       -1   -1    0    0    0  501  0.00000000000E+00  0.00000000000E+00 -0.81477417880E+02  0.81477418036E+02  0.50400001928E-02 0.  1.
    10030    2    1    2    0    0  0.00000000000E+00  0.00000000000E+00  0.10228656247E+04  0.11858204606E+04  0.59993006146E+03 0.  0.
        5    1    3    3  502    0  0.18873187546E+03  0.18349012617E+03  0.22726580008E+03  0.34779330226E+03  0.46999998093E+01 0.  1.
       -5    1    3    3    0  502 -0.18873187546E+03 -0.18349012617E+03  0.79559982461E+03  0.83802715835E+03  0.46999998093E+01 0. -1.
</event>
<event>
 5   0  0.9530666E-03  0.5993426E+03  0.7818609E-02  0.9906771E-01
        2   -1    0    0  501    0  0.00000000000E+00  0.00000000000E+00  0.11964722305E+04  0.11964722305E+04  0.25500000920E-02 0.  1.
       -2   -1    0    0    0  501  0.00000000000E+00  0.00000000000E+00 -0.75056398452E+02  0.75056398496E+02  0.25500000920E-02 0. -1.
    10030    2    1    2    0    0  0.00000000000E+00  0.00000000000E+00  0.11214158321E+04  0.12715286290E+04  0.59934262822E+03 0.  0.
        2    1    3    3  502    0  0.12521500559E+02  0.20076209056E+03  0.89455498781E+02  0.22014652223E+03  0.25500000920E-02 0. -1.
       -2    1    3    3    0  502 -0.12521500559E+02 -0.20076209056E+03  0.10319603333E+04  0.10513821068E+04  0.25500000920E-02 0.  1.
</event>
<event>
 5   0  0.9428629E-03  0.6009421E+03  0.7818609E-02  0.9903453E-01
        2   -1    0    0  501    0  0.00000000000E+00  0.00000000000E+00  0.14795993603E+04  0.14795993603E+04  0.25500000920E-02 0. -1.
       -2   -1    0    0    0  501  0.00000000000E+00  0.00000000000E+00 -0.61018445148E+02  0.61018445202E+02  0.25500000920E-02 0.  1.
    10030    2    1    2    0    0  0.00000000000E+00  0.00000000000E+00  0.14185809152E+04  0.15406178055E+04  0.60094210188E+03 0.  0.
        3    1    3    3  502    0 -0.15354202394E+03 -0.18947960419E+02  0.13696468285E+04  0.13783564936E+04  0.10100000352E+00 0. -1.
       -3    1    3    3    0  502  0.15354202394E+03  0.18947960419E+02  0.48934086674E+02  0.16226131197E+03  0.10100000352E+00 0.  1.
</event>
<event>
 5   0  0.9428629E-03  0.6010063E+03  0.7818609E-02  0.9903320E-01
        2   -1    0    0  501    0  0.00000000000E+00  0.00000000000E+00  0.88671384230E+03  0.88671384231E+03  0.25500000920E-02 0.  1.
       -2   -1    0    0    0  501  0.00000000000E+00  0.00000000000E+00 -0.10183910568E+03  0.10183910571E+03  0.25500000920E-02 0. -1.
    10030    2    1    2    0    0  0.00000000000E+00  0.00000000000E+00  0.78487473662E+03  0.98855294802E+03  0.60100630517E+03 0.  0.
        3    1    3    3  502    0  0.64434077177E+02  0.45970423169E+02  0.86925954647E+03  0.87285577242E+03  0.10100000352E+00 0.  1.
       -3    1    3    3    0  502 -0.64434077177E+02 -0.45970423169E+02 -0.84384809849E+02  0.11569717560E+03  0.10100000352E+00 0. -1.
</event>
<event>
 5   0  0.5653633E-03  0.5962675E+03  0.7818609E-02  0.9913180E-01
        1   -1    0    0  501    0  0.00000000000E+00  0.00000000000E+00  0.26586357628E+03  0.26586357633E+03  0.50400001928E-02 0. -1.
       -1   -1    0    0    0  501  0.00000000000E+00  0.00000000000E+00 -0.33432086079E+03  0.33432086083E+03  0.50400001928E-02 0.  1.
    10030    2    1    2    0    0  0.00000000000E+00  0.00000000000E+00 -0.68457284504E+02  0.60018443716E+03  0.59626752285E+03 0.  0.
        2    1    3    3  502    0  0.26774106915E+03  0.98515992851E+02  0.52902447016E+02  0.29015401059E+03  0.25500000920E-02 0.  1.
       -2    1    3    3    0  502 -0.26774106915E+03 -0.98515992851E+02 -0.12135973152E+03  0.31003042657E+03  0.25500000920E-02 0. -1.
</event>
<event>
 5   0  0.9681801E-03  0.5985901E+03  0.7818609E-02  0.9908336E-01
        2   -1    0    0  501    0  0.00000000000E+00  0.00000000000E+00  0.65739566693E+03  0.65739566693E+03  0.25500000920E-02 0. -1.
       -2   -1    0    0    0  501  0.00000000000E+00  0.00000000000E+00 -0.13626118977E+03  0.13626118979E+03  0.25500000920E-02 0.  1.
    10030    2    1    2    0    0  0.00000000000E+00  0.00000000000E+00  0.52113447716E+03  0.79365685672E+03  0.59859006251E+03 0.  0.
        4    1    3    3  502    0 -0.17697952737E+03 -0.59387343121E+02  0.57074114115E+03  0.60049618877E+03  0.12699999809E+01 0. -1.
       -4    1    3    3    0  502  0.17697952737E+03  0.59387343121E+02 -0.49606663988E+02  0.19316066795E+03  0.12699999809E+01 0.  1.
</event>
<event>
 5   0  0.9428629E-03  0.6002245E+03  0.7818609E-02  0.9904940E-01
       -2   -1    0    0    0  501  0.00000000000E+00  0.00000000000E+00  0.18605700715E+03  0.18605700717E+03  0.25500000920E-02 0.  1.
        2   -1    0    0  501    0  0.00000000000E+00  0.00000000000E+00 -0.48408478698E+03  0.48408478698E+03  0.25500000920E-02 0. -1.
    10030    2    1    2    0    0  0.00000000000E+00  0.00000000000E+00 -0.29802777983E+03  0.67014179415E+03  0.60022451360E+03 0.  0.
        3    1    3    3  502    0  0.12907233457E+02  0.24807781342E+03 -0.33702866819E+03  0.41868548049E+03  0.10100000352E+00 0. -1.
       -3    1    3    3    0  502 -0.12907233457E+02 -0.24807781342E+03  0.39000888362E+02  0.25145631367E+03  0.10100000352E+00 0.  1.
</event>
<event>
 5   0  0.9428629E-03  0.5998680E+03  0.7818609E-02  0.9905680E-01
       -2   -1    0    0    0  501  0.00000000000E+00  0.00000000000E+00  0.82617709742E+02  0.82617709781E+02  0.25500000920E-02 0.  1.
        2   -1    0    0  501    0  0.00000000000E+00  0.00000000000E+00 -0.10888757183E+04  0.10888757183E+04  0.25500000920E-02 0. -1.
    10030    2    1    2    0    0  0.00000000000E+00  0.00000000000E+00 -0.10062580086E+04  0.11714934281E+04  0.59986804572E+03 0.  0.
        3    1    3    3  502    0  0.23745874534E+03  0.16786194383E+03 -0.64658705512E+03  0.70897046340E+03  0.10100000352E+00 0. -1.
       -3    1    3    3    0  502 -0.23745874534E+03 -0.16786194383E+03 -0.35967095348E+03  0.46252296472E+03  0.10100000352E+00 0.  1.
</event>
<event>
 5   0  0.3794375E-03  0.5987472E+03  0.7818609E-02  0.9908009E-01
        3   -1    0    0  501    0  0.00000000000E+00  0.00000000000E+00  0.75084408187E+02  0.75084476117E+02  0.10100000352E+00 0.  1.
       -3   -1    0    0    0  501  0.00000000000E+00  0.00000000000E+00 -0.11936500787E+04  0.11936500829E+04  0.10100000352E+00 0. -1.
    10030    2    1    2    0    0  0.00000000000E+00  0.00000000000E+00 -0.11185656705E+04  0.12687345590E+04  0.59874721057E+03 0.  0.
        4    1    3    3  502    0 -0.18636710344E+03  0.17188825386E+03 -0.22194067809E+03  0.33695332993E+03  0.12699999809E+01 0.  1.
       -4    1    3    3    0  502  0.18636710344E+03 -0.17188825386E+03 -0.89662499238E+03  0.93178122911E+03  0.12699999809E+01 0. -1.
</event>
<event>
 5   0  0.9428629E-03  0.5997745E+03  0.7818609E-02  0.9905874E-01
       -2   -1    0    0    0  501  0.00000000000E+00  0.00000000000E+00  0.85563848316E+02  0.85563848354E+02  0.25500000920E-02 0. -1.
        2   -1    0    0  501    0  0.00000000000E+00  0.00000000000E+00 -0.10510556311E+04  0.10510556311E+04  0.25500000920E-02 0.  1.
    10030    2    1    2    0    0  0.00000000000E+00  0.00000000000E+00 -0.96549178275E+03  0.11366194794E+04  0.59977450633E+03 0.  0.
        3    1    3    3  502    0 -0.22619731823E+03  0.17764592954E+03 -0.32184214634E+03  0.43163141732E+03  0.10100000352E+00 0. -1.
       -3    1    3    3    0  502  0.22619731823E+03 -0.17764592954E+03 -0.64364963642E+03  0.70498806211E+03  0.10100000352E+00 0.  1.
</event>
<event>
 5   0  0.9571790E-03  0.6006191E+03  0.7818609E-02  0.9904122E-01
       -2   -1    0    0    0  501  0.00000000000E+00  0.00000000000E+00  0.65024526414E+02  0.65024526464E+02  0.25500000920E-02 0.  1.
        2   -1    0    0  501    0  0.00000000000E+00  0.00000000000E+00 -0.13869508311E+04  0.13869508311E+04  0.25500000920E-02 0. -1.
    10030    2    1    2    0    0  0.00000000000E+00  0.00000000000E+00 -0.13219263047E+04  0.14519753576E+04  0.60061908391E+03 0.  0.
        5    1    3    3  502    0  0.14512795015E+03 -0.11803983924E+03 -0.93151177951E+02  0.20903291013E+03  0.46999998093E+01 0.  1.
       -5    1    3    3    0  502 -0.14512795015E+03  0.11803983924E+03 -0.12287751267E+04  0.12429424474E+04  0.46999998093E+01 0. -1.
</event>
<event>
 5   0  0.5491236E-03  0.5999646E+03  0.7818609E-02  0.9905480E-01
       -1   -1    0    0    0  501  0.00000000000E+00  0.00000000000E+00  0.75269780159E+02  0.75269780328E+02  0.50400001928E-02 0. -1.
        1   -1    0    0  501    0  0.00000000000E+00  0.00000000000E+00 -0.11955577407E+04  0.11955577407E+04  0.50400001928E-02 0.  1.
    10030    2    1    2    0    0  0.00000000000E+00  0.00000000000E+00 -0.11202879605E+04  0.12708275210E+04  0.59996456037E+03 0.  0.
        3    1    3    3  502    0  0.16731873563E+03 -0.36963270138E+02 -0.38594040294E+02  0.17564553163E+03  0.10100000352E+00 0. -1.
       -3    1    3    3    0  502 -0.16731873563E+03  0.36963270138E+02 -0.10816939203E+04  0.10951819894E+04  0.10100000352E+00 0.  1.
</event>
<event>
 5   0  0.3794375E-03  0.5994751E+03  0.7818609E-02  0.9906496E-01
        3   -1    0    0  501    0  0.00000000000E+00  0.00000000000E+00  0.13031766187E+04  0.13031766227E+04  0.10100000352E+00 0.  1.
       -3   -1    0    0    0  501  0.00000000000E+00  0.00000000000E+00 -0.68941193508E+02  0.68941267492E+02  0.10100000352E+00 0. -1.
    10030    2    1    2    0    0  0.00000000000E+00  0.00000000000E+00  0.12342354252E+04  0.13721178901E+04  0.59947512005E+03 0.  0.
        2    1    3    3  502    0 -0.20096700619E+03 -0.71930233622E+02  0.13547108225E+03  0.25281240124E+03  0.25500000920E-02 0. -1.
       -2    1    3    3    0  502  0.20096700619E+03  0.71930233622E+02  0.10987643430E+04  0.11193054889E+04  0.25500000920E-02 0.  1.
</event>
<event>
 5   0  0.5653633E-03  0.6015520E+03  0.7818609E-02  0.9902191E-01
        1   -1    0    0  501    0  0.00000000000E+00  0.00000000000E+00  0.41332537004E+03  0.41332537007E+03  0.50400001928E-02 0.  1.
       -1   -1    0    0    0  501  0.00000000000E+00  0.00000000000E+00 -0.21887407295E+03  0.21887407300E+03  0.50400001928E-02 0. -1.
    10030    2    1    2    0    0  0.00000000000E+00  0.00000000000E+00  0.19445129709E+03  0.63219944307E+03  0.60155201677E+03 0.  0.
        2    1    3    3  502    0  0.24281251856E+03 -0.12806070776E+03  0.22640559233E+03  0.35583276449E+03  0.25500000920E-02 0.  1.
       -2    1    3    3    0  502 -0.24281251856E+03  0.12806070776E+03 -0.31954295237E+02  0.27636667858E+03  0.25500000920E-02 0. -1.
</event>
<event>
 5   0  0.5503975E-03  0.5982236E+03  0.7818609E-02  0.9909098E-01
       -1   -1    0    0    0  501  0.00000000000E+00  0.00000000000E+00  0.13916215558E+03  0.13916215567E+03  0.50400001928E-02 0.  1.
        1   -1    0    0  501    0  0.00000000000E+00  0.00000000000E+00 -0.64290367476E+03  0.64290367478E+03  0.50400001928E-02 0. -1.
    10030    2    1    2    0    0  0.00000000000E+00  0.00000000000E+00 -0.50374151918E+03  0.78206583046E+03  0.59822357444E+03 0.  0.
        4    1    3    3  502    0  0.17696860365E+03 -0.15708641017E+03 -0.49104921436E+03  0.54509170858E+03  0.12699999809E+01 0. -1.
       -4    1    3    3    0  502 -0.17696860365E+03  0.15708641017E+03 -0.12692304826E+02  0.23697412188E+03  0.12699999809E+01 0.  1.
</event>
<event>
 5   0  0.9428629E-03  0.6007896E+03  0.7818609E-02  0.9903769E-01
       -2   -1    0    0    0  501  0.00000000000E+00  0.00000000000E+00  0.84092987485E+02  0.84092987524E+02  0.25500000920E-02 0. -1.
        2   -1    0    0  501    0  0.00000000000E+00  0.00000000000E+00 -0.10730623854E+04  0.10730623854E+04  0.25500000920E-02 0.  1.
    10030    2    1    2    0    0  0.00000000000E+00  0.00000000000E+00 -0.98896939789E+03  0.11571553729E+04  0.60078955307E+03 0.  0.
        3    1    3    3  502    0 -0.25758826532E+03  0.80443671468E+02 -0.24031721997E+03  0.36135200999E+03  0.10100000352E+00 0.  1.
       -3    1    3    3    0  502  0.25758826532E+03 -0.80443671468E+02 -0.74865217792E+03  0.79580336291E+03  0.10100000352E+00 0. -1.
</event>
<event>
 5   0  0.9428629E-03  0.6001086E+03  0.7818609E-02  0.9905181E-01
       -2   -1    0    0    0  501  0.00000000000E+00  0.00000000000E+00  0.75610272474E+02  0.75610272517E+02  0.25500000920E-02 0. -1.
        2   -1    0    0  501    0  0.00000000000E+00  0.00000000000E+00 -0.11907454134E+04  0.11907454135E+04  0.25500000920E-02 0.  1.
    10030    2    1    2    0    0  0.00000000000E+00  0.00000000000E+00 -0.11151351410E+04  0.12663556860E+04  0.60010860746E+03 0.  0.
        3    1    3    3  502    0  0.13924062145E+03  0.23149923185E+03 -0.83313177743E+03  0.87583583723E+03  0.10100000352E+00 0.  1.
       -3    1    3    3    0  502 -0.13924062145E+03 -0.23149923185E+03 -0.28200336355E+03  0.39051984874E+03  0.10100000352E+00 0. -1.
</event>
<event>
 5   0  0.9866317E-03  0.6001545E+03  0.7818609E-02  0.9905086E-01
       -2   -1    0    0    0  501  0.00000000000E+00  0.00000000000E+00  0.19662724652E+03  0.19662724654E+03  0.25500000920E-02 0.  1.
        2   -1    0    0  501    0  0.00000000000E+00  0.00000000000E+00 -0.45795460625E+03  0.45795460625E+03  0.25500000920E-02 0. -1.
    10030    2    1    2    0    0  0.00000000000E+00  0.00000000000E+00 -0.26132735973E+03  0.65458185279E+03  0.60015449099E+03 0.  0.
        1    1    3    3  502    0 -0.13060389033E+03 -0.11953032184E+03  0.13359266484E+03  0.22179241225E+03  0.50400001928E-02 0.  1.
       -1    1    3    3    0  502  0.13060389033E+03  0.11953032184E+03 -0.39492002457E+03  0.43278944054E+03  0.50400001928E-02 0. -1.
</event>
<event>
 5   0  0.5785798E-03  0.6001863E+03  0.7818609E-02  0.9905020E-01
       -1   -1    0    0    0  501  0.00000000000E+00  0.00000000000E+00  0.62077791586E+03  0.62077791588E+03  0.50400001928E-02 0. -1.
        1   -1    0    0  501    0  0.00000000000E+00  0.00000000000E+00 -0.14506940850E+03  0.14506940859E+03  0.50400001928E-02 0.  1.
    10030    2    1    2    0    0  0.00000000000E+00  0.00000000000E+00  0.47570850736E+03  0.76584732447E+03  0.60018625478E+03 0.  0.
        1    1    3    3  502    0  0.34656373089E+02  0.29629701169E+03  0.19625335479E+03  0.35708313126E+03  0.50400001928E-02 0.  1.
       -1    1    3    3    0  502 -0.34656373089E+02 -0.29629701169E+03  0.27945515257E+03  0.40876419322E+03  0.50400001928E-02 0. -1.
</event>
<event>
 5   0  0.9530666E-03  0.5971623E+03  0.7818609E-02  0.9911311E-01
        2   -1    0    0  501    0  0.00000000000E+00  0.00000000000E+00  0.52145093888E+03  0.52145093888E+03  0.25500000920E-02 0.  1.
       -2   -1    0    0    0  501  0.00000000000E+00  0.00000000000E+00 -0.17096659259E+03  0.17096659261E+03  0.25500000920E-02 0. -1.
    10030    2    1    2    0    0  0.00000000000E+00  0.00000000000E+00  0.35048434629E+03  0.69241753149E+03  0.59716225678E+03 0.  0.
        2    1    3    3  502    0 -0.19034807503E+03  0.11361188028E+03  0.40717566176E+03  0.46360766662E+03  0.25500000920E-02 0.  1.
       -2    1    3    3    0  502  0.19034807503E+03 -0.11361188028E+03 -0.56691315476E+02  0.22880986487E+03  0.25500000920E-02 0. -1.
</event>
<event>
 5   0  0.9428629E-03  0.5934007E+03  0.7818609E-02  0.9919193E-01
       -2   -1    0    0    0  501  0.00000000000E+00  0.00000000000E+00  0.56178734152E+02  0.56178734210E+02  0.25500000920E-02 0.  1.
        2   -1    0    0  501    0  0.00000000000E+00  0.00000000000E+00 -0.15669823764E+04  0.15669823764E+04  0.25500000920E-02 0. -1.
    10030    2    1    2    0    0  0.00000000000E+00  0.00000000000E+00 -0.15108036422E+04  0.16231611106E+04  0.59340066192E+03 0.  0.
        3    1    3    3  502    0 -0.26551169844E+03  0.11071685340E+03 -0.55670901111E+03  0.62664153779E+03  0.10100000352E+00 0.  1.
       -3    1    3    3    0  502  0.26551169844E+03 -0.11071685340E+03 -0.95409463110E+03  0.99651957278E+03  0.10100000352E+00 0. -1.
</event>
<event>
 5   0  0.5785798E-03  0.5998485E+03  0.7818609E-02  0.9905720E-01
       -1   -1    0    0    0  501  0.00000000000E+00  0.00000000000E+00  0.77962746277E+02  0.77962746440E+02  0.50400001928E-02 0.  1.
        1   -1    0    0  501    0  0.00000000000E+00  0.00000000000E+00 -0.11538145932E+04  0.11538145932E+04  0.50400001928E-02 0. -1.
    10030    2    1    2    0    0  0.00000000000E+00  0.00000000000E+00 -0.10758518469E+04  0.12317773397E+04  0.59984849584E+03 0.  0.
        1    1    3    3  502    0  0.21512735628E+03 -0.20857780832E+03 -0.51114606831E+03  0.59249876347E+03  0.50400001928E-02 0. -1.
       -1    1    3    3    0  502 -0.21512735628E+03  0.20857780832E+03 -0.56470577863E+03  0.63927857620E+03  0.50400001928E-02 0.  1.
</event>
<event>
 5   0  0.9681801E-03  0.5973952E+03  0.7818609E-02  0.9910825E-01
        2   -1    0    0  501    0  0.00000000000E+00  0.00000000000E+00  0.99705009841E+02  0.99705009873E+02  0.25500000920E-02 0.  1.
       -2   -1    0    0    0  501  0.00000000000E+00  0.00000000000E+00 -0.89484221398E+03  0.89484221399E+03  0.25500000920E-02 0. -1.
    10030    2    1    2    0    0  0.00000000000E+00  0.00000000000E+00 -0.79513720414E+03  0.99454722386E+03  0.59739518501E+03 0.  0.
        4    1    3    3  502    0  0.27809426522E+03  0.39381732939E+02 -0.22835271766E+03  0.36198607405E+03  0.12699999809E+01 0. -1.
       -4    1    3    3    0  502 -0.27809426522E+03 -0.39381732939E+02 -0.56678448648E+03  0.63256114981E+03  0.12699999809E+01 0.  1.
</event>
<event>
 5   0  0.5574736E-03  0.6008878E+03  0.7818609E-02  0.9903566E-01
       -1   -1    0    0    0  501  0.00000000000E+00  0.00000000000E+00  0.12899346937E+03  0.12899346947E+03  0.50400001928E-02 0. -1.
        1   -1    0    0  501    0  0.00000000000E+00  0.00000000000E+00 -0.69977612499E+03  0.69977612501E+03  0.50400001928E-02 0.  1.
    10030    2    1    2    0    0  0.00000000000E+00  0.00000000000E+00 -0.57078265563E+03  0.82876959448E+03  0.60088784375E+03 0.  0.
        5    1    3    3  502    0 -0.23981701010E+02  0.29719722852E+03 -0.33593908998E+03  0.44919759215E+03  0.46999998093E+01 0.  1.
       -5    1    3    3    0  502  0.23981701010E+02 -0.29719722852E+03 -0.23484356565E+03  0.37957200233E+03  0.46999998093E+01 0. -1.
</event>
<event>
 5   0  0.9571790E-03  0.6000504E+03  0.7818609E-02  0.9905301E-01
       -2   -1    0    0    0  501  0.00000000000E+00  0.00000000000E+00  0.82153312166E+02  0.82153312205E+02  0.25500000920E-02 0.  1.
        2   -1    0    0  501    0  0.00000000000E+00  0.00000000000E+00 -0.10956968287E+04  0.10956968287E+04  0.25500000920E-02 0. -1.
    10030    2    1    2    0    0  0.00000000000E+00  0.00000000000E+00 -0.10135435165E+04  0.11778501409E+04  0.60005040999E+03 0.  0.
        5    1    3    3  502    0 -0.11400137221E+02 -0.19593834365E+03 -0.95210447285E+03  0.97213518343E+03  0.46999998093E+01 0. -1.
       -5    1    3    3    0  502  0.11400137221E+02  0.19593834365E+03 -0.61439043672E+02  0.20571495747E+03  0.46999998093E+01 0.  1.
</event>
<event>
 5   0  0.9681801E-03  0.5994707E+03  0.7818609E-02  0.9906505E-01
        2   -1    0    0  501    0  0.00000000000E+00  0.00000000000E+00  0.52231010658E+03  0.52231010659E+03  0.25500000920E-02 0.  1.
       -2   -1    0    0    0  501  0.00000000000E+00  0.00000000000E+00 -0.17200757163E+03  0.17200757165E+03  0.25500000920E-02 0. -1.
    10030    2    1    2    0    0  0.00000000000E+00  0.00000000000E+00  0.35030253495E+03  0.69431767824E+03  0.59947074351E+03 0.  0.
        4    1    3    3  502    0  0.25542927505E+03 -0.12509678754E+03  0.28470152436E+03  0.40242998358E+03  0.12699999809E+01 0.  1.
       -4    1    3    3    0  502 -0.25542927505E+03  0.12509678754E+03  0.65601010586E+02  0.29188769467E+03  0.12699999809E+01 0. -1.
</event>
<event>
 5   0  0.9428629E-03  0.6022748E+03  0.7818609E-02  0.9900698E-01
        2   -1    0    0  501    0  0.00000000000E+00  0.00000000000E+00  0.42423115398E+03  0.42423115399E+03  0.25500000920E-02 0.  1.
       -2   -1    0    0    0  501  0.00000000000E+00  0.00000000000E+00 -0.21376020043E+03  0.21376020044E+03  0.25500000920E-02 0. -1.
    10030    2    1    2    0    0  0.00000000000E+00  0.00000000000E+00  0.21047095355E+03  0.63799135443E+03  0.60227480940E+03 0.  0.
        3    1    3    3  502    0 -0.15208777320E+02 -0.57485867493E+02  0.41795017529E+03  0.42215908269E+03  0.10100000352E+00 0.  1.
       -3    1    3    3    0  502  0.15208777320E+02  0.57485867493E+02 -0.20747922174E+03  0.21583227174E+03  0.10100000352E+00 0. -1.
</event>
<event>
 5   0  0.9571790E-03  0.5995219E+03  0.7818609E-02  0.9906398E-01
        2   -1    0    0  501    0  0.00000000000E+00  0.00000000000E+00  0.59825696334E+03  0.59825696335E+03  0.25500000920E-02 0.  1.
       -2   -1    0    0    0  501  0.00000000000E+00  0.00000000000E+00 -0.15019737922E+03  0.15019737925E+03  0.25500000920E-02 0. -1.
    10030    2    1    2    0    0  0.00000000000E+00  0.00000000000E+00  0.44805958412E+03  0.74845434259E+03  0.59952190288E+03 0.  0.
        5    1    3    3  502    0 -0.22284003931E+03  0.15380436665E+03  0.63565144654E+02  0.27816556929E+03  0.46999998093E+01 0.  1.
       -5    1    3    3    0  502  0.22284003931E+03 -0.15380436665E+03  0.38449443946E+03  0.47028877331E+03  0.46999998093E+01 0. -1.
</event>
<event>
 5   0  0.3794375E-03  0.5959205E+03  0.7818609E-02  0.9913906E-01
       -3   -1    0    0    0  501  0.00000000000E+00  0.00000000000E+00  0.20211726912E+03  0.20211729436E+03  0.10100000352E+00 0. -1.
        3   -1    0    0  501    0  0.00000000000E+00  0.00000000000E+00 -0.43925147155E+03  0.43925148316E+03  0.10100000352E+00 0.  1.
    10030    2    1    2    0    0  0.00000000000E+00  0.00000000000E+00 -0.23713420243E+03  0.64136877752E+03  0.59592053062E+03 0.  0.
        3    1    3    3  502    0 -0.27278711363E+02  0.16611762228E+03  0.14603038085E+03  0.22285438039E+03  0.10100000352E+00 0. -1.
       -3    1    3    3    0  502  0.27278711363E+02 -0.16611762228E+03 -0.38316458328E+03  0.41851439713E+03  0.10100000352E+00 0.  1.
</event>
<event>
 5   0  0.9681801E-03  0.6001699E+03  0.7818609E-02  0.9905054E-01
       -2   -1    0    0    0  501  0.00000000000E+00  0.00000000000E+00  0.13402570539E+03  0.13402570541E+03  0.25500000920E-02 0.  1.
        2   -1    0    0  501    0  0.00000000000E+00  0.00000000000E+00 -0.67189331605E+03  0.67189331606E+03  0.25500000920E-02 0. -1.
    10030    2    1    2    0    0  0.00000000000E+00  0.00000000000E+00 -0.53786761067E+03  0.80591902147E+03  0.60016989475E+03 0.  0.
        4    1    3    3  502    0  0.27226796699E+03  0.55436049838E+02 -0.11673639431E+03  0.30138347687E+03  0.12699999809E+01 0.  1.
       -4    1    3    3    0  502 -0.27226796699E+03 -0.55436049838E+02 -0.42113121636E+03  0.50453554460E+03  0.12699999809E+01 0. -1.
</event>
<event>
 5   0  0.9428629E-03  0.6004671E+03  0.7818609E-02  0.9904437E-01
       -2   -1    0    0    0  501  0.00000000000E+00  0.00000000000E+00  0.39619701355E+02  0.39619701437E+02  0.25500000920E-02 0.  1.
        2   -1    0    0  501    0  0.00000000000E+00  0.00000000000E+00 -0.22751353997E+04  0.22751353997E+04  0.25500000920E-02 0. -1.
    10030    2    1    2    0    0  0.00000000000E+00  0.00000000000E+00 -0.22355156984E+04  0.23147551012E+04  0.60046710210E+03 0.  0.
        3    1    3    3  502    0  0.15286831320E+03 -0.99358947646E+02 -0.19822104835E+03  0.26931861404E+03  0.10100000352E+00 0.  1.
       -3    1    3    3    0  502 -0.15286831320E+03  0.99358947646E+02 -0.20372946500E+04  0.20454364871E+04  0.10100000352E+00 0. -1.
</event>
<event>
 5   0  0.3794375E-03  0.6000909E+03  0.7818609E-02  0.9905218E-01
        3   -1    0    0  501    0  0.00000000000E+00  0.00000000000E+00  0.11672844557E+03  0.11672848926E+03  0.10100000352E+00 0.  1.
       -3   -1    0    0    0  501  0.00000000000E+00  0.00000000000E+00 -0.77125368305E+03  0.77125368966E+03  0.10100000352E+00 0. -1.
    10030    2    1    2    0    0  0.00000000000E+00  0.00000000000E+00 -0.65452523748E+03  0.88798217893E+03  0.60009087945E+03 0.  0.
        2    1    3    3  502    0  0.91306292962E+02 -0.16592417911E+03  0.17107073115E+02  0.19015868191E+03  0.25500000920E-02 0.  1.
       -2    1    3    3    0  502 -0.91306292962E+02  0.16592417911E+03 -0.67163231060E+03  0.69782349702E+03  0.25500000920E-02 0. -1.
</event>
<event>
 5   0  0.5491236E-03  0.5999816E+03  0.7818609E-02  0.9905444E-01
        1   -1    0    0  501    0  0.00000000000E+00  0.00000000000E+00  0.14823222085E+03  0.14823222093E+03  0.50400001928E-02 0. -1.
       -1   -1    0    0    0  501  0.00000000000E+00  0.00000000000E+00 -0.60711816485E+03  0.60711816487E+03  0.50400001928E-02 0.  1.
    10030    2    1    2    0    0  0.00000000000E+00  0.00000000000E+00 -0.45888594400E+03  0.75535038580E+03  0.59998157949E+03 0.  0.
        3    1    3    3  502    0 -0.10444774752E+03 -0.24292754053E+03 -0.40780349698E+03  0.48603171117E+03  0.10100000352E+00 0.  1.
       -3    1    3    3    0  502  0.10444774752E+03  0.24292754053E+03 -0.51082447019E+02  0.26931867463E+03  0.10100000352E+00 0. -1.
</event>
<event>
 5   0  0.9866317E-03  0.5964855E+03  0.7818609E-02  0.9912725E-01
       -2   -1    0    0    0  501  0.00000000000E+00  0.00000000000E+00  0.10646361333E+03  0.10646361336E+03  0.25500000920E-02 0. -1.
        2   -1    0    0  501    0  0.00000000000E+00  0.00000000000E+00 -0.83548479253E+03  0.83548479253E+03  0.25500000920E-02 0.  1.
    10030    2    1    2    0    0  0.00000000000E+00  0.00000000000E+00 -0.72902117920E+03  0.94194840590E+03  0.59648547313E+03 0.  0.
        1    1    3    3  502    0  0.10433528872E+02  0.14415172759E+03  0.47467099983E+02  0.15212397805E+03  0.50400001928E-02 0. -1.
       -1    1    3    3    0  502 -0.10433528872E+02 -0.14415172759E+03 -0.77648827918E+03  0.78982442785E+03  0.50400001928E-02 0.  1.
</event>
<event>
 5   0  0.5785798E-03  0.5977749E+03  0.7818609E-02  0.9910033E-01
       -1   -1    0    0    0  501  0.00000000000E+00  0.00000000000E+00  0.20093720005E+03  0.20093720011E+03  0.50400001928E-02 0.  1.
        1   -1    0    0  501    0  0.00000000000E+00  0.00000000000E+00 -0.44458528463E+03  0.44458528466E+03  0.50400001928E-02 0. -1.
    10030    2    1    2    0    0  0.00000000000E+00  0.00000000000E+00 -0.24364808458E+03  0.64552248477E+03  0.59777494864E+03 0.  0.
        1    1    3    3  502    0  0.19613375203E+02 -0.29280064378E+03 -0.60576721302E+02  0.29964385640E+03  0.50400001928E-02 0. -1.
       -1    1    3    3    0  502 -0.19613375203E+02  0.29280064378E+03 -0.18307136328E+03  0.34587862837E+03  0.50400001928E-02 0.  1.
</event>
<event>
 5   0  0.9681801E-03  0.6006508E+03  0.7818609E-02  0.9904057E-01
       -2   -1    0    0    0  501  0.00000000000E+00  0.00000000000E+00  0.18403336800E+03  0.18403336802E+03  0.25500000920E-02 0.  1.
        2   -1    0    0  501    0  0.00000000000E+00  0.00000000000E+00 -0.49010320090E+03  0.49010320091E+03  0.25500000920E-02 0. -1.
    10030    2    1    2    0    0  0.00000000000E+00  0.00000000000E+00 -0.30606983290E+03  0.67413656893E+03  0.60065078952E+03 0.  0.
        4    1    3    3  502    0  0.14184464906E+03  0.25554651539E+03 -0.75521640184E+02  0.30187589674E+03  0.12699999809E+01 0.  1.
       -4    1    3    3    0  502 -0.14184464906E+03 -0.25554651539E+03 -0.23054819272E+03  0.37226067219E+03  0.12699999809E+01 0. -1.
</event>
<event>
 5   0  0.9681801E-03  0.5988361E+03  0.7818609E-02  0.9907824E-01
       -2   -1    0    0    0  501  0.00000000000E+00  0.00000000000E+00  0.17005771918E+03  0.17005771920E+03  0.25500000920E-02 0. -1.
        2   -1    0    0  501    0  0.00000000000E+00  0.00000000000E+00 -0.52718086226E+03  0.52718086227E+03  0.25500000920E-02 0.  1.
    10030    2    1    2    0    0  0.00000000000E+00  0.00000000000E+00 -0.35712314308E+03  0.69723858147E+03  0.59883612129E+03 0.  0.
        4    1    3    3  502    0 -0.10457165626E+03  0.71959395799E+01  0.14799425001E+03  0.18135855032E+03  0.12699999809E+01 0. -1.
       -4    1    3    3    0  502  0.10457165626E+03 -0.71959395799E+01 -0.50511739309E+03  0.51588003115E+03  0.12699999809E+01 0.  1.
</event>
<event>
 5   0  0.5574736E-03  0.5999877E+03  0.7818609E-02  0.9905432E-01
       -1   -1    0    0    0  501  0.00000000000E+00  0.00000000000E+00  0.24741922379E+03  0.24741922384E+03  0.50400001928E-02 0.  1.
        1   -1    0    0  501    0  0.00000000000E+00  0.00000000000E+00 -0.36374016951E+03  0.36374016955E+03  0.50400001928E-02 0. -1.
    10030    2    1    2    0    0  0.00000000000E+00  0.00000000000E+00 -0.11632094572E+03  0.61115939339E+03  0.59998770130E+03 0.  0.
        5    1    3    3  502    0 -0.85695258502E+02 -0.21657631261E+03  0.13437011829E+03  0.26893567112E+03  0.46999998093E+01 0.  1.
       -5    1    3    3    0  502  0.85695258502E+02  0.21657631261E+03 -0.25069106401E+03  0.34222372227E+03  0.46999998093E+01 0. -1.
</event>
<event>
 5   0  0.9681801E-03  0.5951043E+03  0.7818609E-02  0.9915616E-01
       -2   -1    0    0    0  501  0.00000000000E+00  0.00000000000E+00  0.11243339452E+03  0.11243339455E+03  0.25500000920E-02 0.  1.
        2   -1    0    0  501    0  0.00000000000E+00  0.00000000000E+00 -0.78746415455E+03  0.78746415455E+03  0.25500000920E-02 0. -1.
    10030    2    1    2    0    0  0.00000000000E+00  0.00000000000E+00 -0.67503076003E+03  0.89989754910E+03  0.59510425296E+03 0.  0.
        4    1    3    3  502    0  0.63504616571E+02  0.53743164628E+02 -0.76951528692E+03  0.77400035774E+03  0.12699999809E+01 0. -1.
       -4    1    3    3    0  502 -0.63504616571E+02 -0.53743164628E+02  0.94484526895E+02  0.12589719136E+03  0.12699999809E+01 0.  1.
</event>
<event>
 5   0  0.9866317E-03  0.6002723E+03  0.7818609E-02  0.9904841E-01
        2   -1    0    0  501    0  0.00000000000E+00  0.00000000000E+00  0.37901326200E+03  0.37901326201E+03  0.25500000920E-02 0.  1.
       -2   -1    0    0    0  501  0.00000000000E+00  0.00000000000E+00 -0.23767426825E+03  0.23767426826E+03  0.25500000920E-02 0. -1.
    10030    2    1    2    0    0  0.00000000000E+00  0.00000000000E+00  0.14133899376E+03  0.61668753027E+03  0.60027227059E+03 0.  0.
        1    1    3    3  502    0  0.73526601396E+01  0.25322448914E+03 -0.94682198196E+02  0.27044670860E+03  0.50400001928E-02 0. -1.
       -1    1    3    3    0  502 -0.73526601396E+01 -0.25322448914E+03  0.23602119195E+03  0.34624082167E+03  0.50400001928E-02 0.  1.
</event>
<event>
 5   0  0.5503975E-03  0.5993115E+03  0.7818609E-02  0.9906835E-01
       -1   -1    0    0    0  501  0.00000000000E+00  0.00000000000E+00  0.14152034684E+03  0.14152034693E+03  0.50400001928E-02 0.  1.
        1   -1    0    0  501    0  0.00000000000E+00  0.00000000000E+00 -0.63449232544E+03  0.63449232546E+03  0.50400001928E-02 0. -1.
    10030    2    1    2    0    0  0.00000000000E+00  0.00000000000E+00 -0.49297197860E+03  0.77601267240E+03  0.59931151836E+03 0.  0.
        4    1    3    3  502    0 -0.29688710272E+03 -0.25959120578E+02 -0.28694085620E+03  0.41370580799E+03  0.12699999809E+01 0. -1.
       -4    1    3    3    0  502  0.29688710272E+03  0.25959120578E+02 -0.20603112239E+03  0.36230686441E+03  0.12699999809E+01 0.  1.
</event>
<event>
 5   0  0.5574736E-03  0.6017986E+03  0.7818609E-02  0.9901682E-01
       -1   -1    0    0    0  501  0.00000000000E+00  0.00000000000E+00  0.83143225519E+02  0.83143225672E+02  0.50400001928E-02 0. -1.
        1   -1    0    0  501    0  0.00000000000E+00  0.00000000000E+00 -0.10889688559E+04  0.10889688559E+04  0.50400001928E-02 0.  1.
    10030    2    1    2    0    0  0.00000000000E+00  0.00000000000E+00 -0.10058256304E+04  0.11721120816E+04  0.60179858180E+03 0.  0.
        5    1    3    3  502    0  0.12459789816E+03  0.21765681518E+03 -0.17922729115E+03  0.30829148109E+03  0.46999998093E+01 0. -1.
       -5    1    3    3    0  502 -0.12459789816E+03 -0.21765681518E+03 -0.82659833920E+03  0.86382060047E+03  0.46999998093E+01 0.  1.
</event>
<event>
 5   0  0.5491236E-03  0.5986566E+03  0.7818609E-02  0.9908197E-01
       -1   -1    0    0    0  501  0.00000000000E+00  0.00000000000E+00  0.26198052831E+03  0.26198052836E+03  0.50400001928E-02 0.  1.
        1   -1    0    0  501    0  0.00000000000E+00  0.00000000000E+00 -0.34200029397E+03  0.34200029401E+03  0.50400001928E-02 0. -1.
    10030    2    1    2    0    0  0.00000000000E+00  0.00000000000E+00 -0.80019765658E+02  0.60398082237E+03  0.59865655504E+03 0.  0.
        3    1    3    3  502    0  0.10438424392E+03 -0.51902097942E+02 -0.31815642017E+03  0.33884128445E+03  0.10100000352E+00 0. -1.
       -3    1    3    3    0  502 -0.10438424392E+03  0.51902097942E+02  0.23813665451E+03  0.26513953793E+03  0.10100000352E+00 0.  1.
</event>
<event>
 5   0  0.9681801E-03  0.6004671E+03  0.7818609E-02  0.9904437E-01
       -2   -1    0    0    0  501  0.00000000000E+00  0.00000000000E+00  0.11349004055E+03  0.11349004058E+03  0.25500000920E-02 0.  1.
        2   -1    0    0  501    0  0.00000000000E+00  0.00000000000E+00 -0.79425639840E+03  0.79425639840E+03  0.25500000920E-02 0. -1.
    10030    2    1    2    0    0  0.00000000000E+00  0.00000000000E+00 -0.68076635785E+03  0.90774643898E+03  0.60046712108E+03 0.  0.
        4    1    3    3  502    0 -0.73966034334E+01  0.10064095574E+03  0.87080144990E+02  0.13329619749E+03  0.12699999809E+01 0.  1.
       -4    1    3    3    0  502  0.73966034334E+01 -0.10064095574E+03 -0.76784650284E+03  0.77445024148E+03  0.12699999809E+01 0. -1.
</event>
<event>
 5   0  0.9866317E-03  0.6006473E+03  0.7818609E-02  0.9904064E-01
        2   -1    0    0  501    0  0.00000000000E+00  0.00000000000E+00  0.87245401227E+03  0.87245401227E+03  0.25500000920E-02 0.  1.
       -2   -1    0    0    0  501  0.00000000000E+00  0.00000000000E+00 -0.10337999299E+03  0.10337999302E+03  0.25500000920E-02 0. -1.
    10030    2    1    2    0    0  0.00000000000E+00  0.00000000000E+00  0.76907401928E+03  0.97583400529E+03  0.60064728316E+03 0.  0.
        1    1    3    3  502    0  0.23040826531E+03  0.16542044948E+03  0.22417949495E+03  0.36153608369E+03  0.50400001928E-02 0.  1.
       -1    1    3    3    0  502 -0.23040826531E+03 -0.16542044948E+03  0.54489452432E+03  0.61429792160E+03  0.50400001928E-02 0. -1.
</event>
<event>
 5   0  0.9530666E-03  0.5998361E+03  0.7818609E-02  0.9905746E-01
       -2   -1    0    0    0  501  0.00000000000E+00  0.00000000000E+00  0.34367219146E+03  0.34367219147E+03  0.25500000920E-02 0.  1.
        2   -1    0    0  501    0  0.00000000000E+00  0.00000000000E+00 -0.26173441194E+03  0.26173441196E+03  0.25500000920E-02 0. -1.
    10030    2    1    2    0    0  0.00000000000E+00  0.00000000000E+00  0.81937779517E+02  0.60540660343E+03  0.59983610742E+03 0.  0.
        2    1    3    3  502    0  0.31346101158E+02  0.25729357175E+03 -0.11132400769E+03  0.28209146533E+03  0.25500000920E-02 0. -1.
       -2    1    3    3    0  502 -0.31346101158E+02 -0.25729357175E+03  0.19326178721E+03  0.32331513809E+03  0.25500000920E-02 0.  1.
</event>
<event>
 5   0  0.9571790E-03  0.5996581E+03  0.7818609E-02  0.9906116E-01
        2   -1    0    0  501    0  0.00000000000E+00  0.00000000000E+00  0.81217003549E+03  0.81217003550E+03  0.25500000920E-02 0. -1.
       -2   -1    0    0    0  501  0.00000000000E+00  0.00000000000E+00 -0.11068797321E+03  0.11068797324E+03  0.25500000920E-02 0.  1.
    10030    2    1    2    0    0  0.00000000000E+00  0.00000000000E+00  0.70148206228E+03  0.92285800873E+03  0.59965808640E+03 0.  0.
        5    1    3    3  502    0  0.34588757304E+02  0.18181858755E+02  0.80817724431E+03  0.80913503838E+03  0.46999998093E+01 0. -1.
       -5    1    3    3    0  502 -0.34588757304E+02 -0.18181858755E+02 -0.10669518203E+03  0.11372297035E+03  0.46999998093E+01 0.  1.
</event>
<event>
 5   0  0.9530666E-03  0.5984016E+03  0.7818609E-02  0.9908728E-01
        2   -1    0    0  501    0  0.00000000000E+00  0.00000000000E+00  0.15441568893E+04  0.15441568893E+04  0.25500000920E-02 0.  1.
       -2   -1    0    0    0  501  0.00000000000E+00  0.00000000000E+00 -0.57974111086E+02  0.57974111143E+02  0.25500000920E-02 0. -1.
    10030    2    1    2    0    0  0.00000000000E+00  0.00000000000E+00  0.14861827783E+04  0.16021310005E+04  0.59840161459E+03 0.  0.
        2    1    3    3  502    0  0.29213427603E+03 -0.16598305889E+02  0.91036012875E+03  0.95622879219E+03  0.25500000920E-02 0.  1.
       -2    1    3    3    0  502 -0.29213427603E+03  0.16598305889E+02  0.57582264951E+03  0.64590220830E+03  0.25500000920E-02 0. -1.
</event>
<event>
 5   0  0.5491236E-03  0.6002190E+03  0.7818609E-02  0.9904952E-01
       -1   -1    0    0    0  501  0.00000000000E+00  0.00000000000E+00  0.15216975347E+03  0.15216975355E+03  0.50400001928E-02 0.  1.
        1   -1    0    0  501    0  0.00000000000E+00  0.00000000000E+00 -0.59187661313E+03  0.59187661315E+03  0.50400001928E-02 0. -1.
    10030    2    1    2    0    0  0.00000000000E+00  0.00000000000E+00 -0.43970685966E+03  0.74404636670E+03  0.60021902117E+03 0.  0.
        3    1    3    3  502    0 -0.13087048948E+03 -0.15178859069E+03 -0.49676142845E+03  0.53566667647E+03  0.10100000352E+00 0. -1.
       -3    1    3    3    0  502  0.13087048948E+03  0.15178859069E+03  0.57054568790E+02  0.20837969023E+03  0.10100000352E+00 0.  1.
</event>
<event>
 5   0  0.9866317E-03  0.5992681E+03  0.7818609E-02  0.9906926E-01
        2   -1    0    0  501    0  0.00000000000E+00  0.00000000000E+00  0.42157216381E+03  0.42157216382E+03  0.25500000920E-02 0. -1.
       -2   -1    0    0    0  501  0.00000000000E+00  0.00000000000E+00 -0.21296603613E+03  0.21296603614E+03  0.25500000920E-02 0.  1.
    10030    2    1    2    0    0  0.00000000000E+00  0.00000000000E+00  0.20860612768E+03  0.63453819996E+03  0.59926806248E+03 0.  0.
        1    1    3    3  502    0  0.15924728378E+03 -0.96136603354E+02  0.35302953737E+03  0.39903859234E+03  0.50400001928E-02 0. -1.
       -1    1    3    3    0  502 -0.15924728378E+03  0.96136603354E+02 -0.14442340969E+03  0.23549960762E+03  0.50400001928E-02 0.  1.
</event>
<event>
 5   0  0.5653633E-03  0.6006093E+03  0.7818609E-02  0.9904143E-01
       -1   -1    0    0    0  501  0.00000000000E+00  0.00000000000E+00  0.16216686828E+03  0.16216686835E+03  0.50400001928E-02 0. -1.
        1   -1    0    0  501    0  0.00000000000E+00  0.00000000000E+00 -0.55611157813E+03  0.55611157815E+03  0.50400001928E-02 0.  1.
    10030    2    1    2    0    0  0.00000000000E+00  0.00000000000E+00 -0.39394470985E+03  0.71827844651E+03  0.60060926757E+03 0.  0.
        2    1    3    3  502    0 -0.50521964650E+02  0.24003815150E+03  0.10208168238E+02  0.24550965316E+03  0.25500000920E-02 0. -1.
       -2    1    3    3    0  502  0.50521964650E+02 -0.24003815150E+03 -0.40415287809E+03  0.47276879335E+03  0.25500000920E-02 0.  1.
</event>
<event>
 5   0  0.5503975E-03  0.5998690E+03  0.7818609E-02  0.9905678E-01
        1   -1    0    0  501    0  0.00000000000E+00  0.00000000000E+00  0.24501052864E+03  0.24501052869E+03  0.50400001928E-02 0.  1.
       -1   -1    0    0    0  501  0.00000000000E+00  0.00000000000E+00 -0.36717080819E+03  0.36717080822E+03  0.50400001928E-02 0. -1.
    10030    2    1    2    0    0  0.00000000000E+00  0.00000000000E+00 -0.12216027955E+03  0.61218133692E+03  0.59986903185E+03 0.  0.
        4    1    3    3  502    0 -0.19317240961E+03 -0.11628073633E+03 -0.26293345959E+03  0.34637033151E+03  0.12699999809E+01 0. -1.
       -4    1    3    3    0  502  0.19317240961E+03  0.11628073633E+03  0.14077318005E+03  0.26581100541E+03  0.12699999809E+01 0.  1.
</event>
<event>
 5   0  0.9428629E-03  0.6003652E+03  0.7818609E-02  0.9904649E-01
        2   -1    0    0  501    0  0.00000000000E+00  0.00000000000E+00  0.21423760218E+03  0.21423760219E+03  0.25500000920E-02 0. -1.
       -2   -1    0    0    0  501  0.00000000000E+00  0.00000000000E+00 -0.42060587393E+03  0.42060587394E+03  0.25500000920E-02 0.  1.
    10030    2    1    2    0    0  0.00000000000E+00  0.00000000000E+00 -0.20636827176E+03  0.63484347613E+03  0.60036520185E+03 0.  0.
        3    1    3    3  502    0 -0.12936897548E+02 -0.21761174448E+03  0.11503430710E+03  0.24648557091E+03  0.10100000352E+00 0. -1.
       -3    1    3    3    0  502  0.12936897548E+02  0.21761174448E+03 -0.32140257885E+03  0.38835790522E+03  0.10100000352E+00 0.  1.
</event>
<event>
 5   0  0.9571790E-03  0.5997278E+03  0.7818609E-02  0.9905971E-01
       -2   -1    0    0    0  501  0.00000000000E+00  0.00000000000E+00  0.10519241191E+03  0.10519241194E+03  0.25500000920E-02 0. -1.
        2   -1    0    0  501    0  0.00000000000E+00  0.00000000000E+00 -0.85479877856E+03  0.85479877857E+03  0.25500000920E-02 0.  1.
    10030    2    1    2    0    0  0.00000000000E+00  0.00000000000E+00 -0.74960636665E+03  0.95999119051E+03  0.59972775567E+03 0.  0.
        5    1    3    3  502    0  0.28894913374E+01  0.27284096939E+03 -0.17586549904E+03  0.32465567528E+03  0.46999998093E+01 0. -1.
       -5    1    3    3    0  502 -0.28894913374E+01 -0.27284096939E+03 -0.57374086762E+03  0.63533551523E+03  0.46999998093E+01 0.  1.
</event>
<event>
 5   0  0.3794375E-03  0.6000795E+03  0.7818609E-02  0.9905241E-01
       -3   -1    0    0    0  501  0.00000000000E+00  0.00000000000E+00  0.14118727351E+04  0.14118727387E+04  0.10100000352E+00 0.  1.
        3   -1    0    0  501    0  0.00000000000E+00  0.00000000000E+00 -0.63761970660E+02  0.63762050653E+02  0.10100000352E+00 0. -1.
    10030    2    1    2    0    0  0.00000000000E+00  0.00000000000E+00  0.13481107645E+04  0.14756347894E+04  0.60007949339E+03 0.  0.
        4    1    3    3  502    0  0.78548925158E+02 -0.24038243115E+03  0.27702031246E+03  0.37509400590E+03  0.12699999809E+01 0. -1.
       -4    1    3    3    0  502 -0.78548925158E+02  0.24038243115E+03  0.10710904520E+04  0.11005407835E+04  0.12699999809E+01 0.  1.
</event>
<event>
 5   0  0.5574736E-03  0.5992238E+03  0.7818609E-02  0.9907018E-01
       -1   -1    0    0    0  501  0.00000000000E+00  0.00000000000E+00  0.16664504156E+03  0.16664504164E+03  0.50400001928E-02 0. -1.
        1   -1    0    0  501    0  0.00000000000E+00  0.00000000000E+00 -0.53867363690E+03  0.53867363693E+03  0.50400001928E-02 0.  1.
    10030    2    1    2    0    0  0.00000000000E+00  0.00000000000E+00 -0.37202859534E+03  0.70531867857E+03  0.59922380008E+03 0.  0.
        5    1    3    3  502    0 -0.56042148189E+02 -0.17850462579E+03  0.89377509234E+02  0.20740070626E+03  0.46999998093E+01 0. -1.
       -5    1    3    3    0  502  0.56042148189E+02  0.17850462579E+03 -0.46140610458E+03  0.49791797230E+03  0.46999998093E+01 0.  1.
</event>
<event>
 5   0  0.9571790E-03  0.5994863E+03  0.7818609E-02  0.9906472E-01
        2   -1    0    0  501    0  0.00000000000E+00  0.00000000000E+00  0.12643430242E+04  0.12643430242E+04  0.25500000920E-02 0. -1.
       -2   -1    0    0    0  501  0.00000000000E+00  0.00000000000E+00 -0.71061383791E+02  0.71061383836E+02  0.25500000920E-02 0.  1.
    10030    2    1    2    0    0  0.00000000000E+00  0.00000000000E+00  0.11932816404E+04  0.13354044080E+04  0.59948632984E+03 0.  0.
        5    1    3    3  502    0  0.18141371514E+03  0.15635013084E+03  0.99802333580E+03  0.10263668780E+04  0.46999998093E+01 0.  1.
       -5    1    3    3    0  502 -0.18141371514E+03 -0.15635013084E+03  0.19525830460E+03  0.30903753003E+03  0.46999998093E+01 0. -1.
</event>
<event>
 5   0  0.9866317E-03  0.5990824E+03  0.7818609E-02  0.9907312E-01
       -2   -1    0    0    0  501  0.00000000000E+00  0.00000000000E+00  0.32511076367E+03  0.32511076368E+03  0.25500000920E-02 0.  1.
        2   -1    0    0  501    0  0.00000000000E+00  0.00000000000E+00 -0.27598260646E+03  0.27598260648E+03  0.25500000920E-02 0. -1.
    10030    2    1    2    0    0  0.00000000000E+00  0.00000000000E+00  0.49128157202E+02  0.60109337015E+03  0.59908235144E+03 0.  0.
        1    1    3    3  502    0 -0.21484788897E+03 -0.99434594913E+02 -0.15956778867E+03  0.28549734371E+03  0.50400001928E-02 0.  1.
       -1    1    3    3    0  502  0.21484788897E+03  0.99434594913E+02  0.20869594587E+03  0.31559602644E+03  0.50400001928E-02 0. -1.
</event>
<event>
 5   0  0.5503975E-03  0.6005345E+03  0.7818609E-02  0.9904298E-01
       -1   -1    0    0    0  501  0.00000000000E+00  0.00000000000E+00  0.67311796391E+02  0.67311796580E+02  0.50400001928E-02 0. -1.
        1   -1    0    0  501    0  0.00000000000E+00  0.00000000000E+00 -0.13394443772E+04  0.13394443772E+04  0.50400001928E-02 0.  1.
    10030    2    1    2    0    0  0.00000000000E+00  0.00000000000E+00 -0.12721325808E+04  0.14067561738E+04  0.60053445309E+03 0.  0.
        4    1    3    3  502    0 -0.13748302750E+03 -0.14882267574E+03 -0.11695371748E+03  0.23394349017E+03  0.12699999809E+01 0. -1.
       -4    1    3    3    0  502  0.13748302750E+03  0.14882267574E+03 -0.11551788633E+04  0.11728126836E+04  0.12699999809E+01 0.  1.
</event>
<event>
 5   0  0.3794375E-03  0.5993200E+03  0.7818609E-02  0.9906818E-01
       -3   -1    0    0    0  501  0.00000000000E+00  0.00000000000E+00  0.28907380926E+03  0.28907382690E+03  0.10100000352E+00 0.  1.
        3   -1    0    0  501    0  0.00000000000E+00  0.00000000000E+00 -0.31063384188E+03  0.31063385830E+03  0.10100000352E+00 0. -1.
    10030    2    1    2    0    0  0.00000000000E+00  0.00000000000E+00 -0.21560032621E+02  0.59970768520E+03  0.59932000858E+03 0.  0.
        1    1    3    3  502    0  0.10506930084E+03  0.26357676955E+03 -0.10719506347E+03  0.30332005058E+03  0.50400001928E-02 0.  1.
       -1    1    3    3    0  502 -0.10506930084E+03 -0.26357676955E+03  0.85635030848E+02  0.29638763463E+03  0.50400001928E-02 0. -1.
</event>
<event>
 5   0  0.5574736E-03  0.5995667E+03  0.7818609E-02  0.9906306E-01
        1   -1    0    0  501    0  0.00000000000E+00  0.00000000000E+00  0.38368896137E+03  0.38368896140E+03  0.50400001928E-02 0. -1.
       -1   -1    0    0    0  501  0.00000000000E+00  0.00000000000E+00 -0.23422629524E+03  0.23422629530E+03  0.50400001928E-02 0.  1.
    10030    2    1    2    0    0  0.00000000000E+00  0.00000000000E+00  0.14946266612E+03  0.61791525670E+03  0.59956665676E+03 0.  0.
        5    1    3    3  502    0 -0.37985560046E+02  0.29718945403E+03  0.65315003125E+02  0.30667998629E+03  0.46999998093E+01 0. -1.
       -5    1    3    3    0  502  0.37985560046E+02 -0.29718945403E+03  0.84147663000E+02  0.31123527041E+03  0.46999998093E+01 0.  1.
</event>
<event>
 5   0  0.9571790E-03  0.5999477E+03  0.7818609E-02  0.9905515E-01
       -2   -1    0    0    0  501  0.00000000000E+00  0.00000000000E+00  0.15984873086E+03  0.15984873088E+03  0.25500000920E-02 0.  1.
        2   -1    0    0  501    0  0.00000000000E+00  0.00000000000E+00 -0.56293414217E+03  0.56293414217E+03  0.25500000920E-02 0. -1.
    10030    2    1    2    0    0  0.00000000000E+00  0.00000000000E+00 -0.40308541131E+03  0.72278287305E+03  0.59994769169E+03 0.  0.
        5    1    3    3  502    0  0.16770899137E+03 -0.25544374156E+02 -0.49953927244E+03  0.52757975278E+03  0.46999998093E+01 0. -1.
       -5    1    3    3    0  502 -0.16770899137E+03  0.25544374156E+02  0.96453861131E+02  0.19520312027E+03  0.46999998093E+01 0.  1.
</event>
<event>
 5   0  0.9530666E-03  0.6001340E+03  0.7818609E-02  0.9905128E-01
       -2   -1    0    0    0  501  0.00000000000E+00  0.00000000000E+00  0.17329370581E+03  0.17329370583E+03  0.25500000920E-02 0. -1.
        2   -1    0    0  501    0  0.00000000000E+00  0.00000000000E+00 -0.51958143511E+03  0.51958143512E+03  0.25500000920E-02 0.  1.
    10030    2    1    2    0    0  0.00000000000E+00  0.00000000000E+00 -0.34628772930E+03  0.69287514095E+03  0.60013395961E+03 0.  0.
        2    1    3    3  502    0  0.22718573031E+03 -0.19589163639E+03 -0.16471472950E+03  0.34222482578E+03  0.25500000920E-02 0. -1.
       -2    1    3    3    0  502 -0.22718573031E+03  0.19589163639E+03 -0.18157299980E+03  0.35065031516E+03  0.25500000920E-02 0.  1.
</event>
<event>
 5   0  0.9428629E-03  0.5998077E+03  0.7818609E-02  0.9905805E-01
        2   -1    0    0  501    0  0.00000000000E+00  0.00000000000E+00  0.90463748767E+03  0.90463748768E+03  0.25500000920E-02 0. -1.
       -2   -1    0    0    0  501  0.00000000000E+00  0.00000000000E+00 -0.99423601386E+02  0.99423601418E+02  0.25500000920E-02 0.  1.
    10030    2    1    2    0    0  0.00000000000E+00  0.00000000000E+00  0.80521388629E+03  0.10040610891E+04  0.59980769249E+03 0.  0.
        3    1    3    3  502    0 -0.67069709883E+02  0.11206269974E+03  0.85453562228E+03  0.86445794264E+03  0.10100000352E+00 0. -1.
       -3    1    3    3    0  502  0.67069709883E+02 -0.11206269974E+03 -0.49321735989E+02  0.13960314645E+03  0.10100000352E+00 0.  1.
</event>
<event>
 5   0  0.5785798E-03  0.6000536E+03  0.7818609E-02  0.9905295E-01
        1   -1    0    0  501    0  0.00000000000E+00  0.00000000000E+00  0.71179659136E+03  0.71179659138E+03  0.50400001928E-02 0.  1.
       -1   -1    0    0    0  501  0.00000000000E+00  0.00000000000E+00 -0.12646321844E+03  0.12646321854E+03  0.50400001928E-02 0. -1.
    10030    2    1    2    0    0  0.00000000000E+00  0.00000000000E+00  0.58533337292E+03  0.83825980992E+03  0.60005362384E+03 0.  0.
        1    1    3    3  502    0 -0.22777082001E+03  0.19495240322E+03  0.27673248289E+03  0.40800349641E+03  0.50400001928E-02 0. -1.
       -1    1    3    3    0  502  0.22777082001E+03 -0.19495240322E+03  0.30860089003E+03  0.43025631352E+03  0.50400001928E-02 0.  1.
</event>
<event>
 5   0  0.9428629E-03  0.6001962E+03  0.7818609E-02  0.9904999E-01
        2   -1    0    0  501    0  0.00000000000E+00  0.00000000000E+00  0.99275504845E+03  0.99275504845E+03  0.25500000920E-02 0. -1.
       -2   -1    0    0    0  501  0.00000000000E+00  0.00000000000E+00 -0.90716108658E+02  0.90716108694E+02  0.25500000920E-02 0.  1.
    10030    2    1    2    0    0  0.00000000000E+00  0.00000000000E+00  0.90203893979E+03  0.10834711571E+04  0.60019621747E+03 0.  0.
        3    1    3    3  502    0 -0.11974694924E+03 -0.75139523785E+02  0.92888011841E+03  0.93957626857E+03  0.10100000352E+00 0. -1.
       -3    1    3    3    0  502  0.11974694924E+03  0.75139523785E+02 -0.26841178620E+02  0.14389488857E+03  0.10100000352E+00 0.  1.
</event>
<event>
 5   0  0.9571790E-03  0.5996691E+03  0.7818609E-02  0.9906093E-01
        2   -1    0    0  501    0  0.00000000000E+00  0.00000000000E+00  0.10495035209E+04  0.10495035209E+04  0.25500000920E-02 0. -1.
       -2   -1    0    0    0  501  0.00000000000E+00  0.00000000000E+00 -0.85660275142E+02  0.85660275180E+02  0.25500000920E-02 0.  1.
    10030    2    1    2    0    0  0.00000000000E+00  0.00000000000E+00  0.96384324573E+03  0.11351637961E+04  0.59966911004E+03 0.  0.
        5    1    3    3  502    0  0.20778939673E+03  0.85736178076E+02  0.85743701762E+03  0.88642397012E+03  0.46999998093E+01 0. -1.
       -5    1    3    3    0  502 -0.20778939673E+03 -0.85736178076E+02  0.10640622811E+03  0.24873982593E+03  0.46999998093E+01 0.  1.
</event>
<event>
 5   0  0.5503975E-03  0.6006195E+03  0.7818609E-02  0.9904122E-01
       -1   -1    0    0    0  501  0.00000000000E+00  0.00000000000E+00  0.43559836269E+02  0.43559836561E+02  0.50400001928E-02 0. -1.
        1   -1    0    0  501    0  0.00000000000E+00  0.00000000000E+00 -0.20703925202E+04  0.20703925202E+04  0.50400001928E-02 0.  1.
    10030    2    1    2    0    0  0.00000000000E+00  0.00000000000E+00 -0.20268326839E+04  0.21139523568E+04  0.60061954516E+03 0.  0.
        4    1    3    3  502    0  0.79534014178E+02  0.24711368095E+03 -0.48204100377E+03  0.54749974698E+03  0.12699999809E+01 0. -1.
       -4    1    3    3    0  502 -0.79534014178E+02 -0.24711368095E+03 -0.15447916801E+04  0.15664526098E+04  0.12699999809E+01 0.  1.
</event>
<event>
 5   0  0.5653633E-03  0.6002135E+03  0.7818609E-02  0.9904963E-01
       -1   -1    0    0    0  501  0.00000000000E+00  0.00000000000E+00  0.42492474682E+03  0.42492474685E+03  0.50400001928E-02 0.  1.
        1   -1    0    0  501    0  0.00000000000E+00  0.00000000000E+00 -0.21195297113E+03  0.21195297119E+03  0.50400001928E-02 0. -1.
    10030    2    1    2    0    0  0.00000000000E+00  0.00000000000E+00  0.21297177568E+03  0.63687771804E+03  0.60021350410E+03 0.  0.
        2    1    3    3  502    0  0.70893102894E+02 -0.24454170269E+03  0.27505352543E+03  0.37480784177E+03  0.25500000920E-02 0.  1.
       -2    1    3    3    0  502 -0.70893102894E+02  0.24454170269E+03 -0.62081749743E+02  0.26206987628E+03  0.25500000920E-02 0. -1.
</event>
<event>
 5   0  0.9681801E-03  0.5997977E+03  0.7818609E-02  0.9905826E-01
       -2   -1    0    0    0  501  0.00000000000E+00  0.00000000000E+00  0.10376285604E+03  0.10376285607E+03  0.25500000920E-02 0. -1.
        2   -1    0    0  501    0  0.00000000000E+00  0.00000000000E+00 -0.86677761653E+03  0.86677761654E+03  0.25500000920E-02 0.  1.
    10030    2    1    2    0    0  0.00000000000E+00  0.00000000000E+00 -0.76301476050E+03  0.97054047261E+03  0.59979770275E+03 0.  0.
        4    1    3    3  502    0  0.43019050897E+02 -0.43898499545E+02  0.93457693735E+02  0.11186451815E+03  0.12699999809E+01 0. -1.
       -4    1    3    3    0  502 -0.43019050897E+02  0.43898499545E+02 -0.85647245423E+03  0.85867595446E+03  0.12699999809E+01 0.  1.
</event>
<event>
 5   0  0.9681801E-03  0.5999596E+03  0.7818609E-02  0.9905490E-01
        2   -1    0    0  501    0  0.00000000000E+00  0.00000000000E+00  0.12670664401E+03  0.12670664404E+03  0.25500000920E-02 0. -1.
       -2   -1    0    0    0  501  0.00000000000E+00  0.00000000000E+00 -0.71020650606E+03  0.71020650606E+03  0.25500000920E-02 0.  1.
    10030    2    1    2    0    0  0.00000000000E+00  0.00000000000E+00 -0.58349986205E+03  0.83691315010E+03  0.59995960847E+03 0.  0.
        4    1    3    3  502    0 -0.13987162388E+03 -0.13828163311E+02  0.77927336550E+02  0.16071581114E+03  0.12699999809E+01 0. -1.
       -4    1    3    3    0  502  0.13987162388E+03  0.13828163311E+02 -0.66142719860E+03  0.67619733896E+03  0.12699999809E+01 0.  1.
</event>
<event>
 5   0  0.9530666E-03  0.6000269E+03  0.7818609E-02  0.9905350E-01
       -2   -1    0    0    0  501  0.00000000000E+00  0.00000000000E+00  0.27830060301E+03  0.27830060302E+03  0.25500000920E-02 0. -1.
        2   -1    0    0  501    0  0.00000000000E+00  0.00000000000E+00 -0.32342028268E+03  0.32342028269E+03  0.25500000920E-02 0.  1.
    10030    2    1    2    0    0  0.00000000000E+00  0.00000000000E+00 -0.45119679674E+02  0.60172088572E+03  0.60002686508E+03 0.  0.
        2    1    3    3  502    0  0.80022749302E+02  0.22972239498E+03 -0.19864612230E+03  0.31406416712E+03  0.25500000920E-02 0.  1.
       -2    1    3    3    0  502 -0.80022749302E+02 -0.22972239498E+03  0.15352644263E+03  0.28765671859E+03  0.25500000920E-02 0. -1.
</event>
<event>
 5   0  0.9866317E-03  0.6001262E+03  0.7818609E-02  0.9905144E-01
       -2   -1    0    0    0  501  0.00000000000E+00  0.00000000000E+00  0.35860729107E+03  0.35860729108E+03  0.25500000920E-02 0.  1.
        2   -1    0    0  501    0  0.00000000000E+00  0.00000000000E+00 -0.25107646315E+03  0.25107646317E+03  0.25500000920E-02 0. -1.
    10030    2    1    2    0    0  0.00000000000E+00  0.00000000000E+00  0.10753082792E+03  0.60968375425E+03  0.60012615444E+03 0.  0.
        1    1    3    3  502    0  0.28461276980E+03 -0.94155242786E+02  0.40589210110E+02  0.30251797051E+03  0.50400001928E-02 0.  1.
       -1    1    3    3    0  502 -0.28461276980E+03  0.94155242786E+02  0.66941617809E+02  0.30716578374E+03  0.50400001928E-02 0. -1.
</event>
<event>
 5   0  0.9681801E-03  0.5996935E+03  0.7818609E-02  0.9906042E-01
        2   -1    0    0  501    0  0.00000000000E+00  0.00000000000E+00  0.87595281176E+03  0.87595281176E+03  0.25500000920E-02 0. -1.
       -2   -1    0    0    0  501  0.00000000000E+00  0.00000000000E+00 -0.10264031235E+03  0.10264031238E+03  0.25500000920E-02 0.  1.
    10030    2    1    2    0    0  0.00000000000E+00  0.00000000000E+00  0.77331249941E+03  0.97859312414E+03  0.59969348911E+03 0.  0.
        4    1    3    3  502    0 -0.14032901757E+03  0.61969471097E+02  0.80706510046E+03  0.82151575627E+03  0.12699999809E+01 0. -1.
       -4    1    3    3    0  502  0.14032901757E+03 -0.61969471097E+02 -0.33752601052E+02  0.15707736787E+03  0.12699999809E+01 0.  1.
</event>
<event>
 5   0  0.9571790E-03  0.6001974E+03  0.7818609E-02  0.9904997E-01
        2   -1    0    0  501    0  0.00000000000E+00  0.00000000000E+00  0.76798953921E+03  0.76798953921E+03  0.25500000920E-02 0.  1.
       -2   -1    0    0    0  501  0.00000000000E+00  0.00000000000E+00 -0.11726623614E+03  0.11726623617E+03  0.25500000920E-02 0. -1.
    10030    2    1    2    0    0  0.00000000000E+00  0.00000000000E+00  0.65072330306E+03  0.88525577538E+03  0.60019744309E+03 0.  0.
        5    1    3    3  502    0 -0.72057596288E+02  0.28580475895E+03  0.40828029701E+03  0.50357874096E+03  0.46999998093E+01 0.  1.
       -5    1    3    3    0  502  0.72057596288E+02 -0.28580475895E+03  0.24244300605E+03  0.38167703442E+03  0.46999998093E+01 0. -1.
</event>
<event>
 5   0  0.3794375E-03  0.5995697E+03  0.7818609E-02  0.9906299E-01
        3   -1    0    0  501    0  0.00000000000E+00  0.00000000000E+00  0.38503023658E+03  0.38503024982E+03  0.10100000352E+00 0.  1.
       -3   -1    0    0    0  501  0.00000000000E+00  0.00000000000E+00 -0.23341268722E+03  0.23341270907E+03  0.10100000352E+00 0. -1.
    10030    2    1    2    0    0  0.00000000000E+00  0.00000000000E+00  0.15161754936E+03  0.61844295890E+03  0.59956968914E+03 0.  0.
        1    1    3    3  502    0  0.12725833624E+03  0.17370601301E+03  0.29094673040E+03  0.36196472626E+03  0.50400001928E-02 0.  1.
       -1    1    3    3    0  502 -0.12725833624E+03 -0.17370601301E+03 -0.13932918105E+03  0.25647823264E+03  0.50400001928E-02 0. -1.
</event>
<event>
 5   0  0.5785798E-03  0.5997767E+03  0.7818609E-02  0.9905869E-01
        1   -1    0    0  501    0  0.00000000000E+00  0.00000000000E+00  0.68086685266E+03  0.68086685268E+03  0.50400001928E-02 0.  1.
       -1   -1    0    0    0  501  0.00000000000E+00  0.00000000000E+00 -0.13208605687E+03  0.13208605696E+03  0.50400001928E-02 0. -1.
    10030    2    1    2    0    0  0.00000000000E+00  0.00000000000E+00  0.54878079579E+03  0.81295290964E+03  0.59977668466E+03 0.  0.
        1    1    3    3  502    0  0.25149917939E+03 -0.61436547139E+02  0.47953371381E+03  0.54495767657E+03  0.50400001928E-02 0. -1.
       -1    1    3    3    0  502 -0.25149917939E+03  0.61436547139E+02  0.69247081985E+02  0.26799523306E+03  0.50400001928E-02 0.  1.
</event>
<event>
 5   0  0.5785798E-03  0.5987075E+03  0.7818609E-02  0.9908091E-01
       -1   -1    0    0    0  501  0.00000000000E+00  0.00000000000E+00  0.90203274401E+02  0.90203274542E+02  0.50400001928E-02 0.  1.
        1   -1    0    0  501    0  0.00000000000E+00  0.00000000000E+00 -0.99345263150E+03  0.99345263152E+03  0.50400001928E-02 0. -1.
    10030    2    1    2    0    0  0.00000000000E+00  0.00000000000E+00 -0.90324935710E+03  0.10836559061E+04  0.59870754265E+03 0.  0.
        1    1    3    3  502    0  0.11064486128E+03  0.40877364724E+02 -0.94961739968E+03  0.95691506942E+03  0.50400001928E-02 0. -1.
       -1    1    3    3    0  502 -0.11064486128E+03 -0.40877364724E+02  0.46368042576E+02  0.12674083664E+03  0.50400001928E-02 0.  1.
</event>
<event>
 5   0  0.5503975E-03  0.5994435E+03  0.7818609E-02  0.9906561E-01
       -1   -1    0    0    0  501  0.00000000000E+00  0.00000000000E+00  0.17787468039E+03  0.17787468046E+03  0.50400001928E-02 0. -1.
        1   -1    0    0  501    0  0.00000000000E+00  0.00000000000E+00 -0.50503610275E+03  0.50503610278E+03  0.50400001928E-02 0.  1.
    10030    2    1    2    0    0  0.00000000000E+00  0.00000000000E+00 -0.32716142236E+03  0.68291078324E+03  0.59944352661E+03 0.  0.
        4    1    3    3  502    0 -0.15972544789E+03 -0.13889825196E+03  0.78160210425E+02  0.22564479718E+03  0.12699999809E+01 0. -1.
       -4    1    3    3    0  502  0.15972544789E+03  0.13889825196E+03 -0.40532163279E+03  0.45726598606E+03  0.12699999809E+01 0.  1.
</event>
<event>
 5   0  0.5785798E-03  0.6006369E+03  0.7818609E-02  0.9904086E-01
       -1   -1    0    0    0  501  0.00000000000E+00  0.00000000000E+00  0.70146377182E+02  0.70146377363E+02  0.50400001928E-02 0.  1.
        1   -1    0    0  501    0  0.00000000000E+00  0.00000000000E+00 -0.12857567078E+04  0.12857567078E+04  0.50400001928E-02 0. -1.
    10030    2    1    2    0    0  0.00000000000E+00  0.00000000000E+00 -0.12156103306E+04  0.13559030851E+04  0.60063691234E+03 0.  0.
        1    1    3    3  502    0  0.61168583328E+02  0.28500799794E+03 -0.44470562406E+03  0.53172760561E+03  0.50400001928E-02 0.  1.
       -1    1    3    3    0  502 -0.61168583328E+02 -0.28500799794E+03 -0.77090470652E+03  0.82417547951E+03  0.50400001928E-02 0. -1.
</event>
<event>
 5   0  0.9866317E-03  0.5999852E+03  0.7818609E-02  0.9905437E-01
       -2   -1    0    0    0  501  0.00000000000E+00  0.00000000000E+00  0.35982804733E+03  0.35982804734E+03  0.25500000920E-02 0.  1.
        2   -1    0    0  501    0  0.00000000000E+00  0.00000000000E+00 -0.25010711110E+03  0.25010711112E+03  0.25500000920E-02 0. -1.
    10030    2    1    2    0    0  0.00000000000E+00  0.00000000000E+00  0.10972093623E+03  0.60993515846E+03  0.59998517788E+03 0.  0.
        1    1    3    3  502    0 -0.77664846464E+02 -0.19476164834E+03  0.27296832047E+03  0.34420289372E+03  0.50400001928E-02 0.  1.
       -1    1    3    3    0  502  0.77664846464E+02  0.19476164834E+03 -0.16324738424E+03  0.26573226474E+03  0.50400001928E-02 0. -1.
</event>
<event>
 5   0  0.9681801E-03  0.5972702E+03  0.7818609E-02  0.9911086E-01
       -2   -1    0    0    0  501  0.00000000000E+00  0.00000000000E+00  0.12855474825E+03  0.12855474828E+03  0.25500000920E-02 0. -1.
        2   -1    0    0  501    0  0.00000000000E+00  0.00000000000E+00 -0.69373501643E+03  0.69373501643E+03  0.25500000920E-02 0.  1.
    10030    2    1    2    0    0  0.00000000000E+00  0.00000000000E+00 -0.56518026818E+03  0.82228976471E+03  0.59727022495E+03 0.  0.
        4    1    3    3  502    0 -0.10440922376E+03 -0.14287796396E+03 -0.61377115964E+03  0.63877386288E+03  0.12699999809E+01 0.  1.
       -4    1    3    3    0  502  0.10440922376E+03  0.14287796396E+03  0.48590891464E+02  0.18351590183E+03  0.12699999809E+01 0. -1.
</event>
<event>
 5   0  0.9530666E-03  0.6014170E+03  0.7818609E-02  0.9902471E-01
        2   -1    0    0  501    0  0.00000000000E+00  0.00000000000E+00  0.53556135708E+03  0.53556135708E+03  0.25500000920E-02 0.  1.
       -2   -1    0    0    0  501  0.00000000000E+00  0.00000000000E+00 -0.16884265605E+03  0.16884265607E+03  0.25500000920E-02 0. -1.
    10030    2    1    2    0    0  0.00000000000E+00  0.00000000000E+00  0.36671870102E+03  0.70440401316E+03  0.60141700015E+03 0.  0.
        2    1    3    3  502    0 -0.18982038515E+03 -0.22246066815E+03  0.10133006548E+03  0.30949686537E+03  0.25500000920E-02 0.  1.
       -2    1    3    3    0  502  0.18982038515E+03  0.22246066815E+03  0.26538863554E+03  0.39490714779E+03  0.25500000920E-02 0. -1.
</event>
<event>
 5   0  0.5574736E-03  0.5996592E+03  0.7818609E-02  0.9906113E-01
       -1   -1    0    0    0  501  0.00000000000E+00  0.00000000000E+00  0.10101192604E+03  0.10101192617E+03  0.50400001928E-02 0.  1.
        1   -1    0    0  501    0  0.00000000000E+00  0.00000000000E+00 -0.88997188674E+03  0.88997188676E+03  0.50400001928E-02 0. -1.
    10030    2    1    2    0    0  0.00000000000E+00  0.00000000000E+00 -0.78895996070E+03  0.99098381293E+03  0.59965915143E+03 0.  0.
        5    1    3    3  502    0 -0.99340546253E+01  0.14821613759E+03 -0.82481400624E+03  0.83809721618E+03  0.46999998093E+01 0. -1.
       -5    1    3    3    0  502  0.99340546253E+01 -0.14821613759E+03  0.35854045542E+02  0.15288659674E+03  0.46999998093E+01 0.  1.
</event>
<event>
 5   0  0.5491236E-03  0.5994376E+03  0.7818609E-02  0.9906574E-01
       -1   -1    0    0    0  501  0.00000000000E+00  0.00000000000E+00  0.15607156217E+03  0.15607156225E+03  0.50400001928E-02 0.  1.
        1   -1    0    0  501    0  0.00000000000E+00  0.00000000000E+00 -0.57557797888E+03  0.57557797890E+03  0.50400001928E-02 0. -1.
    10030    2    1    2    0    0  0.00000000000E+00  0.00000000000E+00 -0.41950641671E+03  0.73164954115E+03  0.59943758424E+03 0.  0.
        3    1    3    3  502    0 -0.88774256012E+02 -0.98258399061E+02  0.11842939582E+03  0.17765447788E+03  0.10100000352E+00 0.  1.
       -3    1    3    3    0  502  0.88774256012E+02  0.98258399061E+02 -0.53793581253E+03  0.55399506326E+03  0.10100000352E+00 0. -1.
</event>
<event>
 5   0  0.9866317E-03  0.6020537E+03  0.7818609E-02  0.9901154E-01
       -2   -1    0    0    0  501  0.00000000000E+00  0.00000000000E+00  0.20030724034E+03  0.20030724035E+03  0.25500000920E-02 0. -1.
        2   -1    0    0  501    0  0.00000000000E+00  0.00000000000E+00 -0.45239092313E+03  0.45239092314E+03  0.25500000920E-02 0.  1.
    10030    2    1    2    0    0  0.00000000000E+00  0.00000000000E+00 -0.25208368279E+03  0.65269816349E+03  0.60205374302E+03 0.  0.
        1    1    3    3  502    0  0.79663378328E+02  0.50116836513E+02 -0.43603029397E+03  0.44607215608E+03  0.50400001928E-02 0.  1.
       -1    1    3    3    0  502 -0.79663378328E+02 -0.50116836513E+02  0.18394661117E+03  0.20662600741E+03  0.50400001928E-02 0. -1.
</event>
<event>
 5   0  0.5503975E-03  0.5991927E+03  0.7818609E-02  0.9907082E-01
       -1   -1    0    0    0  501  0.00000000000E+00  0.00000000000E+00  0.11725086229E+03  0.11725086239E+03  0.50400001928E-02 0. -1.
        1   -1    0    0  501    0  0.00000000000E+00  0.00000000000E+00 -0.76552082307E+03  0.76552082308E+03  0.50400001928E-02 0.  1.
    10030    2    1    2    0    0  0.00000000000E+00  0.00000000000E+00 -0.64826996078E+03  0.88277168548E+03  0.59919271243E+03 0.  0.
        4    1    3    3  502    0 -0.39701443973E+02 -0.16223150163E+03  0.42294737107E+02  0.17229545108E+03  0.12699999809E+01 0. -1.
       -4    1    3    3    0  502  0.39701443973E+02  0.16223150163E+03 -0.69056469789E+03  0.71047623440E+03  0.12699999809E+01 0.  1.
</event>
<event>
 5   0  0.5785798E-03  0.5993287E+03  0.7818609E-02  0.9906800E-01
        1   -1    0    0  501    0  0.00000000000E+00  0.00000000000E+00  0.17994973708E+04  0.17994973708E+04  0.50400001928E-02 0.  1.
       -1   -1    0    0    0  501  0.00000000000E+00  0.00000000000E+00 -0.49902118673E+02  0.49902118927E+02  0.50400001928E-02 0. -1.
    10030    2    1    2    0    0  0.00000000000E+00  0.00000000000E+00  0.17495952521E+04  0.18493994897E+04  0.59932872979E+03 0.  0.
        1    1    3    3  502    0 -0.23898038092E+03 -0.73652587730E+02  0.13843017723E+04  0.14067081158E+04  0.50400001928E-02 0.  1.
       -1    1    3    3    0  502  0.23898038092E+03  0.73652587730E+02  0.36529347976E+03  0.44269137390E+03  0.50400001928E-02 0. -1.
</event>
<event>
 5   0  0.5785798E-03  0.5987854E+03  0.7818609E-02  0.9907929E-01
        1   -1    0    0  501    0  0.00000000000E+00  0.00000000000E+00  0.75275183094E+03  0.75275183096E+03  0.50400001928E-02 0.  1.
       -1   -1    0    0    0  501  0.00000000000E+00  0.00000000000E+00 -0.11907772893E+03  0.11907772904E+03  0.50400001928E-02 0. -1.
    10030    2    1    2    0    0  0.00000000000E+00  0.00000000000E+00  0.63367410200E+03  0.87182956000E+03  0.59878536566E+03 0.  0.
        1    1    3    3  502    0 -0.13390154878E+03 -0.21616825616E+03  0.86726727693E+02  0.26866310699E+03  0.50400001928E-02 0. -1.
       -1    1    3    3    0  502  0.13390154878E+03  0.21616825616E+03  0.54694737431E+03  0.60316645300E+03  0.50400001928E-02 0.  1.
</event>
<event>
 5   0  0.3794375E-03  0.6004917E+03  0.7818609E-02  0.9904387E-01
       -3   -1    0    0    0  501  0.00000000000E+00  0.00000000000E+00  0.58030941745E+03  0.58030942624E+03  0.10100000352E+00 0.  1.
        3   -1    0    0  501    0  0.00000000000E+00  0.00000000000E+00 -0.15534393479E+03  0.15534396763E+03  0.10100000352E+00 0. -1.
    10030    2    1    2    0    0  0.00000000000E+00  0.00000000000E+00  0.42496548265E+03  0.73565339387E+03  0.60049167726E+03 0.  0.
        2    1    3    3  502    0  0.16725287132E+03 -0.21247257809E+03  0.52612920825E+02  0.27547457024E+03  0.25500000920E-02 0. -1.
       -2    1    3    3    0  502 -0.16725287132E+03  0.21247257809E+03  0.37235256183E+03  0.46017882362E+03  0.25500000920E-02 0.  1.
</event>
<event>
 5   0  0.5574736E-03  0.5997054E+03  0.7818609E-02  0.9906017E-01
       -1   -1    0    0    0  501  0.00000000000E+00  0.00000000000E+00  0.16765358104E+03  0.16765358112E+03  0.50400001928E-02 0. -1.
        1   -1    0    0  501    0  0.00000000000E+00  0.00000000000E+00 -0.53629427758E+03  0.53629427760E+03  0.50400001928E-02 0.  1.
    10030    2    1    2    0    0  0.00000000000E+00  0.00000000000E+00 -0.36864069654E+03  0.70394785872E+03  0.59970544824E+03 0.  0.
        5    1    3    3  502    0  0.30301252928E+02 -0.27506831893E+03 -0.48903632700E+02  0.28105942663E+03  0.46999998093E+01 0. -1.
       -5    1    3    3    0  502 -0.30301252928E+02  0.27506831893E+03 -0.31973706384E+03  0.42288843209E+03  0.46999998093E+01 0.  1.
</event>
<event>
 5   0  0.5491236E-03  0.5998197E+03  0.7818609E-02  0.9905780E-01
       -1   -1    0    0    0  501  0.00000000000E+00  0.00000000000E+00  0.47262620282E+03  0.47262620285E+03  0.50400001928E-02 0. -1.
        1   -1    0    0  501    0  0.00000000000E+00  0.00000000000E+00 -0.19031090033E+03  0.19031090039E+03  0.50400001928E-02 0.  1.
    10030    2    1    2    0    0  0.00000000000E+00  0.00000000000E+00  0.28231530250E+03  0.66293710324E+03  0.59981970027E+03 0.  0.
        3    1    3    3  502    0  0.18493868205E+03  0.20628288364E+03  0.26809512914E+03  0.38552555386E+03  0.10100000352E+00 0. -1.
       -3    1    3    3    0  502 -0.18493868205E+03 -0.20628288364E+03  0.14220173353E+02  0.27741154939E+03  0.10100000352E+00 0.  1.
</event>
<event>
 5   0  0.9681801E-03  0.5999687E+03  0.7818609E-02  0.9905471E-01
       -2   -1    0    0    0  501  0.00000000000E+00  0.00000000000E+00  0.34133776741E+03  0.34133776742E+03  0.25500000920E-02 0. -1.
        2   -1    0    0  501    0  0.00000000000E+00  0.00000000000E+00 -0.26364089748E+03  0.26364089749E+03  0.25500000920E-02 0.  1.
    10030    2    1    2    0    0  0.00000000000E+00  0.00000000000E+00  0.77696869932E+02  0.60497866491E+03  0.59996865035E+03 0.  0.
        4    1    3    3  502    0 -0.19444558919E+03  0.22366423081E+03 -0.79525757917E+01  0.29647872042E+03  0.12699999809E+01 0.  1.
       -4    1    3    3    0  502  0.19444558919E+03 -0.22366423081E+03  0.85649445723E+02  0.30849994449E+03  0.12699999809E+01 0. -1.
</event>
<event>
 5   0  0.9866317E-03  0.5995009E+03  0.7818609E-02  0.9906442E-01
       -2   -1    0    0    0  501  0.00000000000E+00  0.00000000000E+00  0.24347804522E+03  0.24347804524E+03  0.25500000920E-02 0. -1.
        2   -1    0    0  501    0  0.00000000000E+00  0.00000000000E+00 -0.36902843881E+03  0.36902843882E+03  0.25500000920E-02 0.  1.
    10030    2    1    2    0    0  0.00000000000E+00  0.00000000000E+00 -0.12555039359E+03  0.61250648406E+03  0.59950086879E+03 0.  0.
        1    1    3    3  502    0 -0.26280458201E+03 -0.89323756372E+02 -0.17839080010E+03  0.32995190462E+03  0.50400001928E-02 0.  1.
       -1    1    3    3    0  502  0.26280458201E+03  0.89323756372E+02  0.52840406511E+02  0.28255457944E+03  0.50400001928E-02 0. -1.
</event>
<event>
 5   0  0.5503975E-03  0.5993026E+03  0.7818609E-02  0.9906854E-01
        1   -1    0    0  501    0  0.00000000000E+00  0.00000000000E+00  0.36942728897E+03  0.36942728901E+03  0.50400001928E-02 0. -1.
       -1   -1    0    0    0  501  0.00000000000E+00  0.00000000000E+00 -0.24305432433E+03  0.24305432438E+03  0.50400001928E-02 0.  1.
    10030    2    1    2    0    0  0.00000000000E+00  0.00000000000E+00  0.12637296464E+03  0.61248161339E+03  0.59930259515E+03 0.  0.
        4    1    3    3  502    0  0.25220295431E+03  0.15428232167E+03  0.13329236219E+02  0.29595379095E+03  0.12699999809E+01 0. -1.
       -4    1    3    3    0  502 -0.25220295431E+03 -0.15428232167E+03  0.11304372842E+03  0.31652782244E+03  0.12699999809E+01 0.  1.
</event>
<event>
 5   0  0.9571790E-03  0.6070810E+03  0.7818609E-02  0.9890823E-01
       -2   -1    0    0    0  501  0.00000000000E+00  0.00000000000E+00  0.59705312470E+02  0.59705312524E+02  0.25500000920E-02 0.  1.
        2   -1    0    0  501    0  0.00000000000E+00  0.00000000000E+00 -0.15431931092E+04  0.15431931092E+04  0.25500000920E-02 0. -1.
    10030    2    1    2    0    0  0.00000000000E+00  0.00000000000E+00 -0.14834877968E+04  0.16028984218E+04  0.60708097263E+03 0.  0.
        5    1    3    3  502    0  0.13617074013E+03 -0.28708755217E+02 -0.14538916856E+04  0.14605443460E+04  0.46999998093E+01 0. -1.
       -5    1    3    3    0  502 -0.13617074013E+03  0.28708755217E+02 -0.29596111138E+02  0.14235407576E+03  0.46999998093E+01 0.  1.
</event>
<event>
 5   0  0.5503975E-03  0.5998653E+03  0.7818609E-02  0.9905686E-01
       -1   -1    0    0    0  501  0.00000000000E+00  0.00000000000E+00  0.22004656493E+03  0.22004656499E+03  0.50400001928E-02 0.  1.
        1   -1    0    0  501    0  0.00000000000E+00  0.00000000000E+00 -0.40882068453E+03  0.40882068456E+03  0.50400001928E-02 0. -1.
    10030    2    1    2    0    0  0.00000000000E+00  0.00000000000E+00 -0.18877411960E+03  0.62886724955E+03  0.59986527598E+03 0.  0.
        4    1    3    3  502    0 -0.92554355289E+02 -0.11749548984E+03 -0.36693013699E+03  0.39624593013E+03  0.12699999809E+01 0. -1.
       -4    1    3    3    0  502  0.92554355289E+02  0.11749548984E+03  0.17815601739E+03  0.23262131942E+03  0.12699999809E+01 0.  1.
</event>
<event>
 5   0  0.5785798E-03  0.5997748E+03  0.7818609E-02  0.9905873E-01
        1   -1    0    0  501    0  0.00000000000E+00  0.00000000000E+00  0.26579016069E+03  0.26579016074E+03  0.50400001928E-02 0. -1.
       -1   -1    0    0    0  501  0.00000000000E+00  0.00000000000E+00 -0.33835881590E+03  0.33835881594E+03  0.50400001928E-02 0.  1.
    10030    2    1    2    0    0  0.00000000000E+00  0.00000000000E+00 -0.72568655214E+02  0.60414897668E+03  0.59977477131E+03 0.  0.
        1    1    3    3  502    0 -0.57923974971E+02  0.24775129307E+03  0.12360755806E+03  0.28286873021E+03  0.50400001928E-02 0. -1.
       -1    1    3    3    0  502  0.57923974971E+02 -0.24775129307E+03 -0.19617621327E+03  0.32128024647E+03  0.50400001928E-02 0.  1.
</event>
<event>
 5   0  0.5785798E-03  0.5997681E+03  0.7818609E-02  0.9905887E-01
        1   -1    0    0  501    0  0.00000000000E+00  0.00000000000E+00  0.41582766344E+03  0.41582766347E+03  0.50400001928E-02 0.  1.
       -1   -1    0    0    0  501  0.00000000000E+00  0.00000000000E+00 -0.21626853906E+03  0.21626853912E+03  0.50400001928E-02 0. -1.
    10030    2    1    2    0    0  0.00000000000E+00  0.00000000000E+00  0.19955912438E+03  0.63209620259E+03  0.59976809286E+03 0.  0.
        1    1    3    3  502    0 -0.21935242032E+03 -0.70312312126E+02 -0.10258901626E+03  0.25215830706E+03  0.50400001928E-02 0. -1.
       -1    1    3    3    0  502  0.21935242032E+03  0.70312312126E+02  0.30214814065E+03  0.37993789553E+03  0.50400001928E-02 0.  1.
</event>
<event>
 5   0  0.5491236E-03  0.6002373E+03  0.7818609E-02  0.9904914E-01
        1   -1    0    0  501    0  0.00000000000E+00  0.00000000000E+00  0.25044226006E+03  0.25044226011E+03  0.50400001928E-02 0. -1.
       -1   -1    0    0    0  501  0.00000000000E+00  0.00000000000E+00 -0.35964861652E+03  0.35964861655E+03  0.50400001928E-02 0.  1.
    10030    2    1    2    0    0  0.00000000000E+00  0.00000000000E+00 -0.10920635646E+03  0.61009087666E+03  0.60023732764E+03 0.  0.
        3    1    3    3  502    0 -0.21347811992E+03 -0.75294527884E+02  0.14568245291E+03  0.26919428096E+03  0.10100000352E+00 0.  1.
       -3    1    3    3    0  502  0.21347811992E+03  0.75294527884E+02 -0.25488880937E+03  0.34089659570E+03  0.10100000352E+00 0. -1.
</event>
<event>
 5   0  0.9571790E-03  0.5999272E+03  0.7818609E-02  0.9905557E-01
       -2   -1    0    0    0  501  0.00000000000E+00  0.00000000000E+00  0.70789771473E+02  0.70789771519E+02  0.25500000920E-02 0. -1.
        2   -1    0    0  501    0  0.00000000000E+00  0.00000000000E+00 -0.12710616471E+04  0.12710616471E+04  0.25500000920E-02 0.  1.
    10030    2    1    2    0    0  0.00000000000E+00  0.00000000000E+00 -0.12002718756E+04  0.13418514186E+04  0.59992720744E+03 0.  0.
        5    1    3    3  502    0 -0.89018680411E+01 -0.29935346113E+03 -0.56377092765E+03  0.63839759304E+03  0.46999998093E+01 0.  1.
       -5    1    3    3    0  502  0.89018680411E+01  0.29935346113E+03 -0.63650094795E+03  0.70345382555E+03  0.46999998093E+01 0. -1.
</event>
<event>
 5   0  0.9866317E-03  0.5961600E+03  0.7818609E-02  0.9913405E-01
        2   -1    0    0  501    0  0.00000000000E+00  0.00000000000E+00  0.75420485757E+03  0.75420485758E+03  0.25500000920E-02 0. -1.
       -2   -1    0    0    0  501  0.00000000000E+00  0.00000000000E+00 -0.11780842326E+03  0.11780842329E+03  0.25500000920E-02 0.  1.
    10030    2    1    2    0    0  0.00000000000E+00  0.00000000000E+00  0.63639643431E+03  0.87201328087E+03  0.59615999564E+03 0.  0.
        1    1    3    3  502    0 -0.22599503154E+03 -0.14048708954E+03  0.51466733057E+03  0.57939005669E+03  0.50400001928E-02 0.  1.
       -1    1    3    3    0  502  0.22599503154E+03  0.14048708954E+03  0.12172910374E+03  0.29262322418E+03  0.50400001928E-02 0. -1.
</event>
<event>
 5   0  0.5503975E-03  0.6002162E+03  0.7818609E-02  0.9904958E-01
       -1   -1    0    0    0  501  0.00000000000E+00  0.00000000000E+00  0.14398363248E+03  0.14398363257E+03  0.50400001928E-02 0.  1.
        1   -1    0    0  501    0  0.00000000000E+00  0.00000000000E+00 -0.62552164056E+03  0.62552164058E+03  0.50400001928E-02 0. -1.
    10030    2    1    2    0    0  0.00000000000E+00  0.00000000000E+00 -0.48153800808E+03  0.76950527316E+03  0.60021622120E+03 0.  0.
        4    1    3    3  502    0  0.87041000538E+02 -0.14136231256E+02  0.12699588863E+03  0.15461415665E+03  0.12699999809E+01 0.  1.
       -4    1    3    3    0  502 -0.87041000538E+02  0.14136231256E+02 -0.60853389671E+03  0.61489111650E+03  0.12699999809E+01 0. -1.
</event>
<event>
 5   0  0.5491236E-03  0.6033844E+03  0.7818609E-02  0.9898409E-01
       -1   -1    0    0    0  501  0.00000000000E+00  0.00000000000E+00  0.12209696145E+03  0.12209696155E+03  0.50400001928E-02 0.  1.
        1   -1    0    0  501    0  0.00000000000E+00  0.00000000000E+00 -0.74545811803E+03  0.74545811805E+03  0.50400001928E-02 0. -1.
    10030    2    1    2    0    0  0.00000000000E+00  0.00000000000E+00 -0.62336115658E+03  0.86755507960E+03  0.60338435894E+03 0.  0.
        3    1    3    3  502    0  0.29988476424E+03 -0.31874431344E+02 -0.32382222192E+03  0.44250163028E+03  0.10100000352E+00 0.  1.
       -3    1    3    3    0  502 -0.29988476424E+03  0.31874431344E+02 -0.29953893467E+03  0.42505344932E+03  0.10100000352E+00 0. -1.
</event>
<event>
 5   0  0.9571790E-03  0.5980561E+03  0.7818609E-02  0.9909447E-01
       -2   -1    0    0    0  501  0.00000000000E+00  0.00000000000E+00  0.15721238733E+03  0.15721238735E+03  0.25500000920E-02 0.  1.
        2   -1    0    0  501    0  0.00000000000E+00  0.00000000000E+00 -0.56877052871E+03  0.56877052872E+03  0.25500000920E-02 0. -1.
    10030    2    1    2    0    0  0.00000000000E+00  0.00000000000E+00 -0.41155814138E+03  0.72598291607E+03  0.59805609326E+03 0.  0.
        5    1    3    3  502    0  0.28039389113E+03  0.93732632293E+02 -0.15163917814E+03  0.33229967031E+03  0.46999998093E+01 0. -1.
       -5    1    3    3    0  502 -0.28039389113E+03 -0.93732632293E+02 -0.25991896324E+03  0.39368324576E+03  0.46999998093E+01 0.  1.
</event>
<event>
 5   0  0.5491236E-03  0.5996043E+03  0.7818609E-02  0.9906227E-01
        1   -1    0    0  501    0  0.00000000000E+00  0.00000000000E+00  0.55455440098E+03  0.55455440101E+03  0.50400001928E-02 0.  1.
       -1   -1    0    0    0  501  0.00000000000E+00  0.00000000000E+00 -0.16207847093E+03  0.16207847101E+03  0.50400001928E-02 0. -1.
    10030    2    1    2    0    0  0.00000000000E+00  0.00000000000E+00  0.39247593006E+03  0.71663287201E+03  0.59960430083E+03 0.  0.
        3    1    3    3  502    0 -0.21138540815E+03 -0.11391066475E+03  0.41077757358E+03  0.47581262644E+03  0.10100000352E+00 0.  1.
       -3    1    3    3    0  502  0.21138540815E+03  0.11391066475E+03 -0.18301643522E+02  0.24082024558E+03  0.10100000352E+00 0. -1.
</event>
<event>
 5   0  0.5785798E-03  0.5978850E+03  0.7818609E-02  0.9909804E-01
        1   -1    0    0  501    0  0.00000000000E+00  0.00000000000E+00  0.17028619207E+03  0.17028619214E+03  0.50400001928E-02 0. -1.
       -1   -1    0    0    0  501  0.00000000000E+00  0.00000000000E+00 -0.52480251365E+03  0.52480251367E+03  0.50400001928E-02 0.  1.
    10030    2    1    2    0    0  0.00000000000E+00  0.00000000000E+00 -0.35451632158E+03  0.69508870581E+03  0.59788501125E+03 0.  0.
        1    1    3    3  502    0 -0.27098943738E+02  0.34567778644E+01 -0.52334829706E+03  0.52406081911E+03  0.50400001928E-02 0.  1.
       -1    1    3    3    0  502  0.27098943738E+02 -0.34567778644E+01  0.16883197547E+03  0.17102788671E+03  0.50400001928E-02 0. -1.
</event>
<event>
 5   0  0.9681801E-03  0.6005738E+03  0.7818609E-02  0.9904216E-01
        2   -1    0    0  501    0  0.00000000000E+00  0.00000000000E+00  0.63147956545E+03  0.63147956546E+03  0.25500000920E-02 0.  1.
       -2   -1    0    0    0  501  0.00000000000E+00  0.00000000000E+00 -0.14279514482E+03  0.14279514485E+03  0.25500000920E-02 0. -1.
    10030    2    1    2    0    0  0.00000000000E+00  0.00000000000E+00  0.48868442063E+03  0.77427471031E+03  0.60057377902E+03 0.  0.
        4    1    3    3  502    0 -0.11198920811E+03  0.15813978562E+03  0.54008049427E+03  0.57379293105E+03  0.12699999809E+01 0.  1.
       -4    1    3    3    0  502  0.11198920811E+03 -0.15813978562E+03 -0.51396073639E+02  0.20048177926E+03  0.12699999809E+01 0. -1.
</event>
<event>
 5   0  0.9530666E-03  0.5976999E+03  0.7818609E-02  0.9910190E-01
        2   -1    0    0  501    0  0.00000000000E+00  0.00000000000E+00  0.19085422246E+03  0.19085422248E+03  0.25500000920E-02 0.  1.
       -2   -1    0    0    0  501  0.00000000000E+00  0.00000000000E+00 -0.46795557442E+03  0.46795557443E+03  0.25500000920E-02 0. -1.
    10030    2    1    2    0    0  0.00000000000E+00  0.00000000000E+00 -0.27710135196E+03  0.65880979690E+03  0.59769991571E+03 0.  0.
        2    1    3    3  502    0 -0.15775087366E+03  0.14850554596E+03  0.88340002413E+02  0.23397262950E+03  0.25500000920E-02 0.  1.
       -2    1    3    3    0  502  0.15775087366E+03 -0.14850554596E+03 -0.36544135437E+03  0.42483716741E+03  0.25500000920E-02 0. -1.
</event>
<event>
 5   0  0.5653633E-03  0.5999964E+03  0.7818609E-02  0.9905413E-01
       -1   -1    0    0    0  501  0.00000000000E+00  0.00000000000E+00  0.19216982237E+03  0.19216982243E+03  0.50400001928E-02 0.  1.
        1   -1    0    0  501    0  0.00000000000E+00  0.00000000000E+00 -0.46833020002E+03  0.46833020005E+03  0.50400001928E-02 0. -1.
    10030    2    1    2    0    0  0.00000000000E+00  0.00000000000E+00 -0.27616037766E+03  0.66050002248E+03  0.59999643792E+03 0.  0.
        2    1    3    3  502    0 -0.17319647883E+03  0.19598925711E+03  0.23672576769E+02  0.26261987753E+03  0.25500000920E-02 0.  1.
       -2    1    3    3    0  502  0.17319647883E+03 -0.19598925711E+03 -0.29983295442E+03  0.39788014495E+03  0.25500000920E-02 0. -1.
</event>
<event>
 5   0  0.9530666E-03  0.5876209E+03  0.7818609E-02  0.9931427E-01
        2   -1    0    0  501    0  0.00000000000E+00  0.00000000000E+00  0.71566900833E+03  0.71566900833E+03  0.25500000920E-02 0.  1.
       -2   -1    0    0    0  501  0.00000000000E+00  0.00000000000E+00 -0.12062080174E+03  0.12062080177E+03  0.25500000920E-02 0. -1.
    10030    2    1    2    0    0  0.00000000000E+00  0.00000000000E+00  0.59504820659E+03  0.83628981011E+03  0.58762086274E+03 0.  0.
        2    1    3    3  502    0  0.42036578743E+02  0.10549050631E+03 -0.88126611782E+02  0.14374150613E+03  0.25500000920E-02 0. -1.
       -2    1    3    3    0  502 -0.42036578743E+02 -0.10549050631E+03  0.68317481837E+03  0.69254830397E+03  0.25500000920E-02 0.  1.
</event>
<event>
 5   0  0.5653633E-03  0.5981712E+03  0.7818609E-02  0.9909208E-01
        1   -1    0    0  501    0  0.00000000000E+00  0.00000000000E+00  0.11848327917E+04  0.11848327917E+04  0.50400001928E-02 0. -1.
       -1   -1    0    0    0  501  0.00000000000E+00  0.00000000000E+00 -0.75497733857E+02  0.75497734025E+02  0.50400001928E-02 0.  1.
    10030    2    1    2    0    0  0.00000000000E+00  0.00000000000E+00  0.11093350578E+04  0.12603305257E+04  0.59817118247E+03 0.  0.
        2    1    3    3  502    0  0.16822526823E+03  0.23412985769E+03  0.72237595817E+03  0.77778117493E+03  0.25500000920E-02 0. -1.
       -2    1    3    3    0  502 -0.16822526823E+03 -0.23412985769E+03  0.38695909966E+03  0.48254935079E+03  0.25500000920E-02 0.  1.
</event>
<event>
 5   0  0.5574736E-03  0.5997528E+03  0.7818609E-02  0.9905919E-01
       -1   -1    0    0    0  501  0.00000000000E+00  0.00000000000E+00  0.15488540671E+03  0.15488540679E+03  0.50400001928E-02 0. -1.
        1   -1    0    0  501    0  0.00000000000E+00  0.00000000000E+00 -0.58059600959E+03  0.58059600961E+03  0.50400001928E-02 0.  1.
    10030    2    1    2    0    0  0.00000000000E+00  0.00000000000E+00 -0.42571060288E+03  0.73548141640E+03  0.59975277946E+03 0.  0.
        5    1    3    3  502    0  0.86366470893E+02  0.42635981625E+02 -0.56106354751E+03  0.56929024984E+03  0.46999998093E+01 0.  1.
       -5    1    3    3    0  502 -0.86366470893E+02 -0.42635981625E+02  0.13535294463E+03  0.16619116656E+03  0.46999998093E+01 0. -1.
</event>
<event>
 5   0  0.5785798E-03  0.5997764E+03  0.7818609E-02  0.9905870E-01
        1   -1    0    0  501    0  0.00000000000E+00  0.00000000000E+00  0.69231581569E+03  0.69231581571E+03  0.50400001928E-02 0.  1.
       -1   -1    0    0    0  501  0.00000000000E+00  0.00000000000E+00 -0.12990159042E+03  0.12990159051E+03  0.50400001928E-02 0. -1.
    10030    2    1    2    0    0  0.00000000000E+00  0.00000000000E+00  0.56241422528E+03  0.82221740622E+03  0.59977637692E+03 0.  0.
        1    1    3    3  502    0 -0.18289837385E+03  0.65715898765E+02  0.59430247742E+03  0.62527260391E+03  0.50400001928E-02 0.  1.
       -1    1    3    3    0  502  0.18289837385E+03 -0.65715898765E+02 -0.31888252143E+02  0.19694480231E+03  0.50400001928E-02 0. -1.
</event>
<event>
 5   0  0.9530666E-03  0.5931986E+03  0.7818609E-02  0.9919618E-01
       -2   -1    0    0    0  501  0.00000000000E+00  0.00000000000E+00  0.18705086408E+03  0.18705086410E+03  0.25500000920E-02 0.  1.
        2   -1    0    0  501    0  0.00000000000E+00  0.00000000000E+00 -0.47030600108E+03  0.47030600109E+03  0.25500000920E-02 0. -1.
    10030    2    1    2    0    0  0.00000000000E+00  0.00000000000E+00 -0.28325513700E+03  0.65735686519E+03  0.59319859708E+03 0.  0.
        2    1    3    3  502    0 -0.23432151333E+03  0.11246882156E+03  0.16708318207E+02  0.26045148365E+03  0.25500000920E-02 0.  1.
       -2    1    3    3    0  502  0.23432151333E+03 -0.11246882156E+03 -0.29996345521E+03  0.39690538154E+03  0.25500000920E-02 0. -1.
</event>
<event>
 5   0  0.9681801E-03  0.5996639E+03  0.7818609E-02  0.9906104E-01
       -2   -1    0    0    0  501  0.00000000000E+00  0.00000000000E+00  0.48371864911E+03  0.48371864912E+03  0.25500000920E-02 0.  1.
        2   -1    0    0  501    0  0.00000000000E+00  0.00000000000E+00 -0.18585018617E+03  0.18585018619E+03  0.25500000920E-02 0. -1.
    10030    2    1    2    0    0  0.00000000000E+00  0.00000000000E+00  0.29786846294E+03  0.66956883531E+03  0.59966390920E+03 0.  0.
        4    1    3    3  502    0 -0.15699253128E+03 -0.25209309227E+03  0.10289664433E+03  0.31430385674E+03  0.12699999809E+01 0. -1.
       -4    1    3    3    0  502  0.15699253128E+03  0.25209309227E+03  0.19497181860E+03  0.35526497857E+03  0.12699999809E+01 0.  1.
</event>
<event>
 5   0  0.9866317E-03  0.6000165E+03  0.7818609E-02  0.9905372E-01
        2   -1    0    0  501    0  0.00000000000E+00  0.00000000000E+00  0.82790527396E+03  0.82790527396E+03  0.25500000920E-02 0. -1.
       -2   -1    0    0    0  501  0.00000000000E+00  0.00000000000E+00 -0.10871405228E+03  0.10871405231E+03  0.25500000920E-02 0.  1.
    10030    2    1    2    0    0  0.00000000000E+00  0.00000000000E+00  0.71919122168E+03  0.93661932627E+03  0.60001645728E+03 0.  0.
        1    1    3    3  502    0  0.47103933874E+02 -0.13674186492E+03  0.76989483325E+03  0.78336145712E+03  0.50400001928E-02 0. -1.
       -1    1    3    3    0  502 -0.47103933874E+02  0.13674186492E+03 -0.50703611569E+02  0.15325786916E+03  0.50400001928E-02 0.  1.
</event>
<event>
 5   0  0.9866317E-03  0.5992491E+03  0.7818609E-02  0.9906965E-01
        2   -1    0    0  501    0  0.00000000000E+00  0.00000000000E+00  0.12876345031E+04  0.12876345031E+04  0.25500000920E-02 0. -1.
       -2   -1    0    0    0  501  0.00000000000E+00  0.00000000000E+00 -0.69720778050E+02  0.69720778097E+02  0.25500000920E-02 0.  1.
    10030    2    1    2    0    0  0.00000000000E+00  0.00000000000E+00  0.12179137250E+04  0.13573552812E+04  0.59924912826E+03 0.  0.
        1    1    3    3  502    0  0.76485504275E+02 -0.25568011439E+03  0.30043378678E+03  0.40184924228E+03  0.50400001928E-02 0.  1.
       -1    1    3    3    0  502 -0.76485504275E+02  0.25568011439E+03  0.91747993822E+03  0.95550603887E+03  0.50400001928E-02 0. -1.
</event>
<event>
 5   0  0.5653633E-03  0.6005410E+03  0.7818609E-02  0.9904284E-01
       -1   -1    0    0    0  501  0.00000000000E+00  0.00000000000E+00  0.38327923592E+03  0.38327923595E+03  0.50400001928E-02 0. -1.
        1   -1    0    0  501    0  0.00000000000E+00  0.00000000000E+00 -0.23523937442E+03  0.23523937447E+03  0.50400001928E-02 0.  1.
    10030    2    1    2    0    0  0.00000000000E+00  0.00000000000E+00  0.14803986149E+03  0.61851861042E+03  0.60054098182E+03 0.  0.
        2    1    3    3  502    0 -0.31163292706E+02  0.15334963335E+00  0.38160914967E+03  0.38287950774E+03  0.25500000920E-02 0. -1.
       -2    1    3    3    0  502  0.31163292706E+02 -0.15334963335E+00 -0.23356928818E+03  0.23563910268E+03  0.25500000920E-02 0.  1.
</event>
<event>
 5   0  0.3794375E-03  0.6004502E+03  0.7818609E-02  0.9904473E-01
       -4   -1    0    0    0  501  0.00000000000E+00  0.00000000000E+00  0.33222946686E+03  0.33223189424E+03  0.12699999809E+01 0.  1.
        4   -1    0    0  501    0  0.00000000000E+00  0.00000000000E+00 -0.27129886392E+03  0.27130183646E+03  0.12699999809E+01 0. -1.
    10030    2    1    2    0    0  0.00000000000E+00  0.00000000000E+00  0.60930602942E+02  0.60353373070E+03  0.60045018588E+03 0.  0.
        1    1    3    3  502    0 -0.24778699008E+03 -0.66948702156E+02 -0.12607331455E+03  0.28596328757E+03  0.50400001928E-02 0. -1.
       -1    1    3    3    0  502  0.24778699008E+03  0.66948702156E+02  0.18700391749E+03  0.31757044313E+03  0.50400001928E-02 0.  1.
</event>
<event>
 5   0  0.9866317E-03  0.6010469E+03  0.7818609E-02  0.9903236E-01
        2   -1    0    0  501    0  0.00000000000E+00  0.00000000000E+00  0.55574723692E+03  0.55574723693E+03  0.25500000920E-02 0.  1.
       -2   -1    0    0    0  501  0.00000000000E+00  0.00000000000E+00 -0.16250974478E+03  0.16250974480E+03  0.25500000920E-02 0. -1.
    10030    2    1    2    0    0  0.00000000000E+00  0.00000000000E+00  0.39323749214E+03  0.71825698173E+03  0.60104689217E+03 0.  0.
        1    1    3    3  502    0  0.16999814314E+03 -0.12112236117E+03  0.45498515381E+03  0.50058114753E+03  0.50400001928E-02 0.  1.
       -1    1    3    3    0  502 -0.16999814314E+03  0.12112236117E+03 -0.61747661674E+02  0.21767583420E+03  0.50400001928E-02 0. -1.
</event>
<event>
 5   0  0.9571790E-03  0.5989965E+03  0.7818609E-02  0.9907490E-01
        2   -1    0    0  501    0  0.00000000000E+00  0.00000000000E+00  0.12547627902E+04  0.12547627902E+04  0.25500000920E-02 0.  1.
       -2   -1    0    0    0  501  0.00000000000E+00  0.00000000000E+00 -0.71486987036E+02  0.71486987082E+02  0.25500000920E-02 0. -1.
    10030    2    1    2    0    0  0.00000000000E+00  0.00000000000E+00  0.11832758031E+04  0.13262497772E+04  0.59899653203E+03 0.  0.
        5    1    3    3  502    0 -0.68285768344E+01 -0.15463999092E+03  0.24041327557E+02  0.15671704337E+03  0.46999998093E+01 0. -1.
       -5    1    3    3    0  502  0.68285768344E+01  0.15463999092E+03  0.11592344756E+04  0.11695327339E+04  0.46999998093E+01 0.  1.
</event>
<event>
 5   0  0.9681801E-03  0.5896415E+03  0.7818609E-02  0.9927133E-01
        2   -1    0    0  501    0  0.00000000000E+00  0.00000000000E+00  0.81118233341E+02  0.81118233381E+02  0.25500000920E-02 0. -1.
       -2   -1    0    0    0  501  0.00000000000E+00  0.00000000000E+00 -0.10715135092E+04  0.10715135092E+04  0.25500000920E-02 0.  1.
    10030    2    1    2    0    0  0.00000000000E+00  0.00000000000E+00 -0.99039527589E+03  0.11526317426E+04  0.58964152803E+03 0.  0.
        4    1    3    3  502    0 -0.21492500384E+03  0.90903510644E+01 -0.88928411724E+03  0.91493346525E+03  0.12699999809E+01 0.  1.
       -4    1    3    3    0  502  0.21492500384E+03 -0.90903510644E+01 -0.10111115865E+03  0.23769827737E+03  0.12699999809E+01 0. -1.
</event>
<event>
 5   0  0.5785798E-03  0.5999191E+03  0.7818609E-02  0.9905574E-01
       -1   -1    0    0    0  501  0.00000000000E+00  0.00000000000E+00  0.98908724165E+02  0.98908724293E+02  0.50400001928E-02 0. -1.
        1   -1    0    0  501    0  0.00000000000E+00  0.00000000000E+00 -0.90968435184E+03  0.90968435186E+03  0.50400001928E-02 0.  1.
    10030    2    1    2    0    0  0.00000000000E+00  0.00000000000E+00 -0.81077562768E+03  0.10085930762E+04  0.59991905689E+03 0.  0.
        1    1    3    3  502    0 -0.13686939164E+03  0.74974458303E+02 -0.83605898573E+03  0.85049928125E+03  0.50400001928E-02 0.  1.
       -1    1    3    3    0  502  0.13686939164E+03 -0.74974458303E+02  0.25283358051E+02  0.15809379490E+03  0.50400001928E-02 0. -1.
</event>
<event>
 5   0  0.9428629E-03  0.5992036E+03  0.7818609E-02  0.9907060E-01
        2   -1    0    0  501    0  0.00000000000E+00  0.00000000000E+00  0.46747602924E+03  0.46747602925E+03  0.25500000920E-02 0. -1.
       -2   -1    0    0    0  501  0.00000000000E+00  0.00000000000E+00 -0.19201252560E+03  0.19201252561E+03  0.25500000920E-02 0.  1.
    10030    2    1    2    0    0  0.00000000000E+00  0.00000000000E+00  0.27546350364E+03  0.65948855486E+03  0.59920364831E+03 0.  0.
        3    1    3    3  502    0  0.47320252329E+02 -0.19414727755E+03 -0.10795024791E+03  0.22712471879E+03  0.10100000352E+00 0.  1.
       -3    1    3    3    0  502 -0.47320252329E+02  0.19414727755E+03  0.38341375156E+03  0.43236383607E+03  0.10100000352E+00 0. -1.
</event>
<event>
 5   0  0.9866317E-03  0.6004841E+03  0.7818609E-02  0.9904402E-01
       -2   -1    0    0    0  501  0.00000000000E+00  0.00000000000E+00  0.61910067822E+02  0.61910067875E+02  0.25500000920E-02 0.  1.
        2   -1    0    0  501    0  0.00000000000E+00  0.00000000000E+00 -0.14560685224E+04  0.14560685224E+04  0.25500000920E-02 0. -1.
    10030    2    1    2    0    0  0.00000000000E+00  0.00000000000E+00 -0.13941584546E+04  0.15179785903E+04  0.60048414140E+03 0.  0.
        1    1    3    3  502    0 -0.15156002410E+03 -0.13519314915E+03 -0.12560745806E+04  0.12723879049E+04  0.50400001928E-02 0. -1.
       -1    1    3    3    0  502  0.15156002410E+03  0.13519314915E+03 -0.13808387405E+03  0.24559068545E+03  0.50400001928E-02 0.  1.
</event>
<event>
 5   0  0.5503975E-03  0.5923034E+03  0.7818609E-02  0.9921504E-01
       -1   -1    0    0    0  501  0.00000000000E+00  0.00000000000E+00  0.78178298175E+02  0.78178298338E+02  0.50400001928E-02 0. -1.
        1   -1    0    0  501    0  0.00000000000E+00  0.00000000000E+00 -0.11218693390E+04  0.11218693390E+04  0.50400001928E-02 0.  1.
    10030    2    1    2    0    0  0.00000000000E+00  0.00000000000E+00 -0.10436910408E+04  0.12000476373E+04  0.59230342156E+03 0.  0.
        4    1    3    3  502    0 -0.29299827525E+03  0.24973430079E+02 -0.45071458426E+03  0.53816067384E+03  0.12699999809E+01 0. -1.
       -4    1    3    3    0  502  0.29299827525E+03 -0.24973430079E+02 -0.59297645652E+03  0.66188696346E+03  0.12699999809E+01 0.  1.
</event>
<event>
 5   0  0.9428629E-03  0.5982499E+03  0.7818609E-02  0.9909044E-01
        2   -1    0    0  501    0  0.00000000000E+00  0.00000000000E+00  0.63978457574E+03  0.63978457574E+03  0.25500000920E-02 0.  1.
       -2   -1    0    0    0  501  0.00000000000E+00  0.00000000000E+00 -0.13985290378E+03  0.13985290380E+03  0.25500000920E-02 0. -1.
    10030    2    1    2    0    0  0.00000000000E+00  0.00000000000E+00  0.49993167196E+03  0.77963747954E+03  0.59824988331E+03 0.  0.
        3    1    3    3  502    0  0.27170688257E+02  0.21636219742E+03 -0.16871114029E+02  0.21871326311E+03  0.10100000352E+00 0. -1.
       -3    1    3    3    0  502 -0.27170688257E+02 -0.21636219742E+03  0.51680278599E+03  0.56092421643E+03  0.10100000352E+00 0.  1.
</event>
<event>
 5   0  0.9866317E-03  0.5998874E+03  0.7818609E-02  0.9905640E-01
        2   -1    0    0  501    0  0.00000000000E+00  0.00000000000E+00  0.89445621097E+03  0.89445621098E+03  0.25500000920E-02 0. -1.
       -2   -1    0    0    0  501  0.00000000000E+00  0.00000000000E+00 -0.10058202705E+03  0.10058202708E+03  0.25500000920E-02 0.  1.
    10030    2    1    2    0    0  0.00000000000E+00  0.00000000000E+00  0.79387418393E+03  0.99503823806E+03  0.59988738551E+03 0.  0.
        1    1    3    3  502    0 -0.26035153047E+03 -0.13713734200E+03  0.30055130722E+03  0.42061937460E+03  0.50400001928E-02 0.  1.
       -1    1    3    3    0  502  0.26035153047E+03  0.13713734200E+03  0.49332287670E+03  0.57441886346E+03  0.50400001928E-02 0. -1.
</event>
<event>
 5   0  0.5653633E-03  0.6008520E+03  0.7818609E-02  0.9903640E-01
       -1   -1    0    0    0  501  0.00000000000E+00  0.00000000000E+00  0.63813250836E+02  0.63813251035E+02  0.50400001928E-02 0. -1.
        1   -1    0    0  501    0  0.00000000000E+00  0.00000000000E+00 -0.14143737625E+04  0.14143737625E+04  0.50400001928E-02 0.  1.
    10030    2    1    2    0    0  0.00000000000E+00  0.00000000000E+00 -0.13505605116E+04  0.14781870135E+04  0.60085202116E+03 0.  0.
        2    1    3    3  502    0  0.13063022333E+03 -0.10753039724E+02 -0.10238435040E+02  0.13147132261E+03  0.25500000920E-02 0. -1.
       -2    1    3    3    0  502 -0.13063022333E+03  0.10753039724E+02 -0.13403220766E+04  0.13467156909E+04  0.25500000920E-02 0.  1.
</event>
<event>
 5   0  0.9571790E-03  0.5995035E+03  0.7818609E-02  0.9906437E-01
        2   -1    0    0  501    0  0.00000000000E+00  0.00000000000E+00  0.36425372786E+03  0.36425372787E+03  0.25500000920E-02 0. -1.
       -2   -1    0    0    0  501  0.00000000000E+00  0.00000000000E+00 -0.24667175875E+03  0.24667175877E+03  0.25500000920E-02 0.  1.
    10030    2    1    2    0    0  0.00000000000E+00  0.00000000000E+00  0.11758196910E+03  0.61092548663E+03  0.59950348686E+03 0.  0.
        5    1    3    3  502    0  0.26384154224E+03 -0.10063386806E+03  0.16115115111E+03  0.32516352550E+03  0.46999998093E+01 0. -1.
       -5    1    3    3    0  502 -0.26384154224E+03  0.10063386806E+03 -0.43569182006E+02  0.28576196113E+03  0.46999998093E+01 0.  1.
</event>
<event>
 5   0  0.5785798E-03  0.6015124E+03  0.7818609E-02  0.9902273E-01
        1   -1    0    0  501    0  0.00000000000E+00  0.00000000000E+00  0.99757568628E+02  0.99757568755E+02  0.50400001928E-02 0. -1.
       -1   -1    0    0    0  501  0.00000000000E+00  0.00000000000E+00 -0.90674102797E+03  0.90674102798E+03  0.50400001928E-02 0.  1.
    10030    2    1    2    0    0  0.00000000000E+00  0.00000000000E+00 -0.80698345934E+03  0.10064985967E+04  0.60151236196E+03 0.  0.
        1    1    3    3  502    0 -0.78860542196E+02  0.10761314262E+03  0.47533144276E+02  0.14162970525E+03  0.50400001928E-02 0. -1.
       -1    1    3    3    0  502  0.78860542196E+02 -0.10761314262E+03 -0.85451660362E+03  0.86486889149E+03  0.50400001928E-02 0.  1.
</event>
<event>
 5   0  0.9866317E-03  0.6036292E+03  0.7818609E-02  0.9897905E-01
       -2   -1    0    0    0  501  0.00000000000E+00  0.00000000000E+00  0.68365482122E+02  0.68365482170E+02  0.25500000920E-02 0. -1.
        2   -1    0    0  501    0  0.00000000000E+00  0.00000000000E+00 -0.13324276854E+04  0.13324276854E+04  0.25500000920E-02 0.  1.
    10030    2    1    2    0    0  0.00000000000E+00  0.00000000000E+00 -0.12640622033E+04  0.14007931676E+04  0.60362922773E+03 0.  0.
        1    1    3    3  502    0  0.21080267882E+03 -0.18975627765E+03 -0.87148077960E+03  0.91647365676E+03  0.50400001928E-02 0.  1.
       -1    1    3    3    0  502 -0.21080267882E+03  0.18975627765E+03 -0.39258142370E+03  0.48431951083E+03  0.50400001928E-02 0. -1.
</event>
<event>
 5   0  0.9530666E-03  0.5993441E+03  0.7818609E-02  0.9906768E-01
       -2   -1    0    0    0  501  0.00000000000E+00  0.00000000000E+00  0.88887234163E+03  0.88887234163E+03  0.25500000920E-02 0.  1.
        2   -1    0    0  501    0  0.00000000000E+00  0.00000000000E+00 -0.10103063426E+03  0.10103063430E+03  0.25500000920E-02 0. -1.
    10030    2    1    2    0    0  0.00000000000E+00  0.00000000000E+00  0.78784170736E+03  0.98990297593E+03  0.59934409640E+03 0.  0.
        2    1    3    3  502    0 -0.14287183589E+03 -0.15343655602E+02  0.82826093576E+03  0.84063307511E+03  0.25500000920E-02 0.  1.
       -2    1    3    3    0  502  0.14287183589E+03  0.15343655602E+02 -0.40419228397E+02  0.14926990082E+03  0.25500000920E-02 0. -1.
</event>
<event>
 5   0  0.5574736E-03  0.5993131E+03  0.7818609E-02  0.9906832E-01
        1   -1    0    0  501    0  0.00000000000E+00  0.00000000000E+00  0.84556544740E+02  0.84556544890E+02  0.50400001928E-02 0.  1.
       -1   -1    0    0    0  501  0.00000000000E+00  0.00000000000E+00 -0.10619409545E+04  0.10619409545E+04  0.50400001928E-02 0. -1.
    10030    2    1    2    0    0  0.00000000000E+00  0.00000000000E+00 -0.97738440973E+03  0.11464974994E+04  0.59931313325E+03 0.  0.
        5    1    3    3  502    0  0.13444850739E+03  0.21447437363E+03 -0.18203392370E+03  0.31182382439E+03  0.46999998093E+01 0. -1.
       -5    1    3    3    0  502 -0.13444850739E+03 -0.21447437363E+03 -0.79535048603E+03  0.83467367498E+03  0.46999998093E+01 0.  1.
</event>
<event>
 5   0  0.5491236E-03  0.6055355E+03  0.7818609E-02  0.9893988E-01
       -1   -1    0    0    0  501  0.00000000000E+00  0.00000000000E+00  0.38343980834E+03  0.38343980837E+03  0.50400001928E-02 0.  1.
        1   -1    0    0  501    0  0.00000000000E+00  0.00000000000E+00 -0.23906833161E+03  0.23906833167E+03  0.50400001928E-02 0. -1.
    10030    2    1    2    0    0  0.00000000000E+00  0.00000000000E+00  0.14437147673E+03  0.62250814004E+03  0.60553551599E+03 0.  0.
        3    1    3    3  502    0 -0.24662589398E+03 -0.32966481282E+02 -0.10515206873E+03  0.27012605989E+03  0.10100000352E+00 0. -1.
       -3    1    3    3    0  502  0.24662589398E+03  0.32966481282E+02  0.24952354545E+03  0.35238208015E+03  0.10100000352E+00 0.  1.
</event>
<event>
 5   0  0.9428629E-03  0.6008810E+03  0.7818609E-02  0.9903580E-01
       -2   -1    0    0    0  501  0.00000000000E+00  0.00000000000E+00  0.15910998477E+03  0.15910998479E+03  0.25500000920E-02 0. -1.
        2   -1    0    0  501    0  0.00000000000E+00  0.00000000000E+00 -0.56730876299E+03  0.56730876300E+03  0.25500000920E-02 0.  1.
    10030    2    1    2    0    0  0.00000000000E+00  0.00000000000E+00 -0.40819877822E+03  0.72641874778E+03  0.60088098205E+03 0.  0.
        3    1    3    3  502    0 -0.99374992751E+02 -0.35580210196E+02 -0.54415530657E+03  0.55429806820E+03  0.10100000352E+00 0.  1.
       -3    1    3    3    0  502  0.99374992751E+02  0.35580210196E+02  0.13595652834E+03  0.17212067959E+03  0.10100000352E+00 0. -1.
</event>
<event>
 5   0  0.9571790E-03  0.5999485E+03  0.7818609E-02  0.9905513E-01
        2   -1    0    0  501    0  0.00000000000E+00  0.00000000000E+00  0.78682047006E+02  0.78682047047E+02  0.25500000920E-02 0. -1.
       -2   -1    0    0    0  501  0.00000000000E+00  0.00000000000E+00 -0.11436478815E+04  0.11436478815E+04  0.25500000920E-02 0.  1.
    10030    2    1    2    0    0  0.00000000000E+00  0.00000000000E+00 -0.10649658345E+04  0.12223299285E+04  0.59994851911E+03 0.  0.
        5    1    3    3  502    0 -0.12795888440E+03  0.26882193706E+03 -0.45835556189E+03  0.54658084585E+03  0.46999998093E+01 0. -1.
       -5    1    3    3    0  502  0.12795888440E+03 -0.26882193706E+03 -0.60661027260E+03  0.67574908269E+03  0.46999998093E+01 0.  1.
</event>
<event>
 5   0  0.5574736E-03  0.6002799E+03  0.7818609E-02  0.9904826E-01
        1   -1    0    0  501    0  0.00000000000E+00  0.00000000000E+00  0.32145928075E+03  0.32145928079E+03  0.50400001928E-02 0. -1.
       -1   -1    0    0    0  501  0.00000000000E+00  0.00000000000E+00 -0.28023450044E+03  0.28023450048E+03  0.50400001928E-02 0.  1.
    10030    2    1    2    0    0  0.00000000000E+00  0.00000000000E+00  0.41224780311E+02  0.60169378127E+03  0.60027987131E+03 0.  0.
        5    1    3    3  502    0  0.19269412635E+03 -0.10218539636E+02  0.25099380409E+03  0.31663137017E+03  0.46999998093E+01 0. -1.
       -5    1    3    3    0  502 -0.19269412635E+03  0.10218539636E+02 -0.20976902378E+03  0.28506241110E+03  0.46999998093E+01 0.  1.
</event>
<event>
 5   0  0.9866317E-03  0.6003731E+03  0.7818609E-02  0.9904632E-01
       -2   -1    0    0    0  501  0.00000000000E+00  0.00000000000E+00  0.33533600135E+03  0.33533600136E+03  0.25500000920E-02 0. -1.
        2   -1    0    0  501    0  0.00000000000E+00  0.00000000000E+00 -0.26872143636E+03  0.26872143638E+03  0.25500000920E-02 0.  1.
    10030    2    1    2    0    0  0.00000000000E+00  0.00000000000E+00  0.66614564985E+02  0.60405743773E+03  0.60037312383E+03 0.  0.
        1    1    3    3  502    0 -0.53859486568E+02 -0.17622681823E+02 -0.26329077544E+03  0.26932032167E+03  0.50400001928E-02 0.  1.
       -1    1    3    3    0  502  0.53859486568E+02  0.17622681823E+02  0.32990534042E+03  0.33473711607E+03  0.50400001928E-02 0. -1.
</event>
<event>
 5   0  0.5503975E-03  0.5993356E+03  0.7818609E-02  0.9906785E-01
       -1   -1    0    0    0  501  0.00000000000E+00  0.00000000000E+00  0.15550939218E+03  0.15550939226E+03  0.50400001928E-02 0. -1.
        1   -1    0    0  501    0  0.00000000000E+00  0.00000000000E+00 -0.57746212216E+03  0.57746212218E+03  0.50400001928E-02 0.  1.
    10030    2    1    2    0    0  0.00000000000E+00  0.00000000000E+00 -0.42195272998E+03  0.73297151444E+03  0.59933557766E+03 0.  0.
        4    1    3    3  502    0  0.27337465993E+03 -0.27360045624E+02 -0.64643645994E+02  0.28224579830E+03  0.12699999809E+01 0. -1.
       -4    1    3    3    0  502 -0.27337465993E+03  0.27360045624E+02 -0.35730908399E+03  0.45072571614E+03  0.12699999809E+01 0.  1.
</event>
<event>
 5   0  0.9428629E-03  0.5973653E+03  0.7818609E-02  0.9910887E-01
        2   -1    0    0  501    0  0.00000000000E+00  0.00000000000E+00  0.79815920446E+03  0.79815920446E+03  0.25500000920E-02 0.  1.
       -2   -1    0    0    0  501  0.00000000000E+00  0.00000000000E+00 -0.11177133435E+03  0.11177133438E+03  0.25500000920E-02 0. -1.
    10030    2    1    2    0    0  0.00000000000E+00  0.00000000000E+00  0.68638787011E+03  0.90993053884E+03  0.59736527960E+03 0.  0.
        3    1    3    3  502    0  0.46599232446E+02  0.10965534785E+03  0.76039349509E+03  0.76967139829E+03  0.10100000352E+00 0.  1.
       -3    1    3    3    0  502 -0.46599232446E+02 -0.10965534785E+03 -0.74005624980E+02  0.14025914054E+03  0.10100000352E+00 0. -1.
</event>
<event>
 5   0  0.3794375E-03  0.6003028E+03  0.7818609E-02  0.9904778E-01
       -3   -1    0    0    0  501  0.00000000000E+00  0.00000000000E+00  0.41165740663E+03  0.41165741902E+03  0.10100000352E+00 0. -1.
        3   -1    0    0  501    0  0.00000000000E+00  0.00000000000E+00 -0.21884910820E+03  0.21884913151E+03  0.10100000352E+00 0.  1.
    10030    2    1    2    0    0  0.00000000000E+00  0.00000000000E+00  0.19280829842E+03  0.63050655053E+03  0.60030281551E+03 0.  0.
        1    1    3    3  502    0 -0.27748892784E+03 -0.61473599274E+02 -0.49484960369E+01  0.28425973355E+03  0.50400001928E-02 0.  1.
       -1    1    3    3    0  502  0.27748892784E+03  0.61473599274E+02  0.19775679446E+03  0.34624681697E+03  0.50400001928E-02 0. -1.
</event>
<event>
 5   0  0.9681801E-03  0.6000613E+03  0.7818609E-02  0.9905279E-01
       -2   -1    0    0    0  501  0.00000000000E+00  0.00000000000E+00  0.75311505134E+03  0.75311505134E+03  0.25500000920E-02 0. -1.
        2   -1    0    0  501    0  0.00000000000E+00  0.00000000000E+00 -0.11952807555E+03  0.11952807558E+03  0.25500000920E-02 0.  1.
    10030    2    1    2    0    0  0.00000000000E+00  0.00000000000E+00  0.63358697579E+03  0.87264312692E+03  0.60006130610E+03 0.  0.
        4    1    3    3  502    0 -0.91163789178E+02  0.11370796259E+03  0.69817611322E+03  0.71322635620E+03  0.12699999809E+01 0. -1.
       -4    1    3    3    0  502  0.91163789178E+02 -0.11370796259E+03 -0.64589137433E+02  0.15941677072E+03  0.12699999809E+01 0.  1.
</event>
<event>
 5   0  0.9530666E-03  0.6004270E+03  0.7818609E-02  0.9904521E-01
       -2   -1    0    0    0  501  0.00000000000E+00  0.00000000000E+00  0.98246754003E+02  0.98246754036E+02  0.25500000920E-02 0. -1.
        2   -1    0    0  501    0  0.00000000000E+00  0.00000000000E+00 -0.91736506855E+03  0.91736506855E+03  0.25500000920E-02 0.  1.
    10030    2    1    2    0    0  0.00000000000E+00  0.00000000000E+00 -0.81911831454E+03  0.10156118226E+04  0.60042698220E+03 0.  0.
        2    1    3    3  502    0  0.87913320180E+02 -0.28346360977E+03 -0.33301568353E+03  0.44607153620E+03  0.25500000920E-02 0. -1.
       -2    1    3    3    0  502 -0.87913320180E+02  0.28346360977E+03 -0.48610263101E+03  0.56954028638E+03  0.25500000920E-02 0.  1.
</event>
<event>
 5   0  0.9530666E-03  0.6015773E+03  0.7818609E-02  0.9902139E-01
       -2   -1    0    0    0  501  0.00000000000E+00  0.00000000000E+00  0.31096107163E+03  0.31096107164E+03  0.25500000920E-02 0. -1.
        2   -1    0    0  501    0  0.00000000000E+00  0.00000000000E+00 -0.29094903391E+03  0.29094903392E+03  0.25500000920E-02 0.  1.
    10030    2    1    2    0    0  0.00000000000E+00  0.00000000000E+00  0.20012037716E+02  0.60191010556E+03  0.60157733794E+03 0.  0.
        2    1    3    3  502    0 -0.77943303419E+02  0.23323481455E+01 -0.28065979692E+03  0.29129112587E+03  0.25500000920E-02 0.  1.
       -2    1    3    3    0  502  0.77943303419E+02 -0.23323481455E+01  0.30067183463E+03  0.31061897969E+03  0.25500000920E-02 0. -1.
</event>
<event>
 5   0  0.9866317E-03  0.5993242E+03  0.7818609E-02  0.9906809E-01
        2   -1    0    0  501    0  0.00000000000E+00  0.00000000000E+00  0.13723000722E+03  0.13723000725E+03  0.25500000920E-02 0. -1.
       -2   -1    0    0    0  501  0.00000000000E+00  0.00000000000E+00 -0.65435673993E+03  0.65435673994E+03  0.25500000920E-02 0.  1.
    10030    2    1    2    0    0  0.00000000000E+00  0.00000000000E+00 -0.51712673271E+03  0.79158674718E+03  0.59932421996E+03 0.  0.
        1    1    3    3  502    0 -0.17143153088E+03  0.80989233020E+02 -0.56506086644E+03  0.59602165099E+03  0.50400001928E-02 0.  1.
       -1    1    3    3    0  502  0.17143153088E+03 -0.80989233020E+02  0.47934133732E+02  0.19556509619E+03  0.50400001928E-02 0. -1.
</event>
<event>
 5   0  0.5574736E-03  0.6001835E+03  0.7818609E-02  0.9905025E-01
       -1   -1    0    0    0  501  0.00000000000E+00  0.00000000000E+00  0.14891196902E+03  0.14891196910E+03  0.50400001928E-02 0.  1.
        1   -1    0    0  501    0  0.00000000000E+00  0.00000000000E+00 -0.60475369924E+03  0.60475369926E+03  0.50400001928E-02 0. -1.
    10030    2    1    2    0    0  0.00000000000E+00  0.00000000000E+00 -0.45584173022E+03  0.75366566836E+03  0.60018351915E+03 0.  0.
        5    1    3    3  502    0 -0.38128057145E+02  0.19253760903E+03  0.57072070619E+02  0.20445975368E+03  0.46999998093E+01 0. -1.
       -5    1    3    3    0  502  0.38128057145E+02 -0.19253760903E+03 -0.51291380084E+03  0.54920591468E+03  0.46999998093E+01 0.  1.
</event>
<event>
 5   0  0.5785798E-03  0.6000132E+03  0.7818609E-02  0.9905379E-01
        1   -1    0    0  501    0  0.00000000000E+00  0.00000000000E+00  0.21884544008E+03  0.21884544014E+03  0.50400001928E-02 0.  1.
       -1   -1    0    0    0  501  0.00000000000E+00  0.00000000000E+00 -0.41126722796E+03  0.41126722799E+03  0.50400001928E-02 0. -1.
    10030    2    1    2    0    0  0.00000000000E+00  0.00000000000E+00 -0.19242178788E+03  0.63011266813E+03  0.60001319160E+03 0.  0.
        1    1    3    3  502    0  0.26910928063E+03 -0.11485312391E+02  0.42523136324E+02  0.27269018037E+03  0.50400001928E-02 0.  1.
       -1    1    3    3    0  502 -0.26910928063E+03  0.11485312391E+02 -0.23494492421E+03  0.35742248776E+03  0.50400001928E-02 0. -1.
</event>
<event>
 5   0  0.9866317E-03  0.6001812E+03  0.7818609E-02  0.9905030E-01
       -2   -1    0    0    0  501  0.00000000000E+00  0.00000000000E+00  0.17071487036E+03  0.17071487037E+03  0.25500000920E-02 0.  1.
        2   -1    0    0  501    0  0.00000000000E+00  0.00000000000E+00 -0.52751340768E+03  0.52751340769E+03  0.25500000920E-02 0. -1.
    10030    2    1    2    0    0  0.00000000000E+00  0.00000000000E+00 -0.35679853733E+03  0.69822827806E+03  0.60018124933E+03 0.  0.
        1    1    3    3  502    0  0.35222380875E+02 -0.13880746948E+03 -0.48519681320E+03  0.50588939232E+03  0.50400001928E-02 0. -1.
       -1    1    3    3    0  502 -0.35222380875E+02  0.13880746948E+03  0.12839827587E+03  0.19233888574E+03  0.50400001928E-02 0.  1.
</event>
<event>
 5   0  0.5653633E-03  0.6001460E+03  0.7818609E-02  0.9905103E-01
       -1   -1    0    0    0  501  0.00000000000E+00  0.00000000000E+00  0.13392565156E+03  0.13392565166E+03  0.50400001928E-02 0. -1.
        1   -1    0    0  501    0  0.00000000000E+00  0.00000000000E+00 -0.67234165577E+03  0.67234165579E+03  0.50400001928E-02 0.  1.
    10030    2    1    2    0    0  0.00000000000E+00  0.00000000000E+00 -0.53841600421E+03  0.80626730744E+03  0.60014596347E+03 0.  0.
        2    1    3    3  502    0 -0.39181723102E+02  0.92477241934E+02 -0.64909040397E+03  0.65681473814E+03  0.25500000920E-02 0.  1.
       -2    1    3    3    0  502  0.39181723102E+02 -0.92477241934E+02  0.11067439977E+03  0.14945256930E+03  0.25500000920E-02 0. -1.
</event>
<event>
 5   0  0.5491236E-03  0.5991420E+03  0.7818609E-02  0.9907188E-01
       -1   -1    0    0    0  501  0.00000000000E+00  0.00000000000E+00  0.16562607521E+03  0.16562607528E+03  0.50400001928E-02 0. -1.
        1   -1    0    0  501    0  0.00000000000E+00  0.00000000000E+00 -0.54183968180E+03  0.54183968182E+03  0.50400001928E-02 0.  1.
    10030    2    1    2    0    0  0.00000000000E+00  0.00000000000E+00 -0.37621360659E+03  0.70746575710E+03  0.59914198625E+03 0.  0.
        3    1    3    3  502    0 -0.53411007327E+01 -0.81285024579E+02 -0.52851063356E+03  0.53475160829E+03  0.10100000352E+00 0.  1.
       -3    1    3    3    0  502  0.53411007327E+01  0.81285024579E+02  0.15229702697E+03  0.17271414882E+03  0.10100000352E+00 0. -1.
</event>
<event>
 5   0  0.5503975E-03  0.6010386E+03  0.7818609E-02  0.9903254E-01
       -1   -1    0    0    0  501  0.00000000000E+00  0.00000000000E+00  0.21096441021E+03  0.21096441027E+03  0.50400001928E-02 0. -1.
        1   -1    0    0  501    0  0.00000000000E+00  0.00000000000E+00 -0.42809047238E+03  0.42809047241E+03  0.50400001928E-02 0.  1.
    10030    2    1    2    0    0  0.00000000000E+00  0.00000000000E+00 -0.21712606218E+03  0.63905488268E+03  0.60103861457E+03 0.  0.
        4    1    3    3  502    0 -0.13387443612E+03 -0.25467083806E+03 -0.16294894970E+02  0.28817830748E+03  0.12699999809E+01 0. -1.
       -4    1    3    3    0  502  0.13387443612E+03  0.25467083806E+03 -0.20083116721E+03  0.35087657520E+03  0.12699999809E+01 0.  1.
</event>
<event>
 5   0  0.9866317E-03  0.6004385E+03  0.7818609E-02  0.9904497E-01
        2   -1    0    0  501    0  0.00000000000E+00  0.00000000000E+00  0.14021252795E+04  0.14021252795E+04  0.25500000920E-02 0.  1.
       -2   -1    0    0    0  501  0.00000000000E+00  0.00000000000E+00 -0.64282125771E+02  0.64282125822E+02  0.25500000920E-02 0. -1.
    10030    2    1    2    0    0  0.00000000000E+00  0.00000000000E+00  0.13378431537E+04  0.14664074053E+04  0.60043848511E+03 0.  0.
        1    1    3    3  502    0 -0.43041837317E+02  0.29699084455E+03  0.64771043114E+03  0.71385220049E+03  0.50400001928E-02 0.  1.
       -1    1    3    3    0  502  0.43041837317E+02 -0.29699084455E+03  0.69013272255E+03  0.75255520480E+03  0.50400001928E-02 0. -1.
</event>
<event>
 5   0  0.5653633E-03  0.5951223E+03  0.7818609E-02  0.9915578E-01
       -1   -1    0    0    0  501  0.00000000000E+00  0.00000000000E+00  0.52940641599E+03  0.52940641602E+03  0.50400001928E-02 0. -1.
        1   -1    0    0  501    0  0.00000000000E+00  0.00000000000E+00 -0.16724888779E+03  0.16724888787E+03  0.50400001928E-02 0.  1.
    10030    2    1    2    0    0  0.00000000000E+00  0.00000000000E+00  0.36215752820E+03  0.69665530388E+03  0.59512228760E+03 0.  0.
        2    1    3    3  502    0 -0.15050855329E+03  0.10492163613E+03  0.45531432445E+03  0.49088950732E+03  0.25500000920E-02 0. -1.
       -2    1    3    3    0  502  0.15050855329E+03 -0.10492163613E+03 -0.93156796247E+02  0.20576579656E+03  0.25500000920E-02 0.  1.
</event>
<event>
 5   0  0.5491236E-03  0.5983201E+03  0.7818609E-02  0.9908898E-01
        1   -1    0    0  501    0  0.00000000000E+00  0.00000000000E+00  0.10376780366E+03  0.10376780378E+03  0.50400001928E-02 0. -1.
       -1   -1    0    0    0  501  0.00000000000E+00  0.00000000000E+00 -0.86247105825E+03  0.86247105826E+03  0.50400001928E-02 0.  1.
    10030    2    1    2    0    0  0.00000000000E+00  0.00000000000E+00 -0.75870325459E+03  0.96623886205E+03  0.59832007321E+03 0.  0.
        3    1    3    3  502    0  0.10975506342E+03  0.23241286411E+03 -0.62657048179E+03  0.67723887381E+03  0.10100000352E+00 0.  1.
       -3    1    3    3    0  502 -0.10975506342E+03 -0.23241286411E+03 -0.13213277279E+03  0.28899998823E+03  0.10100000352E+00 0. -1.
</event>
<event>
 5   0  0.5574736E-03  0.6003653E+03  0.7818609E-02  0.9904648E-01
        1   -1    0    0  501    0  0.00000000000E+00  0.00000000000E+00  0.38588679518E+03  0.38588679521E+03  0.50400001928E-02 0.  1.
       -1   -1    0    0    0  501  0.00000000000E+00  0.00000000000E+00 -0.23351311250E+03  0.23351311255E+03  0.50400001928E-02 0. -1.
    10030    2    1    2    0    0  0.00000000000E+00  0.00000000000E+00  0.15237368268E+03  0.61939990777E+03  0.60036531093E+03 0.  0.
        5    1    3    3  502    0 -0.29984926722E+03  0.87179130554E+01  0.65769604516E+02  0.30713729167E+03  0.46999998093E+01 0.  1.
       -5    1    3    3    0  502  0.29984926722E+03 -0.87179130554E+01  0.86604078167E+02  0.31226261610E+03  0.46999998093E+01 0. -1.
</event>
<event>
 5   0  0.9866317E-03  0.5979811E+03  0.7818609E-02  0.9909603E-01
       -2   -1    0    0    0  501  0.00000000000E+00  0.00000000000E+00  0.41187303471E+02  0.41187303550E+02  0.25500000920E-02 0.  1.
        2   -1    0    0  501    0  0.00000000000E+00  0.00000000000E+00 -0.21704589966E+04  0.21704589966E+04  0.25500000920E-02 0. -1.
    10030    2    1    2    0    0  0.00000000000E+00  0.00000000000E+00 -0.21292716931E+04  0.22116463002E+04  0.59798111493E+03 0.  0.
        1    1    3    3  502    0 -0.17622362321E+02  0.21452834377E+03 -0.18321339257E+04  0.18447351246E+04  0.50400001928E-02 0. -1.
       -1    1    3    3    0  502  0.17622362321E+02 -0.21452834377E+03 -0.29713776740E+03  0.36691117560E+03  0.50400001928E-02 0.  1.
</event>
<event>
 5   0  0.5574736E-03  0.5990075E+03  0.7818609E-02  0.9907467E-01
       -1   -1    0    0    0  501  0.00000000000E+00  0.00000000000E+00  0.11732488877E+03  0.11732488888E+03  0.50400001928E-02 0.  1.
        1   -1    0    0  501    0  0.00000000000E+00  0.00000000000E+00 -0.76456486621E+03  0.76456486623E+03  0.50400001928E-02 0. -1.
    10030    2    1    2    0    0  0.00000000000E+00  0.00000000000E+00 -0.64723997744E+03  0.88188975511E+03  0.59900747221E+03 0.  0.
        5    1    3    3  502    0  0.25030279275E+03 -0.53161948908E+02 -0.94578520238E+02  0.27284586741E+03  0.46999998093E+01 0.  1.
       -5    1    3    3    0  502 -0.25030279275E+03  0.53161948908E+02 -0.55266145720E+03  0.60904388770E+03  0.46999998093E+01 0. -1.
</event>
<event>
 5   0  0.5491236E-03  0.5974318E+03  0.7818609E-02  0.9910749E-01
        1   -1    0    0  501    0  0.00000000000E+00  0.00000000000E+00  0.36802246045E+03  0.36802246048E+03  0.50400001928E-02 0. -1.
       -1   -1    0    0    0  501  0.00000000000E+00  0.00000000000E+00 -0.24246128284E+03  0.24246128289E+03  0.50400001928E-02 0.  1.
    10030    2    1    2    0    0  0.00000000000E+00  0.00000000000E+00  0.12556117761E+03  0.61048374337E+03  0.59743183009E+03 0.  0.
        3    1    3    3  502    0 -0.13529980064E+03  0.10108048721E+01  0.33491455707E+03  0.36121299605E+03  0.10100000352E+00 0. -1.
       -3    1    3    3    0  502  0.13529980064E+03 -0.10108048721E+01 -0.20935337946E+03  0.24927074732E+03  0.10100000352E+00 0.  1.
</event>
<event>
 5   0  0.3794375E-03  0.5969189E+03  0.7818609E-02  0.9911819E-01
       -3   -1    0    0    0  501  0.00000000000E+00  0.00000000000E+00  0.14076537767E+03  0.14076541391E+03  0.10100000352E+00 0. -1.
        3   -1    0    0  501    0  0.00000000000E+00  0.00000000000E+00 -0.63281197298E+03  0.63281198104E+03  0.10100000352E+00 0.  1.
    10030    2    1    2    0    0  0.00000000000E+00  0.00000000000E+00 -0.49204659531E+03  0.77357739495E+03  0.59691886720E+03 0.  0.
        1    1    3    3  502    0  0.28148995380E+03  0.98083629035E+02 -0.26529078071E+03  0.39904409622E+03  0.50400001928E-02 0.  1.
       -1    1    3    3    0  502 -0.28148995380E+03 -0.98083629035E+02 -0.22675581460E+03  0.37453329873E+03  0.50400001928E-02 0. -1.
</event>
<event>
 5   0  0.9530666E-03  0.6001947E+03  0.7818609E-02  0.9905002E-01
        2   -1    0    0  501    0  0.00000000000E+00  0.00000000000E+00  0.26150706332E+03  0.26150706334E+03  0.25500000920E-02 0. -1.
       -2   -1    0    0    0  501  0.00000000000E+00  0.00000000000E+00 -0.34438231240E+03  0.34438231241E+03  0.25500000920E-02 0.  1.
    10030    2    1    2    0    0  0.00000000000E+00  0.00000000000E+00 -0.82875249074E+02  0.60588937574E+03  0.60019465903E+03 0.  0.
        2    1    3    3  502    0 -0.23085871807E+03  0.17931439256E+03  0.27096196466E+02  0.29357043951E+03  0.25500000920E-02 0. -1.
       -2    1    3    3    0  502  0.23085871807E+03 -0.17931439256E+03 -0.10997144554E+03  0.31231893623E+03  0.25500000920E-02 0.  1.
</event>
<event>
 5   0  0.5653633E-03  0.6001806E+03  0.7818609E-02  0.9905032E-01
        1   -1    0    0  501    0  0.00000000000E+00  0.00000000000E+00  0.84963702943E+02  0.84963703092E+02  0.50400001928E-02 0.  1.
       -1   -1    0    0    0  501  0.00000000000E+00  0.00000000000E+00 -0.10599135300E+04  0.10599135300E+04  0.50400001928E-02 0. -1.
    10030    2    1    2    0    0  0.00000000000E+00  0.00000000000E+00 -0.97494982701E+03  0.11448772331E+04  0.60018056748E+03 0.  0.
        2    1    3    3  502    0 -0.18746657815E+02 -0.63167417015E+02  0.70994472493E+02  0.96859562680E+02  0.25500000920E-02 0.  1.
       -2    1    3    3    0  502  0.18746657815E+02  0.63167417015E+02 -0.10459442995E+04  0.10480176704E+04  0.25500000920E-02 0. -1.
</event>
<event>
 5   0  0.9571790E-03  0.5970492E+03  0.7818609E-02  0.9911547E-01
       -2   -1    0    0    0  501  0.00000000000E+00  0.00000000000E+00  0.16206261047E+03  0.16206261049E+03  0.25500000920E-02 0.  1.
        2   -1    0    0  501    0  0.00000000000E+00  0.00000000000E+00 -0.54989200549E+03  0.54989200549E+03  0.25500000920E-02 0. -1.
    10030    2    1    2    0    0  0.00000000000E+00  0.00000000000E+00 -0.38782939501E+03  0.71195461599E+03  0.59704919026E+03 0.  0.
        5    1    3    3  502    0 -0.27403787857E+03  0.34336399643E+02 -0.32892624269E+03  0.42952335252E+03  0.46999998093E+01 0. -1.
       -5    1    3    3    0  502  0.27403787857E+03 -0.34336399643E+02 -0.58903152320E+02  0.28243126347E+03  0.46999998093E+01 0.  1.
</event>
<event>
 5   0  0.9681801E-03  0.5988816E+03  0.7818609E-02  0.9907729E-01
        2   -1    0    0  501    0  0.00000000000E+00  0.00000000000E+00  0.34119371436E+03  0.34119371437E+03  0.25500000920E-02 0.  1.
       -2   -1    0    0    0  501  0.00000000000E+00  0.00000000000E+00 -0.26279733209E+03  0.26279733211E+03  0.25500000920E-02 0. -1.
    10030    2    1    2    0    0  0.00000000000E+00  0.00000000000E+00  0.78396382266E+02  0.60399104647E+03  0.59888161724E+03 0.  0.
        4    1    3    3  502    0  0.25912677707E+03 -0.12991322919E+03  0.11493247778E+03  0.31182562605E+03  0.12699999809E+01 0.  1.
       -4    1    3    3    0  502 -0.25912677707E+03  0.12991322919E+03 -0.36536095511E+02  0.29216542042E+03  0.12699999809E+01 0. -1.
</event>
<event>
 5   0  0.9681801E-03  0.5993067E+03  0.7818609E-02  0.9906845E-01
        2   -1    0    0  501    0  0.00000000000E+00  0.00000000000E+00  0.32972598647E+03  0.32972598648E+03  0.25500000920E-02 0.  1.
       -2   -1    0    0    0  501  0.00000000000E+00  0.00000000000E+00 -0.27232349701E+03  0.27232349703E+03  0.25500000920E-02 0. -1.
    10030    2    1    2    0    0  0.00000000000E+00  0.00000000000E+00  0.57402489458E+02  0.60204948351E+03  0.59930671179E+03 0.  0.
        4    1    3    3  502    0  0.14789793636E+02  0.26662288056E+03 -0.10787692526E+03  0.28800267766E+03  0.12699999809E+01 0. -1.
       -4    1    3    3    0  502 -0.14789793636E+02 -0.26662288056E+03  0.16527941472E+03  0.31404680585E+03  0.12699999809E+01 0.  1.
</event>
<event>
 5   0  0.5574736E-03  0.5990609E+03  0.7818609E-02  0.9907356E-01
       -1   -1    0    0    0  501  0.00000000000E+00  0.00000000000E+00  0.24028499462E+03  0.24028499468E+03  0.50400001928E-02 0. -1.
        1   -1    0    0  501    0  0.00000000000E+00  0.00000000000E+00 -0.37338361485E+03  0.37338361488E+03  0.50400001928E-02 0.  1.
    10030    2    1    2    0    0  0.00000000000E+00  0.00000000000E+00 -0.13309862022E+03  0.61366860956E+03  0.59906086473E+03 0.  0.
        5    1    3    3  502    0 -0.68101951933E+01 -0.26803184483E+03 -0.20325355839E+03  0.33648409710E+03  0.46999998093E+01 0.  1.
       -5    1    3    3    0  502  0.68101951933E+01  0.26803184483E+03  0.70154938168E+02  0.27718451246E+03  0.46999998093E+01 0. -1.
</event>
<event>
 5   0  0.5574736E-03  0.5992118E+03  0.7818609E-02  0.9907043E-01
        1   -1    0    0  501    0  0.00000000000E+00  0.00000000000E+00  0.10511364361E+04  0.10511364362E+04  0.50400001928E-02 0. -1.
       -1   -1    0    0    0  501  0.00000000000E+00  0.00000000000E+00 -0.85396812587E+02  0.85396812735E+02  0.50400001928E-02 0.  1.
    10030    2    1    2    0    0  0.00000000000E+00  0.00000000000E+00  0.96573962356E+03  0.11365332489E+04  0.59921182008E+03 0.  0.
        5    1    3    3  502    0 -0.15543867551E+03  0.84243056550E+01  0.96833018487E+03  0.98077397380E+03  0.46999998093E+01 0. -1.
       -5    1    3    3    0  502  0.15543867551E+03 -0.84243056550E+01 -0.25905613057E+01  0.15575927509E+03  0.46999998093E+01 0.  1.
</event>
<event>
 5   0  0.5574736E-03  0.5994292E+03  0.7818609E-02  0.9906591E-01
        1   -1    0    0  501    0  0.00000000000E+00  0.00000000000E+00  0.15060835039E+03  0.15060835048E+03  0.50400001928E-02 0. -1.
       -1   -1    0    0    0  501  0.00000000000E+00  0.00000000000E+00 -0.59643998532E+03  0.59643998534E+03  0.50400001928E-02 0.  1.
    10030    2    1    2    0    0  0.00000000000E+00  0.00000000000E+00 -0.44583163493E+03  0.74704833582E+03  0.59942920295E+03 0.  0.
        5    1    3    3  502    0  0.11174194385E+03 -0.22260565112E+03 -0.15244287495E+02  0.24958769246E+03  0.46999998093E+01 0. -1.
       -5    1    3    3    0  502 -0.11174194385E+03  0.22260565112E+03 -0.43058734743E+03  0.49746064336E+03  0.46999998093E+01 0.  1.
</event>
<event>
 5   0  0.9866317E-03  0.5990999E+03  0.7818609E-02  0.9907275E-01
       -2   -1    0    0    0  501  0.00000000000E+00  0.00000000000E+00  0.14249829841E+03  0.14249829844E+03  0.25500000920E-02 0.  1.
        2   -1    0    0  501    0  0.00000000000E+00  0.00000000000E+00 -0.62969299875E+03  0.62969299875E+03  0.25500000920E-02 0. -1.
    10030    2    1    2    0    0  0.00000000000E+00  0.00000000000E+00 -0.48719470033E+03  0.77219129719E+03  0.59909992774E+03 0.  0.
        1    1    3    3  502    0  0.11924847428E+03 -0.13945809647E+03 -0.54877848837E+03  0.57864202113E+03  0.50400001928E-02 0. -1.
       -1    1    3    3    0  502 -0.11924847428E+03  0.13945809647E+03  0.61583788037E+02  0.19354927606E+03  0.50400001928E-02 0.  1.
</event>
<event>
 5   0  0.9571790E-03  0.6004964E+03  0.7818609E-02  0.9904377E-01
        2   -1    0    0  501    0  0.00000000000E+00  0.00000000000E+00  0.59877679395E+03  0.59877679395E+03  0.25500000920E-02 0. -1.
       -2   -1    0    0    0  501  0.00000000000E+00  0.00000000000E+00 -0.15055522381E+03  0.15055522383E+03  0.25500000920E-02 0.  1.
    10030    2    1    2    0    0  0.00000000000E+00  0.00000000000E+00  0.44822157014E+03  0.74933201778E+03  0.60049637546E+03 0.  0.
        5    1    3    3  502    0 -0.14811656485E+03  0.15012919892E+03  0.49072441335E+03  0.53414401898E+03  0.46999998093E+01 0. -1.
       -5    1    3    3    0  502  0.14811656485E+03 -0.15012919892E+03 -0.42502843211E+02  0.21518799881E+03  0.46999998093E+01 0.  1.
</event>
<event>
 5   0  0.5491236E-03  0.6006569E+03  0.7818609E-02  0.9904044E-01
        1   -1    0    0  501    0  0.00000000000E+00  0.00000000000E+00  0.31899234665E+03  0.31899234669E+03  0.50400001928E-02 0. -1.
       -1   -1    0    0    0  501  0.00000000000E+00  0.00000000000E+00 -0.28275659462E+03  0.28275659467E+03  0.50400001928E-02 0.  1.
    10030    2    1    2    0    0  0.00000000000E+00  0.00000000000E+00  0.36235752032E+02  0.60174894136E+03  0.60065693928E+03 0.  0.
        3    1    3    3  502    0  0.15598660463E+03  0.17198679498E+03  0.20895277170E+03  0.31236605045E+03  0.10100000352E+00 0. -1.
       -3    1    3    3    0  502 -0.15598660463E+03 -0.17198679498E+03 -0.17271701967E+03  0.28938289091E+03  0.10100000352E+00 0.  1.
</event>
<event>
 5   0  0.9681801E-03  0.5969826E+03  0.7818609E-02  0.9911686E-01
        2   -1    0    0  501    0  0.00000000000E+00  0.00000000000E+00  0.80570474387E+03  0.80570474388E+03  0.25500000920E-02 0. -1.
       -2   -1    0    0    0  501  0.00000000000E+00  0.00000000000E+00 -0.11058277196E+03  0.11058277199E+03  0.25500000920E-02 0.  1.
    10030    2    1    2    0    0  0.00000000000E+00  0.00000000000E+00  0.69512197191E+03  0.91628751587E+03  0.59698262614E+03 0.  0.
        4    1    3    3  502    0 -0.40001772858E+01 -0.43259848807E+02  0.80082196045E+03  0.80200052442E+03  0.12699999809E+01 0. -1.
       -4    1    3    3    0  502  0.40001772858E+01  0.43259848807E+02 -0.10569998854E+03  0.11428699145E+03  0.12699999809E+01 0.  1.
</event>
<event>
 5   0  0.9866317E-03  0.5816928E+03  0.7818609E-02  0.9944133E-01
       -2   -1    0    0    0  501  0.00000000000E+00  0.00000000000E+00  0.95197309641E+02  0.95197309675E+02  0.25500000920E-02 0. -1.
        2   -1    0    0  501    0  0.00000000000E+00  0.00000000000E+00 -0.88859260242E+03  0.88859260243E+03  0.25500000920E-02 0.  1.
    10030    2    1    2    0    0  0.00000000000E+00  0.00000000000E+00 -0.79339529278E+03  0.98378991210E+03  0.58169278880E+03 0.  0.
        1    1    3    3  502    0 -0.22117153991E+03  0.14215448295E+03 -0.60703190512E+03  0.66152284991E+03  0.50400001928E-02 0.  1.
       -1    1    3    3    0  502  0.22117153991E+03 -0.14215448295E+03 -0.18636338766E+03  0.32226706220E+03  0.50400001928E-02 0. -1.
</event>
<event>
 5   0  0.3794375E-03  0.5997425E+03  0.7818609E-02  0.9905940E-01
        3   -1    0    0  501    0  0.00000000000E+00  0.00000000000E+00  0.38677163552E+03  0.38677164871E+03  0.10100000352E+00 0.  1.
       -3   -1    0    0    0  501  0.00000000000E+00  0.00000000000E+00 -0.23249575452E+03  0.23249577646E+03  0.10100000352E+00 0. -1.
    10030    2    1    2    0    0  0.00000000000E+00  0.00000000000E+00  0.15427588100E+03  0.61926742517E+03  0.59974252510E+03 0.  0.
        1    1    3    3  502    0 -0.16273058282E+03 -0.87337367646E+02  0.32107841254E+03  0.37040573079E+03  0.50400001928E-02 0.  1.
       -1    1    3    3    0  502  0.16273058282E+03  0.87337367646E+02 -0.16680253154E+03  0.24886169438E+03  0.50400001928E-02 0. -1.
</event>
<event>
 5   0  0.5785798E-03  0.5996412E+03  0.7818609E-02  0.9906151E-01
        1   -1    0    0  501    0  0.00000000000E+00  0.00000000000E+00  0.59081764956E+03  0.59081764958E+03  0.50400001928E-02 0.  1.
       -1   -1    0    0    0  501  0.00000000000E+00  0.00000000000E+00 -0.15214912877E+03  0.15214912886E+03  0.50400001928E-02 0. -1.
    10030    2    1    2    0    0  0.00000000000E+00  0.00000000000E+00  0.43866852078E+03  0.74296677844E+03  0.59964119499E+03 0.  0.
        1    1    3    3  502    0 -0.16746827920E+03  0.21999238449E+03  0.75639489884E+02  0.28664194778E+03  0.50400001928E-02 0. -1.
       -1    1    3    3    0  502  0.16746827920E+03 -0.21999238449E+03  0.36302903090E+03  0.45632483066E+03  0.50400001928E-02 0.  1.
</event>
<event>
 5   0  0.9428629E-03  0.5999598E+03  0.7818609E-02  0.9905489E-01
        2   -1    0    0  501    0  0.00000000000E+00  0.00000000000E+00  0.14268119347E+04  0.14268119347E+04  0.25500000920E-02 0.  1.
       -2   -1    0    0    0  501  0.00000000000E+00  0.00000000000E+00 -0.63069234577E+02  0.63069234628E+02  0.25500000920E-02 0. -1.
    10030    2    1    2    0    0  0.00000000000E+00  0.00000000000E+00  0.13637427002E+04  0.14898811694E+04  0.59995978748E+03 0.  0.
        3    1    3    3  502    0  0.37272971679E+02  0.17159670447E+03  0.12858459779E+04  0.12977806412E+04  0.10100000352E+00 0.  1.
       -3    1    3    3    0  502 -0.37272971679E+02 -0.17159670447E+03  0.77896722235E+02  0.19210052821E+03  0.10100000352E+00 0. -1.
</event>
<event>
 5   0  0.5491236E-03  0.5993221E+03  0.7818609E-02  0.9906814E-01
       -1   -1    0    0    0  501  0.00000000000E+00  0.00000000000E+00  0.27869106105E+03  0.27869106110E+03  0.50400001928E-02 0. -1.
        1   -1    0    0  501    0  0.00000000000E+00  0.00000000000E+00 -0.32220889519E+03  0.32220889523E+03  0.50400001928E-02 0.  1.
    10030    2    1    2    0    0  0.00000000000E+00  0.00000000000E+00 -0.43517834140E+02  0.60089995633E+03  0.59932208005E+03 0.  0.
        3    1    3    3  502    0  0.17604986945E+03 -0.30038113103E+02 -0.26301845474E+03  0.31792225859E+03  0.10100000352E+00 0.  1.
       -3    1    3    3    0  502 -0.17604986945E+03  0.30038113103E+02  0.21950062060E+03  0.28297769774E+03  0.10100000352E+00 0. -1.
</event>
<event>
 5   0  0.5574736E-03  0.5990815E+03  0.7818609E-02  0.9907313E-01
        1   -1    0    0  501    0  0.00000000000E+00  0.00000000000E+00  0.63793407265E+03  0.63793407267E+03  0.50400001928E-02 0. -1.
       -1   -1    0    0    0  501  0.00000000000E+00  0.00000000000E+00 -0.14064881684E+03  0.14064881693E+03  0.50400001928E-02 0.  1.
    10030    2    1    2    0    0  0.00000000000E+00  0.00000000000E+00  0.49728525581E+03  0.77858288960E+03  0.59908153896E+03 0.  0.
        5    1    3    3  502    0 -0.19410778648E+03 -0.18327441668E+03  0.72183839523E+02  0.27658622754E+03  0.46999998093E+01 0. -1.
       -5    1    3    3    0  502  0.19410778648E+03  0.18327441668E+03  0.42510141629E+03  0.50199666205E+03  0.46999998093E+01 0.  1.
</event>
<event>
 5   0  0.3794375E-03  0.5986247E+03  0.7818609E-02  0.9908263E-01
       -3   -1    0    0    0  501  0.00000000000E+00  0.00000000000E+00  0.36116670323E+03  0.36116671735E+03  0.10100000352E+00 0.  1.
        3   -1    0    0  501    0  0.00000000000E+00  0.00000000000E+00 -0.24805132890E+03  0.24805134946E+03  0.10100000352E+00 0. -1.
    10030    2    1    2    0    0  0.00000000000E+00  0.00000000000E+00  0.11311537433E+03  0.60921806681E+03  0.59862472804E+03 0.  0.
        4    1    3    3  502    0  0.21632830922E+03 -0.11170290069E+03 -0.12062318785E+03  0.27171132060E+03  0.12699999809E+01 0. -1.
       -4    1    3    3    0  502 -0.21632830922E+03  0.11170290069E+03  0.23373856217E+03  0.33750674622E+03  0.12699999809E+01 0.  1.
</event>
<event>
 5   0  0.5785798E-03  0.6000464E+03  0.7818609E-02  0.9905310E-01
        1   -1    0    0  501    0  0.00000000000E+00  0.00000000000E+00  0.45871222881E+03  0.45871222884E+03  0.50400001928E-02 0. -1.
       -1   -1    0    0    0  501  0.00000000000E+00  0.00000000000E+00 -0.19623178518E+03  0.19623178524E+03  0.50400001928E-02 0.  1.
    10030    2    1    2    0    0  0.00000000000E+00  0.00000000000E+00  0.26248044364E+03  0.65494401408E+03  0.60004639678E+03 0.  0.
        1    1    3    3  502    0 -0.29776143092E+03  0.23454297341E+02  0.10033073198E+03  0.31508448012E+03  0.50400001928E-02 0.  1.
       -1    1    3    3    0  502  0.29776143092E+03 -0.23454297341E+02  0.16214971166E+03  0.33985953396E+03  0.50400001928E-02 0. -1.
</event>
<event>
 5   0  0.5785798E-03  0.6080241E+03  0.7818609E-02  0.9888897E-01
        1   -1    0    0  501    0  0.00000000000E+00  0.00000000000E+00  0.35575464284E+03  0.35575464287E+03  0.50400001928E-02 0. -1.
       -1   -1    0    0    0  501  0.00000000000E+00  0.00000000000E+00 -0.25979511034E+03  0.25979511039E+03  0.50400001928E-02 0.  1.
    10030    2    1    2    0    0  0.00000000000E+00  0.00000000000E+00  0.95959532491E+02  0.61554975326E+03  0.60802406767E+03 0.  0.
        1    1    3    3  502    0 -0.48243813995E+01 -0.30184608599E+03  0.11632990932E+02  0.30210869035E+03  0.50400001928E-02 0.  1.
       -1    1    3    3    0  502  0.48243813995E+01  0.30184608599E+03  0.84326541559E+02  0.31344106291E+03  0.50400001928E-02 0. -1.
</event>
<event>
 5   0  0.3794375E-03  0.6015313E+03  0.7818609E-02  0.9902234E-01
       -3   -1    0    0    0  501  0.00000000000E+00  0.00000000000E+00  0.41946272573E+03  0.41946273789E+03  0.10100000352E+00 0. -1.
        3   -1    0    0  501    0  0.00000000000E+00  0.00000000000E+00 -0.21565672477E+03  0.21565674842E+03  0.10100000352E+00 0.  1.
    10030    2    1    2    0    0  0.00000000000E+00  0.00000000000E+00  0.20380600096E+03  0.63511948632E+03  0.60153127589E+03 0.  0.
        4    1    3    3  502    0  0.11143659508E+02  0.29622130715E+03  0.15560677979E+03  0.33479296105E+03  0.12699999809E+01 0. -1.
       -4    1    3    3    0  502 -0.11143659508E+02 -0.29622130715E+03  0.48199221174E+02  0.30032652526E+03  0.12699999809E+01 0.  1.
</event>
<event>
 5   0  0.9428629E-03  0.6003310E+03  0.7818609E-02  0.9904720E-01
        2   -1    0    0  501    0  0.00000000000E+00  0.00000000000E+00  0.62351110493E+03  0.62351110494E+03  0.25500000920E-02 0. -1.
       -2   -1    0    0    0  501  0.00000000000E+00  0.00000000000E+00 -0.14450314197E+03  0.14450314200E+03  0.25500000920E-02 0.  1.
    10030    2    1    2    0    0  0.00000000000E+00  0.00000000000E+00  0.47900796296E+03  0.76801424693E+03  0.60033095449E+03 0.  0.
        3    1    3    3  502    0  0.20726990546E+03 -0.88467219751E+02 -0.14149796056E+02  0.22580409565E+03  0.10100000352E+00 0.  1.
       -3    1    3    3    0  502 -0.20726990546E+03  0.88467219751E+02  0.49315775902E+03  0.54221015129E+03  0.10100000352E+00 0. -1.
</event>
<event>
 5   0  0.3794375E-03  0.6000447E+03  0.7818609E-02  0.9905313E-01
       -3   -1    0    0    0  501  0.00000000000E+00  0.00000000000E+00  0.12835095739E+03  0.12835099713E+03  0.10100000352E+00 0. -1.
        3   -1    0    0  501    0  0.00000000000E+00  0.00000000000E+00 -0.70130677739E+03  0.70130678466E+03  0.10100000352E+00 0.  1.
    10030    2    1    2    0    0  0.00000000000E+00  0.00000000000E+00 -0.57295582000E+03  0.82965778179E+03  0.60004471768E+03 0.  0.
        1    1    3    3  502    0 -0.56674474036E+02 -0.11694886718E+03 -0.66037017372E+03  0.67303625452E+03  0.50400001928E-02 0.  1.
       -1    1    3    3    0  502  0.56674474036E+02  0.11694886718E+03  0.87414353719E+02  0.15662152727E+03  0.50400001928E-02 0. -1.
</event>
<event>
 5   0  0.5785798E-03  0.6005608E+03  0.7818609E-02  0.9904243E-01
       -1   -1    0    0    0  501  0.00000000000E+00  0.00000000000E+00  0.41269762419E+03  0.41269762422E+03  0.50400001928E-02 0. -1.
        1   -1    0    0  501    0  0.00000000000E+00  0.00000000000E+00 -0.21848521078E+03  0.21848521084E+03  0.50400001928E-02 0.  1.
    10030    2    1    2    0    0  0.00000000000E+00  0.00000000000E+00  0.19421241341E+03  0.63118283505E+03  0.60056082935E+03 0.  0.
        1    1    3    3  502    0  0.10937733073E+02  0.32593790484E+02  0.41062230461E+03  0.41205905675E+03  0.50400001928E-02 0. -1.
       -1    1    3    3    0  502 -0.10937733073E+02 -0.32593790484E+02 -0.21640989120E+03  0.21912377830E+03  0.50400001928E-02 0.  1.
</event>
<event>
 5   0  0.5653633E-03  0.5997551E+03  0.7818609E-02  0.9905914E-01
        1   -1    0    0  501    0  0.00000000000E+00  0.00000000000E+00  0.87257447840E+03  0.87257447841E+03  0.50400001928E-02 0.  1.
       -1   -1    0    0    0  501  0.00000000000E+00  0.00000000000E+00 -0.10305888617E+03  0.10305888629E+03  0.50400001928E-02 0. -1.
    10030    2    1    2    0    0  0.00000000000E+00  0.00000000000E+00  0.76951559223E+03  0.97563336471E+03  0.59975512973E+03 0.  0.
        2    1    3    3  502    0  0.23054249786E+02  0.29685768078E+03  0.32677322423E+03  0.44208225609E+03  0.25500000920E-02 0. -1.
       -2    1    3    3    0  502 -0.23054249786E+02 -0.29685768078E+03  0.44274236800E+03  0.53355110861E+03  0.25500000920E-02 0.  1.
</event>
<event>
 5   0  0.5491236E-03  0.5990907E+03  0.7818609E-02  0.9907294E-01
        1   -1    0    0  501    0  0.00000000000E+00  0.00000000000E+00  0.16198420292E+03  0.16198420300E+03  0.50400001928E-02 0.  1.
       -1   -1    0    0    0  501  0.00000000000E+00  0.00000000000E+00 -0.55392696917E+03  0.55392696920E+03  0.50400001928E-02 0. -1.
    10030    2    1    2    0    0  0.00000000000E+00  0.00000000000E+00 -0.39194276625E+03  0.71591117220E+03  0.59909070637E+03 0.  0.
        3    1    3    3  502    0  0.27379081133E+02 -0.13618157293E+03 -0.51311262277E+03  0.53158217496E+03  0.10100000352E+00 0. -1.
       -3    1    3    3    0  502 -0.27379081133E+02  0.13618157293E+03  0.12116985652E+03  0.18432899723E+03  0.10100000352E+00 0.  1.
</event>
<event>
 5   0  0.9866317E-03  0.6003284E+03  0.7818609E-02  0.9904725E-01
       -2   -1    0    0    0  501  0.00000000000E+00  0.00000000000E+00  0.15070722704E+03  0.15070722707E+03  0.25500000920E-02 0.  1.
        2   -1    0    0  501    0  0.00000000000E+00  0.00000000000E+00 -0.59783834931E+03  0.59783834932E+03  0.25500000920E-02 0. -1.
    10030    2    1    2    0    0  0.00000000000E+00  0.00000000000E+00 -0.44713112227E+03  0.74854557639E+03  0.60032844296E+03 0.  0.
        1    1    3    3  502    0 -0.27816032044E+03 -0.74894999205E+02 -0.11838114057E+03  0.31144264198E+03  0.50400001928E-02 0.  1.
       -1    1    3    3    0  502  0.27816032044E+03  0.74894999205E+02 -0.32874998170E+03  0.43710293441E+03  0.50400001928E-02 0. -1.
</event>
<event>
 5   0  0.9428629E-03  0.6000738E+03  0.7818609E-02  0.9905253E-01
        2   -1    0    0  501    0  0.00000000000E+00  0.00000000000E+00  0.17670397056E+04  0.17670397056E+04  0.25500000920E-02 0. -1.
       -2   -1    0    0    0  501  0.00000000000E+00  0.00000000000E+00 -0.50945169261E+02  0.50945169325E+02  0.25500000920E-02 0.  1.
    10030    2    1    2    0    0  0.00000000000E+00  0.00000000000E+00  0.17160945363E+04  0.18179848749E+04  0.60007378530E+03 0.  0.
        3    1    3    3  502    0  0.46470079314E+01  0.20618509021E+03  0.15182520279E+04  0.15321955216E+04  0.10100000352E+00 0. -1.
       -3    1    3    3    0  502 -0.46470079314E+01 -0.20618509021E+03  0.19784250845E+03  0.28578935330E+03  0.10100000352E+00 0.  1.
</event>
<event>
 5   0  0.3794375E-03  0.6001463E+03  0.7818609E-02  0.9905103E-01
       -3   -1    0    0    0  501  0.00000000000E+00  0.00000000000E+00  0.25853461730E+03  0.25853463703E+03  0.10100000352E+00 0. -1.
        3   -1    0    0  501    0  0.00000000000E+00  0.00000000000E+00 -0.34828563847E+03  0.34828565311E+03  0.10100000352E+00 0.  1.
    10030    2    1    2    0    0  0.00000000000E+00  0.00000000000E+00 -0.89751021161E+02  0.60682029014E+03  0.60014633110E+03 0.  0.
        5    1    3    3  502    0  0.26311998171E+03  0.12420827863E+03  0.29164432636E+02  0.29245935681E+03  0.46999998093E+01 0. -1.
       -5    1    3    3    0  502 -0.26311998171E+03 -0.12420827863E+03 -0.11891545380E+03  0.31436093333E+03  0.46999998093E+01 0.  1.
</event>
<event>
 5   0  0.5503975E-03  0.5997083E+03  0.7818609E-02  0.9906011E-01
        1   -1    0    0  501    0  0.00000000000E+00  0.00000000000E+00  0.71266961533E+03  0.71266961535E+03  0.50400001928E-02 0.  1.
       -1   -1    0    0    0  501  0.00000000000E+00  0.00000000000E+00 -0.12616295725E+03  0.12616295735E+03  0.50400001928E-02 0. -1.
    10030    2    1    2    0    0  0.00000000000E+00  0.00000000000E+00  0.58650665808E+03  0.83883257270E+03  0.59970828329E+03 0.  0.
        4    1    3    3  502    0 -0.17444094899E+03  0.22818608463E+03  0.41367744722E+03  0.50361610095E+03  0.12699999809E+01 0.  1.
       -4    1    3    3    0  502  0.17444094899E+03 -0.22818608463E+03  0.17282921086E+03  0.33521647175E+03  0.12699999809E+01 0. -1.
</event>
<event>
 5   0  0.5653633E-03  0.6002852E+03  0.7818609E-02  0.9904814E-01
       -1   -1    0    0    0  501  0.00000000000E+00  0.00000000000E+00  0.49150315041E+02  0.49150315300E+02  0.50400001928E-02 0.  1.
        1   -1    0    0  501    0  0.00000000000E+00  0.00000000000E+00 -0.18328589301E+04  0.18328589302E+04  0.50400001928E-02 0. -1.
    10030    2    1    2    0    0  0.00000000000E+00  0.00000000000E+00 -0.17837086151E+04  0.18820092455E+04  0.60028524584E+03 0.  0.
        2    1    3    3  502    0  0.27922502395E+03  0.10710842381E+03 -0.81212140895E+03  0.86543631270E+03  0.25500000920E-02 0.  1.
       -2    1    3    3    0  502 -0.27922502395E+03 -0.10710842381E+03 -0.97158720615E+03  0.10165729328E+04  0.25500000920E-02 0. -1.
</event>
<event>
 5   0  0.5503975E-03  0.5992801E+03  0.7818609E-02  0.9906901E-01
        1   -1    0    0  501    0  0.00000000000E+00  0.00000000000E+00  0.42492396017E+03  0.42492396020E+03  0.50400001928E-02 0.  1.
       -1   -1    0    0    0  501  0.00000000000E+00  0.00000000000E+00 -0.21129465241E+03  0.21129465247E+03  0.50400001928E-02 0. -1.
    10030    2    1    2    0    0  0.00000000000E+00  0.00000000000E+00  0.21362930776E+03  0.63621861267E+03  0.59928010311E+03 0.  0.
        4    1    3    3  502    0  0.16518403001E+03  0.16735672239E+03  0.30397235051E+03  0.38431086255E+03  0.12699999809E+01 0.  1.
       -4    1    3    3    0  502 -0.16518403001E+03 -0.16735672239E+03 -0.90343042753E+02  0.25190775012E+03  0.12699999809E+01 0. -1.
</event>
<event>
 5   0  0.5785798E-03  0.5993028E+03  0.7818609E-02  0.9906854E-01
       -1   -1    0    0    0  501  0.00000000000E+00  0.00000000000E+00  0.11578424021E+03  0.11578424032E+03  0.50400001928E-02 0.  1.
        1   -1    0    0  501    0  0.00000000000E+00  0.00000000000E+00 -0.77550248537E+03  0.77550248539E+03  0.50400001928E-02 0. -1.
    10030    2    1    2    0    0  0.00000000000E+00  0.00000000000E+00 -0.65971824517E+03  0.89128672571E+03  0.59930281529E+03 0.  0.
        1    1    3    3  502    0  0.20748833625E+03 -0.25010316720E+02 -0.64922440917E+03  0.68203318036E+03  0.50400001928E-02 0. -1.
       -1    1    3    3    0  502 -0.20748833625E+03  0.25010316720E+02 -0.10493835996E+02  0.20925354535E+03  0.50400001928E-02 0.  1.
</event>
<event>
 5   0  0.5574736E-03  0.6001072E+03  0.7818609E-02  0.9905184E-01
       -1   -1    0    0    0  501  0.00000000000E+00  0.00000000000E+00  0.63211735479E+03  0.63211735481E+03  0.50400001928E-02 0.  1.
        1   -1    0    0  501    0  0.00000000000E+00  0.00000000000E+00 -0.14242949124E+03  0.14242949133E+03  0.50400001928E-02 0. -1.
    10030    2    1    2    0    0  0.00000000000E+00  0.00000000000E+00  0.48968786354E+03  0.77454684614E+03  0.60010716807E+03 0.  0.
        5    1    3    3  502    0  0.10559044055E+03  0.21696802812E+03  0.14734689925E+02  0.24179261247E+03  0.46999998093E+01 0. -1.
       -5    1    3    3    0  502 -0.10559044055E+03 -0.21696802812E+03  0.47495317362E+03  0.53275423367E+03  0.46999998093E+01 0.  1.
</event>
<event>
 5   0  0.5503975E-03  0.5997940E+03  0.7818609E-02  0.9905834E-01
       -1   -1    0    0    0  501  0.00000000000E+00  0.00000000000E+00  0.24966750316E+03  0.24966750321E+03  0.50400001928E-02 0. -1.
        1   -1    0    0  501    0  0.00000000000E+00  0.00000000000E+00 -0.36023195181E+03  0.36023195184E+03  0.50400001928E-02 0.  1.
    10030    2    1    2    0    0  0.00000000000E+00  0.00000000000E+00 -0.11056444865E+03  0.60989945505E+03  0.59979400461E+03 0.  0.
        4    1    3    3  502    0 -0.17145545641E+03 -0.18953938072E+02 -0.30473225714E+03  0.35017079653E+03  0.12699999809E+01 0.  1.
       -4    1    3    3    0  502  0.17145545641E+03  0.18953938072E+02  0.19416780849E+03  0.25972865852E+03  0.12699999809E+01 0. -1.
</event>
<event>
 5   0  0.9681801E-03  0.6004207E+03  0.7818609E-02  0.9904534E-01
       -2   -1    0    0    0  501  0.00000000000E+00  0.00000000000E+00  0.46635683781E+02  0.46635683850E+02  0.25500000920E-02 0.  1.
        2   -1    0    0  501    0  0.00000000000E+00  0.00000000000E+00 -0.19325597471E+04  0.19325597471E+04  0.25500000920E-02 0. -1.
    10030    2    1    2    0    0  0.00000000000E+00  0.00000000000E+00 -0.18859240633E+04  0.19791954310E+04  0.60042067028E+03 0.  0.
        4    1    3    3  502    0 -0.15663510107E+03  0.10983954953E+03 -0.18033392659E+03  0.26290914687E+03  0.12699999809E+01 0.  1.
       -4    1    3    3    0  502  0.15663510107E+03 -0.10983954953E+03 -0.17055901368E+04  0.17162862841E+04  0.12699999809E+01 0. -1.
</event>
<event>
 5   0  0.3794375E-03  0.5927963E+03  0.7818609E-02  0.9920465E-01
       -3   -1    0    0    0  501  0.00000000000E+00  0.00000000000E+00  0.23286356748E+03  0.23286358938E+03  0.10100000352E+00 0.  1.
        3   -1    0    0  501    0  0.00000000000E+00  0.00000000000E+00 -0.37726754102E+03  0.37726755453E+03  0.10100000352E+00 0. -1.
    10030    2    1    2    0    0  0.00000000000E+00  0.00000000000E+00 -0.14440397353E+03  0.61013114392E+03  0.59279634379E+03 0.  0.
        2    1    3    3  502    0  0.26500989545E+03  0.72956864181E+01 -0.20862380690E+03  0.33735347121E+03  0.25500000920E-02 0. -1.
       -2    1    3    3    0  502 -0.26500989545E+03 -0.72956864181E+01  0.64219833365E+02  0.27277767271E+03  0.25500000920E-02 0.  1.
</event>
<event>
 5   0  0.9681801E-03  0.5995937E+03  0.7818609E-02  0.9906249E-01
       -2   -1    0    0    0  501  0.00000000000E+00  0.00000000000E+00  0.58029858959E+02  0.58029859015E+02  0.25500000920E-02 0.  1.
        2   -1    0    0  501    0  0.00000000000E+00  0.00000000000E+00 -0.15488257611E+04  0.15488257611E+04  0.25500000920E-02 0. -1.
    10030    2    1    2    0    0  0.00000000000E+00  0.00000000000E+00 -0.14907959021E+04  0.16068556201E+04  0.59959366412E+03 0.  0.
        4    1    3    3  502    0  0.25151027986E+02 -0.87301264221E+02  0.20242049363E+02  0.93088336572E+02  0.12699999809E+01 0.  1.
       -4    1    3    3    0  502 -0.25151027986E+02  0.87301264221E+02 -0.15110379515E+04  0.15137672835E+04  0.12699999809E+01 0. -1.
</event>
<event>
 5   0  0.5785798E-03  0.6011546E+03  0.7818609E-02  0.9903014E-01
       -1   -1    0    0    0  501  0.00000000000E+00  0.00000000000E+00  0.83094885305E+02  0.83094885458E+02  0.50400001928E-02 0.  1.
        1   -1    0    0  501    0  0.00000000000E+00  0.00000000000E+00 -0.10872716471E+04  0.10872716471E+04  0.50400001928E-02 0. -1.
    10030    2    1    2    0    0  0.00000000000E+00  0.00000000000E+00 -0.10041767618E+04  0.11703665326E+04  0.60115459879E+03 0.  0.
        1    1    3    3  502    0  0.90653315051E+02 -0.63609071052E+02 -0.10461057744E+04  0.10519512482E+04  0.50400001928E-02 0. -1.
       -1    1    3    3    0  502 -0.90653315051E+02  0.63609071052E+02  0.41929012561E+02  0.11841528436E+03  0.50400001928E-02 0.  1.
</event>
<event>
 5   0  0.5503975E-03  0.5999367E+03  0.7818609E-02  0.9905537E-01
       -1   -1    0    0    0  501  0.00000000000E+00  0.00000000000E+00  0.12411700210E+03  0.12411700220E+03  0.50400001928E-02 0. -1.
        1   -1    0    0  501    0  0.00000000000E+00  0.00000000000E+00 -0.72496925698E+03  0.72496925700E+03  0.50400001928E-02 0.  1.
    10030    2    1    2    0    0  0.00000000000E+00  0.00000000000E+00 -0.60085225488E+03  0.84908625920E+03  0.59993669947E+03 0.  0.
        4    1    3    3  502    0  0.16460980477E+03  0.27020382271E+01 -0.65531128099E+03  0.67567608862E+03  0.12699999809E+01 0.  1.
       -4    1    3    3    0  502 -0.16460980477E+03 -0.27020382271E+01  0.54459026109E+02  0.17341017058E+03  0.12699999809E+01 0. -1.
</event>
<event>
 5   0  0.9681801E-03  0.6012533E+03  0.7818609E-02  0.9902809E-01
        2   -1    0    0  501    0  0.00000000000E+00  0.00000000000E+00  0.37120334956E+03  0.37120334957E+03  0.25500000920E-02 0. -1.
       -2   -1    0    0    0  501  0.00000000000E+00  0.00000000000E+00 -0.24346865272E+03  0.24346865273E+03  0.25500000920E-02 0.  1.
    10030    2    1    2    0    0  0.00000000000E+00  0.00000000000E+00  0.12773469684E+03  0.61467200231E+03  0.60125328909E+03 0.  0.
        4    1    3    3  502    0  0.13119981857E+03 -0.15756911734E+03 -0.16088767310E+03  0.26062976688E+03  0.12699999809E+01 0.  1.
       -4    1    3    3    0  502 -0.13119981857E+03  0.15756911734E+03  0.28862236994E+03  0.35404223542E+03  0.12699999809E+01 0. -1.
</event>
<event>
 5   0  0.9681801E-03  0.6006534E+03  0.7818609E-02  0.9904051E-01
        2   -1    0    0  501    0  0.00000000000E+00  0.00000000000E+00  0.87670982800E+03  0.87670982800E+03  0.25500000920E-02 0.  1.
       -2   -1    0    0    0  501  0.00000000000E+00  0.00000000000E+00 -0.10288026746E+03  0.10288026750E+03  0.25500000920E-02 0. -1.
    10030    2    1    2    0    0  0.00000000000E+00  0.00000000000E+00  0.77382956053E+03  0.97959009550E+03  0.60065344954E+03 0.  0.
        4    1    3    3  502    0 -0.17801058651E+03 -0.16290203975E+03  0.67851617042E+03  0.72014626979E+03  0.12699999809E+01 0.  1.
       -4    1    3    3    0  502  0.17801058651E+03  0.16290203975E+03  0.95313390109E+02  0.25944382571E+03  0.12699999809E+01 0. -1.
</event>
<event>
 5   0  0.9571790E-03  0.6009830E+03  0.7818609E-02  0.9903369E-01
        2   -1    0    0  501    0  0.00000000000E+00  0.00000000000E+00  0.31318416839E+03  0.31318416840E+03  0.25500000920E-02 0. -1.
       -2   -1    0    0    0  501  0.00000000000E+00  0.00000000000E+00 -0.28831328001E+03  0.28831328002E+03  0.25500000920E-02 0.  1.
    10030    2    1    2    0    0  0.00000000000E+00  0.00000000000E+00  0.24870888380E+02  0.60149744843E+03  0.60098304417E+03 0.  0.
        5    1    3    3  502    0  0.24655384488E+03  0.16079931634E+03 -0.47847715673E+02  0.29825611889E+03  0.46999998093E+01 0.  1.
       -5    1    3    3    0  502 -0.24655384488E+03 -0.16079931634E+03  0.72718604054E+02  0.30324132953E+03  0.46999998093E+01 0. -1.
</event>
<event>
 5   0  0.9866317E-03  0.5984255E+03  0.7818609E-02  0.9908678E-01
        2   -1    0    0  501    0  0.00000000000E+00  0.00000000000E+00  0.14946208165E+04  0.14946208165E+04  0.25500000920E-02 0. -1.
       -2   -1    0    0    0  501  0.00000000000E+00  0.00000000000E+00 -0.59900314346E+02  0.59900314400E+02  0.25500000920E-02 0.  1.
    10030    2    1    2    0    0  0.00000000000E+00  0.00000000000E+00  0.14347205021E+04  0.15545211309E+04  0.59842545661E+03 0.  0.
        1    1    3    3  502    0 -0.47149356282E+00  0.86531573111E+02 -0.26686537107E+02  0.90554440749E+02  0.50400001928E-02 0.  1.
       -1    1    3    3    0  502  0.47149356282E+00 -0.86531573111E+02  0.14614070392E+04  0.14639666901E+04  0.50400001928E-02 0. -1.
</event>
<event>
 5   0  0.5574736E-03  0.6019728E+03  0.7818609E-02  0.9901322E-01
       -1   -1    0    0    0  501  0.00000000000E+00  0.00000000000E+00  0.15165090243E+03  0.15165090251E+03  0.50400001928E-02 0.  1.
        1   -1    0    0  501    0  0.00000000000E+00  0.00000000000E+00 -0.59737735832E+03  0.59737735834E+03  0.50400001928E-02 0. -1.
    10030    2    1    2    0    0  0.00000000000E+00  0.00000000000E+00 -0.44572645589E+03  0.74902826085E+03  0.60197280842E+03 0.  0.
        5    1    3    3  502    0 -0.16170385730E+03 -0.15523631481E+03 -0.47272775918E+03  0.52320175382E+03  0.46999998093E+01 0. -1.
       -5    1    3    3    0  502  0.16170385730E+03  0.15523631481E+03  0.27001303286E+02  0.22582650703E+03  0.46999998093E+01 0.  1.
</event>
<event>
 5   0  0.9571790E-03  0.5997178E+03  0.7818609E-02  0.9905992E-01
        2   -1    0    0  501    0  0.00000000000E+00  0.00000000000E+00  0.13488551887E+04  0.13488551887E+04  0.25500000920E-02 0. -1.
       -2   -1    0    0    0  501  0.00000000000E+00  0.00000000000E+00 -0.66660500328E+02  0.66660500377E+02  0.25500000920E-02 0.  1.
    10030    2    1    2    0    0  0.00000000000E+00  0.00000000000E+00  0.12821946884E+04  0.14155156891E+04  0.59971780625E+03 0.  0.
        5    1    3    3  502    0  0.23930762066E+03 -0.24186680728E+02  0.21860879850E+03  0.32506157818E+03  0.46999998093E+01 0.  1.
       -5    1    3    3    0  502 -0.23930762066E+03  0.24186680728E+02  0.10635858899E+04  0.10904541109E+04  0.46999998093E+01 0. -1.
</event>
<event>
 5   0  0.3794375E-03  0.6030369E+03  0.7818609E-02  0.9899125E-01
        4   -1    0    0  501    0  0.00000000000E+00  0.00000000000E+00  0.42361534540E+03  0.42361724912E+03  0.12699999809E+01 0. -1.
       -4   -1    0    0    0  501  0.00000000000E+00  0.00000000000E+00 -0.21460875916E+03  0.21461251690E+03  0.12699999809E+01 0.  1.
    10030    2    1    2    0    0  0.00000000000E+00  0.00000000000E+00  0.20900658623E+03  0.63822976602E+03  0.60303688208E+03 0.  0.
        3    1    3    3  502    0 -0.12920021164E+03  0.22682746621E+03 -0.55200183786E+02  0.26681541299E+03  0.10100000352E+00 0.  1.
       -3    1    3    3    0  502  0.12920021164E+03 -0.22682746621E+03  0.26420677002E+03  0.37141435304E+03  0.10100000352E+00 0. -1.
</event>
<event>
 5   0  0.9571790E-03  0.6013379E+03  0.7818609E-02  0.9902634E-01
        2   -1    0    0  501    0  0.00000000000E+00  0.00000000000E+00  0.32367147107E+03  0.32367147108E+03  0.25500000920E-02 0.  1.
       -2   -1    0    0    0  501  0.00000000000E+00  0.00000000000E+00 -0.27930120625E+03  0.27930120626E+03  0.25500000920E-02 0. -1.
    10030    2    1    2    0    0  0.00000000000E+00  0.00000000000E+00  0.44370264821E+02  0.60297267734E+03  0.60133794926E+03 0.  0.
        5    1    3    3  502    0  0.28961970331E+02  0.18877793036E+03  0.25498829280E+03  0.31861736014E+03  0.46999998093E+01 0.  1.
       -5    1    3    3    0  502 -0.28961970331E+02 -0.18877793036E+03 -0.21061802798E+03  0.28435531721E+03  0.46999998093E+01 0. -1.
</event>
<event>
 5   0  0.5491236E-03  0.5992501E+03  0.7818609E-02  0.9906963E-01
        1   -1    0    0  501    0  0.00000000000E+00  0.00000000000E+00  0.86881948718E+03  0.86881948719E+03  0.50400001928E-02 0. -1.
       -1   -1    0    0    0  501  0.00000000000E+00  0.00000000000E+00 -0.10333006735E+03  0.10333006747E+03  0.50400001928E-02 0.  1.
    10030    2    1    2    0    0  0.00000000000E+00  0.00000000000E+00  0.76548941983E+03  0.97214955466E+03  0.59925011870E+03 0.  0.
        3    1    3    3  502    0  0.16802345136E+03 -0.12074665267E+03  0.31179957163E+02  0.20924587037E+03  0.10100000352E+00 0.  1.
       -3    1    3    3    0  502 -0.16802345136E+03  0.12074665267E+03  0.73430946267E+03  0.76290368429E+03  0.10100000352E+00 0. -1.
</event>
<event>
 5   0  0.5653633E-03  0.5995820E+03  0.7818609E-02  0.9906274E-01
        1   -1    0    0  501    0  0.00000000000E+00  0.00000000000E+00  0.93247371606E+03  0.93247371608E+03  0.50400001928E-02 0. -1.
       -1   -1    0    0    0  501  0.00000000000E+00  0.00000000000E+00 -0.96383020823E+02  0.96383020954E+02  0.50400001928E-02 0.  1.
    10030    2    1    2    0    0  0.00000000000E+00  0.00000000000E+00  0.83609069524E+03  0.10288567370E+04  0.59958196660E+03 0.  0.
        2    1    3    3  502    0  0.56655725348E+02  0.26344638113E+03  0.64348815550E+03  0.69763233384E+03  0.25500000920E-02 0. -1.
       -2    1    3    3    0  502 -0.56655725348E+02 -0.26344638113E+03  0.19260253974E+03  0.33122440319E+03  0.25500000920E-02 0.  1.
</event>
<event>
 5   0  0.5491236E-03  0.5923583E+03  0.7818609E-02  0.9921388E-01
       -1   -1    0    0    0  501  0.00000000000E+00  0.00000000000E+00  0.28696927060E+03  0.28696927064E+03  0.50400001928E-02 0.  1.
        1   -1    0    0  501    0  0.00000000000E+00  0.00000000000E+00 -0.30568463630E+03  0.30568463634E+03  0.50400001928E-02 0. -1.
    10030    2    1    2    0    0  0.00000000000E+00  0.00000000000E+00 -0.18715365701E+02  0.59265390698E+03  0.59235832783E+03 0.  0.
        3    1    3    3  502    0 -0.23940853602E+03 -0.87540241676E+02  0.14152322330E+03  0.29156229860E+03  0.10100000352E+00 0.  1.
       -3    1    3    3    0  502  0.23940853602E+03  0.87540241676E+02 -0.16023858901E+03  0.30109160838E+03  0.10100000352E+00 0. -1.
</event>
<event>
 5   0  0.3794375E-03  0.6012016E+03  0.7818609E-02  0.9902916E-01
       -3   -1    0    0    0  501  0.00000000000E+00  0.00000000000E+00  0.76434355691E+03  0.76434356358E+03  0.10100000352E+00 0.  1.
        3   -1    0    0  501    0  0.00000000000E+00  0.00000000000E+00 -0.11822015102E+03  0.11822019416E+03  0.10100000352E+00 0. -1.
    10030    2    1    2    0    0  0.00000000000E+00  0.00000000000E+00  0.64612340589E+03  0.88256375775E+03  0.60120157256E+03 0.  0.
        5    1    3    3  502    0 -0.24007910291E+03 -0.13526214253E+03  0.49925176342E+03  0.57027031847E+03  0.46999998093E+01 0.  1.
       -5    1    3    3    0  502  0.24007910291E+03  0.13526214253E+03  0.14687164247E+03  0.31229343928E+03  0.46999998093E+01 0. -1.
</event>
<event>
 5   0  0.5491236E-03  0.5988670E+03  0.7818609E-02  0.9907759E-01
        1   -1    0    0  501    0  0.00000000000E+00  0.00000000000E+00  0.27585333317E+03  0.27585333322E+03  0.50400001928E-02 0.  1.
       -1   -1    0    0    0  501  0.00000000000E+00  0.00000000000E+00 -0.32502935644E+03  0.32502935648E+03  0.50400001928E-02 0. -1.
    10030    2    1    2    0    0  0.00000000000E+00  0.00000000000E+00 -0.49176023274E+02  0.60088268970E+03  0.59886703492E+03 0.  0.
        3    1    3    3  502    0  0.13057410037E+03 -0.26216250058E+03 -0.87100588840E+02  0.30555735169E+03  0.10100000352E+00 0. -1.
       -3    1    3    3    0  502 -0.13057410037E+03  0.26216250058E+03  0.37924565566E+02  0.29532533801E+03  0.10100000352E+00 0.  1.
</event>
<event>
 5   0  0.9530666E-03  0.5997223E+03  0.7818609E-02  0.9905982E-01
        2   -1    0    0  501    0  0.00000000000E+00  0.00000000000E+00  0.37232833632E+03  0.37232833632E+03  0.25500000920E-02 0.  1.
       -2   -1    0    0    0  501  0.00000000000E+00  0.00000000000E+00 -0.24149843521E+03  0.24149843522E+03  0.25500000920E-02 0. -1.
    10030    2    1    2    0    0  0.00000000000E+00  0.00000000000E+00  0.13082990111E+03  0.61382677155E+03  0.59972230444E+03 0.  0.
        2    1    3    3  502    0  0.17119802869E+02  0.22971758439E+03  0.26190235948E+03  0.34879234816E+03  0.25500000920E-02 0.  1.
       -2    1    3    3    0  502 -0.17119802869E+02 -0.22971758439E+03 -0.13107245837E+03  0.26503442338E+03  0.25500000920E-02 0. -1.
</event>
<event>
 5   0  0.5491236E-03  0.6006124E+03  0.7818609E-02  0.9904136E-01
       -1   -1    0    0    0  501  0.00000000000E+00  0.00000000000E+00  0.22427064021E+03  0.22427064026E+03  0.50400001928E-02 0. -1.
        1   -1    0    0  501    0  0.00000000000E+00  0.00000000000E+00 -0.40212051426E+03  0.40212051429E+03  0.50400001928E-02 0.  1.
    10030    2    1    2    0    0  0.00000000000E+00  0.00000000000E+00 -0.17784987405E+03  0.62639115455E+03  0.60061243810E+03 0.  0.
        3    1    3    3  502    0  0.91628257998E+02 -0.23461865420E+03  0.81624217970E+02  0.26477192775E+03  0.10100000352E+00 0.  1.
       -3    1    3    3    0  502 -0.91628257998E+02  0.23461865420E+03 -0.25947409202E+03  0.36161922680E+03  0.10100000352E+00 0. -1.
</event>
<event>
 5   0  0.5653633E-03  0.5995629E+03  0.7818609E-02  0.9906313E-01
        1   -1    0    0  501    0  0.00000000000E+00  0.00000000000E+00  0.65260946237E+03  0.65260946239E+03  0.50400001928E-02 0.  1.
       -1   -1    0    0    0  501  0.00000000000E+00  0.00000000000E+00 -0.13770702681E+03  0.13770702690E+03  0.50400001928E-02 0. -1.
    10030    2    1    2    0    0  0.00000000000E+00  0.00000000000E+00  0.51490243556E+03  0.79031648929E+03  0.59956287001E+03 0.  0.
        2    1    3    3  502    0 -0.26950105872E+03 -0.68793614474E+02  0.40485794627E+03  0.49119582522E+03  0.25500000920E-02 0.  1.
       -2    1    3    3    0  502  0.26950105872E+03  0.68793614474E+02  0.11004448929E+03  0.29912066407E+03  0.25500000920E-02 0. -1.
</event>
<event>
 5   0  0.5785798E-03  0.6006553E+03  0.7818609E-02  0.9904047E-01
       -1   -1    0    0    0  501  0.00000000000E+00  0.00000000000E+00  0.19899856907E+03  0.19899856914E+03  0.50400001928E-02 0.  1.
        1   -1    0    0  501    0  0.00000000000E+00  0.00000000000E+00 -0.45325305374E+03  0.45325305376E+03  0.50400001928E-02 0. -1.
    10030    2    1    2    0    0  0.00000000000E+00  0.00000000000E+00 -0.25425448466E+03  0.65225162290E+03  0.60065533928E+03 0.  0.
        1    1    3    3  502    0  0.25244611073E+03 -0.14833045136E+03 -0.19969386459E+03  0.35441303758E+03  0.50400001928E-02 0. -1.
       -1    1    3    3    0  502 -0.25244611073E+03  0.14833045136E+03 -0.54560620068E+02  0.29783858533E+03  0.50400001928E-02 0.  1.
</event>
<event>
 5   0  0.9866317E-03  0.6005839E+03  0.7818609E-02  0.9904195E-01
        2   -1    0    0  501    0  0.00000000000E+00  0.00000000000E+00  0.12610171905E+04  0.12610171905E+04  0.25500000920E-02 0. -1.
       -2   -1    0    0    0  501  0.00000000000E+00  0.00000000000E+00 -0.71509924525E+02  0.71509924570E+02  0.25500000920E-02 0.  1.
    10030    2    1    2    0    0  0.00000000000E+00  0.00000000000E+00  0.11895072660E+04  0.13325271151E+04  0.60058386309E+03 0.  0.
        1    1    3    3  502    0  0.39416054322E+02 -0.25370256307E+03  0.94030897600E+03  0.97473051979E+03  0.50400001928E-02 0. -1.
       -1    1    3    3    0  502 -0.39416054322E+02  0.25370256307E+03  0.24919829000E+03  0.35779659530E+03  0.50400001928E-02 0.  1.
</event>
<event>
 5   0  0.9530666E-03  0.5998708E+03  0.7818609E-02  0.9905674E-01
        2   -1    0    0  501    0  0.00000000000E+00  0.00000000000E+00  0.62967336433E+03  0.62967336434E+03  0.25500000920E-02 0. -1.
       -2   -1    0    0    0  501  0.00000000000E+00  0.00000000000E+00 -0.14286967588E+03  0.14286967590E+03  0.25500000920E-02 0.  1.
    10030    2    1    2    0    0  0.00000000000E+00  0.00000000000E+00  0.48680368845E+03  0.77254304024E+03  0.59987075102E+03 0.  0.
        2    1    3    3  502    0 -0.25724808306E+03  0.31011663772E+02  0.48843126085E+02  0.26367394733E+03  0.25500000920E-02 0.  1.
       -2    1    3    3    0  502  0.25724808306E+03 -0.31011663772E+02  0.43796056237E+03  0.50886909291E+03  0.25500000920E-02 0. -1.
</event>
<event>
 5   0  0.3794375E-03  0.6005569E+03  0.7818609E-02  0.9904251E-01
       -3   -1    0    0    0  501  0.00000000000E+00  0.00000000000E+00  0.21255530678E+03  0.21255533078E+03  0.10100000352E+00 0. -1.
        3   -1    0    0  501    0  0.00000000000E+00  0.00000000000E+00 -0.42420555652E+03  0.42420556854E+03  0.10100000352E+00 0.  1.
    10030    2    1    2    0    0  0.00000000000E+00  0.00000000000E+00 -0.21165024974E+03  0.63676089932E+03  0.60055692045E+03 0.  0.
        3    1    3    3  502    0 -0.15708711222E+03  0.12127082022E+03  0.13311351900E+03  0.23896064907E+03  0.10100000352E+00 0. -1.
       -3    1    3    3    0  502  0.15708711222E+03 -0.12127082022E+03 -0.34476376874E+03  0.39780025025E+03  0.10100000352E+00 0.  1.
</event>
<event>
 5   0  0.5491236E-03  0.6006354E+03  0.7818609E-02  0.9904089E-01
        1   -1    0    0  501    0  0.00000000000E+00  0.00000000000E+00  0.90208581559E+03  0.90208581561E+03  0.50400001928E-02 0.  1.
       -1   -1    0    0    0  501  0.00000000000E+00  0.00000000000E+00 -0.99980191066E+02  0.99980191193E+02  0.50400001928E-02 0. -1.
    10030    2    1    2    0    0  0.00000000000E+00  0.00000000000E+00  0.80210562453E+03  0.10020660068E+04  0.60063537116E+03 0.  0.
        3    1    3    3  502    0  0.63343438307E+02  0.26194435748E+03  0.17995190785E+03  0.32405236758E+03  0.10100000352E+00 0. -1.
       -3    1    3    3    0  502 -0.63343438307E+02 -0.26194435748E+03  0.62215371668E+03  0.67801363923E+03  0.10100000352E+00 0.  1.
</event>
<event>
 5   0  0.9866317E-03  0.5976147E+03  0.7818609E-02  0.9910367E-01
       -2   -1    0    0    0  501  0.00000000000E+00  0.00000000000E+00  0.49490694115E+02  0.49490694180E+02  0.25500000920E-02 0.  1.
        2   -1    0    0  501    0  0.00000000000E+00  0.00000000000E+00 -0.18040934638E+04  0.18040934638E+04  0.25500000920E-02 0. -1.
    10030    2    1    2    0    0  0.00000000000E+00  0.00000000000E+00 -0.17546027697E+04  0.18535841580E+04  0.59761471814E+03 0.  0.
        1    1    3    3  502    0  0.25064187100E+03  0.16231491928E+03 -0.91104476105E+03  0.95873355901E+03  0.50400001928E-02 0.  1.
       -1    1    3    3    0  502 -0.25064187100E+03 -0.16231491928E+03 -0.84355800862E+03  0.89485059896E+03  0.50400001928E-02 0. -1.
</event>
<event>
 5   0  0.5785798E-03  0.5999167E+03  0.7818609E-02  0.9905579E-01
       -1   -1    0    0    0  501  0.00000000000E+00  0.00000000000E+00  0.40346796199E+03  0.40346796202E+03  0.50400001928E-02 0.  1.
        1   -1    0    0  501    0  0.00000000000E+00  0.00000000000E+00 -0.22300411096E+03  0.22300411101E+03  0.50400001928E-02 0. -1.
    10030    2    1    2    0    0  0.00000000000E+00  0.00000000000E+00  0.18046385103E+03  0.62647207303E+03  0.59991670818E+03 0.  0.
        1    1    3    3  502    0  0.16676326275E+03 -0.24164992658E+03  0.26110806409E+02  0.29476507095E+03  0.50400001928E-02 0. -1.
       -1    1    3    3    0  502 -0.16676326275E+03  0.24164992658E+03  0.15435304462E+03  0.33170700208E+03  0.50400001928E-02 0.  1.
</event>
<event>
 5   0  0.5491236E-03  0.5989158E+03  0.7818609E-02  0.9907658E-01
       -1   -1    0    0    0  501  0.00000000000E+00  0.00000000000E+00  0.72303830455E+02  0.72303830631E+02  0.50400001928E-02 0.  1.
        1   -1    0    0  501    0  0.00000000000E+00  0.00000000000E+00 -0.12402528735E+04  0.12402528735E+04  0.50400001928E-02 0. -1.
    10030    2    1    2    0    0  0.00000000000E+00  0.00000000000E+00 -0.11679490430E+04  0.13125567041E+04  0.59891579912E+03 0.  0.
        3    1    3    3  502    0 -0.29623759722E+03  0.30674849571E+02 -0.51546037488E+03  0.59531258065E+03  0.10100000352E+00 0. -1.
       -3    1    3    3    0  502  0.29623759722E+03 -0.30674849571E+02 -0.65248866817E+03  0.71724412350E+03  0.10100000352E+00 0.  1.
</event>
<event>
 5   0  0.9681801E-03  0.5993693E+03  0.7818609E-02  0.9906715E-01
       -2   -1    0    0    0  501  0.00000000000E+00  0.00000000000E+00  0.18739454680E+03  0.18739454681E+03  0.25500000920E-02 0. -1.
        2   -1    0    0  501    0  0.00000000000E+00  0.00000000000E+00 -0.47926093031E+03  0.47926093031E+03  0.25500000920E-02 0.  1.
    10030    2    1    2    0    0  0.00000000000E+00  0.00000000000E+00 -0.29186638351E+03  0.66665547713E+03  0.59936928463E+03 0.  0.
        4    1    3    3  502    0 -0.24271275522E+03 -0.17504780494E+03 -0.12806567210E+03  0.32550521475E+03  0.12699999809E+01 0.  1.
       -4    1    3    3    0  502  0.24271275522E+03  0.17504780494E+03 -0.16380071141E+03  0.34115026237E+03  0.12699999809E+01 0. -1.
</event>
<event>
 5   0  0.3794375E-03  0.6018169E+03  0.7818609E-02  0.9901644E-01
       -4   -1    0    0    0  501  0.00000000000E+00  0.00000000000E+00  0.13635680522E+03  0.13636271935E+03  0.12699999809E+01 0. -1.
        4   -1    0    0  501    0  0.00000000000E+00  0.00000000000E+00 -0.66401546985E+03  0.66401668435E+03  0.12699999809E+01 0.  1.
    10030    2    1    2    0    0  0.00000000000E+00  0.00000000000E+00 -0.52765866463E+03  0.80037940370E+03  0.60181685213E+03 0.  0.
        4    1    3    3  502    0 -0.15207020931E+03 -0.14076190998E+03 -0.55400290916E+03  0.59148972951E+03  0.12699999809E+01 0.  1.
       -4    1    3    3    0  502  0.15207020931E+03  0.14076190998E+03  0.26344244528E+02  0.20888967419E+03  0.12699999809E+01 0. -1.
</event>
<event>
 5   0  0.5574736E-03  0.5995717E+03  0.7818609E-02  0.9906295E-01
       -1   -1    0    0    0  501  0.00000000000E+00  0.00000000000E+00  0.17423756790E+03  0.17423756798E+03  0.50400001928E-02 0.  1.
        1   -1    0    0  501    0  0.00000000000E+00  0.00000000000E+00 -0.51579893334E+03  0.51579893337E+03  0.50400001928E-02 0. -1.
    10030    2    1    2    0    0  0.00000000000E+00  0.00000000000E+00 -0.34156136544E+03  0.69003650134E+03  0.59957168614E+03 0.  0.
        5    1    3    3  502    0 -0.24876645634E+03  0.78248071656E+02 -0.69151154840E+00  0.26082576312E+03  0.46999998093E+01 0.  1.
       -5    1    3    3    0  502  0.24876645634E+03 -0.78248071656E+02 -0.34086985389E+03  0.42921073823E+03  0.46999998093E+01 0. -1.
</event>
<event>
 5   0  0.9866317E-03  0.5989533E+03  0.7818609E-02  0.9907580E-01
        2   -1    0    0  501    0  0.00000000000E+00  0.00000000000E+00  0.38285258727E+03  0.38285258728E+03  0.25500000920E-02 0.  1.
       -2   -1    0    0    0  501  0.00000000000E+00  0.00000000000E+00 -0.23425792437E+03  0.23425792439E+03  0.25500000920E-02 0. -1.
    10030    2    1    2    0    0  0.00000000000E+00  0.00000000000E+00  0.14859466290E+03  0.61711051166E+03  0.59895326175E+03 0.  0.
        1    1    3    3  502    0 -0.13760807214E+03 -0.14913286594E+03 -0.15262859728E+03  0.25391353244E+03  0.50400001928E-02 0. -1.
       -1    1    3    3    0  502  0.13760807214E+03  0.14913286594E+03  0.30122326018E+03  0.36319697923E+03  0.50400001928E-02 0.  1.
</event>
<event>
 5   0  0.9571790E-03  0.5993383E+03  0.7818609E-02  0.9906780E-01
        2   -1    0    0  501    0  0.00000000000E+00  0.00000000000E+00  0.18334693265E+03  0.18334693267E+03  0.25500000920E-02 0. -1.
       -2   -1    0    0    0  501  0.00000000000E+00  0.00000000000E+00 -0.48979050959E+03  0.48979050959E+03  0.25500000920E-02 0.  1.
    10030    2    1    2    0    0  0.00000000000E+00  0.00000000000E+00 -0.30644357693E+03  0.67313744226E+03  0.59933826036E+03 0.  0.
        5    1    3    3  502    0 -0.10614892886E+03 -0.28275699954E+02 -0.46631732075E+03  0.47910441861E+03  0.46999998093E+01 0.  1.
       -5    1    3    3    0  502  0.10614892886E+03  0.28275699954E+02  0.15987374382E+03  0.19403302365E+03  0.46999998093E+01 0. -1.
</event>
<event>
 5   0  0.9681801E-03  0.5998117E+03  0.7818609E-02  0.9905797E-01
       -2   -1    0    0    0  501  0.00000000000E+00  0.00000000000E+00  0.24940574281E+03  0.24940574282E+03  0.25500000920E-02 0. -1.
        2   -1    0    0  501    0  0.00000000000E+00  0.00000000000E+00 -0.36063127105E+03  0.36063127106E+03  0.25500000920E-02 0.  1.
    10030    2    1    2    0    0  0.00000000000E+00  0.00000000000E+00 -0.11122552825E+03  0.61003701388E+03  0.59981167059E+03 0.  0.
        4    1    3    3  502    0  0.26348928754E+03 -0.13779457167E+03 -0.95368119085E+02  0.31226693655E+03  0.12699999809E+01 0.  1.
       -4    1    3    3    0  502 -0.26348928754E+03  0.13779457167E+03 -0.15857409164E+02  0.29777007733E+03  0.12699999809E+01 0. -1.
</event>
<event>
 5   0  0.5491236E-03  0.5947580E+03  0.7818609E-02  0.9916342E-01
        1   -1    0    0  501    0  0.00000000000E+00  0.00000000000E+00  0.91047852958E+03  0.91047852959E+03  0.50400001928E-02 0.  1.
       -1   -1    0    0    0  501  0.00000000000E+00  0.00000000000E+00 -0.97129437100E+02  0.97129437231E+02  0.50400001928E-02 0. -1.
    10030    2    1    2    0    0  0.00000000000E+00  0.00000000000E+00  0.81334909248E+03  0.10076079668E+04  0.59475799160E+03 0.  0.
        3    1    3    3  502    0  0.63597164380E+02 -0.28955046688E+03  0.44641250746E+03  0.53588077891E+03  0.10100000352E+00 0.  1.
       -3    1    3    3    0  502 -0.63597164380E+02  0.28955046688E+03  0.36693658502E+03  0.47172718791E+03  0.10100000352E+00 0. -1.
</event>
<event>
 5   0  0.5491236E-03  0.5993053E+03  0.7818609E-02  0.9906848E-01
       -1   -1    0    0    0  501  0.00000000000E+00  0.00000000000E+00  0.49664130983E+03  0.49664130985E+03  0.50400001928E-02 0. -1.
        1   -1    0    0  501    0  0.00000000000E+00  0.00000000000E+00 -0.18079790986E+03  0.18079790993E+03  0.50400001928E-02 0.  1.
    10030    2    1    2    0    0  0.00000000000E+00  0.00000000000E+00  0.31584339997E+03  0.67743921978E+03  0.59930530049E+03 0.  0.
        3    1    3    3  502    0 -0.12403520302E+03  0.27073543293E+03  0.12027337823E+03  0.32116678213E+03  0.10100000352E+00 0.  1.
       -3    1    3    3    0  502  0.12403520302E+03 -0.27073543293E+03  0.19557002174E+03  0.35627243766E+03  0.10100000352E+00 0. -1.
</event>
<event>
 5   0  0.9428629E-03  0.6000996E+03  0.7818609E-02  0.9905199E-01
       -2   -1    0    0    0  501  0.00000000000E+00  0.00000000000E+00  0.81618925840E+02  0.81618925880E+02  0.25500000920E-02 0.  1.
        2   -1    0    0  501    0  0.00000000000E+00  0.00000000000E+00 -0.11030515764E+04  0.11030515764E+04  0.25500000920E-02 0. -1.
    10030    2    1    2    0    0  0.00000000000E+00  0.00000000000E+00 -0.10214326505E+04  0.11846705022E+04  0.60009960784E+03 0.  0.
        3    1    3    3  502    0 -0.14855195783E+03  0.19879519011E+03 -0.84365125280E+03  0.87939448391E+03  0.10100000352E+00 0. -1.
       -3    1    3    3    0  502  0.14855195783E+03 -0.19879519011E+03 -0.17778139772E+03  0.30527601832E+03  0.10100000352E+00 0.  1.
</event>
<event>
 5   0  0.9681801E-03  0.6009859E+03  0.7818609E-02  0.9903363E-01
       -2   -1    0    0    0  501  0.00000000000E+00  0.00000000000E+00  0.58701706382E+02  0.58701706438E+02  0.25500000920E-02 0.  1.
        2   -1    0    0  501    0  0.00000000000E+00  0.00000000000E+00 -0.15382180627E+04  0.15382180627E+04  0.25500000920E-02 0. -1.
    10030    2    1    2    0    0  0.00000000000E+00  0.00000000000E+00 -0.14795163563E+04  0.15969197691E+04  0.60098594032E+03 0.  0.
        4    1    3    3  502    0  0.13754586128E+03  0.23788361428E+03 -0.41664262963E+03  0.49909936048E+03  0.12699999809E+01 0.  1.
       -4    1    3    3    0  502 -0.13754586128E+03 -0.23788361428E+03 -0.10628737267E+04  0.10978204087E+04  0.12699999809E+01 0. -1.
</event>
<event>
 5   0  0.5653633E-03  0.6013811E+03  0.7818609E-02  0.9902545E-01
       -1   -1    0    0    0  501  0.00000000000E+00  0.00000000000E+00  0.48509586774E+03  0.48509586777E+03  0.50400001928E-02 0.  1.
        1   -1    0    0  501    0  0.00000000000E+00  0.00000000000E+00 -0.18638542126E+03  0.18638542133E+03  0.50400001928E-02 0. -1.
    10030    2    1    2    0    0  0.00000000000E+00  0.00000000000E+00  0.29871044648E+03  0.67148128910E+03  0.60138106951E+03 0.  0.
        2    1    3    3  502    0 -0.16410140025E+02  0.11962464965E+03  0.45683764383E+03  0.47252511290E+03  0.25500000920E-02 0.  1.
       -2    1    3    3    0  502  0.16410140025E+02 -0.11962464965E+03 -0.15812719735E+03  0.19895617619E+03  0.25500000920E-02 0. -1.
</event>
<event>
 5   0  0.5785798E-03  0.6000243E+03  0.7818609E-02  0.9905356E-01
        1   -1    0    0  501    0  0.00000000000E+00  0.00000000000E+00  0.86152572032E+02  0.86152572180E+02  0.50400001928E-02 0.  1.
       -1   -1    0    0    0  501  0.00000000000E+00  0.00000000000E+00 -0.10447429222E+04  0.10447429222E+04  0.50400001928E-02 0. -1.
    10030    2    1    2    0    0  0.00000000000E+00  0.00000000000E+00 -0.95859035018E+03  0.11308954944E+04  0.60002429935E+03 0.  0.
        1    1    3    3  502    0 -0.12474441318E+03 -0.46874462900E+02  0.27309593128E+02  0.13603013561E+03  0.50400001928E-02 0.  1.
       -1    1    3    3    0  502  0.12474441318E+03  0.46874462900E+02 -0.98589994331E+03  0.99486535879E+03  0.50400001928E-02 0. -1.
</event>
<event>
 5   0  0.5653633E-03  0.6006319E+03  0.7818609E-02  0.9904096E-01
       -1   -1    0    0    0  501  0.00000000000E+00  0.00000000000E+00  0.14583420166E+03  0.14583420175E+03  0.50400001928E-02 0.  1.
        1   -1    0    0  501    0  0.00000000000E+00  0.00000000000E+00 -0.61843970707E+03  0.61843970709E+03  0.50400001928E-02 0. -1.
    10030    2    1    2    0    0  0.00000000000E+00  0.00000000000E+00 -0.47260550541E+03  0.76427390884E+03  0.60063187061E+03 0.  0.
        2    1    3    3  502    0 -0.24834881556E+03 -0.11805418230E+02 -0.21967056532E+02  0.24959778378E+03  0.25500000920E-02 0.  1.
       -2    1    3    3    0  502  0.24834881556E+03  0.11805418230E+02 -0.45063844888E+03  0.51467612506E+03  0.25500000920E-02 0. -1.
</event>
<event>
 5   0  0.3794375E-03  0.5976564E+03  0.7818609E-02  0.9910280E-01
       -3   -1    0    0    0  501  0.00000000000E+00  0.00000000000E+00  0.89449545673E+02  0.89449602694E+02  0.10100000352E+00 0. -1.
        3   -1    0    0  501    0  0.00000000000E+00  0.00000000000E+00 -0.99830864089E+03  0.99830864600E+03  0.10100000352E+00 0.  1.
    10030    2    1    2    0    0  0.00000000000E+00  0.00000000000E+00 -0.90885909522E+03  0.10877582487E+04  0.59765638342E+03 0.  0.
        2    1    3    3  502    0  0.83781331036E+02  0.24327149713E+03 -0.73103936640E+03  0.77499605675E+03  0.25500000920E-02 0.  1.
       -2    1    3    3    0  502 -0.83781331036E+02 -0.24327149713E+03 -0.17781972882E+03  0.31276219194E+03  0.25500000920E-02 0. -1.
</event>
<event>
 5   0  0.9681801E-03  0.5997625E+03  0.7818609E-02  0.9905899E-01
        2   -1    0    0  501    0  0.00000000000E+00  0.00000000000E+00  0.79683182288E+02  0.79683182329E+02  0.25500000920E-02 0.  1.
       -2   -1    0    0    0  501  0.00000000000E+00  0.00000000000E+00 -0.11285788680E+04  0.11285788680E+04  0.25500000920E-02 0. -1.
    10030    2    1    2    0    0  0.00000000000E+00  0.00000000000E+00 -0.10488956857E+04  0.12082620503E+04  0.59976247196E+03 0.  0.
        4    1    3    3  502    0 -0.12865141726E+03  0.15501091715E+03 -0.76925483658E+02  0.21563560590E+03  0.12699999809E+01 0.  1.
       -4    1    3    3    0  502  0.12865141726E+03 -0.15501091715E+03 -0.97197020206E+03  0.99262644443E+03  0.12699999809E+01 0. -1.
</event>
<event>
 5   0  0.9681801E-03  0.5999498E+03  0.7818609E-02  0.9905510E-01
       -2   -1    0    0    0  501  0.00000000000E+00  0.00000000000E+00  0.40424867174E+02  0.40424867255E+02  0.25500000920E-02 0.  1.
        2   -1    0    0  501    0  0.00000000000E+00  0.00000000000E+00 -0.22259795603E+04  0.22259795603E+04  0.25500000920E-02 0. -1.
    10030    2    1    2    0    0  0.00000000000E+00  0.00000000000E+00 -0.21855546931E+04  0.22664044276E+04  0.59994975840E+03 0.  0.
        4    1    3    3  502    0 -0.90536951121E+01 -0.20910318807E+03 -0.28100110400E+03  0.35038456873E+03  0.12699999809E+01 0.  1.
       -4    1    3    3    0  502  0.90536951121E+01  0.20910318807E+03 -0.19045535891E+04  0.19160198588E+04  0.12699999809E+01 0. -1.
</event>
<event>
 5   0  0.9571790E-03  0.5997273E+03  0.7818609E-02  0.9905972E-01
       -2   -1    0    0    0  501  0.00000000000E+00  0.00000000000E+00  0.10414606681E+03  0.10414606684E+03  0.25500000920E-02 0. -1.
        2   -1    0    0  501    0  0.00000000000E+00  0.00000000000E+00 -0.86338561306E+03  0.86338561306E+03  0.25500000920E-02 0.  1.
    10030    2    1    2    0    0  0.00000000000E+00  0.00000000000E+00 -0.75923954624E+03  0.96753167991E+03  0.59972732391E+03 0.  0.
        5    1    3    3  502    0  0.28957683301E+03 -0.70529615660E+02 -0.32692290710E+03  0.44241365948E+03  0.46999998093E+01 0.  1.
       -5    1    3    3    0  502 -0.28957683301E+03  0.70529615660E+02 -0.43231663914E+03  0.52511802043E+03  0.46999998093E+01 0. -1.
</event>
<event>
 5   0  0.3794375E-03  0.6005816E+03  0.7818609E-02  0.9904200E-01
        3   -1    0    0  501    0  0.00000000000E+00  0.00000000000E+00  0.11916456852E+03  0.11916461132E+03  0.10100000352E+00 0. -1.
       -3   -1    0    0    0  501  0.00000000000E+00  0.00000000000E+00 -0.75672270954E+03  0.75672271628E+03  0.10100000352E+00 0.  1.
    10030    2    1    2    0    0  0.00000000000E+00  0.00000000000E+00 -0.63755814102E+03  0.87588732760E+03  0.60058157436E+03 0.  0.
        4    1    3    3  502    0  0.16132875619E+02  0.29742147330E+03 -0.37437336113E+03  0.47841073240E+03  0.12699999809E+01 0.  1.
       -4    1    3    3    0  502 -0.16132875619E+02 -0.29742147330E+03 -0.26318477989E+03  0.39747659519E+03  0.12699999809E+01 0. -1.
</event>
<event>
 5   0  0.5491236E-03  0.5997915E+03  0.7818609E-02  0.9905839E-01
       -1   -1    0    0    0  501  0.00000000000E+00  0.00000000000E+00  0.14007830246E+03  0.14007830255E+03  0.50400001928E-02 0.  1.
        1   -1    0    0  501    0  0.00000000000E+00  0.00000000000E+00 -0.64205131635E+03  0.64205131637E+03  0.50400001928E-02 0. -1.
    10030    2    1    2    0    0  0.00000000000E+00  0.00000000000E+00 -0.50197301389E+03  0.78212961893E+03  0.59979149221E+03 0.  0.
        3    1    3    3  502    0  0.41123167481E+02  0.18679536489E+02  0.13561760296E+03  0.14294119218E+03  0.10100000352E+00 0.  1.
       -3    1    3    3    0  502 -0.41123167481E+02 -0.18679536489E+02 -0.63759061685E+03  0.63918842675E+03  0.10100000352E+00 0. -1.
</event>
<event>
 5   0  0.5653633E-03  0.6050091E+03  0.7818609E-02  0.9895068E-01
       -1   -1    0    0    0  501  0.00000000000E+00  0.00000000000E+00  0.60793444776E+03  0.60793444779E+03  0.50400001928E-02 0.  1.
        1   -1    0    0  501    0  0.00000000000E+00  0.00000000000E+00 -0.15052443494E+03  0.15052443502E+03  0.50400001928E-02 0. -1.
    10030    2    1    2    0    0  0.00000000000E+00  0.00000000000E+00  0.45741001283E+03  0.75845888281E+03  0.60500905537E+03 0.  0.
        2    1    3    3  502    0  0.16809180394E+03  0.20311064718E+03  0.42760445739E+02  0.26709033168E+03  0.25500000920E-02 0. -1.
       -2    1    3    3    0  502 -0.16809180394E+03 -0.20311064718E+03  0.41464956709E+03  0.49136855113E+03  0.25500000920E-02 0.  1.
</event>
<event>
 5   0  0.9866317E-03  0.5999255E+03  0.7818609E-02  0.9905561E-01
        2   -1    0    0  501    0  0.00000000000E+00  0.00000000000E+00  0.15107284549E+04  0.15107284549E+04  0.25500000920E-02 0. -1.
       -2   -1    0    0    0  501  0.00000000000E+00  0.00000000000E+00 -0.59559118954E+02  0.59559119009E+02  0.25500000920E-02 0.  1.
    10030    2    1    2    0    0  0.00000000000E+00  0.00000000000E+00  0.14511693359E+04  0.15702875739E+04  0.59992551470E+03 0.  0.
        1    1    3    3  502    0 -0.10207437985E+03 -0.23399767105E+03  0.31335529937E+03  0.40418514662E+03  0.50400001928E-02 0.  1.
       -1    1    3    3    0  502  0.10207437985E+03  0.23399767105E+03  0.11378140366E+04  0.11661024273E+04  0.50400001928E-02 0. -1.
</event>
<event>
 5   0  0.5653633E-03  0.6007836E+03  0.7818609E-02  0.9903782E-01
        1   -1    0    0  501    0  0.00000000000E+00  0.00000000000E+00  0.97372740366E+02  0.97372740496E+02  0.50400001928E-02 0.  1.
       -1   -1    0    0    0  501  0.00000000000E+00  0.00000000000E+00 -0.92669921006E+03  0.92669921008E+03  0.50400001928E-02 0. -1.
    10030    2    1    2    0    0  0.00000000000E+00  0.00000000000E+00 -0.82932646970E+03  0.10240719506E+04  0.60078362712E+03 0.  0.
        2    1    3    3  502    0 -0.84468258708E+02 -0.14121026663E+03 -0.84304748610E+03  0.85895534806E+03  0.25500000920E-02 0. -1.
       -2    1    3    3    0  502  0.84468258708E+02  0.14121026663E+03  0.13721016401E+02  0.16511660252E+03  0.25500000920E-02 0.  1.
</event>
<event>
 5   0  0.9866317E-03  0.5995257E+03  0.7818609E-02  0.9906391E-01
       -2   -1    0    0    0  501  0.00000000000E+00  0.00000000000E+00  0.32676582727E+03  0.32676582728E+03  0.25500000920E-02 0. -1.
        2   -1    0    0  501    0  0.00000000000E+00  0.00000000000E+00 -0.27499132393E+03  0.27499132394E+03  0.25500000920E-02 0.  1.
    10030    2    1    2    0    0  0.00000000000E+00  0.00000000000E+00  0.51774503340E+02  0.60175715122E+03  0.59952570408E+03 0.  0.
        1    1    3    3  502    0  0.17022451516E+03 -0.24664675508E+03  0.32750837940E+02  0.30146911080E+03  0.50400001928E-02 0.  1.
       -1    1    3    3    0  502 -0.17022451516E+03  0.24664675508E+03  0.19023665400E+02  0.30028804043E+03  0.50400001928E-02 0. -1.
</event>
<event>
 5   0  0.5574736E-03  0.6008070E+03  0.7818609E-02  0.9903733E-01
        1   -1    0    0  501    0  0.00000000000E+00  0.00000000000E+00  0.17957947445E+03  0.17957947452E+03  0.50400001928E-02 0.  1.
       -1   -1    0    0    0  501  0.00000000000E+00  0.00000000000E+00 -0.50251994896E+03  0.50251994898E+03  0.50400001928E-02 0. -1.
    10030    2    1    2    0    0  0.00000000000E+00  0.00000000000E+00 -0.32294047451E+03  0.68209942350E+03  0.60080701848E+03 0.  0.
        5    1    3    3  502    0  0.10769803384E+03 -0.38251706082E+02 -0.47682798157E+03  0.49035606810E+03  0.46999998093E+01 0. -1.
       -5    1    3    3    0  502 -0.10769803384E+03  0.38251706082E+02  0.15388750706E+03  0.19174335540E+03  0.46999998093E+01 0.  1.
</event>
<event>
 5   0  0.9530666E-03  0.6009177E+03  0.7818609E-02  0.9903504E-01
        2   -1    0    0  501    0  0.00000000000E+00  0.00000000000E+00  0.64718684389E+03  0.64718684390E+03  0.25500000920E-02 0. -1.
       -2   -1    0    0    0  501  0.00000000000E+00  0.00000000000E+00 -0.13948910802E+03  0.13948910804E+03  0.25500000920E-02 0.  1.
    10030    2    1    2    0    0  0.00000000000E+00  0.00000000000E+00  0.50769773588E+03  0.78667595194E+03  0.60091768350E+03 0.  0.
        2    1    3    3  502    0 -0.29682878402E+03  0.38895229733E+02  0.22033554976E+03  0.37170945698E+03  0.25500000920E-02 0.  1.
       -2    1    3    3    0  502  0.29682878402E+03 -0.38895229733E+02  0.28736218612E+03  0.41496649496E+03  0.25500000920E-02 0. -1.
</event>
<event>
 5   0  0.5503975E-03  0.6026403E+03  0.7818609E-02  0.9899943E-01
       -1   -1    0    0    0  501  0.00000000000E+00  0.00000000000E+00  0.73899763981E+02  0.73899764153E+02  0.50400001928E-02 0.  1.
        1   -1    0    0  501    0  0.00000000000E+00  0.00000000000E+00 -0.12286077687E+04  0.12286077687E+04  0.50400001928E-02 0. -1.
    10030    2    1    2    0    0  0.00000000000E+00  0.00000000000E+00 -0.11547080047E+04  0.13025075328E+04  0.60264027163E+03 0.  0.
        4    1    3    3  502    0 -0.76356144273E+02  0.21174618772E+02  0.50972471412E+02  0.94225426452E+02  0.12699999809E+01 0.  1.
       -4    1    3    3    0  502  0.76356144273E+02 -0.21174618772E+02 -0.12056804761E+04  0.12082821064E+04  0.12699999809E+01 0. -1.
</event>
<event>
 5   0  0.9681801E-03  0.5995413E+03  0.7818609E-02  0.9906358E-01
        2   -1    0    0  501    0  0.00000000000E+00  0.00000000000E+00  0.12439022960E+04  0.12439022960E+04  0.25500000920E-02 0. -1.
       -2   -1    0    0    0  501  0.00000000000E+00  0.00000000000E+00 -0.72242374748E+02  0.72242374793E+02  0.25500000920E-02 0.  1.
    10030    2    1    2    0    0  0.00000000000E+00  0.00000000000E+00  0.11716599212E+04  0.13161446708E+04  0.59954134419E+03 0.  0.
        4    1    3    3  502    0 -0.11714496170E+03 -0.25311332822E+03  0.82702362887E+03  0.87278805823E+03  0.12699999809E+01 0. -1.
       -4    1    3    3    0  502  0.11714496170E+03  0.25311332822E+03  0.34463629235E+03  0.44335661254E+03  0.12699999809E+01 0.  1.
</event>
<event>
 5   0  0.5491236E-03  0.5997473E+03  0.7818609E-02  0.9905930E-01
        1   -1    0    0  501    0  0.00000000000E+00  0.00000000000E+00  0.26518993454E+03  0.26518993459E+03  0.50400001928E-02 0.  1.
       -1   -1    0    0    0  501  0.00000000000E+00  0.00000000000E+00 -0.33909360032E+03  0.33909360036E+03  0.50400001928E-02 0. -1.
    10030    2    1    2    0    0  0.00000000000E+00  0.00000000000E+00 -0.73903665781E+02  0.60428353495E+03  0.59974731245E+03 0.  0.
        3    1    3    3  502    0  0.12557630021E+03 -0.48921692836E+01 -0.31128098860E+03  0.33569212764E+03  0.10100000352E+00 0. -1.
       -3    1    3    3    0  502 -0.12557630021E+03  0.48921692836E+01  0.23737732282E+03  0.26859140731E+03  0.10100000352E+00 0.  1.
</event>
<event>
 5   0  0.9571790E-03  0.6024610E+03  0.7818609E-02  0.9900313E-01
       -2   -1    0    0    0  501  0.00000000000E+00  0.00000000000E+00  0.31226444076E+03  0.31226444077E+03  0.25500000920E-02 0.  1.
        2   -1    0    0  501    0  0.00000000000E+00  0.00000000000E+00 -0.29058645238E+03  0.29058645239E+03  0.25500000920E-02 0. -1.
    10030    2    1    2    0    0  0.00000000000E+00  0.00000000000E+00  0.21677988377E+02  0.60285089316E+03  0.60246100638E+03 0.  0.
        5    1    3    3  502    0 -0.30932413102E+02  0.18160983003E+03 -0.22759819848E+03  0.29285145466E+03  0.46999998093E+01 0. -1.
       -5    1    3    3    0  502  0.30932413102E+02 -0.18160983003E+03  0.24927618686E+03  0.30999943851E+03  0.46999998093E+01 0.  1.
</event>
<event>
 5   0  0.9571790E-03  0.5968333E+03  0.7818609E-02  0.9911998E-01
        2   -1    0    0  501    0  0.00000000000E+00  0.00000000000E+00  0.11662338828E+04  0.11662338828E+04  0.25500000920E-02 0.  1.
       -2   -1    0    0    0  501  0.00000000000E+00  0.00000000000E+00 -0.76359029836E+02  0.76359029878E+02  0.25500000920E-02 0. -1.
    10030    2    1    2    0    0  0.00000000000E+00  0.00000000000E+00  0.10898748529E+04  0.12425929127E+04  0.59683326944E+03 0.  0.
        5    1    3    3  502    0 -0.24993903602E+03 -0.65682494197E+02  0.23440388828E+03  0.34892833735E+03  0.46999998093E+01 0. -1.
       -5    1    3    3    0  502  0.24993903602E+03  0.65682494197E+02  0.85547096466E+03  0.89366457530E+03  0.46999998093E+01 0.  1.
</event>
<event>
 5   0  0.9866317E-03  0.5987917E+03  0.7818609E-02  0.9907916E-01
        2   -1    0    0  501    0  0.00000000000E+00  0.00000000000E+00  0.15963919915E+04  0.15963919915E+04  0.25500000920E-02 0. -1.
       -2   -1    0    0    0  501  0.00000000000E+00  0.00000000000E+00 -0.56150284051E+02  0.56150284109E+02  0.25500000920E-02 0.  1.
    10030    2    1    2    0    0  0.00000000000E+00  0.00000000000E+00  0.15402417075E+04  0.16525422757E+04  0.59879166271E+03 0.  0.
        1    1    3    3  502    0 -0.22271327707E+03  0.36879817225E+02  0.13128718587E+04  0.13321388224E+04  0.50400001928E-02 0. -1.
       -1    1    3    3    0  502  0.22271327707E+03 -0.36879817225E+02  0.22736984876E+03  0.32040345325E+03  0.50400001928E-02 0.  1.
</event>
<event>
 5   0  0.5653633E-03  0.5968610E+03  0.7818609E-02  0.9911940E-01
       -1   -1    0    0    0  501  0.00000000000E+00  0.00000000000E+00  0.14242723421E+03  0.14242723430E+03  0.50400001928E-02 0. -1.
        1   -1    0    0  501    0  0.00000000000E+00  0.00000000000E+00 -0.62530704121E+03  0.62530704123E+03  0.50400001928E-02 0.  1.
    10030    2    1    2    0    0  0.00000000000E+00  0.00000000000E+00 -0.48287980700E+03  0.76773427553E+03  0.59686096355E+03 0.  0.
        2    1    3    3  502    0 -0.47779173564E+02 -0.17128304824E+03 -0.54971968834E+03  0.57776506280E+03  0.25500000920E-02 0.  1.
       -2    1    3    3    0  502  0.47779173564E+02  0.17128304824E+03  0.66839881336E+02  0.18996921273E+03  0.25500000920E-02 0. -1.
</event>
<event>
 5   0  0.5491236E-03  0.6009938E+03  0.7818609E-02  0.9903346E-01
       -1   -1    0    0    0  501  0.00000000000E+00  0.00000000000E+00  0.61795028307E+02  0.61795028513E+02  0.50400001928E-02 0. -1.
        1   -1    0    0  501    0  0.00000000000E+00  0.00000000000E+00 -0.14612565414E+04  0.14612565414E+04  0.50400001928E-02 0.  1.
    10030    2    1    2    0    0  0.00000000000E+00  0.00000000000E+00 -0.13994615131E+04  0.15230515700E+04  0.60099380864E+03 0.  0.
        3    1    3    3  502    0  0.25835630336E+03 -0.13458088261E+03 -0.88661798335E+03  0.93324779778E+03  0.10100000352E+00 0.  1.
       -3    1    3    3    0  502 -0.25835630336E+03  0.13458088261E+03 -0.51284352978E+03  0.58980377219E+03  0.10100000352E+00 0. -1.
</event>
<event>
 5   0  0.5785798E-03  0.6001774E+03  0.7818609E-02  0.9905038E-01
        1   -1    0    0  501    0  0.00000000000E+00  0.00000000000E+00  0.12131499132E+04  0.12131499132E+04  0.50400001928E-02 0.  1.
       -1   -1    0    0    0  501  0.00000000000E+00  0.00000000000E+00 -0.74230917554E+02  0.74230917725E+02  0.50400001928E-02 0. -1.
    10030    2    1    2    0    0  0.00000000000E+00  0.00000000000E+00  0.11389189957E+04  0.12873808310E+04  0.60017741146E+03 0.  0.
        1    1    3    3  502    0  0.15626772907E+03  0.10615996557E+03  0.69330708243E+02  0.20123689664E+03  0.50400001928E-02 0. -1.
       -1    1    3    3    0  502 -0.15626772907E+03 -0.10615996557E+03  0.10695882874E+04  0.10861439343E+04  0.50400001928E-02 0.  1.
</event>
<event>
 5   0  0.9681801E-03  0.5996642E+03  0.7818609E-02  0.9906103E-01
       -2   -1    0    0    0  501  0.00000000000E+00  0.00000000000E+00  0.41638181817E+03  0.41638181817E+03  0.25500000920E-02 0. -1.
        2   -1    0    0  501    0  0.00000000000E+00  0.00000000000E+00 -0.21590589847E+03  0.21590589849E+03  0.25500000920E-02 0.  1.
    10030    2    1    2    0    0  0.00000000000E+00  0.00000000000E+00  0.20047591970E+03  0.63228771666E+03  0.59966420792E+03 0.  0.
        4    1    3    3  502    0  0.10606577789E+03  0.19502967381E+03  0.31272345356E+03  0.38351544195E+03  0.12699999809E+01 0. -1.
       -4    1    3    3    0  502 -0.10606577789E+03 -0.19502967381E+03 -0.11224753386E+03  0.24877227471E+03  0.12699999809E+01 0.  1.
</event>
<event>
 5   0  0.5574736E-03  0.6001287E+03  0.7818609E-02  0.9905139E-01
        1   -1    0    0  501    0  0.00000000000E+00  0.00000000000E+00  0.45201553261E+03  0.45201553264E+03  0.50400001928E-02 0. -1.
       -1   -1    0    0    0  501  0.00000000000E+00  0.00000000000E+00 -0.19919360063E+03  0.19919360069E+03  0.50400001928E-02 0.  1.
    10030    2    1    2    0    0  0.00000000000E+00  0.00000000000E+00  0.25282193198E+03  0.65120913333E+03  0.60012865790E+03 0.  0.
        5    1    3    3  502    0  0.10290081485E+03  0.32596731201E+02 -0.17735440143E+03  0.20767233394E+03  0.46999998093E+01 0.  1.
       -5    1    3    3    0  502 -0.10290081485E+03 -0.32596731201E+02  0.43017633341E+03  0.44353679938E+03  0.46999998093E+01 0. -1.
</event>
<event>
 5   0  0.5503975E-03  0.5995556E+03  0.7818609E-02  0.9906328E-01
       -1   -1    0    0    0  501  0.00000000000E+00  0.00000000000E+00  0.44119923882E+03  0.44119923885E+03  0.50400001928E-02 0.  1.
        1   -1    0    0  501    0  0.00000000000E+00  0.00000000000E+00 -0.20368742753E+03  0.20368742759E+03  0.50400001928E-02 0. -1.
    10030    2    1    2    0    0  0.00000000000E+00  0.00000000000E+00  0.23751181130E+03  0.64488666644E+03  0.59955562882E+03 0.  0.
        4    1    3    3  502    0  0.32416388320E+02  0.37043699317E+02  0.43681961619E+03  0.43958622348E+03  0.12699999809E+01 0.  1.
       -4    1    3    3    0  502 -0.32416388320E+02 -0.37043699317E+02 -0.19930780489E+03  0.20530044296E+03  0.12699999809E+01 0. -1.
</event>
<event>
 5   0  0.5653633E-03  0.6021117E+03  0.7818609E-02  0.9901035E-01
       -1   -1    0    0    0  501  0.00000000000E+00  0.00000000000E+00  0.44278254692E+02  0.44278254979E+02  0.50400001928E-02 0.  1.
        1   -1    0    0  501    0  0.00000000000E+00  0.00000000000E+00 -0.20469329196E+04  0.20469329196E+04  0.50400001928E-02 0. -1.
    10030    2    1    2    0    0  0.00000000000E+00  0.00000000000E+00 -0.20026546649E+04  0.20912111746E+04  0.60211167555E+03 0.  0.
        2    1    3    3  502    0  0.19817714542E+03  0.15363070737E+03 -0.42267826390E+03  0.49146056810E+03  0.25500000920E-02 0.  1.
       -2    1    3    3    0  502 -0.19817714542E+03 -0.15363070737E+03 -0.15799764010E+04  0.15997506065E+04  0.25500000920E-02 0. -1.
</event>
<event>
 5   0  0.9428629E-03  0.6000527E+03  0.7818609E-02  0.9905297E-01
       -2   -1    0    0    0  501  0.00000000000E+00  0.00000000000E+00  0.72332335581E+02  0.72332335626E+02  0.25500000920E-02 0.  1.
        2   -1    0    0  501    0  0.00000000000E+00  0.00000000000E+00 -0.12444752727E+04  0.12444752727E+04  0.25500000920E-02 0. -1.
    10030    2    1    2    0    0  0.00000000000E+00  0.00000000000E+00 -0.11721429371E+04  0.13168076084E+04  0.60005267462E+03 0.  0.
        3    1    3    3  502    0 -0.25771838676E+02 -0.25158969211E+03 -0.94029066181E+03  0.97370842645E+03  0.10100000352E+00 0. -1.
       -3    1    3    3    0  502  0.25771838676E+02  0.25158969211E+03 -0.23185227533E+03  0.34309918190E+03  0.10100000352E+00 0.  1.
</event>
<event>
 5   0  0.9681801E-03  0.5999678E+03  0.7818609E-02  0.9905473E-01
       -2   -1    0    0    0  501  0.00000000000E+00  0.00000000000E+00  0.69849135126E+02  0.69849135173E+02  0.25500000920E-02 0. -1.
        2   -1    0    0  501    0  0.00000000000E+00  0.00000000000E+00 -0.12883528343E+04  0.12883528343E+04  0.25500000920E-02 0.  1.
    10030    2    1    2    0    0  0.00000000000E+00  0.00000000000E+00 -0.12185036991E+04  0.13582019694E+04  0.59996776995E+03 0.  0.
        4    1    3    3  502    0  0.41597150784E+02  0.93892462291E+02 -0.12473142629E+04  0.12515352975E+04  0.12699999809E+01 0.  1.
       -4    1    3    3    0  502 -0.41597150784E+02 -0.93892462291E+02  0.28810563765E+02  0.10666667199E+03  0.12699999809E+01 0. -1.
</event>
<event>
 5   0  0.9428629E-03  0.5996375E+03  0.7818609E-02  0.9906158E-01
       -2   -1    0    0    0  501  0.00000000000E+00  0.00000000000E+00  0.12784070654E+03  0.12784070656E+03  0.25500000920E-02 0.  1.
        2   -1    0    0  501    0  0.00000000000E+00  0.00000000000E+00 -0.70315079911E+03  0.70315079912E+03  0.25500000920E-02 0. -1.
    10030    2    1    2    0    0  0.00000000000E+00  0.00000000000E+00 -0.57531009257E+03  0.83099150568E+03  0.59963754043E+03 0.  0.
        3    1    3    3  502    0 -0.17604412322E+03 -0.95615172197E+02  0.21471999752E+02  0.20148164047E+03  0.10100000352E+00 0.  1.
       -3    1    3    3    0  502  0.17604412322E+03  0.95615172197E+02 -0.59678209233E+03  0.62950986521E+03  0.10100000352E+00 0. -1.
</event>
<event>
 5   0  0.9428629E-03  0.6000699E+03  0.7818609E-02  0.9905261E-01
       -2   -1    0    0    0  501  0.00000000000E+00  0.00000000000E+00  0.12904504300E+03  0.12904504302E+03  0.25500000920E-02 0. -1.
        2   -1    0    0  501    0  0.00000000000E+00  0.00000000000E+00 -0.69759333542E+03  0.69759333542E+03  0.25500000920E-02 0.  1.
    10030    2    1    2    0    0  0.00000000000E+00  0.00000000000E+00 -0.56854829242E+03  0.82663837845E+03  0.60006986919E+03 0.  0.
        3    1    3    3  502    0  0.22178409259E+03  0.18822540536E+03 -0.38554162577E+03  0.48296929752E+03  0.10100000352E+00 0.  1.
       -3    1    3    3    0  502 -0.22178409259E+03 -0.18822540536E+03 -0.18300666665E+03  0.34366908093E+03  0.10100000352E+00 0. -1.
</event>
<event>
 5   0  0.5574736E-03  0.6103712E+03  0.7818609E-02  0.9884120E-01
        1   -1    0    0  501    0  0.00000000000E+00  0.00000000000E+00  0.86516780712E+03  0.86516780714E+03  0.50400001928E-02 0. -1.
       -1   -1    0    0    0  501  0.00000000000E+00  0.00000000000E+00 -0.10765338875E+03  0.10765338887E+03  0.50400001928E-02 0.  1.
    10030    2    1    2    0    0  0.00000000000E+00  0.00000000000E+00  0.75751441838E+03  0.97282119600E+03  0.61037118653E+03 0.  0.
        5    1    3    3  502    0  0.21924472350E+03  0.21696435453E+02  0.42249313835E+02  0.22437931859E+03  0.46999998093E+01 0.  1.
       -5    1    3    3    0  502 -0.21924472350E+03 -0.21696435453E+02  0.71526510454E+03  0.74844187741E+03  0.46999998093E+01 0. -1.
</event>
<event>
 5   0  0.5503975E-03  0.5977312E+03  0.7818609E-02  0.9910124E-01
       -1   -1    0    0    0  501  0.00000000000E+00  0.00000000000E+00  0.37303798472E+03  0.37303798475E+03  0.50400001928E-02 0.  1.
        1   -1    0    0  501    0  0.00000000000E+00  0.00000000000E+00 -0.23944114201E+03  0.23944114207E+03  0.50400001928E-02 0. -1.
    10030    2    1    2    0    0  0.00000000000E+00  0.00000000000E+00  0.13359684271E+03  0.61247912682E+03  0.59773118072E+03 0.  0.
        4    1    3    3  502    0 -0.68792491058E+02 -0.21685002171E+03  0.26539132288E+03  0.34955758596E+03  0.12699999809E+01 0.  1.
       -4    1    3    3    0  502  0.68792491058E+02  0.21685002171E+03 -0.13179448018E+03  0.26292154086E+03  0.12699999809E+01 0. -1.
</event>
<event>
 5   0  0.3794375E-03  0.6004065E+03  0.7818609E-02  0.9904563E-01
       -3   -1    0    0    0  501  0.00000000000E+00  0.00000000000E+00  0.10534583626E+04  0.10534583675E+04  0.10100000352E+00 0. -1.
        3   -1    0    0  501    0  0.00000000000E+00  0.00000000000E+00 -0.85548658387E+02  0.85548718008E+02  0.10100000352E+00 0.  1.
    10030    2    1    2    0    0  0.00000000000E+00  0.00000000000E+00  0.96790970423E+03  0.11390070855E+04  0.60040648331E+03 0.  0.
        5    1    3    3  502    0  0.32227957566E+02  0.10334954730E+03  0.10150643054E+04  0.10208317218E+04  0.46999998093E+01 0. -1.
       -5    1    3    3    0  502 -0.32227957566E+02 -0.10334954730E+03 -0.47154601134E+02  0.11817536368E+03  0.46999998093E+01 0.  1.
</event>
<event>
 5   0  0.5491236E-03  0.5998021E+03  0.7818609E-02  0.9905817E-01
       -1   -1    0    0    0  501  0.00000000000E+00  0.00000000000E+00  0.10927817606E+03  0.10927817618E+03  0.50400001928E-02 0.  1.
        1   -1    0    0  501    0  0.00000000000E+00  0.00000000000E+00 -0.82304314845E+03  0.82304314846E+03  0.50400001928E-02 0. -1.
    10030    2    1    2    0    0  0.00000000000E+00  0.00000000000E+00 -0.71376497238E+03  0.93232132464E+03  0.59980214786E+03 0.  0.
        3    1    3    3  502    0 -0.81453295991E+02  0.10292866988E+02 -0.80523480953E+03  0.80940947067E+03  0.10100000352E+00 0. -1.
       -3    1    3    3    0  502  0.81453295991E+02 -0.10292866988E+02  0.91469837144E+02  0.12291185397E+03  0.10100000352E+00 0.  1.
</event>
<event>
 5   0  0.5785798E-03  0.6020229E+03  0.7818609E-02  0.9901218E-01
       -1   -1    0    0    0  501  0.00000000000E+00  0.00000000000E+00  0.63989242227E+02  0.63989242425E+02  0.50400001928E-02 0.  1.
        1   -1    0    0  501    0  0.00000000000E+00  0.00000000000E+00 -0.14159862022E+04  0.14159862022E+04  0.50400001928E-02 0. -1.
    10030    2    1    2    0    0  0.00000000000E+00  0.00000000000E+00 -0.13519969600E+04  0.14799754446E+04  0.60202287078E+03 0.  0.
        1    1    3    3  502    0  0.24709954211E+03 -0.11549447628E+03 -0.98899734163E+03  0.10259205133E+04  0.50400001928E-02 0. -1.
       -1    1    3    3    0  502 -0.24709954211E+03  0.11549447628E+03 -0.36299961836E+03  0.45405493138E+03  0.50400001928E-02 0.  1.
</event>
<event>
 5   0  0.9681801E-03  0.5995399E+03  0.7818609E-02  0.9906361E-01
        2   -1    0    0  501    0  0.00000000000E+00  0.00000000000E+00  0.24579210974E+03  0.24579210975E+03  0.25500000920E-02 0. -1.
       -2   -1    0    0    0  501  0.00000000000E+00  0.00000000000E+00 -0.36560173916E+03  0.36560173917E+03  0.25500000920E-02 0.  1.
    10030    2    1    2    0    0  0.00000000000E+00  0.00000000000E+00 -0.11980962942E+03  0.61139384892E+03  0.59953989959E+03 0.  0.
        4    1    3    3  502    0 -0.28704488326E+03 -0.71723326034E+02 -0.10903844385E+03  0.31532522201E+03  0.12699999809E+01 0.  1.
       -4    1    3    3    0  502  0.28704488326E+03  0.71723326034E+02 -0.10771185578E+02  0.29606862691E+03  0.12699999809E+01 0. -1.
</event>
<event>
 5   0  0.9866317E-03  0.6012970E+03  0.7818609E-02  0.9902719E-01
        2   -1    0    0  501    0  0.00000000000E+00  0.00000000000E+00  0.74601031928E+03  0.74601031928E+03  0.25500000920E-02 0. -1.
       -2   -1    0    0    0  501  0.00000000000E+00  0.00000000000E+00 -0.12116391327E+03  0.12116391330E+03  0.25500000920E-02 0.  1.
    10030    2    1    2    0    0  0.00000000000E+00  0.00000000000E+00  0.62484640600E+03  0.86717423258E+03  0.60129703022E+03 0.  0.
        1    1    3    3  502    0 -0.10787706774E+03  0.26642026881E+03  0.18528024427E+03  0.34197366904E+03  0.50400001928E-02 0.  1.
       -1    1    3    3    0  502  0.10787706774E+03 -0.26642026881E+03  0.43956616173E+03  0.52520056354E+03  0.50400001928E-02 0. -1.
</event>
<event>
 5   0  0.9530666E-03  0.6002725E+03  0.7818609E-02  0.9904841E-01
       -2   -1    0    0    0  501  0.00000000000E+00  0.00000000000E+00  0.21971713322E+03  0.21971713323E+03  0.25500000920E-02 0. -1.
        2   -1    0    0  501    0  0.00000000000E+00  0.00000000000E+00 -0.40998978546E+03  0.40998978547E+03  0.25500000920E-02 0.  1.
    10030    2    1    2    0    0  0.00000000000E+00  0.00000000000E+00 -0.19027265224E+03  0.62970691870E+03  0.60027253916E+03 0.  0.
        2    1    3    3  502    0  0.14598326431E+03 -0.26224142839E+03 -0.95468206339E+02  0.31495374049E+03  0.25500000920E-02 0.  1.
       -2    1    3    3    0  502 -0.14598326431E+03  0.26224142839E+03 -0.94804445900E+02  0.31475317821E+03  0.25500000920E-02 0. -1.
</event>
<event>
 5   0  0.5785798E-03  0.6019695E+03  0.7818609E-02  0.9901328E-01
       -1   -1    0    0    0  501  0.00000000000E+00  0.00000000000E+00  0.39465842195E+03  0.39465842198E+03  0.50400001928E-02 0.  1.
        1   -1    0    0  501    0  0.00000000000E+00  0.00000000000E+00 -0.22954485654E+03  0.22954485660E+03  0.50400001928E-02 0. -1.
    10030    2    1    2    0    0  0.00000000000E+00  0.00000000000E+00  0.16511356541E+03  0.62420327858E+03  0.60196947058E+03 0.  0.
        1    1    3    3  502    0 -0.56390400244E+02  0.11627545346E+03 -0.19931405783E+03  0.23754147426E+03  0.50400001928E-02 0. -1.
       -1    1    3    3    0  502  0.56390400244E+02 -0.11627545346E+03  0.36442762324E+03  0.38666180433E+03  0.50400001928E-02 0.  1.
</event>
<event>
 5   0  0.9428629E-03  0.6000528E+03  0.7818609E-02  0.9905296E-01
        2   -1    0    0  501    0  0.00000000000E+00  0.00000000000E+00  0.33363248695E+04  0.33363248695E+04  0.25500000920E-02 0.  1.
       -2   -1    0    0    0  501  0.00000000000E+00  0.00000000000E+00 -0.26980540648E+02  0.26980540769E+02  0.25500000920E-02 0. -1.
    10030    2    1    2    0    0  0.00000000000E+00  0.00000000000E+00  0.33093443289E+04  0.33633054103E+04  0.60005282755E+03 0.  0.
        3    1    3    3  502    0  0.13777975026E+02 -0.29878853115E+03  0.15230533408E+04  0.15521455821E+04  0.10100000352E+00 0. -1.
       -3    1    3    3    0  502 -0.13777975026E+02  0.29878853115E+03  0.17862909880E+04  0.18111598282E+04  0.10100000352E+00 0.  1.
</event>
<event>
 5   0  0.9571790E-03  0.5995240E+03  0.7818609E-02  0.9906394E-01
        2   -1    0    0  501    0  0.00000000000E+00  0.00000000000E+00  0.90558687587E+03  0.90558687587E+03  0.25500000920E-02 0. -1.
       -2   -1    0    0    0  501  0.00000000000E+00  0.00000000000E+00 -0.99225431858E+02  0.99225431891E+02  0.25500000920E-02 0.  1.
    10030    2    1    2    0    0  0.00000000000E+00  0.00000000000E+00  0.80636144401E+03  0.10048123078E+04  0.59952397404E+03 0.  0.
        5    1    3    3  502    0  0.11575916643E+03 -0.44684501016E+02  0.86045474024E+03  0.86936835648E+03  0.46999998093E+01 0. -1.
       -5    1    3    3    0  502 -0.11575916643E+03  0.44684501016E+02 -0.54093296234E+02  0.13544395128E+03  0.46999998093E+01 0.  1.
</event>
<event>
 5   0  0.9866317E-03  0.5970202E+03  0.7818609E-02  0.9911608E-01
        2   -1    0    0  501    0  0.00000000000E+00  0.00000000000E+00  0.66239910408E+03  0.66239910409E+03  0.25500000920E-02 0. -1.
       -2   -1    0    0    0  501  0.00000000000E+00  0.00000000000E+00 -0.13452353141E+03  0.13452353143E+03  0.25500000920E-02 0.  1.
    10030    2    1    2    0    0  0.00000000000E+00  0.00000000000E+00  0.52787557268E+03  0.79692263552E+03  0.59702015609E+03 0.  0.
        1    1    3    3  502    0 -0.20278555537E+03 -0.10599588631E+03  0.51983330395E+03  0.56796458807E+03  0.50400001928E-02 0. -1.
       -1    1    3    3    0  502  0.20278555537E+03  0.10599588631E+03  0.80422687275E+01  0.22895804745E+03  0.50400001928E-02 0.  1.
</event>
<event>
 5   0  0.5785798E-03  0.5998812E+03  0.7818609E-02  0.9905653E-01
        1   -1    0    0  501    0  0.00000000000E+00  0.00000000000E+00  0.17529331094E+03  0.17529331102E+03  0.50400001928E-02 0. -1.
       -1   -1    0    0    0  501  0.00000000000E+00  0.00000000000E+00 -0.51322192864E+03  0.51322192866E+03  0.50400001928E-02 0.  1.
    10030    2    1    2    0    0  0.00000000000E+00  0.00000000000E+00 -0.33792861770E+03  0.68851523968E+03  0.59988122542E+03 0.  0.
        1    1    3    3  502    0 -0.20526809987E+03  0.12152955510E+03  0.39724593307E+02  0.24183148870E+03  0.50400001928E-02 0. -1.
       -1    1    3    3    0  502  0.20526809987E+03 -0.12152955510E+03 -0.37765321100E+03  0.44668375098E+03  0.50400001928E-02 0.  1.
</event>
<event>
 5   0  0.5503975E-03  0.6001063E+03  0.7818609E-02  0.9905186E-01
       -1   -1    0    0    0  501  0.00000000000E+00  0.00000000000E+00  0.26005063345E+03  0.26005063350E+03  0.50400001928E-02 0.  1.
        1   -1    0    0  501    0  0.00000000000E+00  0.00000000000E+00 -0.34620905254E+03  0.34620905257E+03  0.50400001928E-02 0. -1.
    10030    2    1    2    0    0  0.00000000000E+00  0.00000000000E+00 -0.86158419083E+02  0.60625968607E+03  0.60010626874E+03 0.  0.
        4    1    3    3  502    0  0.13867990497E+03  0.19324090429E+03 -0.22786485519E+03  0.32939060136E+03  0.12699999809E+01 0. -1.
       -4    1    3    3    0  502 -0.13867990497E+03 -0.19324090429E+03  0.14170643611E+03  0.27686908471E+03  0.12699999809E+01 0.  1.
</event>
<event>
 5   0  0.5491236E-03  0.5997614E+03  0.7818609E-02  0.9905901E-01
        1   -1    0    0  501    0  0.00000000000E+00  0.00000000000E+00  0.57375260564E+03  0.57375260566E+03  0.50400001928E-02 0.  1.
       -1   -1    0    0    0  501  0.00000000000E+00  0.00000000000E+00 -0.15673729146E+03  0.15673729154E+03  0.50400001928E-02 0. -1.
    10030    2    1    2    0    0  0.00000000000E+00  0.00000000000E+00  0.41701531418E+03  0.73048989721E+03  0.59976138394E+03 0.  0.
        3    1    3    3  502    0 -0.22160424512E+03 -0.17732357816E+02  0.45363566387E+03  0.50518135724E+03  0.10100000352E+00 0.  1.
       -3    1    3    3    0  502  0.22160424512E+03  0.17732357816E+02 -0.36620349691E+02  0.22530853997E+03  0.10100000352E+00 0. -1.
</event>
<event>
 5   0  0.9866317E-03  0.5948441E+03  0.7818609E-02  0.9916161E-01
       -2   -1    0    0    0  501  0.00000000000E+00  0.00000000000E+00  0.72052017723E+02  0.72052017768E+02  0.25500000920E-02 0.  1.
        2   -1    0    0  501    0  0.00000000000E+00  0.00000000000E+00 -0.12277223569E+04  0.12277223569E+04  0.25500000920E-02 0. -1.
    10030    2    1    2    0    0  0.00000000000E+00  0.00000000000E+00 -0.11556703391E+04  0.12997743746E+04  0.59484409065E+03 0.  0.
        1    1    3    3  502    0  0.18513130402E+03  0.16191721345E+03 -0.21240535158E+03  0.32497202517E+03  0.50400001928E-02 0.  1.
       -1    1    3    3    0  502 -0.18513130402E+03 -0.16191721345E+03 -0.94326498757E+03  0.97480234947E+03  0.50400001928E-02 0. -1.
</event>
<event>
 5   0  0.9571790E-03  0.5973281E+03  0.7818609E-02  0.9910965E-01
        2   -1    0    0  501    0  0.00000000000E+00  0.00000000000E+00  0.83418842854E+03  0.83418842854E+03  0.25500000920E-02 0. -1.
       -2   -1    0    0    0  501  0.00000000000E+00  0.00000000000E+00 -0.10693054224E+03  0.10693054227E+03  0.25500000920E-02 0.  1.
    10030    2    1    2    0    0  0.00000000000E+00  0.00000000000E+00  0.72725788630E+03  0.94111897082E+03  0.59732812093E+03 0.  0.
        5    1    3    3  502    0 -0.11129938494E+03 -0.20762803726E+02  0.79900351386E+03  0.80699897910E+03  0.46999998093E+01 0. -1.
       -5    1    3    3    0  502  0.11129938494E+03  0.20762803726E+02 -0.71745627563E+02  0.13411999172E+03  0.46999998093E+01 0.  1.
</event>
<event>
 5   0  0.9530666E-03  0.5997690E+03  0.7818609E-02  0.9905885E-01
        2   -1    0    0  501    0  0.00000000000E+00  0.00000000000E+00  0.13993795371E+03  0.13993795373E+03  0.25500000920E-02 0.  1.
       -2   -1    0    0    0  501  0.00000000000E+00  0.00000000000E+00 -0.64264712659E+03  0.64264712659E+03  0.25500000920E-02 0. -1.
    10030    2    1    2    0    0  0.00000000000E+00  0.00000000000E+00 -0.50270917288E+03  0.78258508032E+03  0.59976903509E+03 0.  0.
        2    1    3    3  502    0  0.22831672828E+02  0.28678232551E+03 -0.36180461042E+03  0.46224232134E+03  0.25500000920E-02 0. -1.
       -2    1    3    3    0  502 -0.22831672828E+02 -0.28678232551E+03 -0.14090456246E+03  0.32034275899E+03  0.25500000920E-02 0.  1.
</event>
<event>
 5   0  0.9428629E-03  0.5984776E+03  0.7818609E-02  0.9908570E-01
       -2   -1    0    0    0  501  0.00000000000E+00  0.00000000000E+00  0.37804878469E+03  0.37804878470E+03  0.25500000920E-02 0.  1.
        2   -1    0    0  501    0  0.00000000000E+00  0.00000000000E+00 -0.23685795915E+03  0.23685795916E+03  0.25500000920E-02 0. -1.
    10030    2    1    2    0    0  0.00000000000E+00  0.00000000000E+00  0.14119082554E+03  0.61490674386E+03  0.59847761398E+03 0.  0.
        3    1    3    3  502    0  0.11434220594E+03 -0.24361282962E+03  0.20504050893E+03  0.33832376701E+03  0.10100000352E+00 0.  1.
       -3    1    3    3    0  502 -0.11434220594E+03  0.24361282962E+03 -0.63849683397E+02  0.27658297686E+03  0.10100000352E+00 0. -1.
</event>
<event>
 5   0  0.9530666E-03  0.6002590E+03  0.7818609E-02  0.9904869E-01
        2   -1    0    0  501    0  0.00000000000E+00  0.00000000000E+00  0.80304090167E+03  0.80304090167E+03  0.25500000920E-02 0.  1.
       -2   -1    0    0    0  501  0.00000000000E+00  0.00000000000E+00 -0.11217077655E+03  0.11217077658E+03  0.25500000920E-02 0. -1.
    10030    2    1    2    0    0  0.00000000000E+00  0.00000000000E+00  0.69087012512E+03  0.91521167825E+03  0.60025901594E+03 0.  0.
        2    1    3    3  502    0  0.23299958335E+03  0.18872917603E+03  0.32554297886E+03  0.44258980876E+03  0.25500000920E-02 0. -1.
       -2    1    3    3    0  502 -0.23299958335E+03 -0.18872917603E+03  0.36532714626E+03  0.47262186950E+03  0.25500000920E-02 0.  1.
</event>
<event>
 5   0  0.9428629E-03  0.6001143E+03  0.7818609E-02  0.9905169E-01
        2   -1    0    0  501    0  0.00000000000E+00  0.00000000000E+00  0.31136894526E+03  0.31136894527E+03  0.25500000920E-02 0.  1.
       -2   -1    0    0    0  501  0.00000000000E+00  0.00000000000E+00 -0.28915633405E+03  0.28915633407E+03  0.25500000920E-02 0. -1.
    10030    2    1    2    0    0  0.00000000000E+00  0.00000000000E+00  0.22212611206E+02  0.60052527934E+03  0.60011433163E+03 0.  0.
        3    1    3    3  502    0 -0.15821217251E+03  0.62271015695E+02 -0.23629875831E+03  0.29111146372E+03  0.10100000352E+00 0. -1.
       -3    1    3    3    0  502  0.15821217251E+03 -0.62271015695E+02  0.25851136952E+03  0.30941381562E+03  0.10100000352E+00 0.  1.
</event>
<event>
 5   0  0.9428629E-03  0.6078640E+03  0.7818609E-02  0.9889224E-01
        2   -1    0    0  501    0  0.00000000000E+00  0.00000000000E+00  0.83804278684E+03  0.83804278684E+03  0.25500000920E-02 0. -1.
       -2   -1    0    0    0  501  0.00000000000E+00  0.00000000000E+00 -0.11022668170E+03  0.11022668173E+03  0.25500000920E-02 0.  1.
    10030    2    1    2    0    0  0.00000000000E+00  0.00000000000E+00  0.72781610514E+03  0.94826946857E+03  0.60786404905E+03 0.  0.
        3    1    3    3  502    0  0.13586086658E+03  0.26868242614E+03  0.29909291923E+03  0.42438780110E+03  0.10100000352E+00 0.  1.
       -3    1    3    3    0  502 -0.13586086658E+03 -0.26868242614E+03  0.42872318590E+03  0.52388166748E+03  0.10100000352E+00 0. -1.
</event>
<event>
 5   0  0.9681801E-03  0.5989948E+03  0.7818609E-02  0.9907494E-01
       -2   -1    0    0    0  501  0.00000000000E+00  0.00000000000E+00  0.55936655252E+02  0.55936655311E+02  0.25500000920E-02 0. -1.
        2   -1    0    0  501    0  0.00000000000E+00  0.00000000000E+00 -0.16035764634E+04  0.16035764634E+04  0.25500000920E-02 0.  1.
    10030    2    1    2    0    0  0.00000000000E+00  0.00000000000E+00 -0.15476398082E+04  0.16595131188E+04  0.59899483756E+03 0.  0.
        4    1    3    3  502    0 -0.15760014182E+02 -0.11423458445E+03 -0.80435742488E+01  0.11560376429E+03  0.12699999809E+01 0. -1.
       -4    1    3    3    0  502  0.15760014182E+02  0.11423458445E+03 -0.15395962339E+04  0.15439093545E+04  0.12699999809E+01 0.  1.
</event>
<event>
 5   0  0.5491236E-03  0.5996845E+03  0.7818609E-02  0.9906061E-01
        1   -1    0    0  501    0  0.00000000000E+00  0.00000000000E+00  0.21895196609E+03  0.21895196614E+03  0.50400001928E-02 0. -1.
       -1   -1    0    0    0  501  0.00000000000E+00  0.00000000000E+00 -0.41061690470E+03  0.41061690473E+03  0.50400001928E-02 0.  1.
    10030    2    1    2    0    0  0.00000000000E+00  0.00000000000E+00 -0.19166493861E+03  0.62956887088E+03  0.59968451246E+03 0.  0.
        3    1    3    3  502    0 -0.10293465732E+03 -0.26547872288E+03 -0.19448817764E+03  0.34481902126E+03  0.10100000352E+00 0.  1.
       -3    1    3    3    0  502  0.10293465732E+03  0.26547872288E+03  0.28232390219E+01  0.28474984962E+03  0.10100000352E+00 0. -1.
</event>
<event>
 5   0  0.5653633E-03  0.6005671E+03  0.7818609E-02  0.9904230E-01
        1   -1    0    0  501    0  0.00000000000E+00  0.00000000000E+00  0.67112767911E+03  0.67112767912E+03  0.50400001928E-02 0. -1.
       -1   -1    0    0    0  501  0.00000000000E+00  0.00000000000E+00 -0.13435628334E+03  0.13435628344E+03  0.50400001928E-02 0.  1.
    10030    2    1    2    0    0  0.00000000000E+00  0.00000000000E+00  0.53677139576E+03  0.80548396256E+03  0.60056713416E+03 0.  0.
        2    1    3    3  502    0 -0.23378943699E+03  0.18753487323E+03  0.24353206556E+03  0.38617961688E+03  0.25500000920E-02 0. -1.
       -2    1    3    3    0  502  0.23378943699E+03 -0.18753487323E+03  0.29323933020E+03  0.41930434568E+03  0.25500000920E-02 0.  1.
</event>
<event>
 5   0  0.5653633E-03  0.6007640E+03  0.7818609E-02  0.9903822E-01
       -1   -1    0    0    0  501  0.00000000000E+00  0.00000000000E+00  0.48351664918E+03  0.48351664921E+03  0.50400001928E-02 0. -1.
        1   -1    0    0  501    0  0.00000000000E+00  0.00000000000E+00 -0.18661060827E+03  0.18661060833E+03  0.50400001928E-02 0.  1.
    10030    2    1    2    0    0  0.00000000000E+00  0.00000000000E+00  0.29690604092E+03  0.67012725754E+03  0.60076396710E+03 0.  0.
        2    1    3    3  502    0 -0.61513095706E+01  0.48676020936E+02 -0.18211087717E+03  0.18860425555E+03  0.25500000920E-02 0.  1.
       -2    1    3    3    0  502  0.61513095706E+01 -0.48676020936E+02  0.47901691809E+03  0.48152300199E+03  0.25500000920E-02 0. -1.
</event>
<event>
 5   0  0.5491236E-03  0.5972628E+03  0.7818609E-02  0.9911101E-01
        1   -1    0    0  501    0  0.00000000000E+00  0.00000000000E+00  0.10566491729E+04  0.10566491729E+04  0.50400001928E-02 0.  1.
       -1   -1    0    0    0  501  0.00000000000E+00  0.00000000000E+00 -0.84399558621E+02  0.84399558771E+02  0.50400001928E-02 0. -1.
    10030    2    1    2    0    0  0.00000000000E+00  0.00000000000E+00  0.97224961429E+03  0.11410487317E+04  0.59726283629E+03 0.  0.
        3    1    3    3  502    0  0.87686562224E+02 -0.25134020770E+03  0.74470783619E+03  0.79085435112E+03  0.10100000352E+00 0.  1.
       -3    1    3    3    0  502 -0.87686562224E+02  0.25134020770E+03  0.22754177810E+03  0.35019438058E+03  0.10100000352E+00 0. -1.
</event>
<event>
 5   0  0.9866317E-03  0.5936749E+03  0.7818609E-02  0.9918616E-01
       -2   -1    0    0    0  501  0.00000000000E+00  0.00000000000E+00  0.54273119855E+03  0.54273119855E+03  0.25500000920E-02 0.  1.
        2   -1    0    0  501    0  0.00000000000E+00  0.00000000000E+00 -0.16235009935E+03  0.16235009938E+03  0.25500000920E-02 0. -1.
    10030    2    1    2    0    0  0.00000000000E+00  0.00000000000E+00  0.38038109919E+03  0.70508129793E+03  0.59367487404E+03 0.  0.
        1    1    3    3  502    0  0.10282675456E+03  0.19547674307E+03  0.42571785659E+03  0.47960420346E+03  0.50400001928E-02 0.  1.
       -1    1    3    3    0  502 -0.10282675456E+03 -0.19547674307E+03 -0.45336757398E+02  0.22547709447E+03  0.50400001928E-02 0. -1.
</event>
<event>
 5   0  0.5491236E-03  0.6002300E+03  0.7818609E-02  0.9904929E-01
        1   -1    0    0  501    0  0.00000000000E+00  0.00000000000E+00  0.21886813118E+03  0.21886813123E+03  0.50400001928E-02 0. -1.
       -1   -1    0    0    0  501  0.00000000000E+00  0.00000000000E+00 -0.41152179445E+03  0.41152179448E+03  0.50400001928E-02 0.  1.
    10030    2    1    2    0    0  0.00000000000E+00  0.00000000000E+00 -0.19265366328E+03  0.63038992572E+03  0.60022997632E+03 0.  0.
        3    1    3    3  502    0  0.17781944411E+02  0.21866413174E+02 -0.41012881311E+03  0.41109608502E+03  0.10100000352E+00 0.  1.
       -3    1    3    3    0  502 -0.17781944411E+02 -0.21866413174E+02  0.21747514983E+03  0.21929384070E+03  0.10100000352E+00 0. -1.
</event>
<event>
 5   0  0.9428629E-03  0.6013178E+03  0.7818609E-02  0.9902676E-01
        2   -1    0    0  501    0  0.00000000000E+00  0.00000000000E+00  0.16084030410E+04  0.16084030410E+04  0.25500000920E-02 0. -1.
       -2   -1    0    0    0  501  0.00000000000E+00  0.00000000000E+00 -0.56202187159E+02  0.56202187217E+02  0.25500000920E-02 0.  1.
    10030    2    1    2    0    0  0.00000000000E+00  0.00000000000E+00  0.15522008538E+04  0.16646052282E+04  0.60131778216E+03 0.  0.
        3    1    3    3  502    0 -0.38860833796E+02  0.13975074079E+03  0.15051333001E+04  0.15121067076E+04  0.10100000352E+00 0. -1.
       -3    1    3    3    0  502  0.38860833796E+02 -0.13975074079E+03  0.47067553673E+02  0.15249852053E+03  0.10100000352E+00 0.  1.
</event>
<event>
 5   0  0.5785798E-03  0.6007328E+03  0.7818609E-02  0.9903887E-01
        1   -1    0    0  501    0  0.00000000000E+00  0.00000000000E+00  0.61289030863E+03  0.61289030865E+03  0.50400001928E-02 0.  1.
       -1   -1    0    0    0  501  0.00000000000E+00  0.00000000000E+00 -0.14720411661E+03  0.14720411670E+03  0.50400001928E-02 0. -1.
    10030    2    1    2    0    0  0.00000000000E+00  0.00000000000E+00  0.46568619202E+03  0.76009442536E+03  0.60073280751E+03 0.  0.
        1    1    3    3  502    0 -0.13301871303E+03 -0.14951555934E+03  0.51625167399E+03  0.55368282565E+03  0.50400001928E-02 0.  1.
       -1    1    3    3    0  502  0.13301871303E+03  0.14951555934E+03 -0.50565481968E+02  0.20641159970E+03  0.50400001928E-02 0. -1.
</event>
<event>
 5   0  0.9681801E-03  0.6011707E+03  0.7818609E-02  0.9902980E-01
        2   -1    0    0  501    0  0.00000000000E+00  0.00000000000E+00  0.71269224766E+03  0.71269224766E+03  0.25500000920E-02 0.  1.
       -2   -1    0    0    0  501  0.00000000000E+00  0.00000000000E+00 -0.12677500223E+03  0.12677500226E+03  0.25500000920E-02 0. -1.
    10030    2    1    2    0    0  0.00000000000E+00  0.00000000000E+00  0.58591724543E+03  0.83946724992E+03  0.60117072882E+03 0.  0.
        4    1    3    3  502    0  0.79710336418E+02 -0.22210692309E+03  0.55294453348E+03  0.60119422238E+03  0.12699999809E+01 0. -1.
       -4    1    3    3    0  502 -0.79710336418E+02  0.22210692309E+03  0.32972711943E+02  0.23827302753E+03  0.12699999809E+01 0.  1.
</event>
<event>
 5   0  0.9681801E-03  0.5996583E+03  0.7818609E-02  0.9906115E-01
        2   -1    0    0  501    0  0.00000000000E+00  0.00000000000E+00  0.12596651472E+04  0.12596651472E+04  0.25500000920E-02 0.  1.
       -2   -1    0    0    0  501  0.00000000000E+00  0.00000000000E+00 -0.71366205161E+02  0.71366205206E+02  0.25500000920E-02 0. -1.
    10030    2    1    2    0    0  0.00000000000E+00  0.00000000000E+00  0.11882989421E+04  0.13310313524E+04  0.59965830725E+03 0.  0.
        4    1    3    3  502    0 -0.20791658990E+03  0.64935556516E+02  0.10514725757E+04  0.10737979909E+04  0.12699999809E+01 0.  1.
       -4    1    3    3    0  502  0.20791658990E+03 -0.64935556516E+02  0.13682636632E+03  0.25723336152E+03  0.12699999809E+01 0. -1.
</event>
<event>
 5   0  0.5574736E-03  0.5995213E+03  0.7818609E-02  0.9906400E-01
        1   -1    0    0  501    0  0.00000000000E+00  0.00000000000E+00  0.18641820320E+03  0.18641820327E+03  0.50400001928E-02 0.  1.
       -1   -1    0    0    0  501  0.00000000000E+00  0.00000000000E+00 -0.48201547557E+03  0.48201547560E+03  0.50400001928E-02 0. -1.
    10030    2    1    2    0    0  0.00000000000E+00  0.00000000000E+00 -0.29559727237E+03  0.66843367887E+03  0.59952133875E+03 0.  0.
        5    1    3    3  502    0 -0.66253061799E+02  0.10511360105E+03 -0.45190713901E+03  0.46870085300E+03  0.46999998093E+01 0. -1.
       -5    1    3    3    0  502  0.66253061799E+02 -0.10511360105E+03  0.15630986663E+03  0.19973282587E+03  0.46999998093E+01 0.  1.
</event>
<event>
 5   0  0.5491236E-03  0.6021045E+03  0.7818609E-02  0.9901050E-01
        1   -1    0    0  501    0  0.00000000000E+00  0.00000000000E+00  0.97787145181E+03  0.97787145182E+03  0.50400001928E-02 0. -1.
       -1   -1    0    0    0  501  0.00000000000E+00  0.00000000000E+00 -0.92683398137E+02  0.92683398274E+02  0.50400001928E-02 0.  1.
    10030    2    1    2    0    0  0.00000000000E+00  0.00000000000E+00  0.88518805367E+03  0.10705548501E+04  0.60210447324E+03 0.  0.
        3    1    3    3  502    0 -0.17532450200E+03  0.21666860696E+03  0.64491753320E+03  0.70256857392E+03  0.10100000352E+00 0. -1.
       -3    1    3    3    0  502  0.17532450200E+03 -0.21666860696E+03  0.24027052048E+03  0.36798627617E+03  0.10100000352E+00 0.  1.
</event>
<event>
 5   0  0.5653633E-03  0.5988634E+03  0.7818609E-02  0.9907767E-01
        1   -1    0    0  501    0  0.00000000000E+00  0.00000000000E+00  0.56405014284E+03  0.56405014286E+03  0.50400001928E-02 0. -1.
       -1   -1    0    0    0  501  0.00000000000E+00  0.00000000000E+00 -0.15895635653E+03  0.15895635661E+03  0.50400001928E-02 0.  1.
    10030    2    1    2    0    0  0.00000000000E+00  0.00000000000E+00  0.40509378631E+03  0.72300649947E+03  0.59886344233E+03 0.  0.
        2    1    3    3  502    0 -0.99147668179E+02  0.12700361788E+03 -0.10215931885E+03  0.19077920614E+03  0.25500000920E-02 0.  1.
       -2    1    3    3    0  502  0.99147668179E+02 -0.12700361788E+03  0.50725310516E+03  0.53222729333E+03  0.25500000920E-02 0. -1.
</event>
<event>
 5   0  0.9681801E-03  0.5982711E+03  0.7818609E-02  0.9908999E-01
       -2   -1    0    0    0  501  0.00000000000E+00  0.00000000000E+00  0.75840640387E+02  0.75840640430E+02  0.25500000920E-02 0. -1.
        2   -1    0    0  501    0  0.00000000000E+00  0.00000000000E+00 -0.11798697951E+04  0.11798697952E+04  0.25500000920E-02 0.  1.
    10030    2    1    2    0    0  0.00000000000E+00  0.00000000000E+00 -0.11040291548E+04  0.12557104356E+04  0.59827111201E+03 0.  0.
        4    1    3    3  502    0  0.58656081580E+02  0.40972127891E+02 -0.11616397450E+04  0.11638418110E+04  0.12699999809E+01 0.  1.
       -4    1    3    3    0  502 -0.58656081580E+02 -0.40972127891E+02  0.57610590200E+02  0.91868624532E+02  0.12699999809E+01 0. -1.
</event>
<event>
 5   0  0.5491236E-03  0.5991501E+03  0.7818609E-02  0.9907171E-01
       -1   -1    0    0    0  501  0.00000000000E+00  0.00000000000E+00  0.11613496419E+03  0.11613496430E+03  0.50400001928E-02 0. -1.
        1   -1    0    0  501    0  0.00000000000E+00  0.00000000000E+00 -0.77276660957E+03  0.77276660959E+03  0.50400001928E-02 0.  1.
    10030    2    1    2    0    0  0.00000000000E+00  0.00000000000E+00 -0.65663164538E+03  0.88890157389E+03  0.59915014007E+03 0.  0.
        3    1    3    3  502    0 -0.22912075266E+03  0.16385921217E+03 -0.17702420101E+03  0.33269165703E+03  0.10100000352E+00 0. -1.
       -3    1    3    3    0  502  0.22912075266E+03 -0.16385921217E+03 -0.47960744437E+03  0.55620991686E+03  0.10100000352E+00 0.  1.
</event>
<event>
 5   0  0.9530666E-03  0.6011299E+03  0.7818609E-02  0.9903065E-01
        2   -1    0    0  501    0  0.00000000000E+00  0.00000000000E+00  0.31193608582E+03  0.31193608583E+03  0.25500000920E-02 0. -1.
       -2   -1    0    0    0  501  0.00000000000E+00  0.00000000000E+00 -0.28960830960E+03  0.28960830961E+03  0.25500000920E-02 0.  1.
    10030    2    1    2    0    0  0.00000000000E+00  0.00000000000E+00  0.22327776215E+02  0.60154439544E+03  0.60112987789E+03 0.  0.
        2    1    3    3  502    0 -0.23425918130E+03 -0.16909901221E+03 -0.71763290243E+02  0.29769415478E+03  0.25500000920E-02 0.  1.
       -2    1    3    3    0  502  0.23425918130E+03  0.16909901221E+03  0.94091066458E+02  0.30385024066E+03  0.25500000920E-02 0. -1.
</event>
<event>
 5   0  0.9681801E-03  0.6002200E+03  0.7818609E-02  0.9904950E-01
       -2   -1    0    0    0  501  0.00000000000E+00  0.00000000000E+00  0.12952209900E+03  0.12952209902E+03  0.25500000920E-02 0. -1.
        2   -1    0    0  501    0  0.00000000000E+00  0.00000000000E+00 -0.69537171936E+03  0.69537171936E+03  0.25500000920E-02 0.  1.
    10030    2    1    2    0    0  0.00000000000E+00  0.00000000000E+00 -0.56584962036E+03  0.82489381838E+03  0.60021997530E+03 0.  0.
        4    1    3    3  502    0 -0.22980001488E+03  0.13555084318E+03 -0.47177403676E+03  0.54199117390E+03  0.12699999809E+01 0.  1.
       -4    1    3    3    0  502  0.22980001488E+03 -0.13555084318E+03 -0.94075583603E+02  0.28290264449E+03  0.12699999809E+01 0. -1.
</event>
<event>
 5   0  0.5574736E-03  0.5996846E+03  0.7818609E-02  0.9906061E-01
        1   -1    0    0  501    0  0.00000000000E+00  0.00000000000E+00  0.53980550956E+03  0.53980550958E+03  0.50400001928E-02 0.  1.
       -1   -1    0    0    0  501  0.00000000000E+00  0.00000000000E+00 -0.16655146725E+03  0.16655146733E+03  0.50400001928E-02 0. -1.
    10030    2    1    2    0    0  0.00000000000E+00  0.00000000000E+00  0.37325404231E+03  0.70635697691E+03  0.59968458270E+03 0.  0.
        5    1    3    3  502    0 -0.27818336531E+03  0.42067677842E+01  0.55043296267E+02  0.28364685102E+03  0.46999998093E+01 0. -1.
       -5    1    3    3    0  502  0.27818336531E+03 -0.42067677842E+01  0.31821074604E+03  0.42271012589E+03  0.46999998093E+01 0.  1.
</event>
<event>
 5   0  0.3794375E-03  0.6000759E+03  0.7818609E-02  0.9905249E-01
       -4   -1    0    0    0  501  0.00000000000E+00  0.00000000000E+00  0.88692480713E+03  0.88692571640E+03  0.12699999809E+01 0. -1.
        4   -1    0    0  501    0  0.00000000000E+00  0.00000000000E+00 -0.10149496849E+03  0.10150291390E+03  0.12699999809E+01 0.  1.
    10030    2    1    2    0    0  0.00000000000E+00  0.00000000000E+00  0.78542983864E+03  0.98842863030E+03  0.60007593333E+03 0.  0.
        3    1    3    3  502    0 -0.28611521283E+03  0.82001819802E+02  0.45514597171E+03  0.54382357362E+03  0.10100000352E+00 0.  1.
       -3    1    3    3    0  502  0.28611521283E+03 -0.82001819802E+02  0.33028386693E+03  0.44460505667E+03  0.10100000352E+00 0. -1.
</event>
<event>
 5   0  0.9530666E-03  0.5995503E+03  0.7818609E-02  0.9906339E-01
       -2   -1    0    0    0  501  0.00000000000E+00  0.00000000000E+00  0.67104224717E+02  0.67104224765E+02  0.25500000920E-02 0. -1.
        2   -1    0    0  501    0  0.00000000000E+00  0.00000000000E+00 -0.13391876431E+04  0.13391876432E+04  0.25500000920E-02 0.  1.
    10030    2    1    2    0    0  0.00000000000E+00  0.00000000000E+00 -0.12720834184E+04  0.14062918679E+04  0.59955032676E+03 0.  0.
        2    1    3    3  502    0  0.10683366108E+03 -0.38702748611E+02  0.14634455236E+02  0.11456657966E+03  0.25500000920E-02 0. -1.
       -2    1    3    3    0  502 -0.10683366108E+03  0.38702748611E+02 -0.12867178737E+04  0.12917252883E+04  0.25500000920E-02 0.  1.
</event>
<event>
 5   0  0.9428629E-03  0.5989848E+03  0.7818609E-02  0.9907514E-01
        2   -1    0    0  501    0  0.00000000000E+00  0.00000000000E+00  0.90941838905E+03  0.90941838905E+03  0.25500000920E-02 0. -1.
       -2   -1    0    0    0  501  0.00000000000E+00  0.00000000000E+00 -0.98629747681E+02  0.98629747714E+02  0.25500000920E-02 0.  1.
    10030    2    1    2    0    0  0.00000000000E+00  0.00000000000E+00  0.81078864137E+03  0.10080481368E+04  0.59898482874E+03 0.  0.
        3    1    3    3  502    0  0.29014184120E+03 -0.34706824634E+02  0.51586470196E+03  0.59287709740E+03  0.10100000352E+00 0.  1.
       -3    1    3    3    0  502 -0.29014184120E+03  0.34706824634E+02  0.29492393941E+03  0.41517103936E+03  0.10100000352E+00 0. -1.
</event>
<event>
 5   0  0.9571790E-03  0.5999308E+03  0.7818609E-02  0.9905550E-01
       -2   -1    0    0    0  501  0.00000000000E+00  0.00000000000E+00  0.10355772062E+03  0.10355772065E+03  0.25500000920E-02 0. -1.
        2   -1    0    0  501    0  0.00000000000E+00  0.00000000000E+00 -0.86888021014E+03  0.86888021014E+03  0.25500000920E-02 0.  1.
    10030    2    1    2    0    0  0.00000000000E+00  0.00000000000E+00 -0.76532248952E+03  0.97243793079E+03  0.59993084291E+03 0.  0.
        5    1    3    3  502    0 -0.20761571532E+03 -0.85830101057E+01 -0.73324125208E+03  0.76213041998E+03  0.46999998093E+01 0.  1.
       -5    1    3    3    0  502  0.20761571532E+03  0.85830101057E+01 -0.32081237442E+02  0.21030751081E+03  0.46999998093E+01 0. -1.
</event>
<event>
 5   0  0.5653633E-03  0.5998181E+03  0.7818609E-02  0.9905784E-01
       -1   -1    0    0    0  501  0.00000000000E+00  0.00000000000E+00  0.39941508388E+03  0.39941508391E+03  0.50400001928E-02 0.  1.
        1   -1    0    0  501    0  0.00000000000E+00  0.00000000000E+00 -0.22519287106E+03  0.22519287112E+03  0.50400001928E-02 0. -1.
    10030    2    1    2    0    0  0.00000000000E+00  0.00000000000E+00  0.17422221282E+03  0.62460795503E+03  0.59981807079E+03 0.  0.
        2    1    3    3  502    0  0.22713344463E+03 -0.13660700051E+03 -0.59025443225E+02  0.27154203581E+03  0.25500000920E-02 0. -1.
       -2    1    3    3    0  502 -0.22713344463E+03  0.13660700051E+03  0.23324765604E+03  0.35306591922E+03  0.25500000920E-02 0.  1.
</event>
<event>
 5   0  0.9530666E-03  0.5993741E+03  0.7818609E-02  0.9906705E-01
        2   -1    0    0  501    0  0.00000000000E+00  0.00000000000E+00  0.11303110858E+03  0.11303110861E+03  0.25500000920E-02 0. -1.
       -2   -1    0    0    0  501  0.00000000000E+00  0.00000000000E+00 -0.79458061473E+03  0.79458061473E+03  0.25500000920E-02 0.  1.
    10030    2    1    2    0    0  0.00000000000E+00  0.00000000000E+00 -0.68154950615E+03  0.90761172334E+03  0.59937409938E+03 0.  0.
        2    1    3    3  502    0  0.10503179656E+03  0.12303806200E+03  0.41235488318E+02  0.16694432753E+03  0.25500000920E-02 0. -1.
       -2    1    3    3    0  502 -0.10503179656E+03 -0.12303806200E+03 -0.72278499447E+03  0.74066739581E+03  0.25500000920E-02 0.  1.
</event>
<event>
 5   0  0.3794375E-03  0.5998058E+03  0.7818609E-02  0.9905809E-01
        4   -1    0    0  501    0  0.00000000000E+00  0.00000000000E+00  0.11636149296E+04  0.11636156227E+04  0.12699999809E+01 0. -1.
       -4   -1    0    0    0  501  0.00000000000E+00  0.00000000000E+00 -0.77289172793E+02  0.77299606279E+02  0.12699999809E+01 0.  1.
    10030    2    1    2    0    0  0.00000000000E+00  0.00000000000E+00  0.10863257568E+04  0.12409152289E+04  0.59980576481E+03 0.  0.
        5    1    3    3  502    0 -0.99075222025E+02 -0.20917568368E+03  0.93760147139E+03  0.96575823860E+03  0.46999998093E+01 0. -1.
       -5    1    3    3    0  502  0.99075222025E+02  0.20917568368E+03  0.14872428542E+03  0.27515699034E+03  0.46999998093E+01 0.  1.
</event>
<event>
 5   0  0.9571790E-03  0.5989974E+03  0.7818609E-02  0.9907488E-01
        2   -1    0    0  501    0  0.00000000000E+00  0.00000000000E+00  0.34340216687E+03  0.34340216688E+03  0.25500000920E-02 0.  1.
       -2   -1    0    0    0  501  0.00000000000E+00  0.00000000000E+00 -0.26120819479E+03  0.26120819481E+03  0.25500000920E-02 0. -1.
    10030    2    1    2    0    0  0.00000000000E+00  0.00000000000E+00  0.82193972075E+02  0.60461036168E+03  0.59899736261E+03 0.  0.
        5    1    3    3  502    0 -0.33864298180E+02 -0.12918343320E+03  0.31164263112E+03  0.33908460542E+03  0.46999998093E+01 0.  1.
       -5    1    3    3    0  502  0.33864298180E+02  0.12918343320E+03 -0.22944865905E+03  0.26552575626E+03  0.46999998093E+01 0. -1.
</event>
<event>
 5   0  0.5503975E-03  0.6019218E+03  0.7818609E-02  0.9901427E-01
        1   -1    0    0  501    0  0.00000000000E+00  0.00000000000E+00  0.73348932301E+02  0.73348932474E+02  0.50400001928E-02 0.  1.
       -1   -1    0    0    0  501  0.00000000000E+00  0.00000000000E+00 -0.12348843933E+04  0.12348843933E+04  0.50400001928E-02 0. -1.
    10030    2    1    2    0    0  0.00000000000E+00  0.00000000000E+00 -0.11615354610E+04  0.13082333258E+04  0.60192176198E+03 0.  0.
        4    1    3    3  502    0 -0.27839004150E+03 -0.93234577466E+02 -0.72464366435E+03  0.78185916559E+03  0.12699999809E+01 0. -1.
       -4    1    3    3    0  502  0.27839004150E+03  0.93234577466E+02 -0.43689179669E+03  0.52637416023E+03  0.12699999809E+01 0.  1.
</event>
<event>
 5   0  0.5653633E-03  0.5986922E+03  0.7818609E-02  0.9908123E-01
       -1   -1    0    0    0  501  0.00000000000E+00  0.00000000000E+00  0.63787491959E+02  0.63787492158E+02  0.50400001928E-02 0. -1.
        1   -1    0    0  501    0  0.00000000000E+00  0.00000000000E+00 -0.14047909686E+04  0.14047909686E+04  0.50400001928E-02 0.  1.
    10030    2    1    2    0    0  0.00000000000E+00  0.00000000000E+00 -0.13410034766E+04  0.14685784608E+04  0.59869221731E+03 0.  0.
        2    1    3    3  502    0 -0.22394979597E+03  0.12917477105E+03 -0.30036655267E+03  0.39630758075E+03  0.25500000920E-02 0. -1.
       -2    1    3    3    0  502  0.22394979597E+03 -0.12917477105E+03 -0.10406369240E+04  0.10722708800E+04  0.25500000920E-02 0.  1.
</event>
<event>
 5   0  0.5785798E-03  0.5990858E+03  0.7818609E-02  0.9907304E-01
       -1   -1    0    0    0  501  0.00000000000E+00  0.00000000000E+00  0.96698575488E+02  0.96698575619E+02  0.50400001928E-02 0. -1.
        1   -1    0    0  501    0  0.00000000000E+00  0.00000000000E+00 -0.92789328425E+03  0.92789328426E+03  0.50400001928E-02 0.  1.
    10030    2    1    2    0    0  0.00000000000E+00  0.00000000000E+00 -0.83119470876E+03  0.10245918599E+04  0.59908583314E+03 0.  0.
        1    1    3    3  502    0 -0.13674573591E+03 -0.17765020867E+03 -0.75536241900E+03  0.78792853546E+03  0.50400001928E-02 0.  1.
       -1    1    3    3    0  502  0.13674573591E+03  0.17765020867E+03 -0.75832289761E+02  0.23666332442E+03  0.50400001928E-02 0. -1.
</event>
<event>
 5   0  0.9571790E-03  0.6106469E+03  0.7818609E-02  0.9883560E-01
       -2   -1    0    0    0  501  0.00000000000E+00  0.00000000000E+00  0.20009955056E+03  0.20009955058E+03  0.25500000920E-02 0.  1.
        2   -1    0    0  501    0  0.00000000000E+00  0.00000000000E+00 -0.46588014578E+03  0.46588014579E+03  0.25500000920E-02 0. -1.
    10030    2    1    2    0    0  0.00000000000E+00  0.00000000000E+00 -0.26578059522E+03  0.66597969637E+03  0.61064689566E+03 0.  0.
        5    1    3    3  502    0  0.38442061486E+02 -0.29872099110E+03 -0.78487430950E+02  0.31127863632E+03  0.46999998093E+01 0.  1.
       -5    1    3    3    0  502 -0.38442061486E+02  0.29872099110E+03 -0.18729316427E+03  0.35470106004E+03  0.46999998093E+01 0. -1.
</event>
<event>
 5   0  0.5574736E-03  0.6038229E+03  0.7818609E-02  0.9897506E-01
       -1   -1    0    0    0  501  0.00000000000E+00  0.00000000000E+00  0.30422656863E+03  0.30422656868E+03  0.50400001928E-02 0.  1.
        1   -1    0    0  501    0  0.00000000000E+00  0.00000000000E+00 -0.29961391451E+03  0.29961391455E+03  0.50400001928E-02 0. -1.
    10030    2    1    2    0    0  0.00000000000E+00  0.00000000000E+00  0.46126541271E+01  0.60384048322E+03  0.60382286525E+03 0.  0.
        5    1    3    3  502    0 -0.21163032770E+03 -0.19441881665E+03  0.94733865043E+02  0.30262628282E+03  0.46999998093E+01 0. -1.
       -5    1    3    3    0  502  0.21163032770E+03  0.19441881665E+03 -0.90121210916E+02  0.30121420040E+03  0.46999998093E+01 0.  1.
</event>
<event>
 5   0  0.5491236E-03  0.5999465E+03  0.7818609E-02  0.9905517E-01
        1   -1    0    0  501    0  0.00000000000E+00  0.00000000000E+00  0.24605309343E+03  0.24605309348E+03  0.50400001928E-02 0. -1.
       -1   -1    0    0    0  501  0.00000000000E+00  0.00000000000E+00 -0.36570952067E+03  0.36570952070E+03  0.50400001928E-02 0.  1.
    10030    2    1    2    0    0  0.00000000000E+00  0.00000000000E+00 -0.11965642724E+03  0.61176261418E+03  0.59994652723E+03 0.  0.
        3    1    3    3  502    0  0.28306362814E+01 -0.26207051934E+03 -0.20863029228E+03  0.33498593801E+03  0.10100000352E+00 0. -1.
       -3    1    3    3    0  502 -0.28306362814E+01  0.26207051934E+03  0.88973865040E+02  0.27677667617E+03  0.10100000352E+00 0.  1.
</event>
<event>
 5   0  0.9866317E-03  0.5948315E+03  0.7818609E-02  0.9916187E-01
        2   -1    0    0  501    0  0.00000000000E+00  0.00000000000E+00  0.24654393115E+03  0.24654393117E+03  0.25500000920E-02 0. -1.
       -2   -1    0    0    0  501  0.00000000000E+00  0.00000000000E+00 -0.35878450441E+03  0.35878450442E+03  0.25500000920E-02 0.  1.
    10030    2    1    2    0    0  0.00000000000E+00  0.00000000000E+00 -0.11224057326E+03  0.60532843559E+03  0.59483154644E+03 0.  0.
        1    1    3    3  502    0  0.24681498781E+03  0.33873182170E+02 -0.22144048704E+03  0.33331804632E+03  0.50400001928E-02 0.  1.
       -1    1    3    3    0  502 -0.24681498781E+03 -0.33873182170E+02  0.10919991378E+03  0.27201038927E+03  0.50400001928E-02 0. -1.
</event>
<event>
 5   0  0.5785798E-03  0.6000442E+03  0.7818609E-02  0.9905314E-01
       -1   -1    0    0    0  501  0.00000000000E+00  0.00000000000E+00  0.39691571730E+03  0.39691571733E+03  0.50400001928E-02 0. -1.
        1   -1    0    0  501    0  0.00000000000E+00  0.00000000000E+00 -0.22678178666E+03  0.22678178671E+03  0.50400001928E-02 0.  1.
    10030    2    1    2    0    0  0.00000000000E+00  0.00000000000E+00  0.17013393064E+03  0.62369750405E+03  0.60004418354E+03 0.  0.
        1    1    3    3  502    0 -0.27086386871E+03 -0.43767729198E+02 -0.41086195016E+02  0.27743634394E+03  0.50400001928E-02 0.  1.
       -1    1    3    3    0  502  0.27086386871E+03  0.43767729198E+02  0.21122012566E+03  0.34626116011E+03  0.50400001928E-02 0. -1.
</event>
<event>
 5   0  0.9428629E-03  0.5993528E+03  0.7818609E-02  0.9906750E-01
       -2   -1    0    0    0  501  0.00000000000E+00  0.00000000000E+00  0.90057695892E+02  0.90057695928E+02  0.25500000920E-02 0. -1.
        2   -1    0    0  501    0  0.00000000000E+00  0.00000000000E+00 -0.99720460027E+03  0.99720460028E+03  0.25500000920E-02 0.  1.
    10030    2    1    2    0    0  0.00000000000E+00  0.00000000000E+00 -0.90714690438E+03  0.10872622962E+04  0.59935281314E+03 0.  0.
        3    1    3    3  502    0 -0.22616305218E+03  0.21403067508E+02 -0.99027297245E+02  0.24781895261E+03  0.10100000352E+00 0. -1.
       -3    1    3    3    0  502  0.22616305218E+03 -0.21403067508E+02 -0.80811960714E+03  0.83944334360E+03  0.10100000352E+00 0.  1.
</event>
<event>
 5   0  0.5785798E-03  0.6014505E+03  0.7818609E-02  0.9902401E-01
        1   -1    0    0  501    0  0.00000000000E+00  0.00000000000E+00  0.59409898509E+03  0.59409898511E+03  0.50400001928E-02 0.  1.
       -1   -1    0    0    0  501  0.00000000000E+00  0.00000000000E+00 -0.15222325673E+03  0.15222325681E+03  0.50400001928E-02 0. -1.
    10030    2    1    2    0    0  0.00000000000E+00  0.00000000000E+00  0.44187572835E+03  0.74632224192E+03  0.60145052122E+03 0.  0.
        1    1    3    3  502    0 -0.29297992066E+03  0.67467197412E+02  0.22941090297E+03  0.37817776120E+03  0.50400001928E-02 0. -1.
       -1    1    3    3    0  502  0.29297992066E+03 -0.67467197412E+02  0.21246482538E+03  0.36814448072E+03  0.50400001928E-02 0.  1.
</event>
<event>
 5   0  0.5503975E-03  0.6005471E+03  0.7818609E-02  0.9904272E-01
        1   -1    0    0  501    0  0.00000000000E+00  0.00000000000E+00  0.21595592531E+03  0.21595592537E+03  0.50400001928E-02 0.  1.
       -1   -1    0    0    0  501  0.00000000000E+00  0.00000000000E+00 -0.41751200888E+03  0.41751200891E+03  0.50400001928E-02 0. -1.
    10030    2    1    2    0    0  0.00000000000E+00  0.00000000000E+00 -0.20155608358E+03  0.63346793428E+03  0.60054705805E+03 0.  0.
        4    1    3    3  502    0 -0.61010766822E+02  0.24845062098E+03 -0.26659785180E+03  0.36949431960E+03  0.12699999809E+01 0. -1.
       -4    1    3    3    0  502  0.61010766822E+02 -0.24845062098E+03  0.65041768221E+02  0.26397361468E+03  0.12699999809E+01 0.  1.
</event>
<event>
 5   0  0.9866317E-03  0.6009007E+03  0.7818609E-02  0.9903539E-01
       -2   -1    0    0    0  501  0.00000000000E+00  0.00000000000E+00  0.97621913216E+02  0.97621913249E+02  0.25500000920E-02 0. -1.
        2   -1    0    0  501    0  0.00000000000E+00  0.00000000000E+00 -0.92469405808E+03  0.92469405808E+03  0.25500000920E-02 0.  1.
    10030    2    1    2    0    0  0.00000000000E+00  0.00000000000E+00 -0.82707214486E+03  0.10223159713E+04  0.60090066769E+03 0.  0.
        1    1    3    3  502    0  0.25060799333E+03  0.16527026940E+03 -0.39257650509E+03  0.49420131591E+03  0.50400001928E-02 0.  1.
       -1    1    3    3    0  502 -0.25060799333E+03 -0.16527026940E+03 -0.43449563977E+03  0.52811465542E+03  0.50400001928E-02 0. -1.
</event>
<event>
 5   0  0.5785798E-03  0.6005121E+03  0.7818609E-02  0.9904344E-01
        1   -1    0    0  501    0  0.00000000000E+00  0.00000000000E+00  0.98013387730E+03  0.98013387731E+03  0.50400001928E-02 0. -1.
       -1   -1    0    0    0  501  0.00000000000E+00  0.00000000000E+00 -0.91980988622E+02  0.91980988760E+02  0.50400001928E-02 0.  1.
    10030    2    1    2    0    0  0.00000000000E+00  0.00000000000E+00  0.88815288868E+03  0.10721148661E+04  0.60051205849E+03 0.  0.
        1    1    3    3  502    0  0.23854576396E+02 -0.16398115702E+03 -0.29522733498E+01  0.16573345050E+03  0.50400001928E-02 0.  1.
       -1    1    3    3    0  502 -0.23854576396E+02  0.16398115702E+03  0.89110516203E+03  0.90638141557E+03  0.50400001928E-02 0. -1.
</event>
<event>
 5   0  0.5785798E-03  0.6002683E+03  0.7818609E-02  0.9904850E-01
       -1   -1    0    0    0  501  0.00000000000E+00  0.00000000000E+00  0.52093123610E+02  0.52093123854E+02  0.50400001928E-02 0. -1.
        1   -1    0    0  501    0  0.00000000000E+00  0.00000000000E+00 -0.17292207588E+04  0.17292207588E+04  0.50400001928E-02 0.  1.
    10030    2    1    2    0    0  0.00000000000E+00  0.00000000000E+00 -0.16771276352E+04  0.17813138826E+04  0.60026830987E+03 0.  0.
        1    1    3    3  502    0 -0.93907584747E+02  0.12704725085E+03 -0.15958414718E+04  0.16036426165E+04  0.50400001928E-02 0.  1.
       -1    1    3    3    0  502  0.93907584747E+02 -0.12704725085E+03 -0.81286163376E+02  0.17767126611E+03  0.50400001928E-02 0. -1.
</event>
<event>
 5   0  0.9428629E-03  0.6004778E+03  0.7818609E-02  0.9904415E-01
        2   -1    0    0  501    0  0.00000000000E+00  0.00000000000E+00  0.30309533465E+03  0.30309533466E+03  0.25500000920E-02 0. -1.
       -2   -1    0    0    0  501  0.00000000000E+00  0.00000000000E+00 -0.29740941813E+03  0.29740941814E+03  0.25500000920E-02 0.  1.
    10030    2    1    2    0    0  0.00000000000E+00  0.00000000000E+00  0.56859165167E+01  0.60050475280E+03  0.60047783347E+03 0.  0.
        3    1    3    3  502    0  0.11413482051E+03 -0.24225664918E+03  0.13860012350E+03  0.30153780154E+03  0.10100000352E+00 0. -1.
       -3    1    3    3    0  502 -0.11413482051E+03  0.24225664918E+03 -0.13291420699E+03  0.29896695126E+03  0.10100000352E+00 0.  1.
</event>
<event>
 5   0  0.9571790E-03  0.6002735E+03  0.7818609E-02  0.9904839E-01
        2   -1    0    0  501    0  0.00000000000E+00  0.00000000000E+00  0.35785084898E+03  0.35785084899E+03  0.25500000920E-02 0. -1.
       -2   -1    0    0    0  501  0.00000000000E+00  0.00000000000E+00 -0.25173077359E+03  0.25173077360E+03  0.25500000920E-02 0.  1.
    10030    2    1    2    0    0  0.00000000000E+00  0.00000000000E+00  0.10612007539E+03  0.60958162259E+03  0.60027350782E+03 0.  0.
        5    1    3    3  502    0  0.23228768296E+03  0.13144383641E+02  0.24555045457E+03  0.33830083980E+03  0.46999998093E+01 0.  1.
       -5    1    3    3    0  502 -0.23228768296E+03 -0.13144383641E+02 -0.13943037917E+03  0.27128078279E+03  0.46999998093E+01 0. -1.
</event>
<event>
 5   0  0.3794375E-03  0.6000001E+03  0.7818609E-02  0.9905406E-01
       -3   -1    0    0    0  501  0.00000000000E+00  0.00000000000E+00  0.13000225514E+04  0.13000225553E+04  0.10100000352E+00 0.  1.
        3   -1    0    0  501    0  0.00000000000E+00  0.00000000000E+00 -0.69229550982E+02  0.69229624657E+02  0.10100000352E+00 0. -1.
    10030    2    1    2    0    0  0.00000000000E+00  0.00000000000E+00  0.12307930004E+04  0.13692521800E+04  0.60000010208E+03 0.  0.
        3    1    3    3  502    0 -0.43621248202E+02  0.19614277681E+02 -0.60472970986E+02  0.77100736731E+02  0.10100000352E+00 0. -1.
       -3    1    3    3    0  502  0.43621248202E+02 -0.19614277681E+02  0.12912659714E+04  0.12921514432E+04  0.10100000352E+00 0.  1.
</event>
<event>
 5   0  0.9530666E-03  0.6040822E+03  0.7818609E-02  0.9896973E-01
       -2   -1    0    0    0  501  0.00000000000E+00  0.00000000000E+00  0.25000844325E+03  0.25000844327E+03  0.25500000920E-02 0. -1.
        2   -1    0    0  501    0  0.00000000000E+00  0.00000000000E+00 -0.36490299165E+03  0.36490299166E+03  0.25500000920E-02 0.  1.
    10030    2    1    2    0    0  0.00000000000E+00  0.00000000000E+00 -0.11489454840E+03  0.61491143493E+03  0.60408220927E+03 0.  0.
        2    1    3    3  502    0 -0.16024772986E+03  0.18511003815E+03 -0.23749019512E+03  0.34109625318E+03  0.25500000920E-02 0.  1.
       -2    1    3    3    0  502  0.16024772986E+03 -0.18511003815E+03  0.12259564672E+03  0.27381518174E+03  0.25500000920E-02 0. -1.
</event>
<event>
 5   0  0.9530666E-03  0.5980628E+03  0.7818609E-02  0.9909433E-01
       -2   -1    0    0    0  501  0.00000000000E+00  0.00000000000E+00  0.16838900997E+03  0.16838900999E+03  0.25500000920E-02 0. -1.
        2   -1    0    0  501    0  0.00000000000E+00  0.00000000000E+00 -0.53103089025E+03  0.53103089025E+03  0.25500000920E-02 0.  1.
    10030    2    1    2    0    0  0.00000000000E+00  0.00000000000E+00 -0.36264188028E+03  0.69941990024E+03  0.59806275885E+03 0.  0.
        2    1    3    3  502    0  0.61972597589E+02  0.13790047530E+03 -0.48304256327E+03  0.50614944619E+03  0.25500000920E-02 0.  1.
       -2    1    3    3    0  502 -0.61972597589E+02 -0.13790047530E+03  0.12040068299E+03  0.19327045405E+03  0.25500000920E-02 0. -1.
</event>
<event>
 5   0  0.9428629E-03  0.5986544E+03  0.7818609E-02  0.9908202E-01
        2   -1    0    0  501    0  0.00000000000E+00  0.00000000000E+00  0.54160617625E+03  0.54160617625E+03  0.25500000920E-02 0.  1.
       -2   -1    0    0    0  501  0.00000000000E+00  0.00000000000E+00 -0.16542787682E+03  0.16542787684E+03  0.25500000920E-02 0. -1.
    10030    2    1    2    0    0  0.00000000000E+00  0.00000000000E+00  0.37617829943E+03  0.70703405309E+03  0.59865435710E+03 0.  0.
        3    1    3    3  502    0 -0.19679224562E+03  0.21305327709E+03  0.10067741096E+03  0.30700950814E+03  0.10100000352E+00 0. -1.
       -3    1    3    3    0  502  0.19679224562E+03 -0.21305327709E+03  0.27550088847E+03  0.40002454495E+03  0.10100000352E+00 0.  1.
</event>
<event>
 5   0  0.5653633E-03  0.5976392E+03  0.7818609E-02  0.9910316E-01
        1   -1    0    0  501    0  0.00000000000E+00  0.00000000000E+00  0.60104499572E+03  0.60104499575E+03  0.50400001928E-02 0.  1.
       -1   -1    0    0    0  501  0.00000000000E+00  0.00000000000E+00 -0.14856316650E+03  0.14856316659E+03  0.50400001928E-02 0. -1.
    10030    2    1    2    0    0  0.00000000000E+00  0.00000000000E+00  0.45248182922E+03  0.74960816233E+03  0.59763918150E+03 0.  0.
        2    1    3    3  502    0 -0.14173088510E+03 -0.26306805739E+03  0.22519060970E+03  0.37417009142E+03  0.25500000920E-02 0.  1.
       -2    1    3    3    0  502  0.14173088510E+03  0.26306805739E+03  0.22729121953E+03  0.37543807091E+03  0.25500000920E-02 0. -1.
</event>
<event>
 5   0  0.9866317E-03  0.6007355E+03  0.7818609E-02  0.9903881E-01
        2   -1    0    0  501    0  0.00000000000E+00  0.00000000000E+00  0.11784086297E+04  0.11784086297E+04  0.25500000920E-02 0.  1.
       -2   -1    0    0    0  501  0.00000000000E+00  0.00000000000E+00 -0.76561552512E+02  0.76561552555E+02  0.25500000920E-02 0. -1.
    10030    2    1    2    0    0  0.00000000000E+00  0.00000000000E+00  0.11018470772E+04  0.12549701823E+04  0.60073552987E+03 0.  0.
        1    1    3    3  502    0 -0.19477554869E+02 -0.16087153116E+02  0.11761854513E+04  0.11764567087E+04  0.50400001928E-02 0.  1.
       -1    1    3    3    0  502  0.19477554869E+02  0.16087153116E+02 -0.74338374097E+02  0.78513473544E+02  0.50400001928E-02 0. -1.
</event>
<event>
 5   0  0.5785798E-03  0.5983104E+03  0.7818609E-02  0.9908918E-01
        1   -1    0    0  501    0  0.00000000000E+00  0.00000000000E+00  0.15127892735E+04  0.15127892735E+04  0.50400001928E-02 0. -1.
       -1   -1    0    0    0  501  0.00000000000E+00  0.00000000000E+00 -0.59158159864E+02  0.59158160079E+02  0.50400001928E-02 0.  1.
    10030    2    1    2    0    0  0.00000000000E+00  0.00000000000E+00  0.14536311136E+04  0.15719474335E+04  0.59831038719E+03 0.  0.
        1    1    3    3  502    0 -0.93572192644E+02 -0.35131661377E+02 -0.13992218083E+02  0.10092458105E+03  0.50400001928E-02 0.  1.
       -1    1    3    3    0  502  0.93572192644E+02  0.35131661377E+02  0.14676233317E+04  0.14710228525E+04  0.50400001928E-02 0. -1.
</event>
<event>
 5   0  0.5491236E-03  0.6005495E+03  0.7818609E-02  0.9904267E-01
        1   -1    0    0  501    0  0.00000000000E+00  0.00000000000E+00  0.53036454827E+03  0.53036454829E+03  0.50400001928E-02 0.  1.
       -1   -1    0    0    0  501  0.00000000000E+00  0.00000000000E+00 -0.17000554720E+03  0.17000554727E+03  0.50400001928E-02 0. -1.
    10030    2    1    2    0    0  0.00000000000E+00  0.00000000000E+00  0.36035900107E+03  0.70037009556E+03  0.60054946599E+03 0.  0.
        3    1    3    3  502    0 -0.23194089536E+03  0.13787375314E+03  0.33383322484E+03  0.42924396670E+03  0.10100000352E+00 0. -1.
       -3    1    3    3    0  502  0.23194089536E+03 -0.13787375314E+03  0.26525776235E+02  0.27112612886E+03  0.10100000352E+00 0.  1.
</event>
<event>
 5   0  0.5503975E-03  0.5999651E+03  0.7818609E-02  0.9905479E-01
       -1   -1    0    0    0  501  0.00000000000E+00  0.00000000000E+00  0.20259588319E+03  0.20259588325E+03  0.50400001928E-02 0.  1.
        1   -1    0    0  501    0  0.00000000000E+00  0.00000000000E+00 -0.44418236179E+03  0.44418236182E+03  0.50400001928E-02 0. -1.
    10030    2    1    2    0    0  0.00000000000E+00  0.00000000000E+00 -0.24158647860E+03  0.64677824507E+03  0.59996505869E+03 0.  0.
        4    1    3    3  502    0 -0.11847971125E+03  0.14000466853E+03  0.13510844977E+03  0.22780398435E+03  0.12699999809E+01 0.  1.
       -4    1    3    3    0  502  0.11847971125E+03 -0.14000466853E+03 -0.37669492837E+03  0.41897426072E+03  0.12699999809E+01 0. -1.
</event>
<event>
 5   0  0.9681801E-03  0.6009359E+03  0.7818609E-02  0.9903466E-01
       -2   -1    0    0    0  501  0.00000000000E+00  0.00000000000E+00  0.90993638561E+02  0.90993638596E+02  0.25500000920E-02 0.  1.
        2   -1    0    0  501    0  0.00000000000E+00  0.00000000000E+00 -0.99216818733E+03  0.99216818733E+03  0.25500000920E-02 0. -1.
    10030    2    1    2    0    0  0.00000000000E+00  0.00000000000E+00 -0.90117454877E+03  0.10831618259E+04  0.60093591489E+03 0.  0.
        4    1    3    3  502    0  0.30056450491E+02  0.17559142957E+02  0.87342054300E+02  0.94031702457E+02  0.12699999809E+01 0.  1.
       -4    1    3    3    0  502 -0.30056450491E+02 -0.17559142957E+02 -0.98851660307E+03  0.98913012347E+03  0.12699999809E+01 0. -1.
</event>
<event>
 5   0  0.5491236E-03  0.5998117E+03  0.7818609E-02  0.9905797E-01
        1   -1    0    0  501    0  0.00000000000E+00  0.00000000000E+00  0.79083184619E+03  0.79083184621E+03  0.50400001928E-02 0. -1.
       -1   -1    0    0    0  501  0.00000000000E+00  0.00000000000E+00 -0.11373278163E+03  0.11373278174E+03  0.50400001928E-02 0.  1.
    10030    2    1    2    0    0  0.00000000000E+00  0.00000000000E+00  0.67709906456E+03  0.90456462795E+03  0.59981165619E+03 0.  0.
        3    1    3    3  502    0  0.20723365489E+03 -0.21169010002E+03  0.26805566272E+03  0.39951512447E+03  0.10100000352E+00 0.  1.
       -3    1    3    3    0  502 -0.20723365489E+03  0.21169010002E+03  0.40904340185E+03  0.50504950348E+03  0.10100000352E+00 0. -1.
</event>
<event>
 5   0  0.9571790E-03  0.6045178E+03  0.7818609E-02  0.9896077E-01
       -2   -1    0    0    0  501  0.00000000000E+00  0.00000000000E+00  0.22553874440E+03  0.22553874441E+03  0.25500000920E-02 0.  1.
        2   -1    0    0  501    0  0.00000000000E+00  0.00000000000E+00 -0.40507652117E+03  0.40507652117E+03  0.25500000920E-02 0. -1.
    10030    2    1    2    0    0  0.00000000000E+00  0.00000000000E+00 -0.17953777677E+03  0.63061526559E+03  0.60451782431E+03 0.  0.
        5    1    3    3  502    0 -0.26155206774E+03  0.14917175246E+03 -0.62633131531E+02  0.30758201351E+03  0.46999998093E+01 0. -1.
       -5    1    3    3    0  502  0.26155206774E+03 -0.14917175246E+03 -0.11690464524E+03  0.32303325208E+03  0.46999998093E+01 0.  1.
</event>
<event>
 5   0  0.5491236E-03  0.6003590E+03  0.7818609E-02  0.9904661E-01
        1   -1    0    0  501    0  0.00000000000E+00  0.00000000000E+00  0.10001713206E+04  0.10001713207E+04  0.50400001928E-02 0.  1.
       -1   -1    0    0    0  501  0.00000000000E+00  0.00000000000E+00 -0.90092304424E+02  0.90092304565E+02  0.50400001928E-02 0. -1.
    10030    2    1    2    0    0  0.00000000000E+00  0.00000000000E+00  0.91007901622E+03  0.10902636252E+04  0.60035902318E+03 0.  0.
        3    1    3    3  502    0 -0.62450865535E+02  0.24362489718E+03  0.75263698242E+03  0.79354624228E+03  0.10100000352E+00 0.  1.
       -3    1    3    3    0  502  0.62450865535E+02 -0.24362489718E+03  0.15744203380E+03  0.29671738294E+03  0.10100000352E+00 0. -1.
</event>
<event>
 5   0  0.9866317E-03  0.6023735E+03  0.7818609E-02  0.9900494E-01
       -2   -1    0    0    0  501  0.00000000000E+00  0.00000000000E+00  0.10612455783E+03  0.10612455786E+03  0.25500000920E-02 0.  1.
        2   -1    0    0  501    0  0.00000000000E+00  0.00000000000E+00 -0.85478279008E+03  0.85478279009E+03  0.25500000920E-02 0. -1.
    10030    2    1    2    0    0  0.00000000000E+00  0.00000000000E+00 -0.74865823225E+03  0.96090734795E+03  0.60237345777E+03 0.  0.
        1    1    3    3  502    0  0.31698865485E+02  0.28739112825E+03 -0.50888482573E+03  0.58528817223E+03  0.50400001928E-02 0. -1.
       -1    1    3    3    0  502 -0.31698865485E+02 -0.28739112825E+03 -0.23977340652E+03  0.37561917572E+03  0.50400001928E-02 0.  1.
</event>
<event>
 5   0  0.5491236E-03  0.6015260E+03  0.7818609E-02  0.9902245E-01
        1   -1    0    0  501    0  0.00000000000E+00  0.00000000000E+00  0.10697283865E+04  0.10697283865E+04  0.50400001928E-02 0. -1.
       -1   -1    0    0    0  501  0.00000000000E+00  0.00000000000E+00 -0.84562019800E+02  0.84562019951E+02  0.50400001928E-02 0.  1.
    10030    2    1    2    0    0  0.00000000000E+00  0.00000000000E+00  0.98516636671E+03  0.11542904065E+04  0.60152603633E+03 0.  0.
        3    1    3    3  502    0  0.80045456185E+02 -0.28617021050E+03  0.58172018977E+03  0.65322205553E+03  0.10100000352E+00 0. -1.
       -3    1    3    3    0  502 -0.80045456185E+02  0.28617021050E+03  0.40344617694E+03  0.50106835095E+03  0.10100000352E+00 0.  1.
</event>
<event>
 5   0  0.9571790E-03  0.5992334E+03  0.7818609E-02  0.9906998E-01
       -2   -1    0    0    0  501  0.00000000000E+00  0.00000000000E+00  0.79211228940E+02  0.79211228981E+02  0.25500000920E-02 0.  1.
        2   -1    0    0  501    0  0.00000000000E+00  0.00000000000E+00 -0.11333009252E+04  0.11333009252E+04  0.25500000920E-02 0. -1.
    10030    2    1    2    0    0  0.00000000000E+00  0.00000000000E+00 -0.10540896962E+04  0.12125121542E+04  0.59923337380E+03 0.  0.
        5    1    3    3  502    0 -0.19064141615E+02 -0.26638540523E+03 -0.25239743647E+03  0.36749310409E+03  0.46999998093E+01 0.  1.
       -5    1    3    3    0  502  0.19064141615E+02  0.26638540523E+03 -0.80169225977E+03  0.84501905008E+03  0.46999998093E+01 0. -1.
</event>
<event>
 5   0  0.9428629E-03  0.5995327E+03  0.7818609E-02  0.9906376E-01
        2   -1    0    0  501    0  0.00000000000E+00  0.00000000000E+00  0.14321125194E+04  0.14321125194E+04  0.25500000920E-02 0. -1.
       -2   -1    0    0    0  501  0.00000000000E+00  0.00000000000E+00 -0.62746381835E+02  0.62746381887E+02  0.25500000920E-02 0.  1.
    10030    2    1    2    0    0  0.00000000000E+00  0.00000000000E+00  0.13693661376E+04  0.14948589013E+04  0.59953274812E+03 0.  0.
        3    1    3    3  502    0  0.33552958990E+02 -0.29628200704E+03  0.76157604964E+03  0.81786729874E+03  0.10100000352E+00 0. -1.
       -3    1    3    3    0  502 -0.33552958990E+02  0.29628200704E+03  0.60779008795E+03  0.67699160259E+03  0.10100000352E+00 0.  1.
</event>
<event>
 5   0  0.3794375E-03  0.5999948E+03  0.7818609E-02  0.9905417E-01
       -3   -1    0    0    0  501  0.00000000000E+00  0.00000000000E+00  0.10779056857E+03  0.10779061588E+03  0.10100000352E+00 0.  1.
        3   -1    0    0  501    0  0.00000000000E+00  0.00000000000E+00 -0.83493782986E+03  0.83493783597E+03  0.10100000352E+00 0. -1.
    10030    2    1    2    0    0  0.00000000000E+00  0.00000000000E+00 -0.72714726129E+03  0.94272845185E+03  0.59999482858E+03 0.  0.
        4    1    3    3  502    0  0.14282411498E+02  0.22568431877E+03 -0.67330654397E+03  0.71026805790E+03  0.12699999809E+01 0. -1.
       -4    1    3    3    0  502 -0.14282411498E+02 -0.22568431877E+03 -0.53840717323E+02  0.23246039395E+03  0.12699999809E+01 0.  1.
</event>
<event>
 5   0  0.9428629E-03  0.6009299E+03  0.7818609E-02  0.9903479E-01
        2   -1    0    0  501    0  0.00000000000E+00  0.00000000000E+00  0.47393756926E+03  0.47393756927E+03  0.25500000920E-02 0.  1.
       -2   -1    0    0    0  501  0.00000000000E+00  0.00000000000E+00 -0.19048748713E+03  0.19048748714E+03  0.25500000920E-02 0. -1.
    10030    2    1    2    0    0  0.00000000000E+00  0.00000000000E+00  0.28345008214E+03  0.66442505641E+03  0.60092986822E+03 0.  0.
        3    1    3    3  502    0  0.86850399565E+02 -0.82056050427E+02 -0.16309079029E+03  0.20217517997E+03  0.10100000352E+00 0. -1.
       -3    1    3    3    0  502 -0.86850399565E+02  0.82056050427E+02  0.44654087243E+03  0.46224987644E+03  0.10100000352E+00 0.  1.
</event>
<event>
 5   0  0.5503975E-03  0.5985199E+03  0.7818609E-02  0.9908481E-01
        1   -1    0    0  501    0  0.00000000000E+00  0.00000000000E+00  0.93458720682E+03  0.93458720683E+03  0.50400001928E-02 0.  1.
       -1   -1    0    0    0  501  0.00000000000E+00  0.00000000000E+00 -0.95824689951E+02  0.95824690083E+02  0.50400001928E-02 0. -1.
    10030    2    1    2    0    0  0.00000000000E+00  0.00000000000E+00  0.83876251687E+03  0.10304118969E+04  0.59851993919E+03 0.  0.
        4    1    3    3  502    0  0.20972727099E+03 -0.22272092271E+02  0.53877268335E+02  0.21768313493E+03  0.12699999809E+01 0. -1.
       -4    1    3    3    0  502 -0.20972727099E+03  0.22272092271E+02  0.78488524853E+03  0.81272876198E+03  0.12699999809E+01 0.  1.
</event>
<event>
 5   0  0.5503975E-03  0.6008906E+03  0.7818609E-02  0.9903560E-01
       -1   -1    0    0    0  501  0.00000000000E+00  0.00000000000E+00  0.15757655740E+03  0.15757655748E+03  0.50400001928E-02 0. -1.
        1   -1    0    0  501    0  0.00000000000E+00  0.00000000000E+00 -0.57284779832E+03  0.57284779834E+03  0.50400001928E-02 0.  1.
    10030    2    1    2    0    0  0.00000000000E+00  0.00000000000E+00 -0.41527124092E+03  0.73042435582E+03  0.60089061902E+03 0.  0.
        4    1    3    3  502    0 -0.10062083016E+03 -0.27084743497E+03 -0.10752339841E+03  0.30829495390E+03  0.12699999809E+01 0. -1.
       -4    1    3    3    0  502  0.10062083016E+03  0.27084743497E+03 -0.30774784251E+03  0.42212940192E+03  0.12699999809E+01 0.  1.
</event>
<event>
 5   0  0.5785798E-03  0.6000371E+03  0.7818609E-02  0.9905329E-01
        1   -1    0    0  501    0  0.00000000000E+00  0.00000000000E+00  0.28523648207E+03  0.28523648211E+03  0.50400001928E-02 0.  1.
       -1   -1    0    0    0  501  0.00000000000E+00  0.00000000000E+00 -0.31556670207E+03  0.31556670211E+03  0.50400001928E-02 0. -1.
    10030    2    1    2    0    0  0.00000000000E+00  0.00000000000E+00 -0.30330220000E+02  0.60080318422E+03  0.60003711879E+03 0.  0.
        1    1    3    3  502    0  0.22093288739E+03  0.50533468893E+02 -0.21200236664E+03  0.31033848568E+03  0.50400001928E-02 0. -1.
       -1    1    3    3    0  502 -0.22093288739E+03 -0.50533468893E+02  0.18167214664E+03  0.29046469854E+03  0.50400001928E-02 0.  1.
</event>
<event>
 5   0  0.5574736E-03  0.5990946E+03  0.7818609E-02  0.9907286E-01
        1   -1    0    0  501    0  0.00000000000E+00  0.00000000000E+00  0.31828122290E+03  0.31828122294E+03  0.50400001928E-02 0.  1.
       -1   -1    0    0    0  501  0.00000000000E+00  0.00000000000E+00 -0.28191608142E+03  0.28191608147E+03  0.50400001928E-02 0. -1.
    10030    2    1    2    0    0  0.00000000000E+00  0.00000000000E+00  0.36365141474E+02  0.60019730440E+03  0.59909463418E+03 0.  0.
        5    1    3    3  502    0 -0.36813339612E+01 -0.29821168670E+03  0.45851202916E+02  0.30177505714E+03  0.46999998093E+01 0.  1.
       -5    1    3    3    0  502  0.36813339612E+01  0.29821168670E+03 -0.94860614420E+01  0.29842224727E+03  0.46999998093E+01 0. -1.
</event>
<event>
 5   0  0.5491236E-03  0.5996887E+03  0.7818609E-02  0.9906052E-01
        1   -1    0    0  501    0  0.00000000000E+00  0.00000000000E+00  0.16503335470E+04  0.16503335471E+04  0.50400001928E-02 0. -1.
       -1   -1    0    0    0  501  0.00000000000E+00  0.00000000000E+00 -0.54477850830E+02  0.54477851063E+02  0.50400001928E-02 0.  1.
    10030    2    1    2    0    0  0.00000000000E+00  0.00000000000E+00  0.15958556962E+04  0.17048113981E+04  0.59968866923E+03 0.  0.
        3    1    3    3  502    0  0.54542288951E+02 -0.24942813579E+03  0.35098547943E+03  0.43402773319E+03  0.10100000352E+00 0.  1.
       -3    1    3    3    0  502 -0.54542288951E+02  0.24942813579E+03  0.12448702168E+04  0.12707836649E+04  0.10100000352E+00 0. -1.
</event>
<event>
 5   0  0.5653633E-03  0.5999402E+03  0.7818609E-02  0.9905530E-01
       -1   -1    0    0    0  501  0.00000000000E+00  0.00000000000E+00  0.14964162617E+03  0.14964162625E+03  0.50400001928E-02 0.  1.
        1   -1    0    0  501    0  0.00000000000E+00  0.00000000000E+00 -0.60131704091E+03  0.60131704093E+03  0.50400001928E-02 0. -1.
    10030    2    1    2    0    0  0.00000000000E+00  0.00000000000E+00 -0.45167541474E+03  0.75095866718E+03  0.59994019663E+03 0.  0.
        2    1    3    3  502    0 -0.22816099031E+03 -0.46236425245E+02  0.10955695818E+02  0.23305637043E+03  0.25500000920E-02 0.  1.
       -2    1    3    3    0  502  0.22816099031E+03  0.46236425245E+02 -0.46263111055E+03  0.51790229675E+03  0.25500000920E-02 0. -1.
</event>
<event>
 5   0  0.5653633E-03  0.6067403E+03  0.7818609E-02  0.9891520E-01
        1   -1    0    0  501    0  0.00000000000E+00  0.00000000000E+00  0.41097112653E+03  0.41097112656E+03  0.50400001928E-02 0.  1.
       -1   -1    0    0    0  501  0.00000000000E+00  0.00000000000E+00 -0.22394138600E+03  0.22394138606E+03  0.50400001928E-02 0. -1.
    10030    2    1    2    0    0  0.00000000000E+00  0.00000000000E+00  0.18702974053E+03  0.63491251261E+03  0.60674028615E+03 0.  0.
        2    1    3    3  502    0 -0.83470723294E+02 -0.37351969441E+02 -0.20917529224E+03  0.22829111713E+03  0.25500000920E-02 0. -1.
       -2    1    3    3    0  502  0.83470723294E+02  0.37351969441E+02  0.39620503277E+03  0.40662139549E+03  0.25500000920E-02 0.  1.
</event>
<event>
 5   0  0.9530666E-03  0.5961390E+03  0.7818609E-02  0.9913449E-01
       -2   -1    0    0    0  501  0.00000000000E+00  0.00000000000E+00  0.50062596403E+02  0.50062596468E+02  0.25500000920E-02 0. -1.
        2   -1    0    0  501    0  0.00000000000E+00  0.00000000000E+00 -0.17746869546E+04  0.17746869546E+04  0.25500000920E-02 0.  1.
    10030    2    1    2    0    0  0.00000000000E+00  0.00000000000E+00 -0.17246243582E+04  0.18247495510E+04  0.59613903348E+03 0.  0.
        2    1    3    3  502    0 -0.12579394276E+03 -0.82356312269E+02 -0.74519757531E+02  0.16780903574E+03  0.25500000920E-02 0. -1.
       -2    1    3    3    0  502  0.12579394276E+03  0.82356312269E+02 -0.16501046006E+04  0.16569405153E+04  0.25500000920E-02 0.  1.
</event>
<event>
 5   0  0.5491236E-03  0.5882653E+03  0.7818609E-02  0.9930055E-01
       -1   -1    0    0    0  501  0.00000000000E+00  0.00000000000E+00  0.67971335662E+03  0.67971335664E+03  0.50400001928E-02 0. -1.
        1   -1    0    0  501    0  0.00000000000E+00  0.00000000000E+00 -0.12728015989E+03  0.12728015999E+03  0.50400001928E-02 0.  1.
    10030    2    1    2    0    0  0.00000000000E+00  0.00000000000E+00  0.55243319674E+03  0.80699351663E+03  0.58826533046E+03 0.  0.
        3    1    3    3  502    0 -0.16703508110E+02  0.15614138696E+03 -0.64963552793E+02  0.16993944009E+03  0.10100000352E+00 0.  1.
       -3    1    3    3    0  502  0.16703508110E+02 -0.15614138696E+03  0.61739674953E+03  0.63705407654E+03  0.10100000352E+00 0. -1.
</event>
<event>
 5   0  0.5785798E-03  0.5993643E+03  0.7818609E-02  0.9906726E-01
       -1   -1    0    0    0  501  0.00000000000E+00  0.00000000000E+00  0.59005791168E+03  0.59005791170E+03  0.50400001928E-02 0. -1.
        1   -1    0    0  501    0  0.00000000000E+00  0.00000000000E+00 -0.15220437673E+03  0.15220437682E+03  0.50400001928E-02 0.  1.
    10030    2    1    2    0    0  0.00000000000E+00  0.00000000000E+00  0.43785353494E+03  0.74226228852E+03  0.59936431900E+03 0.  0.
        1    1    3    3  502    0  0.19512560710E+03 -0.10471478753E+03  0.46898316580E+03  0.51863705913E+03  0.50400001928E-02 0. -1.
       -1    1    3    3    0  502 -0.19512560710E+03  0.10471478753E+03 -0.31129630857E+02  0.22362522939E+03  0.50400001928E-02 0.  1.
</event>
<event>
 5   0  0.9530666E-03  0.6004512E+03  0.7818609E-02  0.9904470E-01
        2   -1    0    0  501    0  0.00000000000E+00  0.00000000000E+00  0.11415591466E+04  0.11415591466E+04  0.25500000920E-02 0. -1.
       -2   -1    0    0    0  501  0.00000000000E+00  0.00000000000E+00 -0.78958150430E+02  0.78958150471E+02  0.25500000920E-02 0.  1.
    10030    2    1    2    0    0  0.00000000000E+00  0.00000000000E+00  0.10626009961E+04  0.12205172970E+04  0.60045115987E+03 0.  0.
        2    1    3    3  502    0 -0.81804152574E+02 -0.25261945371E+03  0.24653195942E+03  0.36233481035E+03  0.25500000920E-02 0.  1.
       -2    1    3    3    0  502  0.81804152574E+02  0.25261945371E+03  0.81606903672E+03  0.85818248670E+03  0.25500000920E-02 0. -1.
</event>
<event>
 5   0  0.5653633E-03  0.5996869E+03  0.7818609E-02  0.9906056E-01
       -1   -1    0    0    0  501  0.00000000000E+00  0.00000000000E+00  0.43952260813E+02  0.43952261102E+02  0.50400001928E-02 0.  1.
        1   -1    0    0  501    0  0.00000000000E+00  0.00000000000E+00 -0.20455398883E+04  0.20455398883E+04  0.50400001928E-02 0. -1.
    10030    2    1    2    0    0  0.00000000000E+00  0.00000000000E+00 -0.20015876274E+04  0.20894921494E+04  0.59968692826E+03 0.  0.
        2    1    3    3  502    0 -0.17793791302E+03 -0.22499416713E+03 -0.69660327613E+03  0.75335277291E+03  0.25500000920E-02 0. -1.
       -2    1    3    3    0  502  0.17793791302E+03  0.22499416713E+03 -0.13049843513E+04  0.13361393765E+04  0.25500000920E-02 0.  1.
</event>
<event>
 5   0  0.5491236E-03  0.5996106E+03  0.7818609E-02  0.9906214E-01
       -1   -1    0    0    0  501  0.00000000000E+00  0.00000000000E+00  0.13423484275E+03  0.13423484285E+03  0.50400001928E-02 0.  1.
        1   -1    0    0  501    0  0.00000000000E+00  0.00000000000E+00 -0.66959671147E+03  0.66959671149E+03  0.50400001928E-02 0. -1.
    10030    2    1    2    0    0  0.00000000000E+00  0.00000000000E+00 -0.53536186872E+03  0.80383155434E+03  0.59961057135E+03 0.  0.
        3    1    3    3  502    0 -0.18373812266E+03 -0.17509529338E+03 -0.48160951036E+03  0.54439488440E+03  0.10100000352E+00 0. -1.
       -3    1    3    3    0  502  0.18373812266E+03  0.17509529338E+03 -0.53752358355E+02  0.25943666995E+03  0.10100000352E+00 0.  1.
</event>
<event>
 5   0  0.9866317E-03  0.5999408E+03  0.7818609E-02  0.9905529E-01
        2   -1    0    0  501    0  0.00000000000E+00  0.00000000000E+00  0.18037394435E+04  0.18037394436E+04  0.25500000920E-02 0. -1.
       -2   -1    0    0    0  501  0.00000000000E+00  0.00000000000E+00 -0.49886492767E+02  0.49886492832E+02  0.25500000920E-02 0.  1.
    10030    2    1    2    0    0  0.00000000000E+00  0.00000000000E+00  0.17538529508E+04  0.18536259364E+04  0.59994077963E+03 0.  0.
        1    1    3    3  502    0 -0.29991420192E+03 -0.27532135028E+01  0.89271896245E+03  0.94175541126E+03  0.50400001928E-02 0.  1.
       -1    1    3    3    0  502  0.29991420192E+03  0.27532135028E+01  0.86113398833E+03  0.91187052512E+03  0.50400001928E-02 0. -1.
</event>
<event>
 5   0  0.9530666E-03  0.5994797E+03  0.7818609E-02  0.9906486E-01
        2   -1    0    0  501    0  0.00000000000E+00  0.00000000000E+00  0.21385780854E+03  0.21385780856E+03  0.25500000920E-02 0.  1.
       -2   -1    0    0    0  501  0.00000000000E+00  0.00000000000E+00 -0.42011082293E+03  0.42011082294E+03  0.25500000920E-02 0. -1.
    10030    2    1    2    0    0  0.00000000000E+00  0.00000000000E+00 -0.20625301439E+03  0.63396863150E+03  0.59947970757E+03 0.  0.
        2    1    3    3  502    0  0.10318073648E+03 -0.17513408298E+03  0.12983249319E+03  0.24119429449E+03  0.25500000920E-02 0.  1.
       -2    1    3    3    0  502 -0.10318073648E+03  0.17513408298E+03 -0.33608550758E+03  0.39277433701E+03  0.25500000920E-02 0. -1.
</event>
<event>
 5   0  0.9681801E-03  0.6005100E+03  0.7818609E-02  0.9904349E-01
       -2   -1    0    0    0  501  0.00000000000E+00  0.00000000000E+00  0.34770152333E+03  0.34770152334E+03  0.25500000920E-02 0. -1.
        2   -1    0    0  501    0  0.00000000000E+00  0.00000000000E+00 -0.25928291096E+03  0.25928291098E+03  0.25500000920E-02 0.  1.
    10030    2    1    2    0    0  0.00000000000E+00  0.00000000000E+00  0.88418612367E+02  0.60698443431E+03  0.60050999366E+03 0.  0.
        4    1    3    3  502    0 -0.22665040971E+03  0.16143797207E+03  0.15820298764E+03  0.32009752458E+03  0.12699999809E+01 0.  1.
       -4    1    3    3    0  502  0.22665040971E+03 -0.16143797207E+03 -0.69784375270E+02  0.28688690973E+03  0.12699999809E+01 0. -1.
</event>
<event>
 5   0  0.9571790E-03  0.6014223E+03  0.7818609E-02  0.9902460E-01
       -2   -1    0    0    0  501  0.00000000000E+00  0.00000000000E+00  0.15779751277E+03  0.15779751279E+03  0.25500000920E-02 0.  1.
        2   -1    0    0  501    0  0.00000000000E+00  0.00000000000E+00 -0.57305840168E+03  0.57305840168E+03  0.25500000920E-02 0. -1.
    10030    2    1    2    0    0  0.00000000000E+00  0.00000000000E+00 -0.41526088891E+03  0.73085591448E+03  0.60142228249E+03 0.  0.
        5    1    3    3  502    0  0.19705550728E+03  0.85076595272E+02  0.48246695241E+02  0.22004257228E+03  0.46999998093E+01 0.  1.
       -5    1    3    3    0  502 -0.19705550728E+03 -0.85076595272E+02 -0.46350758415E+03  0.51081334220E+03  0.46999998093E+01 0. -1.
</event>
<event>
 5   0  0.9681801E-03  0.5999223E+03  0.7818609E-02  0.9905567E-01
        2   -1    0    0  501    0  0.00000000000E+00  0.00000000000E+00  0.24553194879E+04  0.24553194879E+04  0.25500000920E-02 0. -1.
       -2   -1    0    0    0  501  0.00000000000E+00  0.00000000000E+00 -0.36645617091E+02  0.36645617180E+02  0.25500000920E-02 0.  1.
    10030    2    1    2    0    0  0.00000000000E+00  0.00000000000E+00  0.24186738708E+04  0.24919651051E+04  0.59992232132E+03 0.  0.
        4    1    3    3  502    0  0.25323808914E+02 -0.17745439891E+03  0.21031490416E+03  0.27634277773E+03  0.12699999809E+01 0.  1.
       -4    1    3    3    0  502 -0.25323808914E+02  0.17745439891E+03  0.22083589667E+04  0.22156223274E+04  0.12699999809E+01 0. -1.
</event>
<event>
 5   0  0.9866317E-03  0.5998854E+03  0.7818609E-02  0.9905644E-01
        2   -1    0    0  501    0  0.00000000000E+00  0.00000000000E+00  0.56478117994E+03  0.56478117995E+03  0.25500000920E-02 0. -1.
       -2   -1    0    0    0  501  0.00000000000E+00  0.00000000000E+00 -0.15929286134E+03  0.15929286136E+03  0.25500000920E-02 0.  1.
    10030    2    1    2    0    0  0.00000000000E+00  0.00000000000E+00  0.40548831861E+03  0.72407404131E+03  0.59988535635E+03 0.  0.
        1    1    3    3  502    0  0.13668068274E+02  0.15081312208E+03  0.51525344101E+03  0.53704517722E+03  0.50400001928E-02 0. -1.
       -1    1    3    3    0  502 -0.13668068274E+02 -0.15081312208E+03 -0.10976512240E+03  0.18702886409E+03  0.50400001928E-02 0.  1.
</event>
<event>
 5   0  0.5653633E-03  0.5999380E+03  0.7818609E-02  0.9905535E-01
        1   -1    0    0  501    0  0.00000000000E+00  0.00000000000E+00  0.87804120317E+03  0.87804120319E+03  0.50400001928E-02 0. -1.
       -1   -1    0    0    0  501  0.00000000000E+00  0.00000000000E+00 -0.10247971855E+03  0.10247971868E+03  0.50400001928E-02 0.  1.
    10030    2    1    2    0    0  0.00000000000E+00  0.00000000000E+00  0.77556148462E+03  0.98052092186E+03  0.59993804829E+03 0.  0.
        2    1    3    3  502    0  0.27653415904E+03 -0.10593996011E+03  0.30962093812E+03  0.42843849220E+03  0.25500000920E-02 0.  1.
       -2    1    3    3    0  502 -0.27653415904E+03  0.10593996011E+03  0.46594054650E+03  0.55208242966E+03  0.25500000920E-02 0. -1.
</event>
<event>
 5   0  0.9530666E-03  0.5992776E+03  0.7818609E-02  0.9906906E-01
       -2   -1    0    0    0  501  0.00000000000E+00  0.00000000000E+00  0.80071504941E+02  0.80071504982E+02  0.25500000920E-02 0. -1.
        2   -1    0    0  501    0  0.00000000000E+00  0.00000000000E+00 -0.11212905320E+04  0.11212905320E+04  0.25500000920E-02 0.  1.
    10030    2    1    2    0    0  0.00000000000E+00  0.00000000000E+00 -0.10412190270E+04  0.12013620370E+04  0.59927763314E+03 0.  0.
        2    1    3    3  502    0  0.21587068063E+03 -0.10760967407E+03 -0.87698919020E+03  0.90955485400E+03  0.25500000920E-02 0.  1.
       -2    1    3    3    0  502 -0.21587068063E+03  0.10760967407E+03 -0.16422983683E+03  0.29180718295E+03  0.25500000920E-02 0. -1.
</event>
<event>
 5   0  0.9428629E-03  0.6002901E+03  0.7818609E-02  0.9904804E-01
        2   -1    0    0  501    0  0.00000000000E+00  0.00000000000E+00  0.61899321030E+03  0.61899321031E+03  0.25500000920E-02 0. -1.
       -2   -1    0    0    0  501  0.00000000000E+00  0.00000000000E+00 -0.14553804033E+03  0.14553804036E+03  0.25500000920E-02 0.  1.
    10030    2    1    2    0    0  0.00000000000E+00  0.00000000000E+00  0.47345516997E+03  0.76453125066E+03  0.60029012592E+03 0.  0.
        3    1    3    3  502    0  0.65294562752E+02  0.72911670459E+02  0.59809781028E+03  0.60605320928E+03  0.10100000352E+00 0. -1.
       -3    1    3    3    0  502 -0.65294562752E+02 -0.72911670459E+02 -0.12464264032E+03  0.15847804138E+03  0.10100000352E+00 0.  1.
</event>
<event>
 5   0  0.3794375E-03  0.5994561E+03  0.7818609E-02  0.9906535E-01
        4   -1    0    0  501    0  0.00000000000E+00  0.00000000000E+00  0.14486623233E+04  0.14486628800E+04  0.12699999809E+01 0.  1.
       -4   -1    0    0    0  501  0.00000000000E+00  0.00000000000E+00 -0.62006619105E+02  0.62019623611E+02  0.12699999809E+01 0. -1.
    10030    2    1    2    0    0  0.00000000000E+00  0.00000000000E+00  0.13866557042E+04  0.15106825036E+04  0.59945607404E+03 0.  0.
        4    1    3    3  502    0  0.20107575209E+03  0.82650542848E+02  0.17335400870E+03  0.27805718035E+03  0.12699999809E+01 0. -1.
       -4    1    3    3    0  502 -0.20107575209E+03 -0.82650542848E+02  0.12133016955E+04  0.12326253233E+04  0.12699999809E+01 0.  1.
</event>
<event>
 5   0  0.9866317E-03  0.5983453E+03  0.7818609E-02  0.9908845E-01
       -2   -1    0    0    0  501  0.00000000000E+00  0.00000000000E+00  0.76282733810E+02  0.76282733852E+02  0.25500000920E-02 0.  1.
        2   -1    0    0  501    0  0.00000000000E+00  0.00000000000E+00 -0.11733230330E+04  0.11733230330E+04  0.25500000920E-02 0. -1.
    10030    2    1    2    0    0  0.00000000000E+00  0.00000000000E+00 -0.10970402992E+04  0.12496057669E+04  0.59834534719E+03 0.  0.
        1    1    3    3  502    0  0.27739511611E+02 -0.15717598772E+03 -0.10769831749E+04  0.10887453930E+04  0.50400001928E-02 0. -1.
       -1    1    3    3    0  502 -0.27739511611E+02  0.15717598772E+03 -0.20057124242E+02  0.16086037386E+03  0.50400001928E-02 0.  1.
</event>
<event>
 5   0  0.5785798E-03  0.5992806E+03  0.7818609E-02  0.9906900E-01
       -1   -1    0    0    0  501  0.00000000000E+00  0.00000000000E+00  0.20697451316E+03  0.20697451323E+03  0.50400001928E-02 0.  1.
        1   -1    0    0  501    0  0.00000000000E+00  0.00000000000E+00 -0.43379404717E+03  0.43379404719E+03  0.50400001928E-02 0. -1.
    10030    2    1    2    0    0  0.00000000000E+00  0.00000000000E+00 -0.22681953400E+03  0.64076856042E+03  0.59928060791E+03 0.  0.
        1    1    3    3  502    0  0.12209733033E+03 -0.51407284313E+02 -0.40077970609E+03  0.42210761637E+03  0.50400001928E-02 0. -1.
       -1    1    3    3    0  502 -0.12209733033E+03  0.51407284313E+02  0.17396017209E+03  0.21866094405E+03  0.50400001928E-02 0.  1.
</event>
<event>
 5   0  0.9530666E-03  0.6005105E+03  0.7818609E-02  0.9904348E-01
        2   -1    0    0  501    0  0.00000000000E+00  0.00000000000E+00  0.80903006371E+03  0.80903006371E+03  0.25500000920E-02 0.  1.
       -2   -1    0    0    0  501  0.00000000000E+00  0.00000000000E+00 -0.11143369435E+03  0.11143369438E+03  0.25500000920E-02 0. -1.
    10030    2    1    2    0    0  0.00000000000E+00  0.00000000000E+00  0.69759636935E+03  0.92046375810E+03  0.60051047904E+03 0.  0.
        2    1    3    3  502    0  0.60419653690E+02 -0.15971361873E+03 -0.29758129942E+02  0.17333355377E+03  0.25500000920E-02 0. -1.
       -2    1    3    3    0  502 -0.60419653690E+02  0.15971361873E+03  0.72735449929E+03  0.74713020432E+03  0.25500000920E-02 0.  1.
</event>
<event>
 5   0  0.5491236E-03  0.5982334E+03  0.7818609E-02  0.9909078E-01
       -1   -1    0    0    0  501  0.00000000000E+00  0.00000000000E+00  0.40521777568E+03  0.40521777571E+03  0.50400001928E-02 0. -1.
        1   -1    0    0  501    0  0.00000000000E+00  0.00000000000E+00 -0.22079680136E+03  0.22079680142E+03  0.50400001928E-02 0.  1.
    10030    2    1    2    0    0  0.00000000000E+00  0.00000000000E+00  0.18442097432E+03  0.62601457713E+03  0.59823336167E+03 0.  0.
        3    1    3    3  502    0  0.87880910358E+02  0.24771451644E+03  0.24161776685E+03  0.35702197624E+03  0.10100000352E+00 0. -1.
       -3    1    3    3    0  502 -0.87880910358E+02 -0.24771451644E+03 -0.57196792527E+02  0.26899260089E+03  0.10100000352E+00 0.  1.
</event>
<event>
 5   0  0.9571790E-03  0.6003159E+03  0.7818609E-02  0.9904751E-01
       -2   -1    0    0    0  501  0.00000000000E+00  0.00000000000E+00  0.23379056071E+03  0.23379056073E+03  0.25500000920E-02 0.  1.
        2   -1    0    0  501    0  0.00000000000E+00  0.00000000000E+00 -0.38536544752E+03  0.38536544752E+03  0.25500000920E-02 0. -1.
    10030    2    1    2    0    0  0.00000000000E+00  0.00000000000E+00 -0.15157488680E+03  0.61915600825E+03  0.60031593036E+03 0.  0.
        5    1    3    3  502    0  0.82578370592E+02 -0.20068240601E+03  0.13803531489E+03  0.25723229488E+03  0.46999998093E+01 0.  1.
       -5    1    3    3    0  502 -0.82578370592E+02  0.20068240601E+03 -0.28961020170E+03  0.36192371337E+03  0.46999998093E+01 0. -1.
</event>
<event>
 5   0  0.5653633E-03  0.5973703E+03  0.7818609E-02  0.9910877E-01
       -1   -1    0    0    0  501  0.00000000000E+00  0.00000000000E+00  0.20658772110E+03  0.20658772116E+03  0.50400001928E-02 0. -1.
        1   -1    0    0  501    0  0.00000000000E+00  0.00000000000E+00 -0.43183982714E+03  0.43183982717E+03  0.50400001928E-02 0.  1.
    10030    2    1    2    0    0  0.00000000000E+00  0.00000000000E+00 -0.22525210603E+03  0.63842754833E+03  0.59737025637E+03 0.  0.
        2    1    3    3  502    0 -0.47944660242E+02  0.81148642941E+02  0.19027741066E+03  0.21234237851E+03  0.25500000920E-02 0. -1.
       -2    1    3    3    0  502  0.47944660242E+02 -0.81148642941E+02 -0.41552951669E+03  0.42608516982E+03  0.25500000920E-02 0.  1.
</event>
<event>
 5   0  0.9681801E-03  0.6003439E+03  0.7818609E-02  0.9904693E-01
        2   -1    0    0  501    0  0.00000000000E+00  0.00000000000E+00  0.16654734111E+04  0.16654734111E+04  0.25500000920E-02 0.  1.
       -2   -1    0    0    0  501  0.00000000000E+00  0.00000000000E+00 -0.54100660457E+02  0.54100660517E+02  0.25500000920E-02 0. -1.
    10030    2    1    2    0    0  0.00000000000E+00  0.00000000000E+00  0.16113727507E+04  0.17195740717E+04  0.60034393999E+03 0.  0.
        4    1    3    3  502    0 -0.17293308718E+03  0.90943912142E+02  0.15299360215E+03  0.24816386319E+03  0.12699999809E+01 0. -1.
       -4    1    3    3    0  502  0.17293308718E+03 -0.90943912142E+02  0.14583791485E+04  0.14714102085E+04  0.12699999809E+01 0.  1.
</event>
<event>
 5   0  0.5785798E-03  0.5997342E+03  0.7818609E-02  0.9905958E-01
       -1   -1    0    0    0  501  0.00000000000E+00  0.00000000000E+00  0.14136067601E+03  0.14136067610E+03  0.50400001928E-02 0.  1.
        1   -1    0    0  501    0  0.00000000000E+00  0.00000000000E+00 -0.63610523241E+03  0.63610523243E+03  0.50400001928E-02 0. -1.
    10030    2    1    2    0    0  0.00000000000E+00  0.00000000000E+00 -0.49474455640E+03  0.77746590853E+03  0.59973416014E+03 0.  0.
        1    1    3    3  502    0 -0.42929084841E+02 -0.19493068259E+03  0.42730625677E+02  0.20412443199E+03  0.50400001928E-02 0.  1.
       -1    1    3    3    0  502  0.42929084841E+02  0.19493068259E+03 -0.53747518208E+03  0.57334147654E+03  0.50400001928E-02 0. -1.
</event>
<event>
 5   0  0.9866317E-03  0.5993840E+03  0.7818609E-02  0.9906685E-01
        2   -1    0    0  501    0  0.00000000000E+00  0.00000000000E+00  0.75260072739E+03  0.75260072740E+03  0.25500000920E-02 0.  1.
       -2   -1    0    0    0  501  0.00000000000E+00  0.00000000000E+00 -0.11933989036E+03  0.11933989039E+03  0.25500000920E-02 0. -1.
    10030    2    1    2    0    0  0.00000000000E+00  0.00000000000E+00  0.63326083703E+03  0.87194061778E+03  0.59938397812E+03 0.  0.
        1    1    3    3  502    0  0.29227100733E+02  0.27354035604E+03  0.48959468567E+03  0.56158837778E+03  0.50400001928E-02 0.  1.
       -1    1    3    3    0  502 -0.29227100733E+02 -0.27354035604E+03  0.14366615137E+03  0.31035224000E+03  0.50400001928E-02 0. -1.
</event>
<event>
 5   0  0.5503975E-03  0.5998626E+03  0.7818609E-02  0.9905691E-01
       -1   -1    0    0    0  501  0.00000000000E+00  0.00000000000E+00  0.20936867079E+03  0.20936867085E+03  0.50400001928E-02 0.  1.
        1   -1    0    0  501    0  0.00000000000E+00  0.00000000000E+00 -0.42966695502E+03  0.42966695505E+03  0.50400001928E-02 0. -1.
    10030    2    1    2    0    0  0.00000000000E+00  0.00000000000E+00 -0.22029828423E+03  0.63903562590E+03  0.59986264856E+03 0.  0.
        4    1    3    3  502    0 -0.28391128317E+02  0.27099239671E+03  0.23393540049E+02  0.27348090584E+03  0.12699999809E+01 0.  1.
       -4    1    3    3    0  502  0.28391128317E+02 -0.27099239671E+03 -0.24369182428E+03  0.36555472006E+03  0.12699999809E+01 0. -1.
</event>
<event>
 5   0  0.5574736E-03  0.6001311E+03  0.7818609E-02  0.9905134E-01
        1   -1    0    0  501    0  0.00000000000E+00  0.00000000000E+00  0.26050995842E+03  0.26050995847E+03  0.50400001928E-02 0.  1.
       -1   -1    0    0    0  501  0.00000000000E+00  0.00000000000E+00 -0.34562718097E+03  0.34562718100E+03  0.50400001928E-02 0. -1.
    10030    2    1    2    0    0  0.00000000000E+00  0.00000000000E+00 -0.85117222550E+02  0.60613713947E+03  0.60013106091E+03 0.  0.
        5    1    3    3  502    0 -0.12911231302E+03  0.16550323057E+03 -0.25907737598E+03  0.33347336542E+03  0.46999998093E+01 0. -1.
       -5    1    3    3    0  502  0.12911231302E+03 -0.16550323057E+03  0.17396015343E+03  0.27266377405E+03  0.46999998093E+01 0.  1.
</event>
<event>
 5   0  0.9428629E-03  0.6003803E+03  0.7818609E-02  0.9904617E-01
       -2   -1    0    0    0  501  0.00000000000E+00  0.00000000000E+00  0.95418775738E+02  0.95418775772E+02  0.25500000920E-02 0. -1.
        2   -1    0    0  501    0  0.00000000000E+00  0.00000000000E+00 -0.94440662290E+03  0.94440662290E+03  0.25500000920E-02 0.  1.
    10030    2    1    2    0    0  0.00000000000E+00  0.00000000000E+00 -0.84898784716E+03  0.10398253987E+04  0.60038029207E+03 0.  0.
        3    1    3    3  502    0  0.13914147199E+03 -0.14652019850E+02 -0.88448446043E+03  0.89548188248E+03  0.10100000352E+00 0.  1.
       -3    1    3    3    0  502 -0.13914147199E+03  0.14652019850E+02  0.35496613266E+02  0.14434351619E+03  0.10100000352E+00 0. -1.
</event>
<event>
 5   0  0.5491236E-03  0.6002193E+03  0.7818609E-02  0.9904951E-01
        1   -1    0    0  501    0  0.00000000000E+00  0.00000000000E+00  0.95823891076E+03  0.95823891078E+03  0.50400001928E-02 0.  1.
       -1   -1    0    0    0  501  0.00000000000E+00  0.00000000000E+00 -0.93990973594E+02  0.93990973729E+02  0.50400001928E-02 0. -1.
    10030    2    1    2    0    0  0.00000000000E+00  0.00000000000E+00  0.86424793717E+03  0.10522298845E+04  0.60021932070E+03 0.  0.
        3    1    3    3  502    0  0.13944844107E+03 -0.14314198651E+03  0.82463405523E+03  0.84850269962E+03  0.10100000352E+00 0.  1.
       -3    1    3    3    0  502 -0.13944844107E+03  0.14314198651E+03  0.39613881943E+02  0.20372718489E+03  0.10100000352E+00 0. -1.
</event>
<event>
 5   0  0.9866317E-03  0.6013037E+03  0.7818609E-02  0.9902705E-01
       -2   -1    0    0    0  501  0.00000000000E+00  0.00000000000E+00  0.12995777141E+03  0.12995777144E+03  0.25500000920E-02 0.  1.
        2   -1    0    0  501    0  0.00000000000E+00  0.00000000000E+00 -0.69554536843E+03  0.69554536844E+03  0.25500000920E-02 0. -1.
    10030    2    1    2    0    0  0.00000000000E+00  0.00000000000E+00 -0.56558759702E+03  0.82550313987E+03  0.60130367040E+03 0.  0.
        1    1    3    3  502    0  0.21994126529E+03  0.16708711875E+03 -0.11978049715E+03  0.30106416749E+03  0.50400001928E-02 0.  1.
       -1    1    3    3    0  502 -0.21994126529E+03 -0.16708711875E+03 -0.44580709987E+03  0.52443897238E+03  0.50400001928E-02 0. -1.
</event>
<event>
 5   0  0.5503975E-03  0.6004648E+03  0.7818609E-02  0.9904442E-01
       -1   -1    0    0    0  501  0.00000000000E+00  0.00000000000E+00  0.24264305874E+03  0.24264305879E+03  0.50400001928E-02 0.  1.
        1   -1    0    0  501    0  0.00000000000E+00  0.00000000000E+00 -0.37149005696E+03  0.37149005700E+03  0.50400001928E-02 0. -1.
    10030    2    1    2    0    0  0.00000000000E+00  0.00000000000E+00 -0.12884699823E+03  0.61413311578E+03  0.60046476579E+03 0.  0.
        4    1    3    3  502    0 -0.12022029114E+03 -0.14180304381E+03  0.17669023471E+03  0.25648016215E+03  0.12699999809E+01 0.  1.
       -4    1    3    3    0  502  0.12022029114E+03  0.14180304381E+03 -0.30553723293E+03  0.35765295363E+03  0.12699999809E+01 0. -1.
</event>
<event>
 5   0  0.9428629E-03  0.6003887E+03  0.7818609E-02  0.9904600E-01
        2   -1    0    0  501    0  0.00000000000E+00  0.00000000000E+00  0.12247822307E+04  0.12247822307E+04  0.25500000920E-02 0.  1.
       -2   -1    0    0    0  501  0.00000000000E+00  0.00000000000E+00 -0.73577698924E+02  0.73577698968E+02  0.25500000920E-02 0. -1.
    10030    2    1    2    0    0  0.00000000000E+00  0.00000000000E+00  0.11512045318E+04  0.12983599297E+04  0.60038873491E+03 0.  0.
        3    1    3    3  502    0 -0.26078622504E+03  0.87444627445E+02  0.83565185743E+03  0.87975567919E+03  0.10100000352E+00 0. -1.
       -3    1    3    3    0  502  0.26078622504E+03 -0.87444627445E+02  0.31555267438E+03  0.41860425052E+03  0.10100000352E+00 0.  1.
</event>
<event>
 5   0  0.5503975E-03  0.5990600E+03  0.7818609E-02  0.9907358E-01
        1   -1    0    0  501    0  0.00000000000E+00  0.00000000000E+00  0.10021689765E+04  0.10021689765E+04  0.50400001928E-02 0. -1.
       -1   -1    0    0    0  501  0.00000000000E+00  0.00000000000E+00 -0.89524056069E+02  0.89524056211E+02  0.50400001928E-02 0.  1.
    10030    2    1    2    0    0  0.00000000000E+00  0.00000000000E+00  0.91264492044E+03  0.10916930327E+04  0.59906003615E+03 0.  0.
        4    1    3    3  502    0 -0.88758239278E+02  0.14073843865E+03  0.91019674913E+03  0.92528107523E+03  0.12699999809E+01 0. -1.
       -4    1    3    3    0  502  0.88758239278E+02 -0.14073843865E+03  0.24481713024E+01  0.16641195749E+03  0.12699999809E+01 0.  1.
</event>
<event>
 5   0  0.5574736E-03  0.5986321E+03  0.7818609E-02  0.9908248E-01
        1   -1    0    0  501    0  0.00000000000E+00  0.00000000000E+00  0.47725873907E+03  0.47725873910E+03  0.50400001928E-02 0.  1.
       -1   -1    0    0    0  501  0.00000000000E+00  0.00000000000E+00 -0.18771811147E+03  0.18771811153E+03  0.50400001928E-02 0. -1.
    10030    2    1    2    0    0  0.00000000000E+00  0.00000000000E+00  0.28954062760E+03  0.66497685063E+03  0.59863213816E+03 0.  0.
        5    1    3    3  502    0  0.14723758160E+03 -0.14265115513E+03  0.38697079319E+03  0.43794604950E+03  0.46999998093E+01 0.  1.
       -5    1    3    3    0  502 -0.14723758160E+03  0.14265115513E+03 -0.97430165587E+02  0.22703080113E+03  0.46999998093E+01 0. -1.
</event>
<event>
 5   0  0.5503975E-03  0.5989852E+03  0.7818609E-02  0.9907514E-01
       -1   -1    0    0    0  501  0.00000000000E+00  0.00000000000E+00  0.77783120732E+02  0.77783120895E+02  0.50400001928E-02 0. -1.
        1   -1    0    0  501    0  0.00000000000E+00  0.00000000000E+00 -0.11531526954E+04  0.11531526954E+04  0.50400001928E-02 0.  1.
    10030    2    1    2    0    0  0.00000000000E+00  0.00000000000E+00 -0.10753695747E+04  0.12309358163E+04  0.59898519327E+03 0.  0.
        4    1    3    3  502    0 -0.19002354542E+03 -0.15776685598E+03 -0.88579878107E+03  0.91958709327E+03  0.12699999809E+01 0.  1.
       -4    1    3    3    0  502  0.19002354542E+03  0.15776685598E+03 -0.18957079363E+03  0.31134872307E+03  0.12699999809E+01 0. -1.
</event>
<event>
 5   0  0.5491236E-03  0.5999550E+03  0.7818609E-02  0.9905500E-01
        1   -1    0    0  501    0  0.00000000000E+00  0.00000000000E+00  0.90041487362E+02  0.90041487503E+02  0.50400001928E-02 0. -1.
       -1   -1    0    0    0  501  0.00000000000E+00  0.00000000000E+00 -0.99938916315E+03  0.99938916316E+03  0.50400001928E-02 0.  1.
    10030    2    1    2    0    0  0.00000000000E+00  0.00000000000E+00 -0.90934767578E+03  0.10894306507E+04  0.59995495427E+03 0.  0.
        3    1    3    3  502    0 -0.19109164963E+03  0.17765189967E+03 -0.72345864512E+03  0.76906998214E+03  0.10100000352E+00 0.  1.
       -3    1    3    3    0  502  0.19109164963E+03 -0.17765189967E+03 -0.18588903066E+03  0.32036066852E+03  0.10100000352E+00 0. -1.
</event>
<event>
 5   0  0.9530666E-03  0.6004479E+03  0.7818609E-02  0.9904477E-01
       -2   -1    0    0    0  501  0.00000000000E+00  0.00000000000E+00  0.61493758342E+02  0.61493758395E+02  0.25500000920E-02 0.  1.
        2   -1    0    0  501    0  0.00000000000E+00  0.00000000000E+00 -0.14657491064E+04  0.14657491064E+04  0.25500000920E-02 0. -1.
    10030    2    1    2    0    0  0.00000000000E+00  0.00000000000E+00 -0.14042553481E+04  0.15272428648E+04  0.60044790410E+03 0.  0.
        2    1    3    3  502    0 -0.26155597883E+03  0.25916465919E+02 -0.10711660159E+04  0.11029414431E+04  0.25500000920E-02 0. -1.
       -2    1    3    3    0  502  0.26155597883E+03 -0.25916465919E+02 -0.33308933220E+03  0.42430142175E+03  0.25500000920E-02 0.  1.
</event>
<event>
 5   0  0.9681801E-03  0.5998360E+03  0.7818609E-02  0.9905746E-01
       -2   -1    0    0    0  501  0.00000000000E+00  0.00000000000E+00  0.12588882854E+03  0.12588882856E+03  0.25500000920E-02 0.  1.
        2   -1    0    0  501    0  0.00000000000E+00  0.00000000000E+00 -0.71452577591E+03  0.71452577592E+03  0.25500000920E-02 0. -1.
    10030    2    1    2    0    0  0.00000000000E+00  0.00000000000E+00 -0.58863694737E+03  0.84041460448E+03  0.59983602060E+03 0.  0.
        4    1    3    3  502    0  0.20710406194E+03  0.37540200925E+02  0.50259476869E+01  0.21054270875E+03  0.12699999809E+01 0.  1.
       -4    1    3    3    0  502 -0.20710406194E+03 -0.37540200925E+02 -0.59366289506E+03  0.62987189573E+03  0.12699999809E+01 0. -1.
</event>
<event>
 5   0  0.9571790E-03  0.5994303E+03  0.7818609E-02  0.9906589E-01
       -2   -1    0    0    0  501  0.00000000000E+00  0.00000000000E+00  0.47674708719E+02  0.47674708787E+02  0.25500000920E-02 0.  1.
        2   -1    0    0  501    0  0.00000000000E+00  0.00000000000E+00 -0.18842103158E+04  0.18842103158E+04  0.25500000920E-02 0. -1.
    10030    2    1    2    0    0  0.00000000000E+00  0.00000000000E+00 -0.18365356071E+04  0.19318850246E+04  0.59943032302E+03 0.  0.
        5    1    3    3  502    0 -0.13347186527E+03 -0.83989644424E+02 -0.96985776267E+02  0.18519538327E+03  0.46999998093E+01 0.  1.
       -5    1    3    3    0  502  0.13347186527E+03  0.83989644424E+02 -0.17395498308E+04  0.17466896413E+04  0.46999998093E+01 0. -1.
</event>
<event>
 5   0  0.3794375E-03  0.5994961E+03  0.7818609E-02  0.9906452E-01
       -4   -1    0    0    0  501  0.00000000000E+00  0.00000000000E+00  0.27708269236E+03  0.27708560285E+03  0.12699999809E+01 0.  1.
        4   -1    0    0  501    0  0.00000000000E+00  0.00000000000E+00 -0.32426157212E+03  0.32426405914E+03  0.12699999809E+01 0. -1.
    10030    2    1    2    0    0  0.00000000000E+00  0.00000000000E+00 -0.47178879753E+02  0.60134966199E+03  0.59949609614E+03 0.  0.
        2    1    3    3  502    0  0.18154646201E+03  0.23849959666E+03 -0.20802930605E+02  0.30045621545E+03  0.25500000920E-02 0.  1.
       -2    1    3    3    0  502 -0.18154646201E+03 -0.23849959666E+03 -0.26375949148E+02  0.30089344654E+03  0.25500000920E-02 0. -1.
</event>
<event>
 5   0  0.5653633E-03  0.5987224E+03  0.7818609E-02  0.9908060E-01
       -1   -1    0    0    0  501  0.00000000000E+00  0.00000000000E+00  0.15527968693E+03  0.15527968701E+03  0.50400001928E-02 0.  1.
        1   -1    0    0  501    0  0.00000000000E+00  0.00000000000E+00 -0.57713354458E+03  0.57713354460E+03  0.50400001928E-02 0. -1.
    10030    2    1    2    0    0  0.00000000000E+00  0.00000000000E+00 -0.42185385765E+03  0.73241323161E+03  0.59872236022E+03 0.  0.
        2    1    3    3  502    0  0.18372205519E+03 -0.34354649610E+02  0.75133108033E+02  0.20144234769E+03  0.25500000920E-02 0.  1.
       -2    1    3    3    0  502 -0.18372205519E+03  0.34354649610E+02 -0.49698696568E+03  0.53097088393E+03  0.25500000920E-02 0. -1.
</event>
<event>
 5   0  0.5503975E-03  0.6000903E+03  0.7818609E-02  0.9905219E-01
       -1   -1    0    0    0  501  0.00000000000E+00  0.00000000000E+00  0.24268847072E+03  0.24268847077E+03  0.50400001928E-02 0. -1.
        1   -1    0    0  501    0  0.00000000000E+00  0.00000000000E+00 -0.37095746703E+03  0.37095746706E+03  0.50400001928E-02 0.  1.
    10030    2    1    2    0    0  0.00000000000E+00  0.00000000000E+00 -0.12826899631E+03  0.61364593783E+03  0.60009032787E+03 0.  0.
        4    1    3    3  502    0 -0.11109968351E+03  0.31110673081E+02 -0.34736491535E+03  0.36602597035E+03  0.12699999809E+01 0.  1.
       -4    1    3    3    0  502  0.11109968351E+03 -0.31110673081E+02  0.21909591904E+03  0.24761996748E+03  0.12699999809E+01 0. -1.
</event>
<event>
 5   0  0.9428629E-03  0.6006279E+03  0.7818609E-02  0.9904104E-01
        2   -1    0    0  501    0  0.00000000000E+00  0.00000000000E+00  0.79137127080E+02  0.79137127121E+02  0.25500000920E-02 0.  1.
       -2   -1    0    0    0  501  0.00000000000E+00  0.00000000000E+00 -0.11396478288E+04  0.11396478288E+04  0.25500000920E-02 0. -1.
    10030    2    1    2    0    0  0.00000000000E+00  0.00000000000E+00 -0.10605107017E+04  0.12187849560E+04  0.60062785511E+03 0.  0.
        3    1    3    3  502    0 -0.28069005194E+03 -0.10463846358E+03 -0.57341223302E+03  0.64694490685E+03  0.10100000352E+00 0.  1.
       -3    1    3    3    0  502  0.28069005194E+03  0.10463846358E+03 -0.48709846873E+03  0.57184004910E+03  0.10100000352E+00 0. -1.
</event>
<event>
 5   0  0.9866317E-03  0.5996351E+03  0.7818609E-02  0.9906163E-01
        2   -1    0    0  501    0  0.00000000000E+00  0.00000000000E+00  0.37334432316E+03  0.37334432317E+03  0.25500000920E-02 0. -1.
       -2   -1    0    0    0  501  0.00000000000E+00  0.00000000000E+00 -0.24077121493E+03  0.24077121494E+03  0.25500000920E-02 0.  1.
    10030    2    1    2    0    0  0.00000000000E+00  0.00000000000E+00  0.13257310824E+03  0.61411553812E+03  0.59963510999E+03 0.  0.
        1    1    3    3  502    0 -0.13333119334E+03  0.29656600643E+02 -0.20705535670E+03  0.24804967615E+03  0.50400001928E-02 0.  1.
       -1    1    3    3    0  502  0.13333119334E+03 -0.29656600643E+02  0.33962846493E+03  0.36606586196E+03  0.50400001928E-02 0. -1.
</event>
<event>
 5   0  0.5574736E-03  0.5993522E+03  0.7818609E-02  0.9906751E-01
        1   -1    0    0  501    0  0.00000000000E+00  0.00000000000E+00  0.45569613812E+03  0.45569613815E+03  0.50400001928E-02 0. -1.
       -1   -1    0    0    0  501  0.00000000000E+00  0.00000000000E+00 -0.19707378124E+03  0.19707378131E+03  0.50400001928E-02 0.  1.
    10030    2    1    2    0    0  0.00000000000E+00  0.00000000000E+00  0.25862235688E+03  0.65276991945E+03  0.59935218717E+03 0.  0.
        5    1    3    3  502    0 -0.28434219216E+03  0.93764444848E+02  0.14226297278E+03  0.33151635975E+03  0.46999998093E+01 0. -1.
       -5    1    3    3    0  502  0.28434219216E+03 -0.93764444848E+02  0.11635938410E+03  0.32125355971E+03  0.46999998093E+01 0.  1.
</event>
<event>
 5   0  0.9571790E-03  0.6000767E+03  0.7818609E-02  0.9905247E-01
        2   -1    0    0  501    0  0.00000000000E+00  0.00000000000E+00  0.81905976624E+03  0.81905976624E+03  0.25500000920E-02 0. -1.
       -2   -1    0    0    0  501  0.00000000000E+00  0.00000000000E+00 -0.10991017024E+03  0.10991017027E+03  0.25500000920E-02 0.  1.
    10030    2    1    2    0    0  0.00000000000E+00  0.00000000000E+00  0.70914959600E+03  0.92896993651E+03  0.60007665630E+03 0.  0.
        5    1    3    3  502    0  0.24735387645E+03 -0.16545610075E+03  0.41334593856E+03  0.50934920869E+03  0.46999998093E+01 0. -1.
       -5    1    3    3    0  502 -0.24735387645E+03  0.16545610075E+03  0.29580365744E+03  0.41962072783E+03  0.46999998093E+01 0.  1.
</event>
<event>
 5   0  0.5491236E-03  0.6022314E+03  0.7818609E-02  0.9900787E-01
        1   -1    0    0  501    0  0.00000000000E+00  0.00000000000E+00  0.39165078817E+03  0.39165078820E+03  0.50400001928E-02 0. -1.
       -1   -1    0    0    0  501  0.00000000000E+00  0.00000000000E+00 -0.23150896891E+03  0.23150896896E+03  0.50400001928E-02 0.  1.
    10030    2    1    2    0    0  0.00000000000E+00  0.00000000000E+00  0.16014181926E+03  0.62315975717E+03  0.60223141788E+03 0.  0.
        3    1    3    3  502    0 -0.19310178268E+03  0.38640178625E+02  0.31577921683E+03  0.37215304092E+03  0.10100000352E+00 0. -1.
       -3    1    3    3    0  502  0.19310178268E+03 -0.38640178625E+02 -0.15563739757E+03  0.25100671625E+03  0.10100000352E+00 0.  1.
</event>
<event>
 5   0  0.3794375E-03  0.5995545E+03  0.7818609E-02  0.9906331E-01
        3   -1    0    0  501    0  0.00000000000E+00  0.00000000000E+00  0.59746935281E+02  0.59747020649E+02  0.10100000352E+00 0.  1.
       -3   -1    0    0    0  501  0.00000000000E+00  0.00000000000E+00 -0.15041162521E+04  0.15041162554E+04  0.10100000352E+00 0. -1.
    10030    2    1    2    0    0  0.00000000000E+00  0.00000000000E+00 -0.14443693168E+04  0.15638632761E+04  0.59955452053E+03 0.  0.
        2    1    3    3  502    0 -0.13835555977E+03 -0.20013544094E+02 -0.14138892458E+04  0.14207834466E+04  0.25500000920E-02 0. -1.
       -2    1    3    3    0  502  0.13835555977E+03  0.20013544094E+02 -0.30480070997E+02  0.14307982947E+03  0.25500000920E-02 0.  1.
</event>
<event>
 5   0  0.9530666E-03  0.6002953E+03  0.7818609E-02  0.9904794E-01
        2   -1    0    0  501    0  0.00000000000E+00  0.00000000000E+00  0.40731324529E+03  0.40731324530E+03  0.25500000920E-02 0.  1.
       -2   -1    0    0    0  501  0.00000000000E+00  0.00000000000E+00 -0.22117773423E+03  0.22117773425E+03  0.25500000920E-02 0. -1.
    10030    2    1    2    0    0  0.00000000000E+00  0.00000000000E+00  0.18613551106E+03  0.62849097955E+03  0.60029532973E+03 0.  0.
        2    1    3    3  502    0  0.12141665130E+03  0.10569411931E+03 -0.17215957674E+03  0.23569507832E+03  0.25500000920E-02 0. -1.
       -2    1    3    3    0  502 -0.12141665130E+03 -0.10569411931E+03  0.35829508780E+03  0.39279590123E+03  0.25500000920E-02 0.  1.
</event>
<event>
 5   0  0.5785798E-03  0.6001398E+03  0.7818609E-02  0.9905116E-01
        1   -1    0    0  501    0  0.00000000000E+00  0.00000000000E+00  0.88579790526E+03  0.88579790527E+03  0.50400001928E-02 0. -1.
       -1   -1    0    0    0  501  0.00000000000E+00  0.00000000000E+00 -0.10165065150E+03  0.10165065163E+03  0.50400001928E-02 0.  1.
    10030    2    1    2    0    0  0.00000000000E+00  0.00000000000E+00  0.78414725375E+03  0.98744855690E+03  0.60013976451E+03 0.  0.
        1    1    3    3  502    0 -0.72336216879E+02 -0.26131393076E+03  0.18056631170E+03  0.32576324474E+03  0.50400001928E-02 0.  1.
       -1    1    3    3    0  502  0.72336216879E+02  0.26131393076E+03  0.60358094206E+03  0.66168531215E+03  0.50400001928E-02 0. -1.
</event>
<event>
 5   0  0.9428629E-03  0.6022999E+03  0.7818609E-02  0.9900646E-01
        2   -1    0    0  501    0  0.00000000000E+00  0.00000000000E+00  0.71314597904E+03  0.71314597904E+03  0.25500000920E-02 0.  1.
       -2   -1    0    0    0  501  0.00000000000E+00  0.00000000000E+00 -0.12717073493E+03  0.12717073496E+03  0.25500000920E-02 0. -1.
    10030    2    1    2    0    0  0.00000000000E+00  0.00000000000E+00  0.58597524411E+03  0.84031671400E+03  0.60229991958E+03 0.  0.
        3    1    3    3  502    0 -0.75520957409E+02  0.23091096083E+03  0.44708315773E+02  0.24702657861E+03  0.10100000352E+00 0. -1.
       -3    1    3    3    0  502  0.75520957409E+02 -0.23091096083E+03  0.54126692833E+03  0.59329013539E+03  0.10100000352E+00 0.  1.
</event>
<event>
 5   0  0.9530666E-03  0.5996071E+03  0.7818609E-02  0.9906222E-01
       -2   -1    0    0    0  501  0.00000000000E+00  0.00000000000E+00  0.89862119582E+02  0.89862119618E+02  0.25500000920E-02 0.  1.
        2   -1    0    0  501    0  0.00000000000E+00  0.00000000000E+00 -0.10002229694E+04  0.10002229694E+04  0.25500000920E-02 0. -1.
    10030    2    1    2    0    0  0.00000000000E+00  0.00000000000E+00 -0.91036084983E+03  0.10900850890E+04  0.59960705836E+03 0.  0.
        2    1    3    3  502    0  0.14720812752E+03 -0.23177526890E+03 -0.23632362585E+03  0.36226904950E+03  0.25500000920E-02 0.  1.
       -2    1    3    3    0  502 -0.14720812752E+03  0.23177526890E+03 -0.67403722398E+03  0.72781603954E+03  0.25500000920E-02 0. -1.
</event>
<event>
 5   0  0.5785798E-03  0.6009335E+03  0.7818609E-02  0.9903471E-01
       -1   -1    0    0    0  501  0.00000000000E+00  0.00000000000E+00  0.57712657129E+03  0.57712657131E+03  0.50400001928E-02 0.  1.
        1   -1    0    0  501    0  0.00000000000E+00  0.00000000000E+00 -0.15643061794E+03  0.15643061802E+03  0.50400001928E-02 0. -1.
    10030    2    1    2    0    0  0.00000000000E+00  0.00000000000E+00  0.42069595334E+03  0.73355718933E+03  0.60093349454E+03 0.  0.
        1    1    3    3  502    0  0.49965159609E+02  0.26883228391E+02 -0.14983194113E+03  0.16021496732E+03  0.50400001928E-02 0. -1.
       -1    1    3    3    0  502 -0.49965159609E+02 -0.26883228391E+02  0.57052789448E+03  0.57334222201E+03  0.50400001928E-02 0.  1.
</event>
<event>
 5   0  0.9571790E-03  0.6020163E+03  0.7818609E-02  0.9901232E-01
       -2   -1    0    0    0  501  0.00000000000E+00  0.00000000000E+00  0.65535771051E+02  0.65535771101E+02  0.25500000920E-02 0. -1.
        2   -1    0    0  501    0  0.00000000000E+00  0.00000000000E+00 -0.13825413937E+04  0.13825413937E+04  0.25500000920E-02 0.  1.
    10030    2    1    2    0    0  0.00000000000E+00  0.00000000000E+00 -0.13170056227E+04  0.14480771648E+04  0.60201633295E+03 0.  0.
        5    1    3    3  502    0  0.57345847332E+02 -0.27322521760E+03 -0.92896899616E+03  0.97002373763E+03  0.46999998093E+01 0.  1.
       -5    1    3    3    0  502 -0.57345847332E+02  0.27322521760E+03 -0.38803662649E+03  0.47805342718E+03  0.46999998093E+01 0. -1.
</event>
<event>
 5   0  0.9530666E-03  0.6008480E+03  0.7818609E-02  0.9903648E-01
        2   -1    0    0  501    0  0.00000000000E+00  0.00000000000E+00  0.22549389247E+04  0.22549389247E+04  0.25500000920E-02 0. -1.
       -2   -1    0    0    0  501  0.00000000000E+00  0.00000000000E+00 -0.40025289572E+02  0.40025289653E+02  0.25500000920E-02 0.  1.
    10030    2    1    2    0    0  0.00000000000E+00  0.00000000000E+00  0.22149136351E+04  0.22949642143E+04  0.60084801247E+03 0.  0.
        2    1    3    3  502    0 -0.16263999616E+03 -0.24925790921E+03  0.12636994236E+04  0.12982748195E+04  0.25500000920E-02 0.  1.
       -2    1    3    3    0  502  0.16263999616E+03  0.24925790921E+03  0.95121421150E+03  0.99668939486E+03  0.25500000920E-02 0. -1.
</event>
<event>
 5   0  0.3794375E-03  0.5983685E+03  0.7818609E-02  0.9908797E-01
        4   -1    0    0  501    0  0.00000000000E+00  0.00000000000E+00  0.12824337549E+04  0.12824343837E+04  0.12699999809E+01 0. -1.
       -4   -1    0    0    0  501  0.00000000000E+00  0.00000000000E+00 -0.69791495905E+02  0.69803050081E+02  0.12699999809E+01 0.  1.
    10030    2    1    2    0    0  0.00000000000E+00  0.00000000000E+00  0.12126422590E+04  0.13522374338E+04  0.59836847271E+03 0.  0.
        2    1    3    3  502    0  0.19610993763E+01 -0.15026949077E+03  0.21688408739E+02  0.15183923355E+03  0.25500000920E-02 0.  1.
       -2    1    3    3    0  502 -0.19610993763E+01  0.15026949077E+03  0.11909538502E+04  0.12003982002E+04  0.25500000920E-02 0. -1.
</event>
<event>
 5   0  0.5503975E-03  0.5996928E+03  0.7818609E-02  0.9906044E-01
       -1   -1    0    0    0  501  0.00000000000E+00  0.00000000000E+00  0.55068974060E+02  0.55068974290E+02  0.50400001928E-02 0. -1.
        1   -1    0    0  501    0  0.00000000000E+00  0.00000000000E+00 -0.16326412083E+04  0.16326412083E+04  0.50400001928E-02 0.  1.
    10030    2    1    2    0    0  0.00000000000E+00  0.00000000000E+00 -0.15775722343E+04  0.16877101826E+04  0.59969284322E+03 0.  0.
        4    1    3    3  502    0 -0.72396083061E+02 -0.28647457099E+03 -0.93221534793E+03  0.97792430202E+03  0.12699999809E+01 0. -1.
       -4    1    3    3    0  502  0.72396083061E+02  0.28647457099E+03 -0.64535688633E+03  0.70978588060E+03  0.12699999809E+01 0.  1.
</event>
<event>
 5   0  0.9681801E-03  0.5918710E+03  0.7818609E-02  0.9922416E-01
        2   -1    0    0  501    0  0.00000000000E+00  0.00000000000E+00  0.97484126954E+02  0.97484126987E+02  0.25500000920E-02 0.  1.
       -2   -1    0    0    0  501  0.00000000000E+00  0.00000000000E+00 -0.89838017843E+03  0.89838017843E+03  0.25500000920E-02 0. -1.
    10030    2    1    2    0    0  0.00000000000E+00  0.00000000000E+00 -0.80089605147E+03  0.99586430542E+03  0.59187095683E+03 0.  0.
        4    1    3    3  502    0 -0.10223665373E+03  0.22400223523E+03 -0.12424577228E+03  0.27580420516E+03  0.12699999809E+01 0.  1.
       -4    1    3    3    0  502  0.10223665373E+03 -0.22400223523E+03 -0.67665027919E+03  0.72006010026E+03  0.12699999809E+01 0. -1.
</event>
<event>
 5   0  0.9428629E-03  0.5994391E+03  0.7818609E-02  0.9906570E-01
       -2   -1    0    0    0  501  0.00000000000E+00  0.00000000000E+00  0.11923715123E+03  0.11923715126E+03  0.25500000920E-02 0.  1.
        2   -1    0    0  501    0  0.00000000000E+00  0.00000000000E+00 -0.75338786362E+03  0.75338786363E+03  0.25500000920E-02 0. -1.
    10030    2    1    2    0    0  0.00000000000E+00  0.00000000000E+00 -0.63415071239E+03  0.87262501489E+03  0.59943914669E+03 0.  0.
        3    1    3    3  502    0  0.16799254092E+03 -0.36313746978E+02 -0.67452187452E+03  0.69607467375E+03  0.10100000352E+00 0. -1.
       -3    1    3    3    0  502 -0.16799254092E+03  0.36313746978E+02  0.40371162136E+02  0.17655034114E+03  0.10100000352E+00 0.  1.
</event>
<event>
 5   0  0.3794375E-03  0.6028717E+03  0.7818609E-02  0.9899466E-01
        4   -1    0    0  501    0  0.00000000000E+00  0.00000000000E+00  0.18594059397E+03  0.18594493106E+03  0.12699999809E+01 0. -1.
       -4   -1    0    0    0  501  0.00000000000E+00  0.00000000000E+00 -0.48865896480E+03  0.48866061513E+03  0.12699999809E+01 0.  1.
    10030    2    1    2    0    0  0.00000000000E+00  0.00000000000E+00 -0.30271837083E+03  0.67460554619E+03  0.60287165377E+03 0.  0.
        2    1    3    3  502    0  0.35002025776E+02  0.17780540745E+03 -0.42090188679E+03  0.45825571795E+03  0.25500000920E-02 0.  1.
       -2    1    3    3    0  502 -0.35002025776E+02 -0.17780540745E+03  0.11818351596E+03  0.21634982824E+03  0.25500000920E-02 0. -1.
</event>
<event>
 5   0  0.9428629E-03  0.5994204E+03  0.7818609E-02  0.9906609E-01
       -2   -1    0    0    0  501  0.00000000000E+00  0.00000000000E+00  0.14109812867E+03  0.14109812869E+03  0.25500000920E-02 0. -1.
        2   -1    0    0  501    0  0.00000000000E+00  0.00000000000E+00 -0.63662225302E+03  0.63662225303E+03  0.25500000920E-02 0.  1.
    10030    2    1    2    0    0  0.00000000000E+00  0.00000000000E+00 -0.49552412436E+03  0.77772038172E+03  0.59942041534E+03 0.  0.
        3    1    3    3  502    0  0.68868343071E+02  0.29149579251E+03 -0.26158787255E+03  0.39766929853E+03  0.10100000352E+00 0. -1.
       -3    1    3    3    0  502 -0.68868343071E+02 -0.29149579251E+03 -0.23393625181E+03  0.38005108319E+03  0.10100000352E+00 0.  1.
</event>
<event>
 5   0  0.5491236E-03  0.6000958E+03  0.7818609E-02  0.9905207E-01
        1   -1    0    0  501    0  0.00000000000E+00  0.00000000000E+00  0.21951012551E+03  0.21951012557E+03  0.50400001928E-02 0.  1.
       -1   -1    0    0    0  501  0.00000000000E+00  0.00000000000E+00 -0.41013485485E+03  0.41013485488E+03  0.50400001928E-02 0. -1.
    10030    2    1    2    0    0  0.00000000000E+00  0.00000000000E+00 -0.19062472934E+03  0.62964498045E+03  0.60009583732E+03 0.  0.
        3    1    3    3  502    0  0.32912955818E+02  0.29357443026E+03 -0.40194415828E+02  0.29813555647E+03  0.10100000352E+00 0.  1.
       -3    1    3    3    0  502 -0.32912955818E+02 -0.29357443026E+03 -0.15043031351E+03  0.33150942398E+03  0.10100000352E+00 0. -1.
</event>
<event>
 5   0  0.5491236E-03  0.6001780E+03  0.7818609E-02  0.9905037E-01
        1   -1    0    0  501    0  0.00000000000E+00  0.00000000000E+00  0.10439635335E+03  0.10439635347E+03  0.50400001928E-02 0.  1.
       -1   -1    0    0    0  501  0.00000000000E+00  0.00000000000E+00 -0.86261066339E+03  0.86261066340E+03  0.50400001928E-02 0. -1.
    10030    2    1    2    0    0  0.00000000000E+00  0.00000000000E+00 -0.75821431004E+03  0.96700701687E+03  0.60017799920E+03 0.  0.
        3    1    3    3  502    0  0.15865426596E+03 -0.16305113062E+03 -0.63803227191E+02  0.23627888036E+03  0.10100000352E+00 0.  1.
       -3    1    3    3    0  502 -0.15865426596E+03  0.16305113062E+03 -0.69441108285E+03  0.73072813651E+03  0.10100000352E+00 0. -1.
</event>
<event>
 5   0  0.9681801E-03  0.5999944E+03  0.7818609E-02  0.9905418E-01
        2   -1    0    0  501    0  0.00000000000E+00  0.00000000000E+00  0.13364552146E+04  0.13364552146E+04  0.25500000920E-02 0.  1.
       -2   -1    0    0    0  501  0.00000000000E+00  0.00000000000E+00 -0.67341055888E+02  0.67341055936E+02  0.25500000920E-02 0. -1.
    10030    2    1    2    0    0  0.00000000000E+00  0.00000000000E+00  0.12691141587E+04  0.14037962705E+04  0.59999435108E+03 0.  0.
        4    1    3    3  502    0  0.19792374787E+02  0.85012829671E+02  0.13060817099E+04  0.13089957850E+04  0.12699999809E+01 0.  1.
       -4    1    3    3    0  502 -0.19792374787E+02 -0.85012829671E+02 -0.36967551224E+02  0.94800485504E+02  0.12699999809E+01 0. -1.
</event>
<event>
 5   0  0.5574736E-03  0.6000684E+03  0.7818609E-02  0.9905264E-01
        1   -1    0    0  501    0  0.00000000000E+00  0.00000000000E+00  0.12468883469E+04  0.12468883469E+04  0.50400001928E-02 0.  1.
       -1   -1    0    0    0  501  0.00000000000E+00  0.00000000000E+00 -0.72196141629E+02  0.72196141805E+02  0.50400001928E-02 0. -1.
    10030    2    1    2    0    0  0.00000000000E+00  0.00000000000E+00  0.11746922053E+04  0.13190844887E+04  0.60006842214E+03 0.  0.
        5    1    3    3  502    0 -0.12866979438E+03 -0.17460291344E+03  0.10429479731E+04  0.10652721051E+04  0.46999998093E+01 0.  1.
       -5    1    3    3    0  502  0.12866979438E+03  0.17460291344E+03  0.13174423221E+03  0.25381238363E+03  0.46999998093E+01 0. -1.
</event>
<event>
 5   0  0.5574736E-03  0.6001582E+03  0.7818609E-02  0.9905078E-01
        1   -1    0    0  501    0  0.00000000000E+00  0.00000000000E+00  0.21984593521E+04  0.21984593521E+04  0.50400001928E-02 0. -1.
       -1   -1    0    0    0  501  0.00000000000E+00  0.00000000000E+00 -0.40959346317E+02  0.40959346627E+02  0.50400001928E-02 0.  1.
    10030    2    1    2    0    0  0.00000000000E+00  0.00000000000E+00  0.21575000058E+04  0.22394186987E+04  0.60015817355E+03 0.  0.
        5    1    3    3  502    0  0.38981556005E+02  0.52787124258E+01 -0.31158250215E+02  0.50401915321E+02  0.46999998093E+01 0.  1.
       -5    1    3    3    0  502 -0.38981556005E+02 -0.52787124258E+01  0.21886582560E+04  0.21890167834E+04  0.46999998093E+01 0. -1.
</event>
<event>
 5   0  0.5491236E-03  0.6071864E+03  0.7818609E-02  0.9890608E-01
       -1   -1    0    0    0  501  0.00000000000E+00  0.00000000000E+00  0.14762497247E+03  0.14762497255E+03  0.50400001928E-02 0.  1.
        1   -1    0    0  501    0  0.00000000000E+00  0.00000000000E+00 -0.62434454345E+03  0.62434454347E+03  0.50400001928E-02 0. -1.
    10030    2    1    2    0    0  0.00000000000E+00  0.00000000000E+00 -0.47671957098E+03  0.77196951602E+03  0.60718644938E+03 0.  0.
        3    1    3    3  502    0  0.14110734839E+03 -0.14646927645E+03  0.48208634797E+02  0.20901821783E+03  0.10100000352E+00 0.  1.
       -3    1    3    3    0  502 -0.14110734839E+03  0.14646927645E+03 -0.52492820578E+03  0.56295129819E+03  0.10100000352E+00 0. -1.
</event>
<event>
 5   0  0.5574736E-03  0.5956116E+03  0.7818609E-02  0.9914553E-01
        1   -1    0    0  501    0  0.00000000000E+00  0.00000000000E+00  0.41804318032E+03  0.41804318035E+03  0.50400001928E-02 0. -1.
       -1   -1    0    0    0  501  0.00000000000E+00  0.00000000000E+00 -0.21215102980E+03  0.21215102986E+03  0.50400001928E-02 0.  1.
    10030    2    1    2    0    0  0.00000000000E+00  0.00000000000E+00  0.20589215052E+03  0.63019421021E+03  0.59561158899E+03 0.  0.
        5    1    3    3  502    0  0.26095371859E+03 -0.68961277200E+02 -0.30107950873E+02  0.27162672862E+03  0.46999998093E+01 0.  1.
       -5    1    3    3    0  502 -0.26095371859E+03  0.68961277200E+02  0.23600010139E+03  0.35856748159E+03  0.46999998093E+01 0. -1.
</event>
<event>
 5   0  0.5785798E-03  0.6003919E+03  0.7818609E-02  0.9904593E-01
        1   -1    0    0  501    0  0.00000000000E+00  0.00000000000E+00  0.30129660371E+03  0.30129660375E+03  0.50400001928E-02 0.  1.
       -1   -1    0    0    0  501  0.00000000000E+00  0.00000000000E+00 -0.29909934154E+03  0.29909934159E+03  0.50400001928E-02 0. -1.
    10030    2    1    2    0    0  0.00000000000E+00  0.00000000000E+00  0.21972621628E+01  0.60039594534E+03  0.60039192468E+03 0.  0.
        1    1    3    3  502    0  0.16446116032E+03 -0.73276146400E+02 -0.23911277937E+03  0.29931887372E+03  0.50400001928E-02 0. -1.
       -1    1    3    3    0  502 -0.16446116032E+03  0.73276146400E+02  0.24131004153E+03  0.30107707162E+03  0.50400001928E-02 0.  1.
</event>
<event>
 5   0  0.9866317E-03  0.6002127E+03  0.7818609E-02  0.9904965E-01
       -2   -1    0    0    0  501  0.00000000000E+00  0.00000000000E+00  0.21937605320E+03  0.21937605322E+03  0.25500000920E-02 0.  1.
        2   -1    0    0  501    0  0.00000000000E+00  0.00000000000E+00 -0.41054541275E+03  0.41054541276E+03  0.25500000920E-02 0. -1.
    10030    2    1    2    0    0  0.00000000000E+00  0.00000000000E+00 -0.19116935954E+03  0.62992146597E+03  0.60021273668E+03 0.  0.
        1    1    3    3  502    0 -0.20668986356E+03  0.18433487920E+03 -0.21690846164E+03  0.35178022705E+03  0.50400001928E-02 0. -1.
       -1    1    3    3    0  502  0.20668986356E+03 -0.18433487920E+03  0.25739102093E+02  0.27814123892E+03  0.50400001928E-02 0.  1.
</event>
<event>
 5   0  0.5653633E-03  0.6003930E+03  0.7818609E-02  0.9904591E-01
        1   -1    0    0  501    0  0.00000000000E+00  0.00000000000E+00  0.45836622157E+03  0.45836622160E+03  0.50400001928E-02 0.  1.
       -1   -1    0    0    0  501  0.00000000000E+00  0.00000000000E+00 -0.19660687510E+03  0.19660687517E+03  0.50400001928E-02 0. -1.
    10030    2    1    2    0    0  0.00000000000E+00  0.00000000000E+00  0.26175934647E+03  0.65497309677E+03  0.60039303962E+03 0.  0.
        2    1    3    3  502    0  0.13151825457E+02  0.27178972900E+03  0.26919415995E+03  0.38276379538E+03  0.25500000920E-02 0.  1.
       -2    1    3    3    0  502 -0.13151825457E+02 -0.27178972900E+03 -0.74348134766E+01  0.27220930138E+03  0.25500000920E-02 0. -1.
</event>
<event>
 5   0  0.5491236E-03  0.5996806E+03  0.7818609E-02  0.9906069E-01
       -1   -1    0    0    0  501  0.00000000000E+00  0.00000000000E+00  0.16749981314E+03  0.16749981322E+03  0.50400001928E-02 0.  1.
        1   -1    0    0  501    0  0.00000000000E+00  0.00000000000E+00 -0.53674220311E+03  0.53674220314E+03  0.50400001928E-02 0. -1.
    10030    2    1    2    0    0  0.00000000000E+00  0.00000000000E+00 -0.36924238997E+03  0.70424201635E+03  0.59968064421E+03 0.  0.
        3    1    3    3  502    0 -0.27005036774E+03  0.36200951437E+02 -0.33161122293E+03  0.42918961238E+03  0.10100000352E+00 0. -1.
       -3    1    3    3    0  502  0.27005036774E+03 -0.36200951437E+02 -0.37631167048E+02  0.27505240398E+03  0.10100000352E+00 0.  1.
</event>
<event>
 5   0  0.3794375E-03  0.5951108E+03  0.7818609E-02  0.9915602E-01
       -3   -1    0    0    0  501  0.00000000000E+00  0.00000000000E+00  0.85326633584E+02  0.85326693360E+02  0.10100000352E+00 0.  1.
        3   -1    0    0  501    0  0.00000000000E+00  0.00000000000E+00 -0.10376500544E+04  0.10376500593E+04  0.10100000352E+00 0. -1.
    10030    2    1    2    0    0  0.00000000000E+00  0.00000000000E+00 -0.95232342078E+03  0.11229767526E+04  0.59511082094E+03 0.  0.
        5    1    3    3  502    0 -0.20587777895E+03  0.20469350498E+03 -0.35340425564E+03  0.45738577673E+03  0.46999998093E+01 0.  1.
       -5    1    3    3    0  502  0.20587777895E+03 -0.20469350498E+03 -0.59891916514E+03  0.66559097591E+03  0.46999998093E+01 0. -1.
</event>
<event>
 5   0  0.5653633E-03  0.5999384E+03  0.7818609E-02  0.9905534E-01
        1   -1    0    0  501    0  0.00000000000E+00  0.00000000000E+00  0.21748170331E+03  0.21748170336E+03  0.50400001928E-02 0.  1.
       -1   -1    0    0    0  501  0.00000000000E+00  0.00000000000E+00 -0.41374292682E+03  0.41374292685E+03  0.50400001928E-02 0. -1.
    10030    2    1    2    0    0  0.00000000000E+00  0.00000000000E+00 -0.19626122351E+03  0.63122463021E+03  0.59993838511E+03 0.  0.
        2    1    3    3  502    0  0.25658957746E+03 -0.48277094506E+02 -0.25352354937E+03  0.36392729935E+03  0.25500000920E-02 0.  1.
       -2    1    3    3    0  502 -0.25658957746E+03  0.48277094506E+02  0.57262325863E+02  0.26729733086E+03  0.25500000920E-02 0. -1.
</event>
<event>
 5   0  0.5491236E-03  0.6004042E+03  0.7818609E-02  0.9904568E-01
        1   -1    0    0  501    0  0.00000000000E+00  0.00000000000E+00  0.15674897883E+04  0.15674897883E+04  0.50400001928E-02 0. -1.
       -1   -1    0    0    0  501  0.00000000000E+00  0.00000000000E+00 -0.57494029387E+02  0.57494029608E+02  0.50400001928E-02 0.  1.
    10030    2    1    2    0    0  0.00000000000E+00  0.00000000000E+00  0.15099957589E+04  0.16249838179E+04  0.60040421098E+03 0.  0.
        3    1    3    3  502    0  0.29315458960E+03  0.44445777367E+02  0.62787228179E+03  0.69436204747E+03  0.10100000352E+00 0.  1.
       -3    1    3    3    0  502 -0.29315458960E+03 -0.44445777367E+02  0.88212347714E+03  0.93062177046E+03  0.10100000352E+00 0. -1.
</event>
<event>
 5   0  0.9571790E-03  0.6007217E+03  0.7818609E-02  0.9903910E-01
       -2   -1    0    0    0  501  0.00000000000E+00  0.00000000000E+00  0.63528251243E+02  0.63528251294E+02  0.25500000920E-02 0.  1.
        2   -1    0    0  501    0  0.00000000000E+00  0.00000000000E+00 -0.14201025993E+04  0.14201025993E+04  0.25500000920E-02 0. -1.
    10030    2    1    2    0    0  0.00000000000E+00  0.00000000000E+00 -0.13565743481E+04  0.14836308506E+04  0.60072168185E+03 0.  0.
        5    1    3    3  502    0 -0.20445225579E+03  0.84521718286E+01 -0.12211957592E+04  0.12382299207E+04  0.46999998093E+01 0. -1.
       -5    1    3    3    0  502  0.20445225579E+03 -0.84521718286E+01 -0.13537858888E+03  0.24540092997E+03  0.46999998093E+01 0.  1.
</event>
<event>
 5   0  0.9866317E-03  0.6002849E+03  0.7818609E-02  0.9904815E-01
       -2   -1    0    0    0  501  0.00000000000E+00  0.00000000000E+00  0.66440717159E+02  0.66440717208E+02  0.25500000920E-02 0. -1.
        2   -1    0    0  501    0  0.00000000000E+00  0.00000000000E+00 -0.13558778056E+04  0.13558778056E+04  0.25500000920E-02 0.  1.
    10030    2    1    2    0    0  0.00000000000E+00  0.00000000000E+00 -0.12894370885E+04  0.14223185228E+04  0.60028491176E+03 0.  0.
        1    1    3    3  502    0 -0.82339817545E+02 -0.28831559705E+03 -0.67648667728E+03  0.73995942701E+03  0.50400001928E-02 0. -1.
       -1    1    3    3    0  502  0.82339817545E+02  0.28831559705E+03 -0.61295041119E+03  0.68235909583E+03  0.50400001928E-02 0.  1.
</event>
<event>
 5   0  0.5785798E-03  0.5994016E+03  0.7818609E-02  0.9906648E-01
       -1   -1    0    0    0  501  0.00000000000E+00  0.00000000000E+00  0.11263255555E+03  0.11263255567E+03  0.50400001928E-02 0.  1.
        1   -1    0    0  501    0  0.00000000000E+00  0.00000000000E+00 -0.79746543185E+03  0.79746543186E+03  0.50400001928E-02 0. -1.
    10030    2    1    2    0    0  0.00000000000E+00  0.00000000000E+00 -0.68483287630E+03  0.91009798753E+03  0.59940160031E+03 0.  0.
        1    1    3    3  502    0 -0.25609050771E+03 -0.34210476034E+02 -0.11180865846E+03  0.28152065811E+03  0.50400001928E-02 0.  1.
       -1    1    3    3    0  502  0.25609050771E+03  0.34210476034E+02 -0.57302421783E+03  0.62857732942E+03  0.50400001928E-02 0. -1.
</event>
<event>
 5   0  0.9530666E-03  0.6008878E+03  0.7818609E-02  0.9903566E-01
       -2   -1    0    0    0  501  0.00000000000E+00  0.00000000000E+00  0.19324045762E+03  0.19324045764E+03  0.25500000920E-02 0.  1.
        2   -1    0    0  501    0  0.00000000000E+00  0.00000000000E+00 -0.46712035537E+03  0.46712035538E+03  0.25500000920E-02 0. -1.
    10030    2    1    2    0    0  0.00000000000E+00  0.00000000000E+00 -0.27387989775E+03  0.66036081302E+03  0.60088784725E+03 0.  0.
        2    1    3    3  502    0 -0.10692323913E+03  0.10341896123E+03  0.14992938663E+03  0.21120341283E+03  0.25500000920E-02 0.  1.
       -2    1    3    3    0  502  0.10692323913E+03 -0.10341896123E+03 -0.42380928439E+03  0.44915740019E+03  0.25500000920E-02 0. -1.
</event>
<event>
 5   0  0.9571790E-03  0.5995385E+03  0.7818609E-02  0.9906364E-01
        2   -1    0    0  501    0  0.00000000000E+00  0.00000000000E+00  0.85494285752E+03  0.85494285753E+03  0.25500000920E-02 0.  1.
       -2   -1    0    0    0  501  0.00000000000E+00  0.00000000000E+00 -0.10510832919E+03  0.10510832922E+03  0.25500000920E-02 0. -1.
    10030    2    1    2    0    0  0.00000000000E+00  0.00000000000E+00  0.74983452833E+03  0.96005118675E+03  0.59953854029E+03 0.  0.
        5    1    3    3  502    0  0.26948688687E+03 -0.11712086411E+03  0.28019498740E+03  0.40604408624E+03  0.46999998093E+01 0.  1.
       -5    1    3    3    0  502 -0.26948688687E+03  0.11712086411E+03  0.46963954093E+03  0.55400710050E+03  0.46999998093E+01 0. -1.
</event>
<event>
 5   0  0.5653633E-03  0.6000606E+03  0.7818609E-02  0.9905280E-01
       -1   -1    0    0    0  501  0.00000000000E+00  0.00000000000E+00  0.23420411211E+03  0.23420411216E+03  0.50400001928E-02 0.  1.
        1   -1    0    0  501    0  0.00000000000E+00  0.00000000000E+00 -0.38435782221E+03  0.38435782225E+03  0.50400001928E-02 0. -1.
    10030    2    1    2    0    0  0.00000000000E+00  0.00000000000E+00 -0.15015371010E+03  0.61856193441E+03  0.60006060531E+03 0.  0.
        2    1    3    3  502    0  0.27482529880E+03 -0.11891063766E+03 -0.94348125951E+02  0.31395899969E+03  0.25500000920E-02 0. -1.
       -2    1    3    3    0  502 -0.27482529880E+03  0.11891063766E+03 -0.55805584153E+02  0.30460293472E+03  0.25500000920E-02 0.  1.
</event>
<event>
 5   0  0.9530666E-03  0.6024801E+03  0.7818609E-02  0.9900274E-01
        2   -1    0    0  501    0  0.00000000000E+00  0.00000000000E+00  0.19945968463E+03  0.19945968465E+03  0.25500000920E-02 0.  1.
       -2   -1    0    0    0  501  0.00000000000E+00  0.00000000000E+00 -0.45495689396E+03  0.45495689397E+03  0.25500000920E-02 0. -1.
    10030    2    1    2    0    0  0.00000000000E+00  0.00000000000E+00 -0.25549720934E+03  0.65441657862E+03  0.60248006970E+03 0.  0.
        2    1    3    3  502    0 -0.30249822976E+02  0.29892714076E+03 -0.10412343599E+03  0.31798455497E+03  0.25500000920E-02 0. -1.
       -2    1    3    3    0  502  0.30249822976E+02 -0.29892714076E+03 -0.15137377334E+03  0.33643202365E+03  0.25500000920E-02 0.  1.
</event>
<event>
 5   0  0.9428629E-03  0.5988929E+03  0.7818609E-02  0.9907706E-01
       -2   -1    0    0    0  501  0.00000000000E+00  0.00000000000E+00  0.18020599408E+03  0.18020599410E+03  0.25500000920E-02 0. -1.
        2   -1    0    0  501    0  0.00000000000E+00  0.00000000000E+00 -0.49758709418E+03  0.49758709419E+03  0.25500000920E-02 0.  1.
    10030    2    1    2    0    0  0.00000000000E+00  0.00000000000E+00 -0.31738110010E+03  0.67779308829E+03  0.59889290180E+03 0.  0.
        3    1    3    3  502    0  0.76079314614E+02  0.23837163915E+03  0.27477167149E+02  0.25172227827E+03  0.10100000352E+00 0. -1.
       -3    1    3    3    0  502 -0.76079314614E+02 -0.23837163915E+03 -0.34485826725E+03  0.42607081002E+03  0.10100000352E+00 0.  1.
</event>
<event>
 5   0  0.5574736E-03  0.5995503E+03  0.7818609E-02  0.9906339E-01
        1   -1    0    0  501    0  0.00000000000E+00  0.00000000000E+00  0.30240731326E+03  0.30240731330E+03  0.50400001928E-02 0.  1.
       -1   -1    0    0    0  501  0.00000000000E+00  0.00000000000E+00 -0.29716590212E+03  0.29716590217E+03  0.50400001928E-02 0. -1.
    10030    2    1    2    0    0  0.00000000000E+00  0.00000000000E+00  0.52414111393E+01  0.59957321547E+03  0.59955030508E+03 0.  0.
        5    1    3    3  502    0 -0.50800289739E+02  0.23973208489E+02 -0.29181824086E+03  0.29721265090E+03  0.46999998093E+01 0. -1.
       -5    1    3    3    0  502  0.50800289739E+02 -0.23973208489E+02  0.29705965200E+03  0.30236056457E+03  0.46999998093E+01 0.  1.
</event>
<event>
 5   0  0.5491236E-03  0.5994658E+03  0.7818609E-02  0.9906515E-01
       -1   -1    0    0    0  501  0.00000000000E+00  0.00000000000E+00  0.65529712338E+03  0.65529712340E+03  0.50400001928E-02 0.  1.
        1   -1    0    0  501    0  0.00000000000E+00  0.00000000000E+00 -0.13709783016E+03  0.13709783026E+03  0.50400001928E-02 0. -1.
    10030    2    1    2    0    0  0.00000000000E+00  0.00000000000E+00  0.51819929321E+03  0.79239495365E+03  0.59946580810E+03 0.  0.
        3    1    3    3  502    0  0.15874070695E+03 -0.26596716766E+00  0.59517117638E+03  0.61597680328E+03  0.10100000352E+00 0.  1.
       -3    1    3    3    0  502 -0.15874070695E+03  0.26596716766E+00 -0.76971883163E+02  0.17641815038E+03  0.10100000352E+00 0. -1.
</event>
<event>
 5   0  0.9866317E-03  0.5988529E+03  0.7818609E-02  0.9907789E-01
       -2   -1    0    0    0  501  0.00000000000E+00  0.00000000000E+00  0.11501619357E+03  0.11501619359E+03  0.25500000920E-02 0. -1.
        2   -1    0    0  501    0  0.00000000000E+00  0.00000000000E+00 -0.77950934800E+03  0.77950934801E+03  0.25500000920E-02 0.  1.
    10030    2    1    2    0    0  0.00000000000E+00  0.00000000000E+00 -0.66449315444E+03  0.89452554160E+03  0.59885289703E+03 0.  0.
        1    1    3    3  502    0  0.19304858936E+03  0.21501483601E+02 -0.67262776841E+03  0.70011298125E+03  0.50400001928E-02 0.  1.
       -1    1    3    3    0  502 -0.19304858936E+03 -0.21501483601E+02  0.81346139762E+01  0.19441256035E+03  0.50400001928E-02 0. -1.
</event>
<event>
 5   0  0.5503975E-03  0.5975017E+03  0.7818609E-02  0.9910603E-01
        1   -1    0    0  501    0  0.00000000000E+00  0.00000000000E+00  0.46067044842E+03  0.46067044844E+03  0.50400001928E-02 0. -1.
       -1   -1    0    0    0  501  0.00000000000E+00  0.00000000000E+00 -0.19374384877E+03  0.19374384884E+03  0.50400001928E-02 0.  1.
    10030    2    1    2    0    0  0.00000000000E+00  0.00000000000E+00  0.26692659964E+03  0.65441429728E+03  0.59750168443E+03 0.  0.
        4    1    3    3  502    0 -0.15633959223E+03 -0.30703530745E+02  0.41025139588E+03  0.44010520972E+03  0.12699999809E+01 0. -1.
       -4    1    3    3    0  502  0.15633959223E+03  0.30703530745E+02 -0.14332479623E+03  0.21430908757E+03  0.12699999809E+01 0.  1.
</event>
<event>
 5   0  0.5653633E-03  0.6014138E+03  0.7818609E-02  0.9902477E-01
        1   -1    0    0  501    0  0.00000000000E+00  0.00000000000E+00  0.16343009020E+03  0.16343009028E+03  0.50400001928E-02 0. -1.
       -1   -1    0    0    0  501  0.00000000000E+00  0.00000000000E+00 -0.55329255409E+03  0.55329255411E+03  0.50400001928E-02 0.  1.
    10030    2    1    2    0    0  0.00000000000E+00  0.00000000000E+00 -0.38986246389E+03  0.71672264439E+03  0.60141384107E+03 0.  0.
        2    1    3    3  502    0  0.15558620730E+03 -0.77432822036E+02  0.97520612597E+02  0.19928165926E+03  0.25500000920E-02 0. -1.
       -2    1    3    3    0  502 -0.15558620730E+03  0.77432822036E+02 -0.48738307649E+03  0.51744098513E+03  0.25500000920E-02 0.  1.
</event>
<event>
 5   0  0.9681801E-03  0.5995138E+03  0.7818609E-02  0.9906415E-01
       -2   -1    0    0    0  501  0.00000000000E+00  0.00000000000E+00  0.15878972487E+03  0.15878972489E+03  0.25500000920E-02 0.  1.
        2   -1    0    0  501    0  0.00000000000E+00  0.00000000000E+00 -0.56586908695E+03  0.56586908695E+03  0.25500000920E-02 0. -1.
    10030    2    1    2    0    0  0.00000000000E+00  0.00000000000E+00 -0.40707936208E+03  0.72465881184E+03  0.59951379179E+03 0.  0.
        4    1    3    3  502    0 -0.11590316166E+03 -0.11086109741E+03 -0.50963814619E+03  0.53428117949E+03  0.12699999809E+01 0. -1.
       -4    1    3    3    0  502  0.11590316166E+03  0.11086109741E+03  0.10255878412E+03  0.19037763235E+03  0.12699999809E+01 0.  1.
</event>
<event>
 5   0  0.9530666E-03  0.5843035E+03  0.7818609E-02  0.9938517E-01
       -2   -1    0    0    0  501  0.00000000000E+00  0.00000000000E+00  0.18768002721E+03  0.18768002723E+03  0.25500000920E-02 0.  1.
        2   -1    0    0  501    0  0.00000000000E+00  0.00000000000E+00 -0.45477750506E+03  0.45477750507E+03  0.25500000920E-02 0. -1.
    10030    2    1    2    0    0  0.00000000000E+00  0.00000000000E+00 -0.26709747785E+03  0.64245753230E+03  0.58430353254E+03 0.  0.
        2    1    3    3  502    0 -0.10144746134E+03  0.97169760200E+02  0.14810859495E+03  0.20413158896E+03  0.25500000920E-02 0.  1.
       -2    1    3    3    0  502  0.10144746134E+03 -0.97169760200E+02 -0.41520607280E+03  0.43832594334E+03  0.25500000920E-02 0. -1.
</event>
<event>
 5   0  0.9571790E-03  0.5997436E+03  0.7818609E-02  0.9905938E-01
       -2   -1    0    0    0  501  0.00000000000E+00  0.00000000000E+00  0.17861817456E+03  0.17861817458E+03  0.25500000920E-02 0.  1.
        2   -1    0    0  501    0  0.00000000000E+00  0.00000000000E+00 -0.50343760867E+03  0.50343760868E+03  0.25500000920E-02 0. -1.
    10030    2    1    2    0    0  0.00000000000E+00  0.00000000000E+00 -0.32481943411E+03  0.68205578326E+03  0.59974363415E+03 0.  0.
        5    1    3    3  502    0  0.14471238232E+03  0.25230308459E+03 -0.24522194093E+03  0.38046604369E+03  0.46999998093E+01 0. -1.
       -5    1    3    3    0  502 -0.14471238232E+03 -0.25230308459E+03 -0.79597493178E+02  0.30158973956E+03  0.46999998093E+01 0.  1.
</event>
<event>
 5   0  0.3794375E-03  0.6008271E+03  0.7818609E-02  0.9903692E-01
       -4   -1    0    0    0  501  0.00000000000E+00  0.00000000000E+00  0.32086569413E+03  0.32086820748E+03  0.12699999809E+01 0.  1.
        4   -1    0    0  501    0  0.00000000000E+00  0.00000000000E+00 -0.28125995360E+03  0.28126282086E+03  0.12699999809E+01 0. -1.
    10030    2    1    2    0    0  0.00000000000E+00  0.00000000000E+00  0.39605740533E+02  0.60213102834E+03  0.60082706381E+03 0.  0.
        1    1    3    3  502    0 -0.11374322124E+03 -0.21368563895E+03 -0.15848549732E+03  0.28933842738E+03  0.50400001928E-02 0. -1.
       -1    1    3    3    0  502  0.11374322124E+03  0.21368563895E+03  0.19809123786E+03  0.31279260096E+03  0.50400001928E-02 0.  1.
</event>
<event>
 5   0  0.9681801E-03  0.5997322E+03  0.7818609E-02  0.9905962E-01
       -2   -1    0    0    0  501  0.00000000000E+00  0.00000000000E+00  0.69080627312E+02  0.69080627359E+02  0.25500000920E-02 0. -1.
        2   -1    0    0  501    0  0.00000000000E+00  0.00000000000E+00 -0.13016628157E+04  0.13016628157E+04  0.25500000920E-02 0.  1.
    10030    2    1    2    0    0  0.00000000000E+00  0.00000000000E+00 -0.12325821884E+04  0.13707434431E+04  0.59973221989E+03 0.  0.
        4    1    3    3  502    0  0.66693535648E+02  0.15486975998E+03 -0.49549875557E+02  0.17575401367E+03  0.12699999809E+01 0. -1.
       -4    1    3    3    0  502 -0.66693535648E+02 -0.15486975998E+03 -0.11830323129E+04  0.11949894294E+04  0.12699999809E+01 0.  1.
</event>
<event>
 5   0  0.9428629E-03  0.6000556E+03  0.7818609E-02  0.9905291E-01
        2   -1    0    0  501    0  0.00000000000E+00  0.00000000000E+00  0.76857862636E+03  0.76857862636E+03  0.25500000920E-02 0. -1.
       -2   -1    0    0    0  501  0.00000000000E+00  0.00000000000E+00 -0.11712096481E+03  0.11712096484E+03  0.25500000920E-02 0.  1.
    10030    2    1    2    0    0  0.00000000000E+00  0.00000000000E+00  0.65145766154E+03  0.88569959120E+03  0.60005556499E+03 0.  0.
        3    1    3    3  502    0  0.63410332165E+01  0.11878810287E+03 -0.80825045360E+02  0.14381766319E+03  0.10100000352E+00 0.  1.
       -3    1    3    3    0  502 -0.63410332165E+01 -0.11878810287E+03  0.73228270690E+03  0.74188192802E+03  0.10100000352E+00 0. -1.
</event>
<event>
 5   0  0.5491236E-03  0.6012999E+03  0.7818609E-02  0.9902713E-01
       -1   -1    0    0    0  501  0.00000000000E+00  0.00000000000E+00  0.94526388452E+02  0.94526388586E+02  0.50400001928E-02 0. -1.
        1   -1    0    0  501    0  0.00000000000E+00  0.00000000000E+00 -0.95624491252E+03  0.95624491253E+03  0.50400001928E-02 0.  1.
    10030    2    1    2    0    0  0.00000000000E+00  0.00000000000E+00 -0.86171852407E+03  0.10507713011E+04  0.60129985243E+03 0.  0.
        3    1    3    3  502    0 -0.13817153971E+03  0.25477451563E+03 -0.29118013851E+03  0.41083732968E+03  0.10100000352E+00 0. -1.
       -3    1    3    3    0  502  0.13817153971E+03 -0.25477451563E+03 -0.57053838556E+03  0.63993397143E+03  0.10100000352E+00 0.  1.
</event>
<event>
 5   0  0.9428629E-03  0.6004062E+03  0.7818609E-02  0.9904564E-01
       -2   -1    0    0    0  501  0.00000000000E+00  0.00000000000E+00  0.43855804067E+02  0.43855804141E+02  0.25500000920E-02 0. -1.
        2   -1    0    0  501    0  0.00000000000E+00  0.00000000000E+00 -0.20549598017E+04  0.20549598017E+04  0.25500000920E-02 0.  1.
    10030    2    1    2    0    0  0.00000000000E+00  0.00000000000E+00 -0.20111039976E+04  0.20988156058E+04  0.60040624417E+03 0.  0.
        3    1    3    3  502    0  0.26190092207E+03 -0.12707412245E+03 -0.12620004456E+04  0.12951390121E+04  0.10100000352E+00 0. -1.
       -3    1    3    3    0  502 -0.26190092207E+03  0.12707412245E+03 -0.74910355201E+03  0.80367659379E+03  0.10100000352E+00 0.  1.
</event>
<event>
 5   0  0.5653633E-03  0.5999278E+03  0.7818609E-02  0.9905556E-01
       -1   -1    0    0    0  501  0.00000000000E+00  0.00000000000E+00  0.20577658974E+03  0.20577658980E+03  0.50400001928E-02 0. -1.
        1   -1    0    0  501    0  0.00000000000E+00  0.00000000000E+00 -0.43726228925E+03  0.43726228928E+03  0.50400001928E-02 0.  1.
    10030    2    1    2    0    0  0.00000000000E+00  0.00000000000E+00 -0.23148569951E+03  0.64303887907E+03  0.59992780476E+03 0.  0.
        2    1    3    3  502    0 -0.18083041871E+03  0.21214406985E+03 -0.23449026182E+03  0.36426697572E+03  0.25500000920E-02 0.  1.
       -2    1    3    3    0  502  0.18083041871E+03 -0.21214406985E+03  0.30045623117E+01  0.27877190336E+03  0.25500000920E-02 0. -1.
</event>
<event>
 5   0  0.5785798E-03  0.6000331E+03  0.7818609E-02  0.9905337E-01
        1   -1    0    0  501    0  0.00000000000E+00  0.00000000000E+00  0.79319981268E+03  0.79319981269E+03  0.50400001928E-02 0. -1.
       -1   -1    0    0    0  501  0.00000000000E+00  0.00000000000E+00 -0.11347700583E+03  0.11347700594E+03  0.50400001928E-02 0.  1.
    10030    2    1    2    0    0  0.00000000000E+00  0.00000000000E+00  0.67972280685E+03  0.90667681863E+03  0.60003313183E+03 0.  0.
        1    1    3    3  502    0  0.25593049929E+03 -0.15046468094E+03  0.40520249257E+03  0.50232370111E+03  0.50400001928E-02 0. -1.
       -1    1    3    3    0  502 -0.25593049929E+03  0.15046468094E+03  0.27452031427E+03  0.40435311753E+03  0.50400001928E-02 0.  1.
</event>
<event>
 5   0  0.9681801E-03  0.6032578E+03  0.7818609E-02  0.9898670E-01
        2   -1    0    0  501    0  0.00000000000E+00  0.00000000000E+00  0.50981138687E+03  0.50981138687E+03  0.25500000920E-02 0.  1.
       -2   -1    0    0    0  501  0.00000000000E+00  0.00000000000E+00 -0.17845815596E+03  0.17845815598E+03  0.25500000920E-02 0. -1.
    10030    2    1    2    0    0  0.00000000000E+00  0.00000000000E+00  0.33135323090E+03  0.68826954285E+03  0.60325782216E+03 0.  0.
        4    1    3    3  502    0  0.24957993328E+03  0.69039135372E+01 -0.27407476434E+02  0.25117840230E+03  0.12699999809E+01 0. -1.
       -4    1    3    3    0  502 -0.24957993328E+03 -0.69039135372E+01  0.35876070734E+03  0.43709114055E+03  0.12699999809E+01 0.  1.
</event>
<event>
 5   0  0.9681801E-03  0.5990091E+03  0.7818609E-02  0.9907464E-01
       -2   -1    0    0    0  501  0.00000000000E+00  0.00000000000E+00  0.94576825227E+02  0.94576825261E+02  0.25500000920E-02 0.  1.
        2   -1    0    0  501    0  0.00000000000E+00  0.00000000000E+00 -0.94846684419E+03  0.94846684419E+03  0.25500000920E-02 0. -1.
    10030    2    1    2    0    0  0.00000000000E+00  0.00000000000E+00 -0.85389001896E+03  0.10430436695E+04  0.59900912506E+03 0.  0.
        4    1    3    3  502    0 -0.17533259799E+03 -0.13142158700E+03 -0.78247456649E+03  0.81257689701E+03  0.12699999809E+01 0. -1.
       -4    1    3    3    0  502  0.17533259799E+03  0.13142158700E+03 -0.71415452471E+02  0.23046677244E+03  0.12699999809E+01 0.  1.
</event>
<event>
 5   0  0.9681801E-03  0.6007769E+03  0.7818609E-02  0.9903796E-01
        2   -1    0    0  501    0  0.00000000000E+00  0.00000000000E+00  0.15861478812E+03  0.15861478814E+03  0.25500000920E-02 0.  1.
       -2   -1    0    0    0  501  0.00000000000E+00  0.00000000000E+00 -0.56888276829E+03  0.56888276830E+03  0.25500000920E-02 0. -1.
    10030    2    1    2    0    0  0.00000000000E+00  0.00000000000E+00 -0.41026798017E+03  0.72749755644E+03  0.60077689626E+03 0.  0.
        4    1    3    3  502    0  0.11228760720E+03  0.35937250077E+02 -0.53969131223E+03  0.55242041786E+03  0.12699999809E+01 0. -1.
       -4    1    3    3    0  502 -0.11228760720E+03 -0.35937250077E+02  0.12942333206E+03  0.17507713859E+03  0.12699999809E+01 0.  1.
</event>
<event>
 5   0  0.5574736E-03  0.5979438E+03  0.7818609E-02  0.9909681E-01
        1   -1    0    0  501    0  0.00000000000E+00  0.00000000000E+00  0.34960553178E+03  0.34960553181E+03  0.50400001928E-02 0.  1.
       -1   -1    0    0    0  501  0.00000000000E+00  0.00000000000E+00 -0.25567157733E+03  0.25567157738E+03  0.50400001928E-02 0. -1.
    10030    2    1    2    0    0  0.00000000000E+00  0.00000000000E+00  0.93933954447E+02  0.60527710919E+03  0.59794380264E+03 0.  0.
        5    1    3    3  502    0 -0.16233107694E+02 -0.25943207093E+03 -0.10247008266E+03  0.27944717041E+03  0.46999998093E+01 0. -1.
       -5    1    3    3    0  502  0.16233107694E+02  0.25943207093E+03  0.19640403710E+03  0.32582993878E+03  0.46999998093E+01 0.  1.
</event>
<event>
 5   0  0.5785798E-03  0.5998482E+03  0.7818609E-02  0.9905721E-01
        1   -1    0    0  501    0  0.00000000000E+00  0.00000000000E+00  0.48920752080E+03  0.48920752082E+03  0.50400001928E-02 0. -1.
       -1   -1    0    0    0  501  0.00000000000E+00  0.00000000000E+00 -0.18387794995E+03  0.18387795002E+03  0.50400001928E-02 0.  1.
    10030    2    1    2    0    0  0.00000000000E+00  0.00000000000E+00  0.30532957085E+03  0.67308547084E+03  0.59984823432E+03 0.  0.
        1    1    3    3  502    0 -0.24558936835E+03  0.52374967525E+02  0.33669213660E+03  0.42002246362E+03  0.50400001928E-02 0. -1.
       -1    1    3    3    0  502  0.24558936835E+03 -0.52374967525E+02 -0.31362565753E+02  0.25306300722E+03  0.50400001928E-02 0.  1.
</event>
<event>
 5   0  0.5574736E-03  0.6025307E+03  0.7818609E-02  0.9900170E-01
       -1   -1    0    0    0  501  0.00000000000E+00  0.00000000000E+00  0.17418623626E+03  0.17418623634E+03  0.50400001928E-02 0.  1.
        1   -1    0    0  501    0  0.00000000000E+00  0.00000000000E+00 -0.52105612919E+03  0.52105612921E+03  0.50400001928E-02 0. -1.
    10030    2    1    2    0    0  0.00000000000E+00  0.00000000000E+00 -0.34686989293E+03  0.69524236555E+03  0.60253068323E+03 0.  0.
        5    1    3    3  502    0  0.28963632532E+01 -0.82891484982E+00  0.17412654701E+03  0.17421601646E+03  0.46999998093E+01 0.  1.
       -5    1    3    3    0  502 -0.28963632532E+01  0.82891484982E+00 -0.52099643994E+03  0.52102634909E+03  0.46999998093E+01 0. -1.
</event>
<event>
 5   0  0.9428629E-03  0.6014885E+03  0.7818609E-02  0.9902323E-01
        2   -1    0    0  501    0  0.00000000000E+00  0.00000000000E+00  0.50037713401E+03  0.50037713402E+03  0.25500000920E-02 0. -1.
       -2   -1    0    0    0  501  0.00000000000E+00  0.00000000000E+00 -0.18075787227E+03  0.18075787228E+03  0.25500000920E-02 0.  1.
    10030    2    1    2    0    0  0.00000000000E+00  0.00000000000E+00  0.31961926175E+03  0.68113500630E+03  0.60148850723E+03 0.  0.
        3    1    3    3  502    0 -0.14583095050E+03 -0.34995328252E+02  0.45501142592E+03  0.47908949795E+03  0.10100000352E+00 0. -1.
       -3    1    3    3    0  502  0.14583095050E+03  0.34995328252E+02 -0.13539216418E+03  0.20204550835E+03  0.10100000352E+00 0.  1.
</event>
<event>
 5   0  0.3794375E-03  0.6007000E+03  0.7818609E-02  0.9903955E-01
        3   -1    0    0  501    0  0.00000000000E+00  0.00000000000E+00  0.19773422208E+03  0.19773424787E+03  0.10100000352E+00 0.  1.
       -3   -1    0    0    0  501  0.00000000000E+00  0.00000000000E+00 -0.45621895688E+03  0.45621896806E+03  0.10100000352E+00 0. -1.
    10030    2    1    2    0    0  0.00000000000E+00  0.00000000000E+00 -0.25848473480E+03  0.65395321593E+03  0.60069996713E+03 0.  0.
        4    1    3    3  502    0 -0.23737755089E+03  0.16888477417E+03 -0.49701224745E+02  0.29553678832E+03  0.12699999809E+01 0.  1.
       -4    1    3    3    0  502  0.23737755089E+03 -0.16888477417E+03 -0.20878351005E+03  0.35841642761E+03  0.12699999809E+01 0. -1.
</event>
<event>
 5   0  0.9428629E-03  0.6005024E+03  0.7818609E-02  0.9904364E-01
       -2   -1    0    0    0  501  0.00000000000E+00  0.00000000000E+00  0.79591919286E+02  0.79591919327E+02  0.25500000920E-02 0.  1.
        2   -1    0    0  501    0  0.00000000000E+00  0.00000000000E+00 -0.11326625621E+04  0.11326625621E+04  0.25500000920E-02 0. -1.
    10030    2    1    2    0    0  0.00000000000E+00  0.00000000000E+00 -0.10530706428E+04  0.12122544815E+04  0.60050241381E+03 0.  0.
        3    1    3    3  502    0  0.16567377681E+03 -0.23991517180E+03 -0.67131790105E+03  0.73189809704E+03  0.10100000352E+00 0.  1.
       -3    1    3    3    0  502 -0.16567377681E+03  0.23991517180E+03 -0.38175274179E+03  0.48035638442E+03  0.10100000352E+00 0. -1.
</event>
<event>
 5   0  0.3794375E-03  0.5948899E+03  0.7818609E-02  0.9916065E-01
        4   -1    0    0  501    0  0.00000000000E+00  0.00000000000E+00  0.11622087276E+04  0.11622094215E+04  0.12699999809E+01 0.  1.
       -4   -1    0    0    0  501  0.00000000000E+00  0.00000000000E+00 -0.76119297520E+02  0.76129891337E+02  0.12699999809E+01 0. -1.
    10030    2    1    2    0    0  0.00000000000E+00  0.00000000000E+00  0.10860894300E+04  0.12383393128E+04  0.59488990877E+03 0.  0.
        1    1    3    3  502    0  0.24975118169E+03 -0.15779493360E+03  0.61511254915E+03  0.68237697937E+03  0.50400001928E-02 0.  1.
       -1    1    3    3    0  502 -0.24975118169E+03  0.15779493360E+03  0.47097688089E+03  0.55596233342E+03  0.50400001928E-02 0. -1.
</event>
<event>
 5   0  0.5785798E-03  0.5993693E+03  0.7818609E-02  0.9906715E-01
       -1   -1    0    0    0  501  0.00000000000E+00  0.00000000000E+00  0.27053902089E+03  0.27053902094E+03  0.50400001928E-02 0. -1.
        1   -1    0    0  501    0  0.00000000000E+00  0.00000000000E+00 -0.33197014744E+03  0.33197014748E+03  0.50400001928E-02 0.  1.
    10030    2    1    2    0    0  0.00000000000E+00  0.00000000000E+00 -0.61431126549E+02  0.60250916842E+03  0.59936926408E+03 0.  0.
        1    1    3    3  502    0 -0.17342721479E+03 -0.23492060892E+03 -0.98494204013E+02  0.30816521474E+03  0.50400001928E-02 0.  1.
       -1    1    3    3    0  502  0.17342721479E+03  0.23492060892E+03  0.37063077464E+02  0.29434395368E+03  0.50400001928E-02 0. -1.
</event>
<event>
 5   0  0.5653633E-03  0.5994364E+03  0.7818609E-02  0.9906576E-01
        1   -1    0    0  501    0  0.00000000000E+00  0.00000000000E+00  0.11143317085E+04  0.11143317085E+04  0.50400001928E-02 0. -1.
       -1   -1    0    0    0  501  0.00000000000E+00  0.00000000000E+00 -0.80614244176E+02  0.80614244334E+02  0.50400001928E-02 0.  1.
    10030    2    1    2    0    0  0.00000000000E+00  0.00000000000E+00  0.10337174644E+04  0.11949459529E+04  0.59943643048E+03 0.  0.
        2    1    3    3  502    0  0.23932693009E+03 -0.10853172415E+03  0.80418170796E+03  0.84602880213E+03  0.25500000920E-02 0.  1.
       -2    1    3    3    0  502 -0.23932693009E+03  0.10853172415E+03  0.22953575639E+03  0.34891715074E+03  0.25500000920E-02 0. -1.
</event>
<event>
 5   0  0.9428629E-03  0.5988803E+03  0.7818609E-02  0.9907732E-01
       -2   -1    0    0    0  501  0.00000000000E+00  0.00000000000E+00  0.87618898060E+02  0.87618898098E+02  0.25500000920E-02 0. -1.
        2   -1    0    0  501    0  0.00000000000E+00  0.00000000000E+00 -0.10233455102E+04  0.10233455102E+04  0.25500000920E-02 0.  1.
    10030    2    1    2    0    0  0.00000000000E+00  0.00000000000E+00 -0.93572661218E+03  0.11109644083E+04  0.59888030846E+03 0.  0.
        3    1    3    3  502    0  0.24663672956E+03 -0.33472242485E+02 -0.77668819338E+03  0.81559464645E+03  0.10100000352E+00 0.  1.
       -3    1    3    3    0  502 -0.24663672956E+03  0.33472242485E+02 -0.15903841880E+03  0.29536976189E+03  0.10100000352E+00 0. -1.
</event>
<event>
 5   0  0.5653633E-03  0.5994976E+03  0.7818609E-02  0.9906449E-01
        1   -1    0    0  501    0  0.00000000000E+00  0.00000000000E+00  0.15524792018E+04  0.15524792018E+04  0.50400001928E-02 0. -1.
       -1   -1    0    0    0  501  0.00000000000E+00  0.00000000000E+00 -0.57874740590E+02  0.57874740809E+02  0.50400001928E-02 0.  1.
    10030    2    1    2    0    0  0.00000000000E+00  0.00000000000E+00  0.14946044612E+04  0.16103539426E+04  0.59949756049E+03 0.  0.
        2    1    3    3  502    0 -0.26887582242E+03  0.27295543610E+02  0.39903006387E+03  0.48193801102E+03  0.25500000920E-02 0.  1.
       -2    1    3    3    0  502  0.26887582242E+03 -0.27295543610E+02  0.10955743974E+04  0.11284159316E+04  0.25500000920E-02 0. -1.
</event>
<event>
 5   0  0.9681801E-03  0.6031504E+03  0.7818609E-02  0.9898891E-01
        2   -1    0    0  501    0  0.00000000000E+00  0.00000000000E+00  0.26348467016E+04  0.26348467016E+04  0.25500000920E-02 0. -1.
       -2   -1    0    0    0  501  0.00000000000E+00  0.00000000000E+00 -0.34517231645E+02  0.34517231740E+02  0.25500000920E-02 0.  1.
    10030    2    1    2    0    0  0.00000000000E+00  0.00000000000E+00  0.26003294699E+04  0.26693639333E+04  0.60315044251E+03 0.  0.
        4    1    3    3  502    0 -0.10702577430E+03 -0.28143694752E+03  0.13748436981E+04  0.14074296000E+04  0.12699999809E+01 0.  1.
       -4    1    3    3    0  502  0.10702577430E+03  0.28143694752E+03  0.12254857718E+04  0.12619343333E+04  0.12699999809E+01 0. -1.
</event>
<event>
 5   0  0.5491236E-03  0.6009987E+03  0.7818609E-02  0.9903336E-01
       -1   -1    0    0    0  501  0.00000000000E+00  0.00000000000E+00  0.11456621840E+03  0.11456621851E+03  0.50400001928E-02 0.  1.
        1   -1    0    0  501    0  0.00000000000E+00  0.00000000000E+00 -0.78818914975E+03  0.78818914976E+03  0.50400001928E-02 0. -1.
    10030    2    1    2    0    0  0.00000000000E+00  0.00000000000E+00 -0.67362293135E+03  0.90275536827E+03  0.60099866996E+03 0.  0.
        3    1    3    3  502    0 -0.20603442667E+03  0.86178297723E+02 -0.63881401153E+03  0.67672759327E+03  0.10100000352E+00 0. -1.
       -3    1    3    3    0  502  0.20603442667E+03 -0.86178297723E+02 -0.34808919827E+02  0.22602777500E+03  0.10100000352E+00 0.  1.
</event>
<event>
 5   0  0.5785798E-03  0.5998000E+03  0.7818609E-02  0.9905821E-01
        1   -1    0    0  501    0  0.00000000000E+00  0.00000000000E+00  0.30799100552E+03  0.30799100556E+03  0.50400001928E-02 0. -1.
       -1   -1    0    0    0  501  0.00000000000E+00  0.00000000000E+00 -0.29202151384E+03  0.29202151389E+03  0.50400001928E-02 0.  1.
    10030    2    1    2    0    0  0.00000000000E+00  0.00000000000E+00  0.15969491676E+02  0.60001251945E+03  0.59979996568E+03 0.  0.
        1    1    3    3  502    0 -0.23979723035E+02  0.13155235420E+03 -0.26054836463E+03  0.29285918007E+03  0.50400001928E-02 0.  1.
       -1    1    3    3    0  502  0.23979723035E+02 -0.13155235420E+03  0.27651785631E+03  0.30715333938E+03  0.50400001928E-02 0. -1.
</event>
<event>
 5   0  0.9681801E-03  0.5989844E+03  0.7818609E-02  0.9907515E-01
       -2   -1    0    0    0  501  0.00000000000E+00  0.00000000000E+00  0.72018483616E+02  0.72018483661E+02  0.25500000920E-02 0. -1.
        2   -1    0    0  501    0  0.00000000000E+00  0.00000000000E+00 -0.12454522632E+04  0.12454522632E+04  0.25500000920E-02 0.  1.
    10030    2    1    2    0    0  0.00000000000E+00  0.00000000000E+00 -0.11734337796E+04  0.13174707469E+04  0.59898441865E+03 0.  0.
        4    1    3    3  502    0  0.16663148138E+03  0.23829158685E+03 -0.42894856426E+03  0.51821560632E+03  0.12699999809E+01 0.  1.
       -4    1    3    3    0  502 -0.16663148138E+03 -0.23829158685E+03 -0.74448521536E+03  0.79925514058E+03  0.12699999809E+01 0. -1.
</event>
<event>
 5   0  0.9571790E-03  0.6001099E+03  0.7818609E-02  0.9905178E-01
       -2   -1    0    0    0  501  0.00000000000E+00  0.00000000000E+00  0.28548352529E+03  0.28548352530E+03  0.25500000920E-02 0.  1.
        2   -1    0    0  501    0  0.00000000000E+00  0.00000000000E+00 -0.31537016780E+03  0.31537016781E+03  0.25500000920E-02 0. -1.
    10030    2    1    2    0    0  0.00000000000E+00  0.00000000000E+00 -0.29886642504E+02  0.60085369311E+03  0.60010994753E+03 0.  0.
        5    1    3    3  502    0 -0.64194942607E+02 -0.30221756240E+02  0.27692533720E+03  0.28590921214E+03  0.46999998093E+01 0.  1.
       -5    1    3    3    0  502  0.64194942607E+02  0.30221756240E+02 -0.30681197970E+03  0.31494448097E+03  0.46999998093E+01 0. -1.
</event>
<event>
 5   0  0.5653633E-03  0.6001800E+03  0.7818609E-02  0.9905033E-01
       -1   -1    0    0    0  501  0.00000000000E+00  0.00000000000E+00  0.20523588781E+03  0.20523588787E+03  0.50400001928E-02 0. -1.
        1   -1    0    0  501    0  0.00000000000E+00  0.00000000000E+00 -0.43878288133E+03  0.43878288136E+03  0.50400001928E-02 0.  1.
    10030    2    1    2    0    0  0.00000000000E+00  0.00000000000E+00 -0.23354699352E+03  0.64401876923E+03  0.60017995380E+03 0.  0.
        2    1    3    3  502    0 -0.18039454642E+03  0.14562899440E+03  0.87679869366E+02  0.24786640734E+03  0.25500000920E-02 0. -1.
       -2    1    3    3    0  502  0.18039454642E+03 -0.14562899440E+03 -0.32122686288E+03  0.39615236189E+03  0.25500000920E-02 0.  1.
</event>
<event>
 5   0  0.5653633E-03  0.5994096E+03  0.7818609E-02  0.9906632E-01
        1   -1    0    0  501    0  0.00000000000E+00  0.00000000000E+00  0.51003365874E+03  0.51003365876E+03  0.50400001928E-02 0.  1.
       -1   -1    0    0    0  501  0.00000000000E+00  0.00000000000E+00 -0.17611186189E+03  0.17611186196E+03  0.50400001928E-02 0. -1.
    10030    2    1    2    0    0  0.00000000000E+00  0.00000000000E+00  0.33392179684E+03  0.68614552073E+03  0.59940963389E+03 0.  0.
        2    1    3    3  502    0 -0.13983130422E+03  0.25140961093E+03  0.26316623057E+03  0.38989235826E+03  0.25500000920E-02 0.  1.
       -2    1    3    3    0  502  0.13983130422E+03 -0.25140961093E+03  0.70755566270E+02  0.29625316247E+03  0.25500000920E-02 0. -1.
</event>
<event>
 5   0  0.5785798E-03  0.5997974E+03  0.7818609E-02  0.9905826E-01
        1   -1    0    0  501    0  0.00000000000E+00  0.00000000000E+00  0.53816909671E+03  0.53816909673E+03  0.50400001928E-02 0. -1.
       -1   -1    0    0    0  501  0.00000000000E+00  0.00000000000E+00 -0.16712076014E+03  0.16712076021E+03  0.50400001928E-02 0.  1.
    10030    2    1    2    0    0  0.00000000000E+00  0.00000000000E+00  0.37104833657E+03  0.70528985695E+03  0.59979739432E+03 0.  0.
        1    1    3    3  502    0 -0.96634022279E+02  0.64039458865E+02  0.51075664031E+03  0.52374758443E+03  0.50400001928E-02 0. -1.
       -1    1    3    3    0  502  0.96634022279E+02 -0.64039458865E+02 -0.13970830373E+03  0.18154227252E+03  0.50400001928E-02 0.  1.
</event>
<event>
 5   0  0.5574736E-03  0.6020668E+03  0.7818609E-02  0.9901127E-01
        1   -1    0    0  501    0  0.00000000000E+00  0.00000000000E+00  0.50129440324E+03  0.50129440327E+03  0.50400001928E-02 0.  1.
       -1   -1    0    0    0  501  0.00000000000E+00  0.00000000000E+00 -0.18077425469E+03  0.18077425476E+03  0.50400001928E-02 0. -1.
    10030    2    1    2    0    0  0.00000000000E+00  0.00000000000E+00  0.32052014855E+03  0.68206865803E+03  0.60206684732E+03 0.  0.
        5    1    3    3  502    0 -0.12177108241E+03  0.27521582119E+03  0.16615620609E+03  0.34380506041E+03  0.46999998093E+01 0.  1.
       -5    1    3    3    0  502  0.12177108241E+03 -0.27521582119E+03  0.15436394246E+03  0.33826359762E+03  0.46999998093E+01 0. -1.
</event>
<event>
 5   0  0.5491236E-03  0.5953767E+03  0.7818609E-02  0.9915045E-01
        1   -1    0    0  501    0  0.00000000000E+00  0.00000000000E+00  0.35650696545E+03  0.35650696548E+03  0.50400001928E-02 0. -1.
       -1   -1    0    0    0  501  0.00000000000E+00  0.00000000000E+00 -0.24857398421E+03  0.24857398426E+03  0.50400001928E-02 0.  1.
    10030    2    1    2    0    0  0.00000000000E+00  0.00000000000E+00  0.10793298124E+03  0.60508094975E+03  0.59537671042E+03 0.  0.
        3    1    3    3  502    0 -0.27207384375E+03 -0.11874700216E+03  0.31393669171E+02  0.29851398567E+03  0.10100000352E+00 0.  1.
       -3    1    3    3    0  502  0.27207384375E+03  0.11874700216E+03  0.76539312065E+02  0.30656696408E+03  0.10100000352E+00 0. -1.
</event>
<event>
 5   0  0.9866317E-03  0.6001877E+03  0.7818609E-02  0.9905017E-01
       -2   -1    0    0    0  501  0.00000000000E+00  0.00000000000E+00  0.17662907233E+03  0.17662907235E+03  0.25500000920E-02 0.  1.
        2   -1    0    0  501    0  0.00000000000E+00  0.00000000000E+00 -0.50986116409E+03  0.50986116410E+03  0.25500000920E-02 0. -1.
    10030    2    1    2    0    0  0.00000000000E+00  0.00000000000E+00 -0.33323209176E+03  0.68649023644E+03  0.60018765212E+03 0.  0.
        1    1    3    3  502    0  0.20137899716E+03  0.20123080041E+03 -0.58052291945E+02  0.29054673317E+03  0.50400001928E-02 0. -1.
       -1    1    3    3    0  502 -0.20137899716E+03 -0.20123080041E+03 -0.27517979982E+03  0.39594350327E+03  0.50400001928E-02 0.  1.
</event>
<event>
 5   0  0.5491236E-03  0.6001143E+03  0.7818609E-02  0.9905169E-01
        1   -1    0    0  501    0  0.00000000000E+00  0.00000000000E+00  0.55895592347E+03  0.55895592350E+03  0.50400001928E-02 0.  1.
       -1   -1    0    0    0  501  0.00000000000E+00  0.00000000000E+00 -0.16107583987E+03  0.16107583994E+03  0.50400001928E-02 0. -1.
    10030    2    1    2    0    0  0.00000000000E+00  0.00000000000E+00  0.39788008361E+03  0.72003176344E+03  0.60011430531E+03 0.  0.
        3    1    3    3  502    0 -0.24205636380E+03 -0.85038194860E+02  0.12246805051E+02  0.25685165422E+03  0.10100000352E+00 0. -1.
       -3    1    3    3    0  502  0.24205636380E+03  0.85038194860E+02  0.38563327856E+03  0.46318010922E+03  0.10100000352E+00 0.  1.
</event>
<event>
 5   0  0.5785798E-03  0.5970829E+03  0.7818609E-02  0.9911477E-01
        1   -1    0    0  501    0  0.00000000000E+00  0.00000000000E+00  0.37490623115E+03  0.37490623119E+03  0.50400001928E-02 0.  1.
       -1   -1    0    0    0  501  0.00000000000E+00  0.00000000000E+00 -0.23773145856E+03  0.23773145862E+03  0.50400001928E-02 0. -1.
    10030    2    1    2    0    0  0.00000000000E+00  0.00000000000E+00  0.13717477259E+03  0.61263768980E+03  0.59708292618E+03 0.  0.
        1    1    3    3  502    0 -0.87013552446E+02 -0.23523979984E+03 -0.97550190887E+02  0.26911923288E+03  0.50400001928E-02 0.  1.
       -1    1    3    3    0  502  0.87013552446E+02  0.23523979984E+03  0.23472496348E+03  0.34351845692E+03  0.50400001928E-02 0. -1.
</event>
<event>
 5   0  0.5785798E-03  0.5990473E+03  0.7818609E-02  0.9907384E-01
        1   -1    0    0  501    0  0.00000000000E+00  0.00000000000E+00  0.35288353682E+03  0.35288353686E+03  0.50400001928E-02 0. -1.
       -1   -1    0    0    0  501  0.00000000000E+00  0.00000000000E+00 -0.25423240508E+03  0.25423240513E+03  0.50400001928E-02 0.  1.
    10030    2    1    2    0    0  0.00000000000E+00  0.00000000000E+00  0.98651131745E+02  0.60711594198E+03  0.59904734472E+03 0.  0.
        1    1    3    3  502    0  0.60228661346E+02  0.49724068871E+02  0.34238194053E+03  0.35117711756E+03  0.50400001928E-02 0. -1.
       -1    1    3    3    0  502 -0.60228661346E+02 -0.49724068871E+02 -0.24373080878E+03  0.25593882442E+03  0.50400001928E-02 0.  1.
</event>
<event>
 5   0  0.5653633E-03  0.6002689E+03  0.7818609E-02  0.9904848E-01
        1   -1    0    0  501    0  0.00000000000E+00  0.00000000000E+00  0.29480746832E+03  0.29480746836E+03  0.50400001928E-02 0.  1.
       -1   -1    0    0    0  501  0.00000000000E+00  0.00000000000E+00 -0.30555769961E+03  0.30555769965E+03  0.50400001928E-02 0. -1.
    10030    2    1    2    0    0  0.00000000000E+00  0.00000000000E+00 -0.10750231290E+02  0.60036516801E+03  0.60026891265E+03 0.  0.
        2    1    3    3  502    0  0.36818637812E+02 -0.22338461773E+03 -0.20244577457E+03  0.30371136162E+03  0.25500000920E-02 0. -1.
       -2    1    3    3    0  502 -0.36818637812E+02  0.22338461773E+03  0.19169554328E+03  0.29665380640E+03  0.25500000920E-02 0.  1.
</event>
<event>
 5   0  0.5491236E-03  0.5981601E+03  0.7818609E-02  0.9909231E-01
       -1   -1    0    0    0  501  0.00000000000E+00  0.00000000000E+00  0.31214796865E+03  0.31214796869E+03  0.50400001928E-02 0. -1.
        1   -1    0    0  501    0  0.00000000000E+00  0.00000000000E+00 -0.28655917270E+03  0.28655917274E+03  0.50400001928E-02 0.  1.
    10030    2    1    2    0    0  0.00000000000E+00  0.00000000000E+00  0.25588795952E+02  0.59870714144E+03  0.59816005779E+03 0.  0.
        3    1    3    3  502    0 -0.52140085177E+02 -0.16634887647E+03  0.25603583451E+03  0.30974973114E+03  0.10100000352E+00 0. -1.
       -3    1    3    3    0  502  0.52140085177E+02  0.16634887647E+03 -0.23044703856E+03  0.28895741030E+03  0.10100000352E+00 0.  1.
</event>
<event>
 5   0  0.9866317E-03  0.6000869E+03  0.7818609E-02  0.9905226E-01
        2   -1    0    0  501    0  0.00000000000E+00  0.00000000000E+00  0.31451741581E+03  0.31451741582E+03  0.25500000920E-02 0.  1.
       -2   -1    0    0    0  501  0.00000000000E+00  0.00000000000E+00 -0.28623561719E+03  0.28623561720E+03  0.25500000920E-02 0. -1.
    10030    2    1    2    0    0  0.00000000000E+00  0.00000000000E+00  0.28281798619E+02  0.60075303302E+03  0.60008694916E+03 0.  0.
        1    1    3    3  502    0 -0.25980236003E+03  0.14472806243E+03  0.53967066041E+02  0.30225142278E+03  0.50400001928E-02 0.  1.
       -1    1    3    3    0  502  0.25980236003E+03 -0.14472806243E+03 -0.25685267422E+02  0.29850161024E+03  0.50400001928E-02 0. -1.
</event>
<event>
 5   0  0.9571790E-03  0.5998475E+03  0.7818609E-02  0.9905722E-01
       -2   -1    0    0    0  501  0.00000000000E+00  0.00000000000E+00  0.44884053422E+02  0.44884053494E+02  0.25500000920E-02 0. -1.
        2   -1    0    0  501    0  0.00000000000E+00  0.00000000000E+00 -0.20041473325E+04  0.20041473325E+04  0.25500000920E-02 0.  1.
    10030    2    1    2    0    0  0.00000000000E+00  0.00000000000E+00 -0.19592632791E+04  0.20490313860E+04  0.59984750066E+03 0.  0.
        5    1    3    3  502    0 -0.21212324588E+03 -0.63072981157E+02 -0.28831739825E+03  0.36348794275E+03  0.46999998093E+01 0. -1.
       -5    1    3    3    0  502  0.21212324588E+03  0.63072981157E+02 -0.16709458808E+04  0.16855434432E+04  0.46999998093E+01 0.  1.
</event>
<event>
 5   0  0.5491236E-03  0.5997403E+03  0.7818609E-02  0.9905945E-01
       -1   -1    0    0    0  501  0.00000000000E+00  0.00000000000E+00  0.33542401233E+03  0.33542401237E+03  0.50400001928E-02 0. -1.
        1   -1    0    0  501    0  0.00000000000E+00  0.00000000000E+00 -0.26808490964E+03  0.26808490969E+03  0.50400001928E-02 0.  1.
    10030    2    1    2    0    0  0.00000000000E+00  0.00000000000E+00  0.67339102688E+02  0.60350892206E+03  0.59974033068E+03 0.  0.
        3    1    3    3  502    0 -0.27275199792E+02  0.14840388030E+03  0.29443969315E+03  0.33085101075E+03  0.10100000352E+00 0. -1.
       -3    1    3    3    0  502  0.27275199792E+02 -0.14840388030E+03 -0.22710059046E+03  0.27265791131E+03  0.10100000352E+00 0.  1.
</event>
<event>
 5   0  0.3794375E-03  0.6027299E+03  0.7818609E-02  0.9899759E-01
       -4   -1    0    0    0  501  0.00000000000E+00  0.00000000000E+00  0.32739052917E+03  0.32739299242E+03  0.12699999809E+01 0.  1.
        4   -1    0    0  501    0  0.00000000000E+00  0.00000000000E+00 -0.27740329050E+03  0.27740619762E+03  0.12699999809E+01 0. -1.
    10030    2    1    2    0    0  0.00000000000E+00  0.00000000000E+00  0.49987238668E+02  0.60479919004E+03  0.60272990323E+03 0.  0.
        4    1    3    3  502    0 -0.56557342706E+02  0.19734064699E+03  0.24638008434E+03  0.32069740072E+03  0.12699999809E+01 0.  1.
       -4    1    3    3    0  502  0.56557342706E+02 -0.19734064699E+03 -0.19639284567E+03  0.28410178933E+03  0.12699999809E+01 0. -1.
</event>
<event>
 5   0  0.5503975E-03  0.6004577E+03  0.7818609E-02  0.9904457E-01
       -1   -1    0    0    0  501  0.00000000000E+00  0.00000000000E+00  0.14219329635E+03  0.14219329644E+03  0.50400001928E-02 0. -1.
        1   -1    0    0  501    0  0.00000000000E+00  0.00000000000E+00 -0.63390735864E+03  0.63390735866E+03  0.50400001928E-02 0.  1.
    10030    2    1    2    0    0  0.00000000000E+00  0.00000000000E+00 -0.49171406229E+03  0.77610065510E+03  0.60045774855E+03 0.  0.
        4    1    3    3  502    0 -0.22375675589E+03  0.32774258741E+02 -0.50109038098E+03  0.54975851122E+03  0.12699999809E+01 0.  1.
       -4    1    3    3    0  502  0.22375675589E+03 -0.32774258741E+02  0.93763186963E+01  0.22634214388E+03  0.12699999809E+01 0. -1.
</event>
<event>
 5   0  0.5653633E-03  0.5999732E+03  0.7818609E-02  0.9905462E-01
        1   -1    0    0  501    0  0.00000000000E+00  0.00000000000E+00  0.33200787158E+03  0.33200787162E+03  0.50400001928E-02 0. -1.
       -1   -1    0    0    0  501  0.00000000000E+00  0.00000000000E+00 -0.27105365726E+03  0.27105365730E+03  0.50400001928E-02 0.  1.
    10030    2    1    2    0    0  0.00000000000E+00  0.00000000000E+00  0.60954214321E+02  0.60306152892E+03  0.59997315891E+03 0.  0.
        2    1    3    3  502    0  0.20872925350E+03  0.20606700339E+03  0.93733051034E+02  0.30792433489E+03  0.25500000920E-02 0. -1.
       -2    1    3    3    0  502 -0.20872925350E+03 -0.20606700339E+03 -0.32778836713E+02  0.29513719403E+03  0.25500000920E-02 0.  1.
</event>
<event>
 5   0  0.5785798E-03  0.5996793E+03  0.7818609E-02  0.9906072E-01
        1   -1    0    0  501    0  0.00000000000E+00  0.00000000000E+00  0.41515334210E+03  0.41515334213E+03  0.50400001928E-02 0. -1.
       -1   -1    0    0    0  501  0.00000000000E+00  0.00000000000E+00 -0.21655566311E+03  0.21655566317E+03  0.50400001928E-02 0.  1.
    10030    2    1    2    0    0  0.00000000000E+00  0.00000000000E+00  0.19859767899E+03  0.63170900530E+03  0.59967927201E+03 0.  0.
        1    1    3    3  502    0  0.16197535714E+03 -0.20537786512E+03  0.25371517211E+03  0.36440015421E+03  0.50400001928E-02 0. -1.
       -1    1    3    3    0  502 -0.16197535714E+03  0.20537786512E+03 -0.55117493124E+02  0.26730885110E+03  0.50400001928E-02 0.  1.
</event>
<event>
 5   0  0.5491236E-03  0.5993587E+03  0.7818609E-02  0.9906737E-01
       -1   -1    0    0    0  501  0.00000000000E+00  0.00000000000E+00  0.16784462573E+03  0.16784462580E+03  0.50400001928E-02 0. -1.
        1   -1    0    0  501    0  0.00000000000E+00  0.00000000000E+00 -0.53506459654E+03  0.53506459656E+03  0.50400001928E-02 0.  1.
    10030    2    1    2    0    0  0.00000000000E+00  0.00000000000E+00 -0.36721997081E+03  0.70290922237E+03  0.59935871390E+03 0.  0.
        3    1    3    3  502    0 -0.12644526222E+03  0.12962624188E+03 -0.46364483718E+03  0.49775286254E+03  0.10100000352E+00 0.  1.
       -3    1    3    3    0  502  0.12644526222E+03 -0.12962624188E+03  0.96424866364E+02  0.20515635983E+03  0.10100000352E+00 0. -1.
</event>
<event>
 5   0  0.9571790E-03  0.5999882E+03  0.7818609E-02  0.9905430E-01
        2   -1    0    0  501    0  0.00000000000E+00  0.00000000000E+00  0.14978504940E+04  0.14978504940E+04  0.25500000920E-02 0. -1.
       -2   -1    0    0    0  501  0.00000000000E+00  0.00000000000E+00 -0.60083746479E+02  0.60083746533E+02  0.25500000920E-02 0.  1.
    10030    2    1    2    0    0  0.00000000000E+00  0.00000000000E+00  0.14377667475E+04  0.15579342405E+04  0.59998823117E+03 0.  0.
        5    1    3    3  502    0 -0.60956974480E+01 -0.21865300031E+03  0.12518404853E+04  0.12708158728E+04  0.46999998093E+01 0. -1.
       -5    1    3    3    0  502  0.60956974480E+01  0.21865300031E+03  0.18592626221E+03  0.28711836767E+03  0.46999998093E+01 0.  1.
</event>
<event>
 5   0  0.9681801E-03  0.5990485E+03  0.7818609E-02  0.9907382E-01
       -2   -1    0    0    0  501  0.00000000000E+00  0.00000000000E+00  0.27556698428E+03  0.27556698429E+03  0.25500000920E-02 0. -1.
        2   -1    0    0  501    0  0.00000000000E+00  0.00000000000E+00 -0.32556436465E+03  0.32556436466E+03  0.25500000920E-02 0.  1.
    10030    2    1    2    0    0  0.00000000000E+00  0.00000000000E+00 -0.49997380368E+02  0.60113134895E+03  0.59904854615E+03 0.  0.
        4    1    3    3  502    0 -0.21338949424E+03 -0.51960067978E-01  0.18591796095E+03  0.28302328536E+03  0.12699999809E+01 0. -1.
       -4    1    3    3    0  502  0.21338949424E+03  0.51960067978E-01 -0.23591534132E+03  0.31810806359E+03  0.12699999809E+01 0.  1.
</event>
<event>
 5   0  0.5574736E-03  0.5991981E+03  0.7818609E-02  0.9907071E-01
       -1   -1    0    0    0  501  0.00000000000E+00  0.00000000000E+00  0.27935306328E+03  0.27935306332E+03  0.50400001928E-02 0.  1.
        1   -1    0    0  501    0  0.00000000000E+00  0.00000000000E+00 -0.32131232922E+03  0.32131232926E+03  0.50400001928E-02 0. -1.
    10030    2    1    2    0    0  0.00000000000E+00  0.00000000000E+00 -0.41959265948E+02  0.60066539258E+03  0.59919807564E+03 0.  0.
        5    1    3    3  502    0  0.87685913662E+02 -0.69155573429E+02  0.25766900427E+03  0.28086779550E+03  0.46999998093E+01 0.  1.
       -5    1    3    3    0  502 -0.87685913662E+02  0.69155573429E+02 -0.29962827021E+03  0.31979759708E+03  0.46999998093E+01 0. -1.
</event>
<event>
 5   0  0.5574736E-03  0.6001138E+03  0.7818609E-02  0.9905170E-01
       -1   -1    0    0    0  501  0.00000000000E+00  0.00000000000E+00  0.32077190874E+03  0.32077190878E+03  0.50400001928E-02 0. -1.
        1   -1    0    0  501    0  0.00000000000E+00  0.00000000000E+00 -0.28067959458E+03  0.28067959462E+03  0.50400001928E-02 0.  1.
    10030    2    1    2    0    0  0.00000000000E+00  0.00000000000E+00  0.40092314163E+02  0.60145150340E+03  0.60011375362E+03 0.  0.
        5    1    3    3  502    0  0.12393403671E+03  0.26474385924E+03  0.87747333016E+02  0.30523866222E+03  0.46999998093E+01 0. -1.
       -5    1    3    3    0  502 -0.12393403671E+03 -0.26474385924E+03 -0.47655018854E+02  0.29621284118E+03  0.46999998093E+01 0.  1.
</event>
<event>
 5   0  0.9428629E-03  0.6003392E+03  0.7818609E-02  0.9904703E-01
       -2   -1    0    0    0  501  0.00000000000E+00  0.00000000000E+00  0.10263251935E+03  0.10263251938E+03  0.25500000920E-02 0.  1.
        2   -1    0    0  501    0  0.00000000000E+00  0.00000000000E+00 -0.87790673403E+03  0.87790673403E+03  0.25500000920E-02 0. -1.
    10030    2    1    2    0    0  0.00000000000E+00  0.00000000000E+00 -0.77527421468E+03  0.98053925341E+03  0.60033917042E+03 0.  0.
        3    1    3    3  502    0 -0.22668462071E+03  0.14220149589E+03 -0.60975861984E+03  0.66589245932E+03  0.10100000352E+00 0. -1.
       -3    1    3    3    0  502  0.22668462071E+03 -0.14220149589E+03 -0.16551559484E+03  0.31464679410E+03  0.10100000352E+00 0.  1.
</event>
<event>
 5   0  0.9681801E-03  0.6002966E+03  0.7818609E-02  0.9904791E-01
        2   -1    0    0  501    0  0.00000000000E+00  0.00000000000E+00  0.71335956254E+03  0.71335956255E+03  0.25500000920E-02 0. -1.
       -2   -1    0    0    0  501  0.00000000000E+00  0.00000000000E+00 -0.12628834670E+03  0.12628834673E+03  0.25500000920E-02 0.  1.
    10030    2    1    2    0    0  0.00000000000E+00  0.00000000000E+00  0.58707121584E+03  0.83964790928E+03  0.60029659260E+03 0.  0.
        4    1    3    3  502    0 -0.29381542193E+03 -0.52809101857E+02  0.33712287232E+03  0.45029961953E+03  0.12699999809E+01 0. -1.
       -4    1    3    3    0  502  0.29381542193E+03  0.52809101857E+02  0.24994834352E+03  0.38934828975E+03  0.12699999809E+01 0.  1.
</event>
<event>
 5   0  0.9681801E-03  0.6017154E+03  0.7818609E-02  0.9901854E-01
        2   -1    0    0  501    0  0.00000000000E+00  0.00000000000E+00  0.68308562813E+03  0.68308562813E+03  0.25500000920E-02 0. -1.
       -2   -1    0    0    0  501  0.00000000000E+00  0.00000000000E+00 -0.13250952614E+03  0.13250952617E+03  0.25500000920E-02 0.  1.
    10030    2    1    2    0    0  0.00000000000E+00  0.00000000000E+00  0.55057610198E+03  0.81559515430E+03  0.60171539090E+03 0.  0.
        4    1    3    3  502    0 -0.30768934064E+02  0.13168858500E+03 -0.88985534638E+02  0.16189085520E+03  0.12699999809E+01 0.  1.
       -4    1    3    3    0  502  0.30768934064E+02 -0.13168858500E+03  0.63956163662E+03  0.65370429910E+03  0.12699999809E+01 0. -1.
</event>
<event>
 5   0  0.5503975E-03  0.6006284E+03  0.7818609E-02  0.9904103E-01
       -1   -1    0    0    0  501  0.00000000000E+00  0.00000000000E+00  0.11467197666E+04  0.11467197666E+04  0.50400001928E-02 0. -1.
        1   -1    0    0  501    0  0.00000000000E+00  0.00000000000E+00 -0.78649228636E+02  0.78649228797E+02  0.50400001928E-02 0.  1.
    10030    2    1    2    0    0  0.00000000000E+00  0.00000000000E+00  0.10680705379E+04  0.12253689954E+04  0.60062842159E+03 0.  0.
        4    1    3    3  502    0  0.24881613022E+02 -0.74459660161E+02  0.11254087547E+04  0.11281444117E+04  0.12699999809E+01 0. -1.
       -4    1    3    3    0  502 -0.24881613022E+02  0.74459660161E+02 -0.57338216786E+02  0.97224583630E+02  0.12699999809E+01 0.  1.
</event>
<event>
 5   0  0.5491236E-03  0.5999724E+03  0.7818609E-02  0.9905463E-01
        1   -1    0    0  501    0  0.00000000000E+00  0.00000000000E+00  0.14125176972E+04  0.14125176972E+04  0.50400001928E-02 0.  1.
       -1   -1    0    0    0  501  0.00000000000E+00  0.00000000000E+00 -0.63710162300E+02  0.63710162499E+02  0.50400001928E-02 0. -1.
    10030    2    1    2    0    0  0.00000000000E+00  0.00000000000E+00  0.13488075349E+04  0.14762278597E+04  0.59997243901E+03 0.  0.
        3    1    3    3  502    0  0.17286425139E+03 -0.14212652590E+03  0.11659466963E+04  0.11872294250E+04  0.10100000352E+00 0.  1.
       -3    1    3    3    0  502 -0.17286425139E+03  0.14212652590E+03  0.18286083861E+03  0.28899843472E+03  0.10100000352E+00 0. -1.
</event>
<event>
 5   0  0.5785798E-03  0.5995019E+03  0.7818609E-02  0.9906440E-01
       -1   -1    0    0    0  501  0.00000000000E+00  0.00000000000E+00  0.46047810487E+02  0.46047810762E+02  0.50400001928E-02 0.  1.
        1   -1    0    0  501    0  0.00000000000E+00  0.00000000000E+00 -0.19512462932E+04  0.19512462932E+04  0.50400001928E-02 0. -1.
    10030    2    1    2    0    0  0.00000000000E+00  0.00000000000E+00 -0.19051984827E+04  0.19972941040E+04  0.59950185923E+03 0.  0.
        1    1    3    3  502    0  0.10924719992E+03 -0.11331230081E+03 -0.18024876044E+04  0.18093468966E+04  0.50400001928E-02 0. -1.
       -1    1    3    3    0  502 -0.10924719992E+03  0.11331230081E+03 -0.10271087830E+03  0.18794720735E+03  0.50400001928E-02 0.  1.
</event>
<event>
 5   0  0.9866317E-03  0.5999534E+03  0.7818609E-02  0.9905503E-01
        2   -1    0    0  501    0  0.00000000000E+00  0.00000000000E+00  0.50363792683E+03  0.50363792684E+03  0.25500000920E-02 0. -1.
       -2   -1    0    0    0  501  0.00000000000E+00  0.00000000000E+00 -0.17867202427E+03  0.17867202429E+03  0.25500000920E-02 0.  1.
    10030    2    1    2    0    0  0.00000000000E+00  0.00000000000E+00  0.32496590256E+03  0.68230995113E+03  0.59995335784E+03 0.  0.
        1    1    3    3  502    0 -0.15799023271E+03  0.21544470461E+03  0.73436165179E+01  0.26726627753E+03  0.50400001928E-02 0.  1.
       -1    1    3    3    0  502  0.15799023271E+03 -0.21544470461E+03  0.31762228604E+03  0.41504367359E+03  0.50400001928E-02 0. -1.
</event>
<event>
 5   0  0.5503975E-03  0.5998250E+03  0.7818609E-02  0.9905769E-01
        1   -1    0    0  501    0  0.00000000000E+00  0.00000000000E+00  0.27020752562E+03  0.27020752567E+03  0.50400001928E-02 0.  1.
       -1   -1    0    0    0  501  0.00000000000E+00  0.00000000000E+00 -0.33288310902E+03  0.33288310906E+03  0.50400001928E-02 0. -1.
    10030    2    1    2    0    0  0.00000000000E+00  0.00000000000E+00 -0.62675583396E+02  0.60309063473E+03  0.59982504528E+03 0.  0.
        4    1    3    3  502    0 -0.28398301684E+03  0.79864353668E+01  0.65288335870E+02  0.29150354492E+03  0.12699999809E+01 0. -1.
       -4    1    3    3    0  502  0.28398301684E+03 -0.79864353668E+01 -0.12796391927E+03  0.31158708981E+03  0.12699999809E+01 0.  1.
</event>
<event>
 5   0  0.3794375E-03  0.6004594E+03  0.7818609E-02  0.9904453E-01
        3   -1    0    0  501    0  0.00000000000E+00  0.00000000000E+00  0.37156385953E+02  0.37156523224E+02  0.10100000352E+00 0. -1.
       -3   -1    0    0    0  501  0.00000000000E+00  0.00000000000E+00 -0.24259005317E+04  0.24259005338E+04  0.10100000352E+00 0.  1.
    10030    2    1    2    0    0  0.00000000000E+00  0.00000000000E+00 -0.23887441458E+04  0.24630570570E+04  0.60045938441E+03 0.  0.
        1    1    3    3  502    0  0.56194925639E+02  0.76810223798E+02 -0.26357640687E+02  0.98754267733E+02  0.50400001928E-02 0. -1.
       -1    1    3    3    0  502 -0.56194925639E+02 -0.76810223798E+02 -0.23623865051E+04  0.23643027893E+04  0.50400001928E-02 0.  1.
</event>
<event>
 5   0  0.9428629E-03  0.5993751E+03  0.7818609E-02  0.9906703E-01
        2   -1    0    0  501    0  0.00000000000E+00  0.00000000000E+00  0.38213790658E+03  0.38213790659E+03  0.25500000920E-02 0. -1.
       -2   -1    0    0    0  501  0.00000000000E+00  0.00000000000E+00 -0.23502673097E+03  0.23502673098E+03  0.25500000920E-02 0.  1.
    10030    2    1    2    0    0  0.00000000000E+00  0.00000000000E+00  0.14711117561E+03  0.61716463757E+03  0.59937508446E+03 0.  0.
        3    1    3    3  502    0  0.23401609843E+02 -0.16373729515E+01 -0.23407985972E+03  0.23525243306E+03  0.10100000352E+00 0.  1.
       -3    1    3    3    0  502 -0.23401609843E+02  0.16373729515E+01  0.38119103533E+03  0.38191220451E+03  0.10100000352E+00 0. -1.
</event>
<event>
 5   0  0.5491236E-03  0.6119623E+03  0.7818609E-02  0.9880894E-01
       -1   -1    0    0    0  501  0.00000000000E+00  0.00000000000E+00  0.18122960493E+03  0.18122960500E+03  0.50400001928E-02 0.  1.
        1   -1    0    0  501    0  0.00000000000E+00  0.00000000000E+00 -0.51660696943E+03  0.51660696946E+03  0.50400001928E-02 0. -1.
    10030    2    1    2    0    0  0.00000000000E+00  0.00000000000E+00 -0.33537736450E+03  0.69783657446E+03  0.61196234200E+03 0.  0.
        3    1    3    3  502    0  0.25158307826E+03 -0.17359029361E+03 -0.15169029021E+03  0.34122952634E+03  0.10100000352E+00 0. -1.
       -3    1    3    3    0  502 -0.25158307826E+03  0.17359029361E+03 -0.18368707429E+03  0.35660704811E+03  0.10100000352E+00 0.  1.
</event>
<event>
 5   0  0.9428629E-03  0.5996435E+03  0.7818609E-02  0.9906146E-01
        2   -1    0    0  501    0  0.00000000000E+00  0.00000000000E+00  0.34221454103E+03  0.34221454104E+03  0.25500000920E-02 0.  1.
       -2   -1    0    0    0  501  0.00000000000E+00  0.00000000000E+00 -0.26268048977E+03  0.26268048978E+03  0.25500000920E-02 0. -1.
    10030    2    1    2    0    0  0.00000000000E+00  0.00000000000E+00  0.79534051258E+02  0.60489503082E+03  0.59964350492E+03 0.  0.
        3    1    3    3  502    0 -0.42802233545E+02 -0.26467763395E+03  0.17513161063E+03  0.32024579989E+03  0.10100000352E+00 0.  1.
       -3    1    3    3    0  502  0.42802233545E+02  0.26467763395E+03 -0.95597559370E+02  0.28464923092E+03  0.10100000352E+00 0. -1.
</event>
<event>
 5   0  0.9866317E-03  0.6007337E+03  0.7818609E-02  0.9903885E-01
       -2   -1    0    0    0  501  0.00000000000E+00  0.00000000000E+00  0.45056101995E+03  0.45056101995E+03  0.25500000920E-02 0. -1.
        2   -1    0    0  501    0  0.00000000000E+00  0.00000000000E+00 -0.20023977470E+03  0.20023977472E+03  0.25500000920E-02 0.  1.
    10030    2    1    2    0    0  0.00000000000E+00  0.00000000000E+00  0.25032124525E+03  0.65080079467E+03  0.60073367520E+03 0.  0.
        1    1    3    3  502    0  0.18855799136E+03  0.13191711544E+02  0.37805132826E+03  0.42267120103E+03  0.50400001928E-02 0. -1.
       -1    1    3    3    0  502 -0.18855799136E+03 -0.13191711544E+02 -0.12773008302E+03  0.22812959363E+03  0.50400001928E-02 0.  1.
</event>
<event>
 5   0  0.5574736E-03  0.5996658E+03  0.7818609E-02  0.9906100E-01
       -1   -1    0    0    0  501  0.00000000000E+00  0.00000000000E+00  0.24236486142E+03  0.24236486148E+03  0.50400001928E-02 0.  1.
        1   -1    0    0  501    0  0.00000000000E+00  0.00000000000E+00 -0.37092738454E+03  0.37092738458E+03  0.50400001928E-02 0. -1.
    10030    2    1    2    0    0  0.00000000000E+00  0.00000000000E+00 -0.12856252312E+03  0.61329224605E+03  0.59966578752E+03 0.  0.
        5    1    3    3  502    0  0.13343716588E+03  0.57842500360E+02  0.20383313399E+03  0.25044214621E+03  0.46999998093E+01 0.  1.
       -5    1    3    3    0  502 -0.13343716588E+03 -0.57842500360E+02 -0.33239565712E+03  0.36285009984E+03  0.46999998093E+01 0. -1.
</event>
<event>
 5   0  0.5653633E-03  0.5999097E+03  0.7818609E-02  0.9905593E-01
        1   -1    0    0  501    0  0.00000000000E+00  0.00000000000E+00  0.47645121934E+03  0.47645121937E+03  0.50400001928E-02 0. -1.
       -1   -1    0    0    0  501  0.00000000000E+00  0.00000000000E+00 -0.18883968934E+03  0.18883968940E+03  0.50400001928E-02 0.  1.
    10030    2    1    2    0    0  0.00000000000E+00  0.00000000000E+00  0.28761153000E+03  0.66529090877E+03  0.59990966078E+03 0.  0.
        2    1    3    3  502    0  0.23167936633E+03 -0.12241821138E+03  0.30569994803E+03  0.40263383551E+03  0.25500000920E-02 0. -1.
       -2    1    3    3    0  502 -0.23167936633E+03  0.12241821138E+03 -0.18088418030E+02  0.26265707326E+03  0.25500000920E-02 0.  1.
</event>
<event>
 5   0  0.9530666E-03  0.5999425E+03  0.7818609E-02  0.9905525E-01
        2   -1    0    0  501    0  0.00000000000E+00  0.00000000000E+00  0.18883388984E+04  0.18883388984E+04  0.25500000920E-02 0. -1.
       -2   -1    0    0    0  501  0.00000000000E+00  0.00000000000E+00 -0.47651795218E+02  0.47651795286E+02  0.25500000920E-02 0.  1.
    10030    2    1    2    0    0  0.00000000000E+00  0.00000000000E+00  0.18406871031E+04  0.19359906937E+04  0.59994245909E+03 0.  0.
        2    1    3    3  502    0 -0.96652372776E+02  0.24301546508E+03  0.44624887757E+03  0.51723907254E+03  0.25500000920E-02 0.  1.
       -2    1    3    3    0  502  0.96652372776E+02 -0.24301546508E+03  0.13944382256E+04  0.14187516211E+04  0.25500000920E-02 0. -1.
</event>
<event>
 5   0  0.9530666E-03  0.6078451E+03  0.7818609E-02  0.9889262E-01
       -2   -1    0    0    0  501  0.00000000000E+00  0.00000000000E+00  0.16907726518E+03  0.16907726520E+03  0.25500000920E-02 0.  1.
        2   -1    0    0  501    0  0.00000000000E+00  0.00000000000E+00 -0.54631189905E+03  0.54631189905E+03  0.25500000920E-02 0. -1.
    10030    2    1    2    0    0  0.00000000000E+00  0.00000000000E+00 -0.37723463386E+03  0.71538916426E+03  0.60784511790E+03 0.  0.
        2    1    3    3  502    0 -0.63233301523E+02 -0.28590188165E+03 -0.28445258545E+03  0.40822984914E+03  0.25500000920E-02 0. -1.
       -2    1    3    3    0  502  0.63233301523E+02  0.28590188165E+03 -0.92782048414E+02  0.30715931512E+03  0.25500000920E-02 0.  1.
</event>
<event>
 5   0  0.5785798E-03  0.6005726E+03  0.7818609E-02  0.9904219E-01
        1   -1    0    0  501    0  0.00000000000E+00  0.00000000000E+00  0.44600635384E+03  0.44600635387E+03  0.50400001928E-02 0. -1.
       -1   -1    0    0    0  501  0.00000000000E+00  0.00000000000E+00 -0.20217619860E+03  0.20217619866E+03  0.50400001928E-02 0.  1.
    10030    2    1    2    0    0  0.00000000000E+00  0.00000000000E+00  0.24383015524E+03  0.64818255253E+03  0.60057262408E+03 0.  0.
        1    1    3    3  502    0  0.97169971051E+02 -0.15371535622E+03  0.37981748306E+03  0.42110774687E+03  0.50400001928E-02 0. -1.
       -1    1    3    3    0  502 -0.97169971051E+02  0.15371535622E+03 -0.13598732782E+03  0.22707480566E+03  0.50400001928E-02 0.  1.
</event>
<event>
 5   0  0.5653633E-03  0.5986925E+03  0.7818609E-02  0.9908122E-01
       -1   -1    0    0    0  501  0.00000000000E+00  0.00000000000E+00  0.26445983546E+03  0.26445983551E+03  0.50400001928E-02 0.  1.
        1   -1    0    0  501    0  0.00000000000E+00  0.00000000000E+00 -0.33883472551E+03  0.33883472555E+03  0.50400001928E-02 0. -1.
    10030    2    1    2    0    0  0.00000000000E+00  0.00000000000E+00 -0.74374890051E+02  0.60329456106E+03  0.59869249464E+03 0.  0.
        2    1    3    3  502    0 -0.18467707390E+03 -0.14781010404E+03 -0.22204986509E+03  0.32443734538E+03  0.25500000920E-02 0. -1.
       -2    1    3    3    0  502  0.18467707390E+03  0.14781010404E+03  0.14767497504E+03  0.27885721569E+03  0.25500000920E-02 0.  1.
</event>
<event>
 5   0  0.9866317E-03  0.6000338E+03  0.7818609E-02  0.9905336E-01
        2   -1    0    0  501    0  0.00000000000E+00  0.00000000000E+00  0.81089936994E+02  0.81089937034E+02  0.25500000920E-02 0.  1.
       -2   -1    0    0    0  501  0.00000000000E+00  0.00000000000E+00 -0.11100037606E+04  0.11100037606E+04  0.25500000920E-02 0. -1.
    10030    2    1    2    0    0  0.00000000000E+00  0.00000000000E+00 -0.10289138236E+04  0.11910936976E+04  0.60003378249E+03 0.  0.
        1    1    3    3  502    0  0.42275523886E+01  0.71290806253E+02 -0.10928849648E+04  0.10952158681E+04  0.50400001928E-02 0. -1.
       -1    1    3    3    0  502 -0.42275523886E+01 -0.71290806253E+02  0.63971141274E+02  0.95877829536E+02  0.50400001928E-02 0.  1.
</event>
<event>
 5   0  0.5503975E-03  0.6007107E+03  0.7818609E-02  0.9903933E-01
       -1   -1    0    0    0  501  0.00000000000E+00  0.00000000000E+00  0.18149286717E+03  0.18149286724E+03  0.50400001928E-02 0. -1.
        1   -1    0    0  501    0  0.00000000000E+00  0.00000000000E+00 -0.49706278929E+03  0.49706278932E+03  0.50400001928E-02 0.  1.
    10030    2    1    2    0    0  0.00000000000E+00  0.00000000000E+00 -0.31556992212E+03  0.67855565656E+03  0.60071074845E+03 0.  0.
        4    1    3    3  502    0 -0.87628019626E+02  0.10530444322E+03 -0.45971274679E+03  0.47969273295E+03  0.12699999809E+01 0.  1.
       -4    1    3    3    0  502  0.87628019626E+02 -0.10530444322E+03  0.14414282466E+03  0.19886292361E+03  0.12699999809E+01 0. -1.
</event>
<event>
 5   0  0.9866317E-03  0.5999003E+03  0.7818609E-02  0.9905613E-01
       -2   -1    0    0    0  501  0.00000000000E+00  0.00000000000E+00  0.14897400153E+03  0.14897400155E+03  0.25500000920E-02 0.  1.
        2   -1    0    0  501    0  0.00000000000E+00  0.00000000000E+00 -0.60393147882E+03  0.60393147882E+03  0.25500000920E-02 0. -1.
    10030    2    1    2    0    0  0.00000000000E+00  0.00000000000E+00 -0.45495747729E+03  0.75290548037E+03  0.59990028857E+03 0.  0.
        1    1    3    3  502    0 -0.55899462533E+02  0.14563107580E+02  0.14192705595E+03  0.15323225264E+03  0.50400001928E-02 0.  1.
       -1    1    3    3    0  502  0.55899462533E+02 -0.14563107580E+02 -0.59688453324E+03  0.59967322773E+03  0.50400001928E-02 0. -1.
</event>
<event>
 5   0  0.5785798E-03  0.6000201E+03  0.7818609E-02  0.9905364E-01
        1   -1    0    0  501    0  0.00000000000E+00  0.00000000000E+00  0.27199647788E+03  0.27199647792E+03  0.50400001928E-02 0. -1.
       -1   -1    0    0    0  501  0.00000000000E+00  0.00000000000E+00 -0.33090881436E+03  0.33090881440E+03  0.50400001928E-02 0.  1.
    10030    2    1    2    0    0  0.00000000000E+00  0.00000000000E+00 -0.58912336484E+02  0.60290529233E+03  0.60002010643E+03 0.  0.
        1    1    3    3  502    0  0.23042604448E+03 -0.12833774315E+03 -0.17310967588E+03  0.31548961662E+03  0.50400001928E-02 0.  1.
       -1    1    3    3    0  502 -0.23042604448E+03  0.12833774315E+03  0.11419733939E+03  0.28741567570E+03  0.50400001928E-02 0. -1.
</event>
<event>
 5   0  0.9681801E-03  0.5994982E+03  0.7818609E-02  0.9906448E-01
        2   -1    0    0  501    0  0.00000000000E+00  0.00000000000E+00  0.88737754989E+03  0.88737754990E+03  0.25500000920E-02 0.  1.
       -2   -1    0    0    0  501  0.00000000000E+00  0.00000000000E+00 -0.10125288290E+03  0.10125288293E+03  0.25500000920E-02 0. -1.
    10030    2    1    2    0    0  0.00000000000E+00  0.00000000000E+00  0.78612466699E+03  0.98863043283E+03  0.59949824075E+03 0.  0.
        4    1    3    3  502    0 -0.72936891799E+02 -0.25508920443E+03  0.62309580365E+03  0.67722986188E+03  0.12699999809E+01 0.  1.
       -4    1    3    3    0  502  0.72936891799E+02  0.25508920443E+03  0.16302886334E+03  0.31140057095E+03  0.12699999809E+01 0. -1.
</event>
<event>
 5   0  0.5574736E-03  0.6025532E+03  0.7818609E-02  0.9900123E-01
       -1   -1    0    0    0  501  0.00000000000E+00  0.00000000000E+00  0.18077239426E+03  0.18077239433E+03  0.50400001928E-02 0.  1.
        1   -1    0    0  501    0  0.00000000000E+00  0.00000000000E+00 -0.50210975177E+03  0.50210975179E+03  0.50400001928E-02 0. -1.
    10030    2    1    2    0    0  0.00000000000E+00  0.00000000000E+00 -0.32133735751E+03  0.68288214612E+03  0.60255317455E+03 0.  0.
        5    1    3    3  502    0 -0.74395134880E+02  0.29177872370E+03 -0.15078657136E+03  0.33679094376E+03  0.46999998093E+01 0. -1.
       -5    1    3    3    0  502  0.74395134880E+02 -0.29177872370E+03 -0.17055078615E+03  0.34609120236E+03  0.46999998093E+01 0.  1.
</event>
<event>
 5   0  0.9428629E-03  0.6000841E+03  0.7818609E-02  0.9905232E-01
       -2   -1    0    0    0  501  0.00000000000E+00  0.00000000000E+00  0.60882834027E+02  0.60882834081E+02  0.25500000920E-02 0.  1.
        2   -1    0    0  501    0  0.00000000000E+00  0.00000000000E+00 -0.14786633916E+04  0.14786633916E+04  0.25500000920E-02 0. -1.
    10030    2    1    2    0    0  0.00000000000E+00  0.00000000000E+00 -0.14177805576E+04  0.15395462257E+04  0.60008405377E+03 0.  0.
        3    1    3    3  502    0 -0.17518222775E+03 -0.15713247771E+03 -0.23135461243E+03  0.33000665957E+03  0.10100000352E+00 0.  1.
       -3    1    3    3    0  502  0.17518222775E+03  0.15713247771E+03 -0.11864259452E+04  0.12095395661E+04  0.10100000352E+00 0. -1.
</event>
<event>
 5   0  0.9530666E-03  0.5991566E+03  0.7818609E-02  0.9907157E-01
        2   -1    0    0  501    0  0.00000000000E+00  0.00000000000E+00  0.22737803586E+04  0.22737803586E+04  0.25500000920E-02 0.  1.
       -2   -1    0    0    0  501  0.00000000000E+00  0.00000000000E+00 -0.39470453888E+02  0.39470453970E+02  0.25500000920E-02 0. -1.
    10030    2    1    2    0    0  0.00000000000E+00  0.00000000000E+00  0.22343099047E+04  0.23132508126E+04  0.59915655013E+03 0.  0.
        2    1    3    3  502    0 -0.12223477749E+03 -0.35442764168E+02  0.70092450872E+02  0.14529446664E+03  0.25500000920E-02 0. -1.
       -2    1    3    3    0  502  0.12223477749E+03  0.35442764168E+02  0.21642174538E+04  0.21679563459E+04  0.25500000920E-02 0.  1.
</event>
<event>
 5   0  0.9866317E-03  0.5998941E+03  0.7818609E-02  0.9905626E-01
       -2   -1    0    0    0  501  0.00000000000E+00  0.00000000000E+00  0.26819135063E+03  0.26819135065E+03  0.25500000920E-02 0. -1.
        2   -1    0    0  501    0  0.00000000000E+00  0.00000000000E+00 -0.33546284408E+03  0.33546284409E+03  0.25500000920E-02 0.  1.
    10030    2    1    2    0    0  0.00000000000E+00  0.00000000000E+00 -0.67271493445E+02  0.60365419473E+03  0.59989410148E+03 0.  0.
        1    1    3    3  502    0  0.24850831275E+02 -0.28255542501E+03 -0.13178221797E+03  0.31276458402E+03  0.50400001928E-02 0.  1.
       -1    1    3    3    0  502 -0.24850831275E+02  0.28255542501E+03  0.64510724529E+02  0.29088961071E+03  0.50400001928E-02 0. -1.
</event>
<event>
 5   0  0.5653633E-03  0.6006483E+03  0.7818609E-02  0.9904062E-01
       -1   -1    0    0    0  501  0.00000000000E+00  0.00000000000E+00  0.28577167434E+03  0.28577167438E+03  0.50400001928E-02 0. -1.
        1   -1    0    0  501    0  0.00000000000E+00  0.00000000000E+00 -0.31561773497E+03  0.31561773501E+03  0.50400001928E-02 0.  1.
    10030    2    1    2    0    0  0.00000000000E+00  0.00000000000E+00 -0.29846060632E+02  0.60138940940E+03  0.60064834504E+03 0.  0.
        2    1    3    3  502    0 -0.17715310463E+03 -0.80668460103E+02 -0.24390584163E+03  0.31205878056E+03  0.25500000920E-02 0.  1.
       -2    1    3    3    0  502  0.17715310463E+03  0.80668460103E+02  0.21405978100E+03  0.28933062884E+03  0.25500000920E-02 0. -1.
</event>
<event>
 5   0  0.9530666E-03  0.6001958E+03  0.7818609E-02  0.9905000E-01
        2   -1    0    0  501    0  0.00000000000E+00  0.00000000000E+00  0.27831948149E+03  0.27831948150E+03  0.25500000920E-02 0. -1.
       -2   -1    0    0    0  501  0.00000000000E+00  0.00000000000E+00 -0.32358051137E+03  0.32358051138E+03  0.25500000920E-02 0.  1.
    10030    2    1    2    0    0  0.00000000000E+00  0.00000000000E+00 -0.45261029873E+02  0.60189999288E+03  0.60019583521E+03 0.  0.
        2    1    3    3  502    0  0.42200754484E+02 -0.21806530119E+03 -0.22500881241E+03  0.31616822252E+03  0.25500000920E-02 0.  1.
       -2    1    3    3    0  502 -0.42200754484E+02  0.21806530119E+03  0.17974778254E+03  0.28573177036E+03  0.25500000920E-02 0. -1.
</event>
<event>
 5   0  0.5491236E-03  0.5996930E+03  0.7818609E-02  0.9906043E-01
        1   -1    0    0  501    0  0.00000000000E+00  0.00000000000E+00  0.35639263347E+03  0.35639263351E+03  0.50400001928E-02 0.  1.
       -1   -1    0    0    0  501  0.00000000000E+00  0.00000000000E+00 -0.25227215520E+03  0.25227215525E+03  0.50400001928E-02 0. -1.
    10030    2    1    2    0    0  0.00000000000E+00  0.00000000000E+00  0.10412047827E+03  0.60866478876E+03  0.59969304738E+03 0.  0.
        3    1    3    3  502    0 -0.13087976934E+03  0.17203327498E+03  0.26297423424E+03  0.34041213227E+03  0.10100000352E+00 0.  1.
       -3    1    3    3    0  502  0.13087976934E+03 -0.17203327498E+03 -0.15885375597E+03  0.26825265648E+03  0.10100000352E+00 0. -1.
</event>
<event>
 5   0  0.5503975E-03  0.6139324E+03  0.7818609E-02  0.9876915E-01
       -1   -1    0    0    0  501  0.00000000000E+00  0.00000000000E+00  0.89357459262E+02  0.89357459404E+02  0.50400001928E-02 0. -1.
        1   -1    0    0  501    0  0.00000000000E+00  0.00000000000E+00 -0.10545091232E+04  0.10545091232E+04  0.50400001928E-02 0.  1.
    10030    2    1    2    0    0  0.00000000000E+00  0.00000000000E+00 -0.96515166393E+03  0.11438665826E+04  0.61393242659E+03 0.  0.
        4    1    3    3  502    0  0.13040376135E+03  0.10100900075E+03 -0.23642193247E+00  0.16495341161E+03  0.12699999809E+01 0. -1.
       -4    1    3    3    0  502 -0.13040376135E+03 -0.10100900075E+03 -0.96491524200E+03  0.97891317100E+03  0.12699999809E+01 0.  1.
</event>
<event>
 5   0  0.5653633E-03  0.5988794E+03  0.7818609E-02  0.9907734E-01
        1   -1    0    0  501    0  0.00000000000E+00  0.00000000000E+00  0.39587981817E+03  0.39587981820E+03  0.50400001928E-02 0.  1.
       -1   -1    0    0    0  501  0.00000000000E+00  0.00000000000E+00 -0.22649334358E+03  0.22649334363E+03  0.50400001928E-02 0. -1.
    10030    2    1    2    0    0  0.00000000000E+00  0.00000000000E+00  0.16938647459E+03  0.62237316184E+03  0.59887943261E+03 0.  0.
        2    1    3    3  502    0  0.24247572156E+03  0.17486939119E+03  0.10240178605E+03  0.31600617924E+03  0.25500000920E-02 0. -1.
       -2    1    3    3    0  502 -0.24247572156E+03 -0.17486939119E+03  0.66984688546E+02  0.30636698260E+03  0.25500000920E-02 0.  1.
</event>
<event>
 5   0  0.5574736E-03  0.5988578E+03  0.7818609E-02  0.9907779E-01
       -1   -1    0    0    0  501  0.00000000000E+00  0.00000000000E+00  0.12383490577E+03  0.12383490587E+03  0.50400001928E-02 0.  1.
        1   -1    0    0  501    0  0.00000000000E+00  0.00000000000E+00 -0.72400953141E+03  0.72400953143E+03  0.50400001928E-02 0. -1.
    10030    2    1    2    0    0  0.00000000000E+00  0.00000000000E+00 -0.60017462564E+03  0.84784443730E+03  0.59885775323E+03 0.  0.
        5    1    3    3  502    0  0.17890814194E+03 -0.14579399806E+03 -0.57009330180E+03  0.61505485599E+03  0.46999998093E+01 0. -1.
       -5    1    3    3    0  502 -0.17890814194E+03  0.14579399806E+03 -0.30081323834E+02  0.23278958131E+03  0.46999998093E+01 0.  1.
</event>
<event>
 5   0  0.9428629E-03  0.5978414E+03  0.7818609E-02  0.9909895E-01
        2   -1    0    0  501    0  0.00000000000E+00  0.00000000000E+00  0.90025205242E+03  0.90025205242E+03  0.25500000920E-02 0.  1.
       -2   -1    0    0    0  501  0.00000000000E+00  0.00000000000E+00 -0.99253957351E+02  0.99253957384E+02  0.25500000920E-02 0. -1.
    10030    2    1    2    0    0  0.00000000000E+00  0.00000000000E+00  0.80099809507E+03  0.99950600980E+03  0.59784137974E+03 0.  0.
        3    1    3    3  502    0 -0.90333889542E+02 -0.62712096320E+02 -0.64207012519E+02  0.12734036784E+03  0.10100000352E+00 0. -1.
       -3    1    3    3    0  502  0.90333889542E+02  0.62712096320E+02  0.86520510759E+03  0.87216564196E+03  0.10100000352E+00 0.  1.
</event>
<event>
 5   0  0.9681801E-03  0.5999065E+03  0.7818609E-02  0.9905600E-01
        2   -1    0    0  501    0  0.00000000000E+00  0.00000000000E+00  0.20220051345E+04  0.20220051345E+04  0.25500000920E-02 0.  1.
       -2   -1    0    0    0  501  0.00000000000E+00  0.00000000000E+00 -0.44496405606E+02  0.44496405679E+02  0.25500000920E-02 0. -1.
    10030    2    1    2    0    0  0.00000000000E+00  0.00000000000E+00  0.19775087289E+04  0.20665015402E+04  0.59990652832E+03 0.  0.
        4    1    3    3  502    0  0.27825383977E+02  0.29340027706E+03  0.79657888236E+03  0.84935122494E+03  0.12699999809E+01 0. -1.
       -4    1    3    3    0  502 -0.27825383977E+02 -0.29340027706E+03  0.11809298465E+04  0.12171503152E+04  0.12699999809E+01 0.  1.
</event>
<event>
 5   0  0.9571790E-03  0.6004599E+03  0.7818609E-02  0.9904452E-01
        2   -1    0    0  501    0  0.00000000000E+00  0.00000000000E+00  0.54195031530E+03  0.54195031531E+03  0.25500000920E-02 0. -1.
       -2   -1    0    0    0  501  0.00000000000E+00  0.00000000000E+00 -0.16632158523E+03  0.16632158525E+03  0.25500000920E-02 0.  1.
    10030    2    1    2    0    0  0.00000000000E+00  0.00000000000E+00  0.37562873007E+03  0.70827190056E+03  0.60045994227E+03 0.  0.
        5    1    3    3  502    0 -0.19819599255E+03 -0.19318494013E+03  0.32493597033E+03  0.42685776011E+03  0.46999998093E+01 0. -1.
       -5    1    3    3    0  502  0.19819599255E+03  0.19318494013E+03  0.50692759734E+02  0.28141414045E+03  0.46999998093E+01 0.  1.
</event>
<event>
 5   0  0.5653633E-03  0.5995358E+03  0.7818609E-02  0.9906370E-01
       -1   -1    0    0    0  501  0.00000000000E+00  0.00000000000E+00  0.52989027607E+03  0.52989027609E+03  0.50400001928E-02 0.  1.
        1   -1    0    0  501    0  0.00000000000E+00  0.00000000000E+00 -0.16958375680E+03  0.16958375687E+03  0.50400001928E-02 0. -1.
    10030    2    1    2    0    0  0.00000000000E+00  0.00000000000E+00  0.36030651927E+03  0.69947403296E+03  0.59953576621E+03 0.  0.
        2    1    3    3  502    0  0.27352707821E+03  0.49442301885E+02  0.49196584511E+02  0.28227983928E+03  0.25500000920E-02 0. -1.
       -2    1    3    3    0  502 -0.27352707821E+03 -0.49442301885E+02  0.31110993476E+03  0.41719419368E+03  0.25500000920E-02 0.  1.
</event>
<event>
 5   0  0.3794375E-03  0.6001820E+03  0.7818609E-02  0.9905029E-01
        4   -1    0    0  501    0  0.00000000000E+00  0.00000000000E+00  0.13658469626E+04  0.13658475531E+04  0.12699999809E+01 0.  1.
       -4   -1    0    0    0  501  0.00000000000E+00  0.00000000000E+00 -0.65926432340E+02  0.65938663780E+02  0.12699999809E+01 0. -1.
    10030    2    1    2    0    0  0.00000000000E+00  0.00000000000E+00  0.12999205303E+04  0.14317862168E+04  0.60018196048E+03 0.  0.
        1    1    3    3  502    0 -0.14585424281E+03  0.77069528437E+02  0.12479837625E+04  0.12588394035E+04  0.50400001928E-02 0.  1.
       -1    1    3    3    0  502  0.14585424281E+03 -0.77069528437E+02  0.51936767758E+02  0.17294681330E+03  0.50400001928E-02 0. -1.
</event>
<event>
 5   0  0.5574736E-03  0.5959506E+03  0.7818609E-02  0.9913843E-01
        1   -1    0    0  501    0  0.00000000000E+00  0.00000000000E+00  0.29734444972E+03  0.29734444976E+03  0.50400001928E-02 0. -1.
       -1   -1    0    0    0  501  0.00000000000E+00  0.00000000000E+00 -0.29860745639E+03  0.29860745643E+03  0.50400001928E-02 0.  1.
    10030    2    1    2    0    0  0.00000000000E+00  0.00000000000E+00 -0.12630066705E+01  0.59595190620E+03  0.59595056785E+03 0.  0.
        5    1    3    3  502    0 -0.25879278928E+03 -0.76086513761E+02 -0.12713994713E+03  0.29824406367E+03  0.46999998093E+01 0.  1.
       -5    1    3    3    0  502  0.25879278928E+03  0.76086513761E+02  0.12587694046E+03  0.29770784252E+03  0.46999998093E+01 0. -1.
</event>
<event>
 5   0  0.5574736E-03  0.5999838E+03  0.7818609E-02  0.9905440E-01
       -1   -1    0    0    0  501  0.00000000000E+00  0.00000000000E+00  0.16893143057E+03  0.16893143064E+03  0.50400001928E-02 0. -1.
        1   -1    0    0  501    0  0.00000000000E+00  0.00000000000E+00 -0.53273171844E+03  0.53273171846E+03  0.50400001928E-02 0.  1.
    10030    2    1    2    0    0  0.00000000000E+00  0.00000000000E+00 -0.36380028787E+03  0.70166314910E+03  0.59998377091E+03 0.  0.
        5    1    3    3  502    0  0.15479724170E+03 -0.21521984624E+03 -0.34600674957E+03  0.43591803014E+03  0.46999998093E+01 0.  1.
       -5    1    3    3    0  502 -0.15479724170E+03  0.21521984624E+03 -0.17793538301E+02  0.26574511897E+03  0.46999998093E+01 0. -1.
</event>
<event>
 5   0  0.5503975E-03  0.6026815E+03  0.7818609E-02  0.9899858E-01
       -1   -1    0    0    0  501  0.00000000000E+00  0.00000000000E+00  0.34168698435E+03  0.34168698439E+03  0.50400001928E-02 0. -1.
        1   -1    0    0  501    0  0.00000000000E+00  0.00000000000E+00 -0.26575855708E+03  0.26575855713E+03  0.50400001928E-02 0.  1.
    10030    2    1    2    0    0  0.00000000000E+00  0.00000000000E+00  0.75928427273E+02  0.60744554151E+03  0.60268147461E+03 0.  0.
        4    1    3    3  502    0  0.13299054839E+03  0.37039205677E+01  0.31047979004E+03  0.33778620148E+03  0.12699999809E+01 0. -1.
       -4    1    3    3    0  502 -0.13299054839E+03 -0.37039205677E+01 -0.23455136277E+03  0.26965934003E+03  0.12699999809E+01 0.  1.
</event>
<event>
 5   0  0.5785798E-03  0.6000013E+03  0.7818609E-02  0.9905403E-01
        1   -1    0    0  501    0  0.00000000000E+00  0.00000000000E+00  0.17194739816E+04  0.17194739816E+04  0.50400001928E-02 0.  1.
       -1   -1    0    0    0  501  0.00000000000E+00  0.00000000000E+00 -0.52341823918E+02  0.52341824161E+02  0.50400001928E-02 0. -1.
    10030    2    1    2    0    0  0.00000000000E+00  0.00000000000E+00  0.16671321577E+04  0.17718158058E+04  0.60000134866E+03 0.  0.
        1    1    3    3  502    0  0.10313427583E+03 -0.25436677935E+03  0.11911286905E+04  0.12223447527E+04  0.50400001928E-02 0.  1.
       -1    1    3    3    0  502 -0.10313427583E+03  0.25436677935E+03  0.47600346724E+03  0.54947105305E+03  0.50400001928E-02 0. -1.
</event>
<event>
 5   0  0.9681801E-03  0.5979289E+03  0.7818609E-02  0.9909712E-01
       -2   -1    0    0    0  501  0.00000000000E+00  0.00000000000E+00  0.94068365968E+02  0.94068366003E+02  0.25500000920E-02 0.  1.
        2   -1    0    0  501    0  0.00000000000E+00  0.00000000000E+00 -0.95015714724E+03  0.95015714724E+03  0.25500000920E-02 0. -1.
    10030    2    1    2    0    0  0.00000000000E+00  0.00000000000E+00 -0.85608878127E+03  0.10442255132E+04  0.59792885956E+03 0.  0.
        4    1    3    3  502    0 -0.25154187540E+02 -0.22904760443E+03 -0.95389540401E+02  0.24939189153E+03  0.12699999809E+01 0.  1.
       -4    1    3    3    0  502  0.25154187540E+02  0.22904760443E+03 -0.76069924087E+03  0.79483362171E+03  0.12699999809E+01 0. -1.
</event>
<event>
 5   0  0.9571790E-03  0.6000860E+03  0.7818609E-02  0.9905228E-01
       -2   -1    0    0    0  501  0.00000000000E+00  0.00000000000E+00  0.40486681133E+02  0.40486681214E+02  0.25500000920E-02 0.  1.
        2   -1    0    0  501    0  0.00000000000E+00  0.00000000000E+00 -0.22235908793E+04  0.22235908793E+04  0.25500000920E-02 0. -1.
    10030    2    1    2    0    0  0.00000000000E+00  0.00000000000E+00 -0.21831041981E+04  0.22640775605E+04  0.60008604381E+03 0.  0.
        5    1    3    3  502    0  0.22316740240E+03 -0.15987553074E+03 -0.15480576786E+04  0.15722177142E+04  0.46999998093E+01 0. -1.
       -5    1    3    3    0  502 -0.22316740240E+03  0.15987553074E+03 -0.63504651958E+03  0.69185984625E+03  0.46999998093E+01 0.  1.
</event>
<event>
 5   0  0.5574736E-03  0.6003464E+03  0.7818609E-02  0.9904688E-01
       -1   -1    0    0    0  501  0.00000000000E+00  0.00000000000E+00  0.13686936526E+03  0.13686936535E+03  0.50400001928E-02 0. -1.
        1   -1    0    0  501    0  0.00000000000E+00  0.00000000000E+00 -0.65832082557E+03  0.65832082559E+03  0.50400001928E-02 0.  1.
    10030    2    1    2    0    0  0.00000000000E+00  0.00000000000E+00 -0.52145146031E+03  0.79519019094E+03  0.60034641191E+03 0.  0.
        5    1    3    3  502    0 -0.36961748813E+02  0.42489269583E+02 -0.65121118001E+03  0.65365862641E+03  0.46999998093E+01 0.  1.
       -5    1    3    3    0  502  0.36961748813E+02 -0.42489269583E+02  0.12975971970E+03  0.14153156453E+03  0.46999998093E+01 0. -1.
</event>
<event>
 5   0  0.9866317E-03  0.5996752E+03  0.7818609E-02  0.9906080E-01
       -2   -1    0    0    0  501  0.00000000000E+00  0.00000000000E+00  0.69346199998E+03  0.69346199998E+03  0.25500000920E-02 0.  1.
        2   -1    0    0  501    0  0.00000000000E+00  0.00000000000E+00 -0.12964312732E+03  0.12964312734E+03  0.25500000920E-02 0. -1.
    10030    2    1    2    0    0  0.00000000000E+00  0.00000000000E+00  0.56381887266E+03  0.82310512732E+03  0.59967518663E+03 0.  0.
        1    1    3    3  502    0 -0.26335415129E+02 -0.29783219757E+03  0.31275476217E+03  0.43268130684E+03  0.50400001928E-02 0.  1.
       -1    1    3    3    0  502  0.26335415129E+02  0.29783219757E+03  0.25106411049E+03  0.39042382048E+03  0.50400001928E-02 0. -1.
</event>
<event>
 5   0  0.9530666E-03  0.5993689E+03  0.7818609E-02  0.9906716E-01
        2   -1    0    0  501    0  0.00000000000E+00  0.00000000000E+00  0.24829554383E+04  0.24829554384E+04  0.25500000920E-02 0.  1.
       -2   -1    0    0    0  501  0.00000000000E+00  0.00000000000E+00 -0.36170912004E+02  0.36170912094E+02  0.25500000920E-02 0. -1.
    10030    2    1    2    0    0  0.00000000000E+00  0.00000000000E+00  0.24467845263E+04  0.25191263504E+04  0.59936887735E+03 0.  0.
        2    1    3    3  502    0 -0.15509104548E+03 -0.40476141373E+02  0.15912708653E+03  0.22586053237E+03  0.25500000920E-02 0. -1.
       -2    1    3    3    0  502  0.15509104548E+03  0.40476141373E+02  0.22876574398E+04  0.22932658181E+04  0.25500000920E-02 0.  1.
</event>
<event>
 5   0  0.9530666E-03  0.6002556E+03  0.7818609E-02  0.9904876E-01
       -2   -1    0    0    0  501  0.00000000000E+00  0.00000000000E+00  0.23677268429E+03  0.23677268431E+03  0.25500000920E-02 0. -1.
        2   -1    0    0  501    0  0.00000000000E+00  0.00000000000E+00 -0.38043537778E+03  0.38043537779E+03  0.25500000920E-02 0.  1.
    10030    2    1    2    0    0  0.00000000000E+00  0.00000000000E+00 -0.14366269349E+03  0.61720806210E+03  0.60025563089E+03 0.  0.
        2    1    3    3  502    0 -0.62310518068E+02 -0.27046748479E+03 -0.18925570572E+03  0.33593598072E+03  0.25500000920E-02 0.  1.
       -2    1    3    3    0  502  0.62310518068E+02  0.27046748479E+03  0.45593012236E+02  0.28127208137E+03  0.25500000920E-02 0. -1.
</event>
<event>
 5   0  0.5503975E-03  0.6002592E+03  0.7818609E-02  0.9904869E-01
        1   -1    0    0  501    0  0.00000000000E+00  0.00000000000E+00  0.47338009199E+03  0.47338009202E+03  0.50400001928E-02 0. -1.
       -1   -1    0    0    0  501  0.00000000000E+00  0.00000000000E+00 -0.19028633746E+03  0.19028633753E+03  0.50400001928E-02 0.  1.
    10030    2    1    2    0    0  0.00000000000E+00  0.00000000000E+00  0.28309375453E+03  0.66366642955E+03  0.60025915725E+03 0.  0.
        4    1    3    3  502    0  0.17195078503E+02  0.46138002645E+02  0.46888108181E+03  0.47146099286E+03  0.12699999809E+01 0. -1.
       -4    1    3    3    0  502 -0.17195078503E+02 -0.46138002645E+02 -0.18578732728E+03  0.19220543669E+03  0.12699999809E+01 0.  1.
</event>
<event>
 5   0  0.5785798E-03  0.6022284E+03  0.7818609E-02  0.9900793E-01
        1   -1    0    0  501    0  0.00000000000E+00  0.00000000000E+00  0.11827205509E+03  0.11827205520E+03  0.50400001928E-02 0. -1.
       -1   -1    0    0    0  501  0.00000000000E+00  0.00000000000E+00 -0.76662044981E+03  0.76662044983E+03  0.50400001928E-02 0.  1.
    10030    2    1    2    0    0  0.00000000000E+00  0.00000000000E+00 -0.64834839471E+03  0.88489250503E+03  0.60222844878E+03 0.  0.
        1    1    3    3  502    0 -0.99544785406E+02  0.22344365793E+03 -0.66161565568E+02  0.25340399632E+03  0.50400001928E-02 0. -1.
       -1    1    3    3    0  502  0.99544785406E+02 -0.22344365793E+03 -0.58218682915E+03  0.63148850870E+03  0.50400001928E-02 0.  1.
</event>
<event>
 5   0  0.9571790E-03  0.5987009E+03  0.7818609E-02  0.9908105E-01
        2   -1    0    0  501    0  0.00000000000E+00  0.00000000000E+00  0.49821055811E+03  0.49821055812E+03  0.25500000920E-02 0. -1.
       -2   -1    0    0    0  501  0.00000000000E+00  0.00000000000E+00 -0.17986509525E+03  0.17986509527E+03  0.25500000920E-02 0.  1.
    10030    2    1    2    0    0  0.00000000000E+00  0.00000000000E+00  0.31834546286E+03  0.67807565339E+03  0.59870089193E+03 0.  0.
        5    1    3    3  502    0 -0.10332169567E+03 -0.21104799802E+03 -0.50803652910E+02  0.24045733803E+03  0.46999998093E+01 0.  1.
       -5    1    3    3    0  502  0.10332169567E+03  0.21104799802E+03  0.36914911577E+03  0.43761831536E+03  0.46999998093E+01 0. -1.
</event>
<event>
 5   0  0.5574736E-03  0.6026636E+03  0.7818609E-02  0.9899895E-01
        1   -1    0    0  501    0  0.00000000000E+00  0.00000000000E+00  0.23925954540E+03  0.23925954545E+03  0.50400001928E-02 0.  1.
       -1   -1    0    0    0  501  0.00000000000E+00  0.00000000000E+00 -0.37950773103E+03  0.37950773107E+03  0.50400001928E-02 0. -1.
    10030    2    1    2    0    0  0.00000000000E+00  0.00000000000E+00 -0.14024818564E+03  0.61876727652E+03  0.60266357855E+03 0.  0.
        5    1    3    3  502    0 -0.19401824498E+03 -0.16691015385E+03 -0.23335875818E+03  0.34638198403E+03  0.46999998093E+01 0. -1.
       -5    1    3    3    0  502  0.19401824498E+03  0.16691015385E+03  0.93110572544E+02  0.27238529248E+03  0.46999998093E+01 0.  1.
</event>
<event>
 5   0  0.9530666E-03  0.6001038E+03  0.7818609E-02  0.9905191E-01
       -2   -1    0    0    0  501  0.00000000000E+00  0.00000000000E+00  0.77145832184E+02  0.77145832226E+02  0.25500000920E-02 0. -1.
        2   -1    0    0  501    0  0.00000000000E+00  0.00000000000E+00 -0.11670254070E+04  0.11670254070E+04  0.25500000920E-02 0.  1.
    10030    2    1    2    0    0  0.00000000000E+00  0.00000000000E+00 -0.10898795749E+04  0.12441712393E+04  0.60010381180E+03 0.  0.
        2    1    3    3  502    0 -0.10798700938E+03  0.12771918052E+03 -0.28461783157E+02  0.16965687836E+03  0.25500000920E-02 0. -1.
       -2    1    3    3    0  502  0.10798700938E+03 -0.12771918052E+03 -0.10614177917E+04  0.10745143609E+04  0.25500000920E-02 0.  1.
</event>
<event>
 5   0  0.9681801E-03  0.6006764E+03  0.7818609E-02  0.9904004E-01
       -2   -1    0    0    0  501  0.00000000000E+00  0.00000000000E+00  0.15168328957E+03  0.15168328959E+03  0.25500000920E-02 0.  1.
        2   -1    0    0  501    0  0.00000000000E+00  0.00000000000E+00 -0.59468019479E+03  0.59468019480E+03  0.25500000920E-02 0. -1.
    10030    2    1    2    0    0  0.00000000000E+00  0.00000000000E+00 -0.44299690523E+03  0.74636348439E+03  0.60067644600E+03 0.  0.
        4    1    3    3  502    0 -0.17955725860E+03 -0.39628090798E+02  0.73562509911E+02  0.19805113092E+03  0.12699999809E+01 0.  1.
       -4    1    3    3    0  502  0.17955725860E+03  0.39628090798E+02 -0.51655941514E+03  0.54831235347E+03  0.12699999809E+01 0. -1.
</event>
<event>
 5   0  0.5503975E-03  0.6006438E+03  0.7818609E-02  0.9904071E-01
        1   -1    0    0  501    0  0.00000000000E+00  0.00000000000E+00  0.79746824482E+03  0.79746824484E+03  0.50400001928E-02 0. -1.
       -1   -1    0    0    0  501  0.00000000000E+00  0.00000000000E+00 -0.11309947473E+03  0.11309947484E+03  0.50400001928E-02 0.  1.
    10030    2    1    2    0    0  0.00000000000E+00  0.00000000000E+00  0.68436877009E+03  0.91056771968E+03  0.60064378682E+03 0.  0.
        4    1    3    3  502    0  0.17395585678E+02  0.89163241261E+02 -0.91766344987E+02  0.12913312885E+03  0.12699999809E+01 0.  1.
       -4    1    3    3    0  502 -0.17395585678E+02 -0.89163241261E+02  0.77613511508E+03  0.78143459083E+03  0.12699999809E+01 0. -1.
</event>
<event>
 5   0  0.9571790E-03  0.5986205E+03  0.7818609E-02  0.9908272E-01
        2   -1    0    0  501    0  0.00000000000E+00  0.00000000000E+00  0.96774313777E+03  0.96774313778E+03  0.25500000920E-02 0.  1.
       -2   -1    0    0    0  501  0.00000000000E+00  0.00000000000E+00 -0.92572745067E+02  0.92572745103E+02  0.25500000920E-02 0. -1.
    10030    2    1    2    0    0  0.00000000000E+00  0.00000000000E+00  0.87517039271E+03  0.10603158829E+04  0.59862054360E+03 0.  0.
        5    1    3    3  502    0  0.13715020656E+03 -0.26479802002E+03  0.39290230063E+03  0.49327728348E+03  0.46999998093E+01 0.  1.
       -5    1    3    3    0  502 -0.13715020656E+03  0.26479802002E+03  0.48226809208E+03  0.56703859940E+03  0.46999998093E+01 0. -1.
</event>
<event>
 5   0  0.9428629E-03  0.6003923E+03  0.7818609E-02  0.9904592E-01
        2   -1    0    0  501    0  0.00000000000E+00  0.00000000000E+00  0.54513227066E+03  0.54513227067E+03  0.25500000920E-02 0. -1.
       -2   -1    0    0    0  501  0.00000000000E+00  0.00000000000E+00 -0.16531351958E+03  0.16531351960E+03  0.25500000920E-02 0.  1.
    10030    2    1    2    0    0  0.00000000000E+00  0.00000000000E+00  0.37981875109E+03  0.71044579026E+03  0.60039231943E+03 0.  0.
        3    1    3    3  502    0  0.17881355699E+03  0.21916768769E+03  0.70936195614E+02  0.29161741639E+03  0.10100000352E+00 0.  1.
       -3    1    3    3    0  502 -0.17881355699E+03 -0.21916768769E+03  0.30888255547E+03  0.41882837388E+03  0.10100000352E+00 0. -1.
</event>
<event>
 5   0  0.9681801E-03  0.6003210E+03  0.7818609E-02  0.9904740E-01
       -2   -1    0    0    0  501  0.00000000000E+00  0.00000000000E+00  0.26738150893E+03  0.26738150894E+03  0.25500000920E-02 0.  1.
        2   -1    0    0  501    0  0.00000000000E+00  0.00000000000E+00 -0.33695792229E+03  0.33695792230E+03  0.25500000920E-02 0. -1.
    10030    2    1    2    0    0  0.00000000000E+00  0.00000000000E+00 -0.69576413353E+02  0.60433943124E+03  0.60032097319E+03 0.  0.
        4    1    3    3  502    0  0.23131974840E+03  0.59171429833E+02  0.14832113243E+03  0.28108869656E+03  0.12699999809E+01 0.  1.
       -4    1    3    3    0  502 -0.23131974840E+03 -0.59171429833E+02 -0.21789754578E+03  0.32325073468E+03  0.12699999809E+01 0. -1.
</event>
<event>
 5   0  0.5653633E-03  0.5989196E+03  0.7818609E-02  0.9907650E-01
       -1   -1    0    0    0  501  0.00000000000E+00  0.00000000000E+00  0.10218250130E+03  0.10218250143E+03  0.50400001928E-02 0. -1.
        1   -1    0    0  501    0  0.00000000000E+00  0.00000000000E+00 -0.87760779851E+03  0.87760779853E+03  0.50400001928E-02 0.  1.
    10030    2    1    2    0    0  0.00000000000E+00  0.00000000000E+00 -0.77542529721E+03  0.97979029995E+03  0.59891956082E+03 0.  0.
        2    1    3    3  502    0 -0.11007877868E+03 -0.21641795072E+03 -0.67445380942E+03  0.71682773939E+03  0.25500000920E-02 0.  1.
       -2    1    3    3    0  502  0.11007877868E+03  0.21641795072E+03 -0.10097148779E+03  0.26296256057E+03  0.25500000920E-02 0. -1.
</event>
<event>
 5   0  0.9571790E-03  0.5999451E+03  0.7818609E-02  0.9905520E-01
        2   -1    0    0  501    0  0.00000000000E+00  0.00000000000E+00  0.82908675187E+02  0.82908675226E+02  0.25500000920E-02 0. -1.
       -2   -1    0    0    0  501  0.00000000000E+00  0.00000000000E+00 -0.10853330712E+04  0.10853330712E+04  0.25500000920E-02 0.  1.
    10030    2    1    2    0    0  0.00000000000E+00  0.00000000000E+00 -0.10024243960E+04  0.11682417464E+04  0.59994508780E+03 0.  0.
        5    1    3    3  502    0  0.26491932417E+03 -0.13160423436E+03 -0.59778301226E+03  0.66698466442E+03  0.46999998093E+01 0. -1.
       -5    1    3    3    0  502 -0.26491932417E+03  0.13160423436E+03 -0.40464138376E+03  0.50125708202E+03  0.46999998093E+01 0.  1.
</event>
<event>
 5   0  0.5491236E-03  0.6013671E+03  0.7818609E-02  0.9902574E-01
        1   -1    0    0  501    0  0.00000000000E+00  0.00000000000E+00  0.10280150715E+04  0.10280150715E+04  0.50400001928E-02 0.  1.
       -1   -1    0    0    0  501  0.00000000000E+00  0.00000000000E+00 -0.87946766245E+02  0.87946766389E+02  0.50400001928E-02 0. -1.
    10030    2    1    2    0    0  0.00000000000E+00  0.00000000000E+00  0.94006830529E+03  0.11159618379E+04  0.60136711343E+03 0.  0.
        3    1    3    3  502    0  0.18157211338E+03  0.23537314358E+03  0.55388345718E+03  0.62861422464E+03  0.10100000352E+00 0. -1.
       -3    1    3    3    0  502 -0.18157211338E+03 -0.23537314358E+03  0.38618484810E+03  0.48734761329E+03  0.10100000352E+00 0.  1.
</event>
<event>
 5   0  0.9681801E-03  0.5996104E+03  0.7818609E-02  0.9906215E-01
       -2   -1    0    0    0  501  0.00000000000E+00  0.00000000000E+00  0.12201444482E+03  0.12201444484E+03  0.25500000920E-02 0.  1.
        2   -1    0    0  501    0  0.00000000000E+00  0.00000000000E+00 -0.73665996700E+03  0.73665996701E+03  0.25500000920E-02 0. -1.
    10030    2    1    2    0    0  0.00000000000E+00  0.00000000000E+00 -0.61464552219E+03  0.85867441185E+03  0.59961039653E+03 0.  0.
        4    1    3    3  502    0 -0.20981414029E+03  0.20624666885E+03 -0.22478522957E+03  0.37025622778E+03  0.12699999809E+01 0.  1.
       -4    1    3    3    0  502  0.20981414029E+03 -0.20624666885E+03 -0.38986029262E+03  0.48841818407E+03  0.12699999809E+01 0. -1.
</event>
<event>
 5   0  0.5785798E-03  0.5996010E+03  0.7818609E-02  0.9906234E-01
        1   -1    0    0  501    0  0.00000000000E+00  0.00000000000E+00  0.50006146033E+03  0.50006146035E+03  0.50400001928E-02 0. -1.
       -1   -1    0    0    0  501  0.00000000000E+00  0.00000000000E+00 -0.17973855986E+03  0.17973855993E+03  0.50400001928E-02 0.  1.
    10030    2    1    2    0    0  0.00000000000E+00  0.00000000000E+00  0.32032290047E+03  0.67980002028E+03  0.59960095648E+03 0.  0.
        1    1    3    3  502    0  0.16803973117E+03 -0.17856283018E+03 -0.35417833158E+02  0.24774272644E+03  0.50400001928E-02 0.  1.
       -1    1    3    3    0  502 -0.16803973117E+03  0.17856283018E+03  0.35574073363E+03  0.43205729384E+03  0.50400001928E-02 0. -1.
</event>
<event>
 5   0  0.9571790E-03  0.5974230E+03  0.7818609E-02  0.9910767E-01
        2   -1    0    0  501    0  0.00000000000E+00  0.00000000000E+00  0.79924403885E+03  0.79924403885E+03  0.25500000920E-02 0. -1.
       -2   -1    0    0    0  501  0.00000000000E+00  0.00000000000E+00 -0.11164118948E+03  0.11164118951E+03  0.25500000920E-02 0.  1.
    10030    2    1    2    0    0  0.00000000000E+00  0.00000000000E+00  0.68760284936E+03  0.91088522836E+03  0.59742298315E+03 0.  0.
        5    1    3    3  502    0  0.83631439908E+02  0.11422130594E+03  0.74478561445E+03  0.75813483363E+03  0.46999998093E+01 0. -1.
       -5    1    3    3    0  502 -0.83631439908E+02 -0.11422130594E+03 -0.57182765085E+02  0.15275039474E+03  0.46999998093E+01 0.  1.
</event>
<event>
 5   0  0.5574736E-03  0.5996481E+03  0.7818609E-02  0.9906136E-01
       -1   -1    0    0    0  501  0.00000000000E+00  0.00000000000E+00  0.46331263741E+03  0.46331263744E+03  0.50400001928E-02 0. -1.
        1   -1    0    0  501    0  0.00000000000E+00  0.00000000000E+00 -0.19402549661E+03  0.19402549668E+03  0.50400001928E-02 0.  1.
    10030    2    1    2    0    0  0.00000000000E+00  0.00000000000E+00  0.26928714080E+03  0.65733813412E+03  0.59964811211E+03 0.  0.
        5    1    3    3  502    0  0.11495139500E+02  0.28562128297E+03  0.35615898074E+02  0.28810108940E+03  0.46999998093E+01 0.  1.
       -5    1    3    3    0  502 -0.11495139500E+02 -0.28562128297E+03  0.23367124273E+03  0.36923704472E+03  0.46999998093E+01 0. -1.
</event>
<event>
 5   0  0.5574736E-03  0.5996332E+03  0.7818609E-02  0.9906167E-01
        1   -1    0    0  501    0  0.00000000000E+00  0.00000000000E+00  0.40074723653E+03  0.40074723656E+03  0.50400001928E-02 0. -1.
       -1   -1    0    0    0  501  0.00000000000E+00  0.00000000000E+00 -0.22430598311E+03  0.22430598316E+03  0.50400001928E-02 0.  1.
    10030    2    1    2    0    0  0.00000000000E+00  0.00000000000E+00  0.17644125342E+03  0.62505321972E+03  0.59963323088E+03 0.  0.
        5    1    3    3  502    0  0.11052430494E+03 -0.22407505006E+03  0.26090157655E+03  0.36127132834E+03  0.46999998093E+01 0. -1.
       -5    1    3    3    0  502 -0.11052430494E+03  0.22407505006E+03 -0.84460323121E+02  0.26378189138E+03  0.46999998093E+01 0.  1.
</event>
<event>
 5   0  0.9571790E-03  0.5997942E+03  0.7818609E-02  0.9905833E-01
        2   -1    0    0  501    0  0.00000000000E+00  0.00000000000E+00  0.31944728269E+03  0.31944728270E+03  0.25500000920E-02 0.  1.
       -2   -1    0    0    0  501  0.00000000000E+00  0.00000000000E+00 -0.28154342106E+03  0.28154342107E+03  0.25500000920E-02 0. -1.
    10030    2    1    2    0    0  0.00000000000E+00  0.00000000000E+00  0.37903861636E+02  0.60099070377E+03  0.59979423413E+03 0.  0.
        5    1    3    3  502    0  0.20668071522E+03 -0.13902067033E+03  0.18623563342E+03  0.31104576186E+03  0.46999998093E+01 0.  1.
       -5    1    3    3    0  502 -0.20668071522E+03  0.13902067033E+03 -0.14833177178E+03  0.28994494191E+03  0.46999998093E+01 0. -1.
</event>
<event>
 5   0  0.5503975E-03  0.5995380E+03  0.7818609E-02  0.9906365E-01
        1   -1    0    0  501    0  0.00000000000E+00  0.00000000000E+00  0.63924110797E+03  0.63924110799E+03  0.50400001928E-02 0. -1.
       -1   -1    0    0    0  501  0.00000000000E+00  0.00000000000E+00 -0.14057518739E+03  0.14057518748E+03  0.50400001928E-02 0.  1.
    10030    2    1    2    0    0  0.00000000000E+00  0.00000000000E+00  0.49866592058E+03  0.77981629548E+03  0.59953795071E+03 0.  0.
        4    1    3    3  502    0 -0.17609916262E+03 -0.15642405087E+03  0.49050738970E+03  0.54413096862E+03  0.12699999809E+01 0. -1.
       -4    1    3    3    0  502  0.17609916262E+03  0.15642405087E+03  0.81585308857E+01  0.23568532685E+03  0.12699999809E+01 0.  1.
</event>
<event>
 5   0  0.5503975E-03  0.6018233E+03  0.7818609E-02  0.9901630E-01
       -1   -1    0    0    0  501  0.00000000000E+00  0.00000000000E+00  0.13960817707E+03  0.13960817716E+03  0.50400001928E-02 0. -1.
        1   -1    0    0  501    0  0.00000000000E+00  0.00000000000E+00 -0.64858547356E+03  0.64858547358E+03  0.50400001928E-02 0.  1.
    10030    2    1    2    0    0  0.00000000000E+00  0.00000000000E+00 -0.50897729649E+03  0.78819365074E+03  0.60182334844E+03 0.  0.
        4    1    3    3  502    0  0.85158555926E+02  0.81029074828E+02 -0.61726781961E+03  0.62836204901E+03  0.12699999809E+01 0.  1.
       -4    1    3    3    0  502 -0.85158555926E+02 -0.81029074828E+02  0.10829052312E+03  0.15983160173E+03  0.12699999809E+01 0. -1.
</event>
<event>
 5   0  0.5574736E-03  0.5988344E+03  0.7818609E-02  0.9907827E-01
       -1   -1    0    0    0  501  0.00000000000E+00  0.00000000000E+00  0.17118760292E+03  0.17118760299E+03  0.50400001928E-02 0.  1.
        1   -1    0    0  501    0  0.00000000000E+00  0.00000000000E+00 -0.52369835895E+03  0.52369835898E+03  0.50400001928E-02 0. -1.
    10030    2    1    2    0    0  0.00000000000E+00  0.00000000000E+00 -0.35251075604E+03  0.69488596197E+03  0.59883442371E+03 0.  0.
        5    1    3    3  502    0  0.26675509931E+03  0.10774750160E+03 -0.80139928901E+02  0.29868429037E+03  0.46999998093E+01 0.  1.
       -5    1    3    3    0  502 -0.26675509931E+03 -0.10774750160E+03 -0.27237082713E+03  0.39620167160E+03  0.46999998093E+01 0. -1.
</event>
<event>
 5   0  0.5653633E-03  0.6000088E+03  0.7818609E-02  0.9905388E-01
        1   -1    0    0  501    0  0.00000000000E+00  0.00000000000E+00  0.51032944024E+03  0.51032944026E+03  0.50400001928E-02 0.  1.
       -1   -1    0    0    0  501  0.00000000000E+00  0.00000000000E+00 -0.17636181336E+03  0.17636181343E+03  0.50400001928E-02 0. -1.
    10030    2    1    2    0    0  0.00000000000E+00  0.00000000000E+00  0.33396762688E+03  0.68669125369E+03  0.60000875168E+03 0.  0.
        2    1    3    3  502    0 -0.14877011509E+03 -0.19494197003E+03  0.36477405906E+03  0.43953956931E+03  0.25500000920E-02 0.  1.
       -2    1    3    3    0  502  0.14877011509E+03  0.19494197003E+03 -0.30806432180E+02  0.24715168438E+03  0.25500000920E-02 0. -1.
</event>
<event>
 5   0  0.5503975E-03  0.5998846E+03  0.7818609E-02  0.9905646E-01
       -1   -1    0    0    0  501  0.00000000000E+00  0.00000000000E+00  0.15498631669E+03  0.15498631678E+03  0.50400001928E-02 0. -1.
        1   -1    0    0  501    0  0.00000000000E+00  0.00000000000E+00 -0.58047297826E+03  0.58047297829E+03  0.50400001928E-02 0.  1.
    10030    2    1    2    0    0  0.00000000000E+00  0.00000000000E+00 -0.42548666157E+03  0.73545929506E+03  0.59988455183E+03 0.  0.
        4    1    3    3  502    0 -0.35882801139E+02 -0.27363715094E+03 -0.35676009279E+03  0.45104793814E+03  0.12699999809E+01 0.  1.
       -4    1    3    3    0  502  0.35882801139E+02  0.27363715094E+03 -0.68726568778E+02  0.28441135692E+03  0.12699999809E+01 0. -1.
</event>
<event>
 5   0  0.5503975E-03  0.6001634E+03  0.7818609E-02  0.9905067E-01
       -1   -1    0    0    0  501  0.00000000000E+00  0.00000000000E+00  0.17277271114E+03  0.17277271122E+03  0.50400001928E-02 0.  1.
        1   -1    0    0  501    0  0.00000000000E+00  0.00000000000E+00 -0.52119943340E+03  0.52119943342E+03  0.50400001928E-02 0. -1.
    10030    2    1    2    0    0  0.00000000000E+00  0.00000000000E+00 -0.34842672226E+03  0.69397214464E+03  0.60016344170E+03 0.  0.
        4    1    3    3  502    0 -0.20895345822E+03  0.16723035923E+03 -0.33114697105E+03  0.42577866326E+03  0.12699999809E+01 0. -1.
       -4    1    3    3    0  502  0.20895345822E+03 -0.16723035923E+03 -0.17279751204E+02  0.26819348138E+03  0.12699999809E+01 0.  1.
</event>
<event>
 5   0  0.5785798E-03  0.5989553E+03  0.7818609E-02  0.9907576E-01
        1   -1    0    0  501    0  0.00000000000E+00  0.00000000000E+00  0.23556874841E+03  0.23556874846E+03  0.50400001928E-02 0. -1.
       -1   -1    0    0    0  501  0.00000000000E+00  0.00000000000E+00 -0.38072480280E+03  0.38072480283E+03  0.50400001928E-02 0.  1.
    10030    2    1    2    0    0  0.00000000000E+00  0.00000000000E+00 -0.14515605439E+03  0.61629355129E+03  0.59895530821E+03 0.  0.
        1    1    3    3  502    0 -0.48018967403E+02 -0.24083521979E+03 -0.24894406940E+03  0.34968639384E+03  0.50400001928E-02 0.  1.
       -1    1    3    3    0  502  0.48018967403E+02  0.24083521979E+03  0.10378801500E+03  0.26660715745E+03  0.50400001928E-02 0. -1.
</event>
<event>
 5   0  0.9530666E-03  0.5990588E+03  0.7818609E-02  0.9907361E-01
        2   -1    0    0  501    0  0.00000000000E+00  0.00000000000E+00  0.46465176553E+03  0.46465176554E+03  0.25500000920E-02 0. -1.
       -2   -1    0    0    0  501  0.00000000000E+00  0.00000000000E+00 -0.19308626219E+03  0.19308626221E+03  0.25500000920E-02 0.  1.
    10030    2    1    2    0    0  0.00000000000E+00  0.00000000000E+00  0.27156550334E+03  0.65773802775E+03  0.59905883730E+03 0.  0.
        2    1    3    3  502    0  0.17387970479E+03 -0.23808268046E+03  0.77680861358E+02  0.30488002674E+03  0.25500000920E-02 0.  1.
       -2    1    3    3    0  502 -0.17387970479E+03  0.23808268046E+03  0.19388464198E+03  0.35285800101E+03  0.25500000920E-02 0. -1.
</event>
<event>
 5   0  0.5785798E-03  0.6008154E+03  0.7818609E-02  0.9903716E-01
        1   -1    0    0  501    0  0.00000000000E+00  0.00000000000E+00  0.12619919015E+03  0.12619919025E+03  0.50400001928E-02 0. -1.
       -1   -1    0    0    0  501  0.00000000000E+00  0.00000000000E+00 -0.71509808015E+03  0.71509808016E+03  0.50400001928E-02 0.  1.
    10030    2    1    2    0    0  0.00000000000E+00  0.00000000000E+00 -0.58889889000E+03  0.84129727041E+03  0.60081544135E+03 0.  0.
        1    1    3    3  502    0  0.15352117771E+03  0.23891613169E+03 -0.43161144044E+03  0.51666053220E+03  0.50400001928E-02 0.  1.
       -1    1    3    3    0  502 -0.15352117771E+03 -0.23891613169E+03 -0.15728744955E+03  0.32463673821E+03  0.50400001928E-02 0. -1.
</event>
<event>
 5   0  0.5503975E-03  0.6063587E+03  0.7818609E-02  0.9892301E-01
        1   -1    0    0  501    0  0.00000000000E+00  0.00000000000E+00  0.10489907856E+04  0.10489907856E+04  0.50400001928E-02 0.  1.
       -1   -1    0    0    0  501  0.00000000000E+00  0.00000000000E+00 -0.87624907237E+02  0.87624907382E+02  0.50400001928E-02 0. -1.
    10030    2    1    2    0    0  0.00000000000E+00  0.00000000000E+00  0.96136587835E+03  0.11366156930E+04  0.60635870694E+03 0.  0.
        4    1    3    3  502    0  0.15079738855E+03 -0.12050542128E+03  0.42457301855E+02  0.19765030820E+03  0.12699999809E+01 0. -1.
       -4    1    3    3    0  502 -0.15079738855E+03  0.12050542128E+03  0.91890857650E+03  0.93896538478E+03  0.12699999809E+01 0.  1.
</event>
<event>
 5   0  0.3794375E-03  0.5978381E+03  0.7818609E-02  0.9909901E-01
       -3   -1    0    0    0  501  0.00000000000E+00  0.00000000000E+00  0.26291513500E+03  0.26291515440E+03  0.10100000352E+00 0. -1.
        3   -1    0    0  501    0  0.00000000000E+00  0.00000000000E+00 -0.33985339413E+03  0.33985340913E+03  0.10100000352E+00 0.  1.
    10030    2    1    2    0    0  0.00000000000E+00  0.00000000000E+00 -0.76938259130E+02  0.60276856353E+03  0.59783814320E+03 0.  0.
        5    1    3    3  502    0  0.22314054935E+03  0.87222695456E+02 -0.21863534513E+03  0.32438096045E+03  0.46999998093E+01 0.  1.
       -5    1    3    3    0  502 -0.22314054935E+03 -0.87222695456E+02  0.14169708600E+03  0.27838760308E+03  0.46999998093E+01 0. -1.
</event>
<event>
 5   0  0.9571790E-03  0.5999239E+03  0.7818609E-02  0.9905564E-01
        2   -1    0    0  501    0  0.00000000000E+00  0.00000000000E+00  0.13359642919E+04  0.13359642919E+04  0.25500000920E-02 0. -1.
       -2   -1    0    0    0  501  0.00000000000E+00  0.00000000000E+00 -0.67349971200E+02  0.67349971248E+02  0.25500000920E-02 0.  1.
    10030    2    1    2    0    0  0.00000000000E+00  0.00000000000E+00  0.12686143207E+04  0.14033142631E+04  0.59992385056E+03 0.  0.
        5    1    3    3  502    0  0.77106955387E+02  0.79636827346E+01  0.13120411057E+04  0.13143374208E+04  0.46999998093E+01 0. -1.
       -5    1    3    3    0  502 -0.77106955387E+02 -0.79636827346E+01 -0.43426784999E+02  0.88976842298E+02  0.46999998093E+01 0.  1.
</event>
<event>
 5   0  0.3794375E-03  0.5995302E+03  0.7818609E-02  0.9906381E-01
        4   -1    0    0  501    0  0.00000000000E+00  0.00000000000E+00  0.57643355768E+03  0.57643495671E+03  0.12699999809E+01 0.  1.
       -4   -1    0    0    0  501  0.00000000000E+00  0.00000000000E+00 -0.15588389484E+03  0.15588906816E+03  0.12699999809E+01 0. -1.
    10030    2    1    2    0    0  0.00000000000E+00  0.00000000000E+00  0.42054966284E+03  0.73232402487E+03  0.59953019815E+03 0.  0.
        4    1    3    3  502    0 -0.64028221398E+02 -0.26904762450E+03  0.69028083941E+02  0.28504863910E+03  0.12699999809E+01 0. -1.
       -4    1    3    3    0  502  0.64028221398E+02  0.26904762450E+03  0.35152157890E+03  0.44727538577E+03  0.12699999809E+01 0.  1.
</event>
<event>
 5   0  0.5491236E-03  0.6011148E+03  0.7818609E-02  0.9903096E-01
       -1   -1    0    0    0  501  0.00000000000E+00  0.00000000000E+00  0.15286035547E+03  0.15286035555E+03  0.50400001928E-02 0.  1.
        1   -1    0    0  501    0  0.00000000000E+00  0.00000000000E+00 -0.59096257565E+03  0.59096257567E+03  0.50400001928E-02 0. -1.
    10030    2    1    2    0    0  0.00000000000E+00  0.00000000000E+00 -0.43810222018E+03  0.74382293122E+03  0.60111479576E+03 0.  0.
        3    1    3    3  502    0  0.50429670927E+02  0.20682340346E+02 -0.58479575293E+03  0.58733039574E+03  0.10100000352E+00 0. -1.
       -3    1    3    3    0  502 -0.50429670927E+02 -0.20682340346E+02  0.14669353275E+03  0.15649253549E+03  0.10100000352E+00 0.  1.
</event>
<event>
 5   0  0.5503975E-03  0.5994009E+03  0.7818609E-02  0.9906650E-01
        1   -1    0    0  501    0  0.00000000000E+00  0.00000000000E+00  0.45314011568E+03  0.45314011571E+03  0.50400001928E-02 0.  1.
       -1   -1    0    0    0  501  0.00000000000E+00  0.00000000000E+00 -0.19821760614E+03  0.19821760621E+03  0.50400001928E-02 0. -1.
    10030    2    1    2    0    0  0.00000000000E+00  0.00000000000E+00  0.25492250954E+03  0.65135772192E+03  0.59940086422E+03 0.  0.
        4    1    3    3  502    0 -0.16993521574E+03  0.14598754130E+03 -0.88863116578E+02  0.24101577988E+03  0.12699999809E+01 0. -1.
       -4    1    3    3    0  502  0.16993521574E+03 -0.14598754130E+03  0.34378562612E+03  0.41034194203E+03  0.12699999809E+01 0.  1.
</event>
<event>
 5   0  0.5653633E-03  0.6013532E+03  0.7818609E-02  0.9902603E-01
        1   -1    0    0  501    0  0.00000000000E+00  0.00000000000E+00  0.84287432557E+03  0.84287432559E+03  0.50400001928E-02 0.  1.
       -1   -1    0    0    0  501  0.00000000000E+00  0.00000000000E+00 -0.10725965159E+03  0.10725965171E+03  0.50400001928E-02 0. -1.
    10030    2    1    2    0    0  0.00000000000E+00  0.00000000000E+00  0.73561467398E+03  0.95013397730E+03  0.60135316266E+03 0.  0.
        2    1    3    3  502    0 -0.33015098037E+02 -0.21319181508E+03  0.36891476603E+02  0.21886463343E+03  0.25500000920E-02 0. -1.
       -2    1    3    3    0  502  0.33015098037E+02  0.21319181508E+03  0.69872319738E+03  0.73126934386E+03  0.25500000920E-02 0.  1.
</event>
<event>
 5   0  0.9681801E-03  0.5997732E+03  0.7818609E-02  0.9905877E-01
        2   -1    0    0  501    0  0.00000000000E+00  0.00000000000E+00  0.58328824694E+03  0.58328824695E+03  0.25500000920E-02 0.  1.
       -2   -1    0    0    0  501  0.00000000000E+00  0.00000000000E+00 -0.15418099810E+03  0.15418099812E+03  0.25500000920E-02 0. -1.
    10030    2    1    2    0    0  0.00000000000E+00  0.00000000000E+00  0.42910724884E+03  0.73746924507E+03  0.59977317080E+03 0.  0.
        4    1    3    3  502    0 -0.19165970522E+03  0.58371625844E+01 -0.68951523601E+02  0.20377301239E+03  0.12699999809E+01 0. -1.
       -4    1    3    3    0  502  0.19165970522E+03 -0.58371625844E+01  0.49805877244E+03  0.53369623268E+03  0.12699999809E+01 0.  1.
</event>
<event>
 5   0  0.5574736E-03  0.6004072E+03  0.7818609E-02  0.9904562E-01
       -1   -1    0    0    0  501  0.00000000000E+00  0.00000000000E+00  0.15024668840E+03  0.15024668848E+03  0.50400001928E-02 0. -1.
        1   -1    0    0  501    0  0.00000000000E+00  0.00000000000E+00 -0.59982817048E+03  0.59982817050E+03  0.50400001928E-02 0.  1.
    10030    2    1    2    0    0  0.00000000000E+00  0.00000000000E+00 -0.44958148209E+03  0.75007485898E+03  0.60040718271E+03 0.  0.
        5    1    3    3  502    0  0.26593574298E+03  0.12009399184E+03 -0.31273593477E+03  0.42775020884E+03  0.46999998093E+01 0.  1.
       -5    1    3    3    0  502 -0.26593574298E+03 -0.12009399184E+03 -0.13684554732E+03  0.32232465014E+03  0.46999998093E+01 0. -1.
</event>
<event>
 5   0  0.5491236E-03  0.6019252E+03  0.7818609E-02  0.9901420E-01
       -1   -1    0    0    0  501  0.00000000000E+00  0.00000000000E+00  0.34780814350E+03  0.34780814354E+03  0.50400001928E-02 0. -1.
        1   -1    0    0  501    0  0.00000000000E+00  0.00000000000E+00 -0.26042658238E+03  0.26042658243E+03  0.50400001928E-02 0.  1.
    10030    2    1    2    0    0  0.00000000000E+00  0.00000000000E+00  0.87381561126E+02  0.60823472597E+03  0.60192519855E+03 0.  0.
        3    1    3    3  502    0 -0.28011152404E+03  0.13039776017E+02 -0.66752544962E+02  0.28825060992E+03  0.10100000352E+00 0. -1.
       -3    1    3    3    0  502  0.28011152404E+03 -0.13039776017E+02  0.15413410609E+03  0.31998411604E+03  0.10100000352E+00 0.  1.
</event>
<event>
 5   0  0.9530666E-03  0.6001291E+03  0.7818609E-02  0.9905138E-01
        2   -1    0    0  501    0  0.00000000000E+00  0.00000000000E+00  0.10775320664E+03  0.10775320667E+03  0.25500000920E-02 0.  1.
       -2   -1    0    0    0  501  0.00000000000E+00  0.00000000000E+00 -0.83560144462E+03  0.83560144463E+03  0.25500000920E-02 0. -1.
    10030    2    1    2    0    0  0.00000000000E+00  0.00000000000E+00 -0.72784823798E+03  0.94335465130E+03  0.60012910328E+03 0.  0.
        2    1    3    3  502    0 -0.85917170860E+02 -0.16175787467E+03 -0.73753656958E+03  0.75993918292E+03  0.25500000920E-02 0. -1.
       -2    1    3    3    0  502  0.85917170860E+02  0.16175787467E+03  0.96883315961E+01  0.18341546838E+03  0.25500000920E-02 0.  1.
</event>
<event>
 5   0  0.9571790E-03  0.6007349E+03  0.7818609E-02  0.9903883E-01
       -2   -1    0    0    0  501  0.00000000000E+00  0.00000000000E+00  0.52757755681E+02  0.52757755742E+02  0.25500000920E-02 0. -1.
        2   -1    0    0  501    0  0.00000000000E+00  0.00000000000E+00 -0.17100918549E+04  0.17100918549E+04  0.25500000920E-02 0.  1.
    10030    2    1    2    0    0  0.00000000000E+00  0.00000000000E+00 -0.16573340992E+04  0.17628496106E+04  0.60073491101E+03 0.  0.
        5    1    3    3  502    0  0.26547155234E+03  0.34302376298E+02 -0.42902980770E+03  0.50570788407E+03  0.46999998093E+01 0. -1.
       -5    1    3    3    0  502 -0.26547155234E+03 -0.34302376298E+02 -0.12283042915E+04  0.12571417265E+04  0.46999998093E+01 0.  1.
</event>
<event>
 5   0  0.9428629E-03  0.6001489E+03  0.7818609E-02  0.9905097E-01
       -2   -1    0    0    0  501  0.00000000000E+00  0.00000000000E+00  0.49829726060E+02  0.49829726126E+02  0.25500000920E-02 0. -1.
        2   -1    0    0  501    0  0.00000000000E+00  0.00000000000E+00 -0.18070471089E+04  0.18070471089E+04  0.25500000920E-02 0.  1.
    10030    2    1    2    0    0  0.00000000000E+00  0.00000000000E+00 -0.17572173829E+04  0.18568768351E+04  0.60014885646E+03 0.  0.
        3    1    3    3  502    0  0.25831654066E+03 -0.10608998608E+03 -0.53879869318E+03  0.60686618154E+03  0.10100000352E+00 0. -1.
       -3    1    3    3    0  502 -0.25831654066E+03  0.10608998608E+03 -0.12184186897E+04  0.12500106535E+04  0.10100000352E+00 0.  1.
</event>
<event>
 5   0  0.3794375E-03  0.6030812E+03  0.7818609E-02  0.9899034E-01
        4   -1    0    0  501    0  0.00000000000E+00  0.00000000000E+00  0.41866229846E+03  0.41866422471E+03  0.12699999809E+01 0.  1.
       -4   -1    0    0    0  501  0.00000000000E+00  0.00000000000E+00 -0.21717970376E+03  0.21718341701E+03  0.12699999809E+01 0. -1.
    10030    2    1    2    0    0  0.00000000000E+00  0.00000000000E+00  0.20148259470E+03  0.63584764172E+03  0.60308124453E+03 0.  0.
        5    1    3    3  502    0 -0.19813550193E+03 -0.15187122471E+03  0.27898918511E+03  0.37440566426E+03  0.46999998093E+01 0.  1.
       -5    1    3    3    0  502  0.19813550193E+03  0.15187122471E+03 -0.77506590410E+02  0.26144197746E+03  0.46999998093E+01 0. -1.
</event>
<event>
 5   0  0.9428629E-03  0.6013233E+03  0.7818609E-02  0.9902664E-01
       -2   -1    0    0    0  501  0.00000000000E+00  0.00000000000E+00  0.85304951193E+02  0.85304951231E+02  0.25500000920E-02 0.  1.
        2   -1    0    0  501    0  0.00000000000E+00  0.00000000000E+00 -0.10596973981E+04  0.10596973981E+04  0.25500000920E-02 0. -1.
    10030    2    1    2    0    0  0.00000000000E+00  0.00000000000E+00 -0.97439244694E+03  0.11450023494E+04  0.60132332352E+03 0.  0.
        3    1    3    3  502    0  0.44504876031E+02 -0.19724598382E+03 -0.63506299248E+02  0.21194273370E+03  0.10100000352E+00 0.  1.
       -3    1    3    3    0  502 -0.44504876031E+02  0.19724598382E+03 -0.91088614769E+03  0.93305961566E+03  0.10100000352E+00 0. -1.
</event>
<event>
 5   0  0.5574736E-03  0.5995386E+03  0.7818609E-02  0.9906364E-01
       -1   -1    0    0    0  501  0.00000000000E+00  0.00000000000E+00  0.13426853771E+03  0.13426853780E+03  0.50400001928E-02 0. -1.
        1   -1    0    0  501    0  0.00000000000E+00  0.00000000000E+00 -0.66926791015E+03  0.66926791017E+03  0.50400001928E-02 0.  1.
    10030    2    1    2    0    0  0.00000000000E+00  0.00000000000E+00 -0.53499937244E+03  0.80353644797E+03  0.59953856815E+03 0.  0.
        5    1    3    3  502    0  0.46587622550E+02  0.82495451151E+02 -0.64862260406E+03  0.65552214191E+03  0.46999998093E+01 0.  1.
       -5    1    3    3    0  502 -0.46587622550E+02 -0.82495451151E+02  0.11362323162E+03  0.14801430606E+03  0.46999998093E+01 0. -1.
</event>
<event>
 5   0  0.5491236E-03  0.6008378E+03  0.7818609E-02  0.9903669E-01
       -1   -1    0    0    0  501  0.00000000000E+00  0.00000000000E+00  0.66606924697E+03  0.66606924699E+03  0.50400001928E-02 0.  1.
        1   -1    0    0  501    0  0.00000000000E+00  0.00000000000E+00 -0.13549868566E+03  0.13549868576E+03  0.50400001928E-02 0. -1.
    10030    2    1    2    0    0  0.00000000000E+00  0.00000000000E+00  0.53057056130E+03  0.80156793274E+03  0.60083777368E+03 0.  0.
        3    1    3    3  502    0 -0.25955773376E+03 -0.25592748423E+01  0.46705737310E+03  0.53434012296E+03  0.10100000352E+00 0.  1.
       -3    1    3    3    0  502  0.25955773376E+03  0.25592748423E+01  0.63513188205E+02  0.26722780978E+03  0.10100000352E+00 0. -1.
</event>
<event>
 5   0  0.3794375E-03  0.5979040E+03  0.7818609E-02  0.9909764E-01
        3   -1    0    0  501    0  0.00000000000E+00  0.00000000000E+00  0.46947611727E+03  0.46947612814E+03  0.10100000352E+00 0.  1.
       -3   -1    0    0    0  501  0.00000000000E+00  0.00000000000E+00 -0.19036597321E+03  0.19036600001E+03  0.10100000352E+00 0. -1.
    10030    2    1    2    0    0  0.00000000000E+00  0.00000000000E+00  0.27911014406E+03  0.65984212814E+03  0.59790397352E+03 0.  0.
        4    1    3    3  502    0  0.12814389886E+03  0.82559321916E+02  0.42336021664E+03  0.44996931716E+03  0.12699999809E+01 0.  1.
       -4    1    3    3    0  502 -0.12814389886E+03 -0.82559321916E+02 -0.14425007258E+03  0.20987281098E+03  0.12699999809E+01 0. -1.
</event>
<event>
 5   0  0.5503975E-03  0.5997181E+03  0.7818609E-02  0.9905991E-01
        1   -1    0    0  501    0  0.00000000000E+00  0.00000000000E+00  0.99310255617E+03  0.99310255618E+03  0.50400001928E-02 0. -1.
       -1   -1    0    0    0  501  0.00000000000E+00  0.00000000000E+00 -0.90539945019E+02  0.90539945159E+02  0.50400001928E-02 0.  1.
    10030    2    1    2    0    0  0.00000000000E+00  0.00000000000E+00  0.90256261115E+03  0.10836425013E+04  0.59971810350E+03 0.  0.
        4    1    3    3  502    0 -0.35554486662E+02 -0.38293498471E+02 -0.82244688763E+02  0.97449039383E+02  0.12699999809E+01 0.  1.
       -4    1    3    3    0  502  0.35554486662E+02  0.38293498471E+02  0.98480729991E+03  0.98619346196E+03  0.12699999809E+01 0. -1.
</event>
<event>
 5   0  0.9681801E-03  0.6010344E+03  0.7818609E-02  0.9903262E-01
       -2   -1    0    0    0  501  0.00000000000E+00  0.00000000000E+00  0.34104202729E+03  0.34104202730E+03  0.25500000920E-02 0.  1.
        2   -1    0    0  501    0  0.00000000000E+00  0.00000000000E+00 -0.26480776311E+03  0.26480776313E+03  0.25500000920E-02 0. -1.
    10030    2    1    2    0    0  0.00000000000E+00  0.00000000000E+00  0.76234264181E+02  0.60584979043E+03  0.60103436302E+03 0.  0.
        4    1    3    3  502    0  0.27523194050E+02  0.29841681757E+03  0.15603456270E+02  0.30009199251E+03  0.12699999809E+01 0. -1.
       -4    1    3    3    0  502 -0.27523194050E+02 -0.29841681757E+03  0.60630807911E+02  0.30575779792E+03  0.12699999809E+01 0.  1.
</event>
<event>
 5   0  0.5503975E-03  0.6002780E+03  0.7818609E-02  0.9904830E-01
        1   -1    0    0  501    0  0.00000000000E+00  0.00000000000E+00  0.41680597497E+03  0.41680597500E+03  0.50400001928E-02 0. -1.
       -1   -1    0    0    0  501  0.00000000000E+00  0.00000000000E+00 -0.21612793312E+03  0.21612793318E+03  0.50400001928E-02 0.  1.
    10030    2    1    2    0    0  0.00000000000E+00  0.00000000000E+00  0.20067804185E+03  0.63293390818E+03  0.60027798198E+03 0.  0.
        4    1    3    3  502    0  0.14903798698E+03  0.25863098359E+03  0.13333847760E+03  0.32692976271E+03  0.12699999809E+01 0. -1.
       -4    1    3    3    0  502 -0.14903798698E+03 -0.25863098359E+03  0.67339564254E+02  0.30600414548E+03  0.12699999809E+01 0.  1.
</event>
<event>
 5   0  0.3794375E-03  0.5995704E+03  0.7818609E-02  0.9906298E-01
        4   -1    0    0  501    0  0.00000000000E+00  0.00000000000E+00  0.62194169679E+03  0.62194299345E+03  0.12699999809E+01 0. -1.
       -4   -1    0    0    0  501  0.00000000000E+00  0.00000000000E+00 -0.14449672452E+03  0.14450230551E+03  0.12699999809E+01 0.  1.
    10030    2    1    2    0    0  0.00000000000E+00  0.00000000000E+00  0.47744497227E+03  0.76644529896E+03  0.59957042518E+03 0.  0.
        2    1    3    3  502    0 -0.54083909192E+02 -0.11903201640E+03  0.58357983064E+03  0.59804607589E+03  0.25500000920E-02 0. -1.
       -2    1    3    3    0  502  0.54083909192E+02  0.11903201640E+03 -0.10613485837E+03  0.16839922306E+03  0.25500000920E-02 0.  1.
</event>
<event>
 5   0  0.5491236E-03  0.5996908E+03  0.7818609E-02  0.9906048E-01
        1   -1    0    0  501    0  0.00000000000E+00  0.00000000000E+00  0.11452646185E+03  0.11452646196E+03  0.50400001928E-02 0. -1.
       -1   -1    0    0    0  501  0.00000000000E+00  0.00000000000E+00 -0.78503478887E+03  0.78503478889E+03  0.50400001928E-02 0.  1.
    10030    2    1    2    0    0  0.00000000000E+00  0.00000000000E+00 -0.67050832702E+03  0.89956125085E+03  0.59969077650E+03 0.  0.
        3    1    3    3  502    0 -0.11448866174E+03 -0.23267123792E+03 -0.10943090898E+03  0.28145815437E+03  0.10100000352E+00 0. -1.
       -3    1    3    3    0  502  0.11448866174E+03  0.23267123792E+03 -0.56107741805E+03  0.61810309647E+03  0.10100000352E+00 0.  1.
</event>
<event>
 5   0  0.9530666E-03  0.5980377E+03  0.7818609E-02  0.9909486E-01
        2   -1    0    0  501    0  0.00000000000E+00  0.00000000000E+00  0.58093017608E+03  0.58093017608E+03  0.25500000920E-02 0.  1.
       -2   -1    0    0    0  501  0.00000000000E+00  0.00000000000E+00 -0.15391224441E+03  0.15391224443E+03  0.25500000920E-02 0. -1.
    10030    2    1    2    0    0  0.00000000000E+00  0.00000000000E+00  0.42701793167E+03  0.73484242051E+03  0.59803768194E+03 0.  0.
        2    1    3    3  502    0 -0.14554603350E+03  0.21453322712E+03  0.39660645644E+03  0.47381941149E+03  0.25500000920E-02 0.  1.
       -2    1    3    3    0  502  0.14554603350E+03 -0.21453322712E+03  0.30411475235E+02  0.26102300903E+03  0.25500000920E-02 0. -1.
</event>
<event>
 5   0  0.9681801E-03  0.6006526E+03  0.7818609E-02  0.9904053E-01
       -2   -1    0    0    0  501  0.00000000000E+00  0.00000000000E+00  0.27923866590E+03  0.27923866591E+03  0.25500000920E-02 0.  1.
        2   -1    0    0  501    0  0.00000000000E+00  0.00000000000E+00 -0.32300648351E+03  0.32300648352E+03  0.25500000920E-02 0. -1.
    10030    2    1    2    0    0  0.00000000000E+00  0.00000000000E+00 -0.43767817614E+02  0.60224514943E+03  0.60065264351E+03 0.  0.
        4    1    3    3  502    0 -0.17307699755E+03  0.10469416239E+03 -0.24445843093E+03  0.31729804927E+03  0.12699999809E+01 0. -1.
       -4    1    3    3    0  502  0.17307699755E+03 -0.10469416239E+03  0.20069061331E+03  0.28494710016E+03  0.12699999809E+01 0.  1.
</event>
<event>
 5   0  0.9530666E-03  0.6006615E+03  0.7818609E-02  0.9904035E-01
        2   -1    0    0  501    0  0.00000000000E+00  0.00000000000E+00  0.73318887075E+03  0.73318887075E+03  0.25500000920E-02 0.  1.
       -2   -1    0    0    0  501  0.00000000000E+00  0.00000000000E+00 -0.12302225614E+03  0.12302225617E+03  0.25500000920E-02 0. -1.
    10030    2    1    2    0    0  0.00000000000E+00  0.00000000000E+00  0.61016661461E+03  0.85621112692E+03  0.60066146561E+03 0.  0.
        2    1    3    3  502    0  0.22312009645E+03  0.15102295526E+03  0.49423341235E+03  0.56290068072E+03  0.25500000920E-02 0.  1.
       -2    1    3    3    0  502 -0.22312009645E+03 -0.15102295526E+03  0.11593320225E+03  0.29331044620E+03  0.25500000920E-02 0. -1.
</event>
<event>
 5   0  0.5503975E-03  0.5988816E+03  0.7818609E-02  0.9907729E-01
        1   -1    0    0  501    0  0.00000000000E+00  0.00000000000E+00  0.70436089349E+03  0.70436089351E+03  0.50400001928E-02 0.  1.
       -1   -1    0    0    0  501  0.00000000000E+00  0.00000000000E+00 -0.12729948980E+03  0.12729948990E+03  0.50400001928E-02 0. -1.
    10030    2    1    2    0    0  0.00000000000E+00  0.00000000000E+00  0.57706140369E+03  0.83166038341E+03  0.59888156567E+03 0.  0.
        4    1    3    3  502    0  0.23672528941E+01  0.16492012134E+03 -0.58527491311E+02  0.17501808606E+03  0.12699999809E+01 0. -1.
       -4    1    3    3    0  502 -0.23672528941E+01 -0.16492012134E+03  0.63558889500E+03  0.65664229734E+03  0.12699999809E+01 0.  1.
</event>
<event>
 5   0  0.9571790E-03  0.5946215E+03  0.7818609E-02  0.9916628E-01
       -2   -1    0    0    0  501  0.00000000000E+00  0.00000000000E+00  0.76538924435E+02  0.76538924478E+02  0.25500000920E-02 0. -1.
        2   -1    0    0  501    0  0.00000000000E+00  0.00000000000E+00 -0.11548854316E+04  0.11548854316E+04  0.25500000920E-02 0.  1.
    10030    2    1    2    0    0  0.00000000000E+00  0.00000000000E+00 -0.10783465071E+04  0.12314243560E+04  0.59462152267E+03 0.  0.
        5    1    3    3  502    0 -0.85040546873E+02 -0.35890874012E+02  0.46032770452E+02  0.10325287116E+03  0.46999998093E+01 0. -1.
       -5    1    3    3    0  502  0.85040546873E+02  0.35890874012E+02 -0.11243792776E+04  0.11281714849E+04  0.46999998093E+01 0.  1.
</event>
<event>
 5   0  0.5653633E-03  0.6003396E+03  0.7818609E-02  0.9904702E-01
        1   -1    0    0  501    0  0.00000000000E+00  0.00000000000E+00  0.99871262028E+03  0.99871262029E+03  0.50400001928E-02 0.  1.
       -1   -1    0    0    0  501  0.00000000000E+00  0.00000000000E+00 -0.90218051253E+02  0.90218051394E+02  0.50400001928E-02 0. -1.
    10030    2    1    2    0    0  0.00000000000E+00  0.00000000000E+00  0.90849456903E+03  0.10889306717E+04  0.60033959205E+03 0.  0.
        2    1    3    3  502    0 -0.15056956409E+03 -0.97293081153E+02  0.17545164497E+02  0.18012487356E+03  0.25500000920E-02 0. -1.
       -2    1    3    3    0  502  0.15056956409E+03  0.97293081153E+02  0.89094940453E+03  0.90880579813E+03  0.25500000920E-02 0.  1.
</event>
<event>
 5   0  0.5503975E-03  0.5983946E+03  0.7818609E-02  0.9908742E-01
        1   -1    0    0  501    0  0.00000000000E+00  0.00000000000E+00  0.10251268525E+03  0.10251268537E+03  0.50400001928E-02 0.  1.
       -1   -1    0    0    0  501  0.00000000000E+00  0.00000000000E+00 -0.87324819257E+03  0.87324819258E+03  0.50400001928E-02 0. -1.
    10030    2    1    2    0    0  0.00000000000E+00  0.00000000000E+00 -0.77073550732E+03  0.97576087796E+03  0.59839457610E+03 0.  0.
        4    1    3    3  502    0  0.10306118627E+03 -0.23328162672E+03 -0.64047415203E+03  0.68938427441E+03  0.12699999809E+01 0. -1.
       -4    1    3    3    0  502 -0.10306118627E+03  0.23328162672E+03 -0.13026135529E+03  0.28637660355E+03  0.12699999809E+01 0.  1.
</event>
<event>
 5   0  0.5574736E-03  0.5999434E+03  0.7818609E-02  0.9905524E-01
        1   -1    0    0  501    0  0.00000000000E+00  0.00000000000E+00  0.12641109585E+04  0.12641109585E+04  0.50400001928E-02 0. -1.
       -1   -1    0    0    0  501  0.00000000000E+00  0.00000000000E+00 -0.71182842188E+02  0.71182842366E+02  0.50400001928E-02 0.  1.
    10030    2    1    2    0    0  0.00000000000E+00  0.00000000000E+00  0.11929281163E+04  0.13352938008E+04  0.59994336729E+03 0.  0.
        5    1    3    3  502    0  0.79653851833E+02 -0.21888042483E+03  0.10170420757E+04  0.10433839419E+04  0.46999998093E+01 0. -1.
       -5    1    3    3    0  502 -0.79653851833E+02  0.21888042483E+03  0.17588604061E+03  0.29190985897E+03  0.46999998093E+01 0.  1.
</event>
<event>
 5   0  0.5503975E-03  0.5974230E+03  0.7818609E-02  0.9910767E-01
        1   -1    0    0  501    0  0.00000000000E+00  0.00000000000E+00  0.26929310573E+03  0.26929310577E+03  0.50400001928E-02 0.  1.
       -1   -1    0    0    0  501  0.00000000000E+00  0.00000000000E+00 -0.33134363541E+03  0.33134363545E+03  0.50400001928E-02 0. -1.
    10030    2    1    2    0    0  0.00000000000E+00  0.00000000000E+00 -0.62050529687E+02  0.60063674122E+03  0.59742298807E+03 0.  0.
        4    1    3    3  502    0 -0.27399283561E+03  0.11374690691E+03 -0.66091406250E+02  0.30394098058E+03  0.12699999809E+01 0. -1.
       -4    1    3    3    0  502  0.27399283561E+03 -0.11374690691E+03  0.40408765635E+01  0.29669576064E+03  0.12699999809E+01 0.  1.
</event>
<event>
 5   0  0.9866317E-03  0.6008574E+03  0.7818609E-02  0.9903629E-01
        2   -1    0    0  501    0  0.00000000000E+00  0.00000000000E+00  0.72005381530E+03  0.72005381531E+03  0.25500000920E-02 0. -1.
       -2   -1    0    0    0  501  0.00000000000E+00  0.00000000000E+00 -0.12534815154E+03  0.12534815156E+03  0.25500000920E-02 0.  1.
    10030    2    1    2    0    0  0.00000000000E+00  0.00000000000E+00  0.59470566377E+03  0.84540196687E+03  0.60085743656E+03 0.  0.
        1    1    3    3  502    0 -0.20589288920E+03  0.21642375561E+03  0.34242693130E+03  0.45440876655E+03  0.50400001928E-02 0. -1.
       -1    1    3    3    0  502  0.20589288920E+03 -0.21642375561E+03  0.25227873246E+03  0.39099320031E+03  0.50400001928E-02 0.  1.
</event>
<event>
 5   0  0.5503975E-03  0.6000564E+03  0.7818609E-02  0.9905289E-01
        1   -1    0    0  501    0  0.00000000000E+00  0.00000000000E+00  0.36461821840E+03  0.36461821843E+03  0.50400001928E-02 0.  1.
       -1   -1    0    0    0  501  0.00000000000E+00  0.00000000000E+00 -0.24687990157E+03  0.24687990162E+03  0.50400001928E-02 0. -1.
    10030    2    1    2    0    0  0.00000000000E+00  0.00000000000E+00  0.11773831682E+03  0.61149812005E+03  0.60005636367E+03 0.  0.
        4    1    3    3  502    0  0.11156906538E+03 -0.59776790814E+02  0.33607503716E+03  0.35912249243E+03  0.12699999809E+01 0.  1.
       -4    1    3    3    0  502 -0.11156906538E+03  0.59776790814E+02 -0.21833672034E+03  0.25237562762E+03  0.12699999809E+01 0. -1.
</event>
<event>
 5   0  0.9428629E-03  0.5975877E+03  0.7818609E-02  0.9910424E-01
       -2   -1    0    0    0  501  0.00000000000E+00  0.00000000000E+00  0.48424547886E+03  0.48424547887E+03  0.25500000920E-02 0.  1.
        2   -1    0    0  501    0  0.00000000000E+00  0.00000000000E+00 -0.18436466359E+03  0.18436466360E+03  0.25500000920E-02 0. -1.
    10030    2    1    2    0    0  0.00000000000E+00  0.00000000000E+00  0.29988081527E+03  0.66861014247E+03  0.59758766658E+03 0.  0.
        3    1    3    3  502    0  0.40012668997E+00  0.26387206609E+03 -0.68945448631E+01  0.26396244490E+03  0.10100000352E+00 0. -1.
       -3    1    3    3    0  502 -0.40012668997E+00 -0.26387206609E+03  0.30677536014E+03  0.40464769758E+03  0.10100000352E+00 0.  1.
</event>
<event>
 5   0  0.9866317E-03  0.6053246E+03  0.7818609E-02  0.9894420E-01
        2   -1    0    0  501    0  0.00000000000E+00  0.00000000000E+00  0.15940345646E+04  0.15940345646E+04  0.25500000920E-02 0.  1.
       -2   -1    0    0    0  501  0.00000000000E+00  0.00000000000E+00 -0.57467053437E+02  0.57467053493E+02  0.25500000920E-02 0. -1.
    10030    2    1    2    0    0  0.00000000000E+00  0.00000000000E+00  0.15365675111E+04  0.16515016181E+04  0.60532460565E+03 0.  0.
        1    1    3    3  502    0 -0.22389157893E+03  0.10199855183E+03  0.28735079171E+03  0.37828774923E+03  0.50400001928E-02 0. -1.
       -1    1    3    3    0  502  0.22389157893E+03 -0.10199855183E+03  0.12492167194E+04  0.12732138688E+04  0.50400001928E-02 0.  1.
</event>
<event>
 5   0  0.9866317E-03  0.5991050E+03  0.7818609E-02  0.9907265E-01
        2   -1    0    0  501    0  0.00000000000E+00  0.00000000000E+00  0.10748979301E+04  0.10748979301E+04  0.25500000920E-02 0.  1.
       -2   -1    0    0    0  501  0.00000000000E+00  0.00000000000E+00 -0.83479279335E+02  0.83479279374E+02  0.25500000920E-02 0. -1.
    10030    2    1    2    0    0  0.00000000000E+00  0.00000000000E+00  0.99141865077E+03  0.11583772095E+04  0.59910501446E+03 0.  0.
        1    1    3    3  502    0  0.15823548517E+03  0.10208543761E+03  0.45272219329E+02  0.19367364097E+03  0.50400001928E-02 0. -1.
       -1    1    3    3    0  502 -0.15823548517E+03 -0.10208543761E+03  0.94614643145E+03  0.96470356851E+03  0.50400001928E-02 0.  1.
</event>
<event>
 5   0  0.9571790E-03  0.5973419E+03  0.7818609E-02  0.9910936E-01
        2   -1    0    0  501    0  0.00000000000E+00  0.00000000000E+00  0.11748739901E+04  0.11748739901E+04  0.25500000920E-02 0.  1.
       -2   -1    0    0    0  501  0.00000000000E+00  0.00000000000E+00 -0.75926715312E+02  0.75926715355E+02  0.25500000920E-02 0. -1.
    10030    2    1    2    0    0  0.00000000000E+00  0.00000000000E+00  0.10989472748E+04  0.12508007055E+04  0.59734185523E+03 0.  0.
        5    1    3    3  502    0 -0.37291516998E+02  0.17261143501E+03  0.10537486426E+04  0.10684538626E+04  0.46999998093E+01 0. -1.
       -5    1    3    3    0  502  0.37291516998E+02 -0.17261143501E+03  0.45198632140E+02  0.18234684281E+03  0.46999998093E+01 0.  1.
</event>
<event>
 5   0  0.5574736E-03  0.5993225E+03  0.7818609E-02  0.9906813E-01
        1   -1    0    0  501    0  0.00000000000E+00  0.00000000000E+00  0.87565636415E+03  0.87565636417E+03  0.50400001928E-02 0.  1.
       -1   -1    0    0    0  501  0.00000000000E+00  0.00000000000E+00 -0.10254807374E+03  0.10254807386E+03  0.50400001928E-02 0. -1.
    10030    2    1    2    0    0  0.00000000000E+00  0.00000000000E+00  0.77310829042E+03  0.97820443803E+03  0.59932252909E+03 0.  0.
        5    1    3    3  502    0  0.26266835556E+03 -0.82754910539E+02  0.57920536194E+03  0.64136103836E+03  0.46999998093E+01 0.  1.
       -5    1    3    3    0  502 -0.26266835556E+03  0.82754910539E+02  0.19390292848E+03  0.33684339967E+03  0.46999998093E+01 0. -1.
</event>
<event>
 5   0  0.9428629E-03  0.6018345E+03  0.7818609E-02  0.9901607E-01
        2   -1    0    0  501    0  0.00000000000E+00  0.00000000000E+00  0.13251427738E+04  0.13251427738E+04  0.25500000920E-02 0.  1.
       -2   -1    0    0    0  501  0.00000000000E+00  0.00000000000E+00 -0.68333160091E+02  0.68333160138E+02  0.25500000920E-02 0. -1.
    10030    2    1    2    0    0  0.00000000000E+00  0.00000000000E+00  0.12568096137E+04  0.13934759339E+04  0.60183450661E+03 0.  0.
        3    1    3    3  502    0  0.45642628161E+02 -0.29395693682E+03  0.73342340870E+03  0.79145678141E+03  0.10100000352E+00 0. -1.
       -3    1    3    3    0  502 -0.45642628161E+02  0.29395693682E+03  0.52338620498E+03  0.60201915250E+03  0.10100000352E+00 0.  1.
</event>
<event>
 5   0  0.5653633E-03  0.6002946E+03  0.7818609E-02  0.9904795E-01
       -1   -1    0    0    0  501  0.00000000000E+00  0.00000000000E+00  0.59230358040E+03  0.59230358042E+03  0.50400001928E-02 0. -1.
        1   -1    0    0  501    0  0.00000000000E+00  0.00000000000E+00 -0.15209837873E+03  0.15209837881E+03  0.50400001928E-02 0.  1.
    10030    2    1    2    0    0  0.00000000000E+00  0.00000000000E+00  0.44020520167E+03  0.74440195923E+03  0.60029464210E+03 0.  0.
        2    1    3    3  502    0 -0.96433181586E+02 -0.27742838545E+03  0.29677153820E+03  0.41753947532E+03  0.25500000920E-02 0. -1.
       -2    1    3    3    0  502  0.96433181586E+02  0.27742838545E+03  0.14343366348E+03  0.32686248391E+03  0.25500000920E-02 0.  1.
</event>
<event>
 5   0  0.5785798E-03  0.5998415E+03  0.7818609E-02  0.9905735E-01
        1   -1    0    0  501    0  0.00000000000E+00  0.00000000000E+00  0.15375498597E+04  0.15375498597E+04  0.50400001928E-02 0. -1.
       -1   -1    0    0    0  501  0.00000000000E+00  0.00000000000E+00 -0.58503769051E+02  0.58503769268E+02  0.50400001928E-02 0.  1.
    10030    2    1    2    0    0  0.00000000000E+00  0.00000000000E+00  0.14790460906E+04  0.15960536290E+04  0.59984151932E+03 0.  0.
        1    1    3    3  502    0 -0.23280417033E+03 -0.16380067476E+03  0.48816591661E+03  0.56509681024E+03  0.50400001928E-02 0.  1.
       -1    1    3    3    0  502  0.23280417033E+03  0.16380067476E+03  0.99088017402E+03  0.10309568187E+04  0.50400001928E-02 0. -1.
</event>
<event>
 5   0  0.5491236E-03  0.5997991E+03  0.7818609E-02  0.9905823E-01
        1   -1    0    0  501    0  0.00000000000E+00  0.00000000000E+00  0.39503917601E+03  0.39503917604E+03  0.50400001928E-02 0. -1.
       -1   -1    0    0    0  501  0.00000000000E+00  0.00000000000E+00 -0.22767296437E+03  0.22767296443E+03  0.50400001928E-02 0.  1.
    10030    2    1    2    0    0  0.00000000000E+00  0.00000000000E+00  0.16736621163E+03  0.62271214047E+03  0.59979910061E+03 0.  0.
        3    1    3    3  502    0 -0.13040004525E+03 -0.56515512623E+02 -0.19049156846E+03  0.23766620042E+03  0.10100000352E+00 0.  1.
       -3    1    3    3    0  502  0.13040004525E+03  0.56515512623E+02  0.35785778009E+03  0.38504594004E+03  0.10100000352E+00 0. -1.
</event>
<event>
 5   0  0.5491236E-03  0.5983976E+03  0.7818609E-02  0.9908736E-01
        1   -1    0    0  501    0  0.00000000000E+00  0.00000000000E+00  0.16706256617E+04  0.16706256617E+04  0.50400001928E-02 0. -1.
       -1   -1    0    0    0  501  0.00000000000E+00  0.00000000000E+00 -0.53584663836E+02  0.53584664073E+02  0.50400001928E-02 0.  1.
    10030    2    1    2    0    0  0.00000000000E+00  0.00000000000E+00  0.16170409978E+04  0.17242103258E+04  0.59839757582E+03 0.  0.
        3    1    3    3  502    0  0.16437605425E+03 -0.20251688443E+03  0.12308891054E+04  0.12582211951E+04  0.10100000352E+00 0. -1.
       -3    1    3    3    0  502 -0.16437605425E+03  0.20251688443E+03  0.38615189239E+03  0.46598913066E+03  0.10100000352E+00 0.  1.
</event>
<event>
 5   0  0.9530666E-03  0.5993543E+03  0.7818609E-02  0.9906747E-01
        2   -1    0    0  501    0  0.00000000000E+00  0.00000000000E+00  0.80728421025E+03  0.80728421025E+03  0.25500000920E-02 0. -1.
       -2   -1    0    0    0  501  0.00000000000E+00  0.00000000000E+00 -0.11124507421E+03  0.11124507424E+03  0.25500000920E-02 0.  1.
    10030    2    1    2    0    0  0.00000000000E+00  0.00000000000E+00  0.69603913603E+03  0.91852928450E+03  0.59935429221E+03 0.  0.
        2    1    3    3  502    0  0.28791413111E+03  0.38262373337E+01  0.22074373403E+03  0.36281811298E+03  0.25500000920E-02 0.  1.
       -2    1    3    3    0  502 -0.28791413111E+03 -0.38262373337E+01  0.47529540200E+03  0.55571117152E+03  0.25500000920E-02 0. -1.
</event>
<event>
 5   0  0.5574736E-03  0.6004152E+03  0.7818609E-02  0.9904545E-01
       -1   -1    0    0    0  501  0.00000000000E+00  0.00000000000E+00  0.87113948368E+02  0.87113948514E+02  0.50400001928E-02 0. -1.
        1   -1    0    0  501    0  0.00000000000E+00  0.00000000000E+00 -0.10345599225E+04  0.10345599225E+04  0.50400001928E-02 0.  1.
    10030    2    1    2    0    0  0.00000000000E+00  0.00000000000E+00 -0.94744597416E+03  0.11216738711E+04  0.60041518889E+03 0.  0.
        5    1    3    3  502    0  0.16988383315E+03 -0.12164998690E+03 -0.87632537403E+03  0.90090370586E+03  0.46999998093E+01 0.  1.
       -5    1    3    3    0  502 -0.16988383315E+03  0.12164998690E+03 -0.71120600138E+02  0.22077016519E+03  0.46999998093E+01 0. -1.
</event>
<event>
 5   0  0.9571790E-03  0.6003656E+03  0.7818609E-02  0.9904648E-01
       -2   -1    0    0    0  501  0.00000000000E+00  0.00000000000E+00  0.46228273372E+02  0.46228273442E+02  0.25500000920E-02 0. -1.
        2   -1    0    0  501    0  0.00000000000E+00  0.00000000000E+00 -0.19492339706E+04  0.19492339706E+04  0.25500000920E-02 0.  1.
    10030    2    1    2    0    0  0.00000000000E+00  0.00000000000E+00 -0.19030056973E+04  0.19954622441E+04  0.60036562504E+03 0.  0.
        5    1    3    3  502    0  0.13687557391E+03 -0.25548468130E+03 -0.69232988527E+03  0.75056652280E+03  0.46999998093E+01 0. -1.
       -5    1    3    3    0  502 -0.13687557391E+03  0.25548468130E+03 -0.12106758120E+04  0.12448957213E+04  0.46999998093E+01 0.  1.
</event>
<event>
 5   0  0.3794375E-03  0.5984419E+03  0.7818609E-02  0.9908644E-01
       -4   -1    0    0    0  501  0.00000000000E+00  0.00000000000E+00  0.11660188178E+03  0.11660879784E+03  0.12699999809E+01 0. -1.
        4   -1    0    0  501    0  0.00000000000E+00  0.00000000000E+00 -0.76782334763E+03  0.76782439794E+03  0.12699999809E+01 0.  1.
    10030    2    1    2    0    0  0.00000000000E+00  0.00000000000E+00 -0.65122146585E+03  0.88443319578E+03  0.59844187705E+03 0.  0.
        5    1    3    3  502    0  0.49681965124E+02 -0.28275473230E+03 -0.20114664232E+03  0.35057181577E+03  0.46999998093E+01 0.  1.
       -5    1    3    3    0  502 -0.49681965124E+02  0.28275473230E+03 -0.45007482354E+03  0.53386138002E+03  0.46999998093E+01 0. -1.
</event>
<event>
 5   0  0.3794375E-03  0.5984082E+03  0.7818609E-02  0.9908714E-01
        4   -1    0    0  501    0  0.00000000000E+00  0.00000000000E+00  0.74168302291E+03  0.74168411024E+03  0.12699999809E+01 0.  1.
       -4   -1    0    0    0  501  0.00000000000E+00  0.00000000000E+00 -0.12069809644E+03  0.12070477780E+03  0.12699999809E+01 0. -1.
    10030    2    1    2    0    0  0.00000000000E+00  0.00000000000E+00  0.62098492648E+03  0.86238888804E+03  0.59840815109E+03 0.  0.
        1    1    3    3  502    0 -0.69223806166E+02 -0.43655805511E+02 -0.10425830313E+03  0.13254266669E+03  0.50400001928E-02 0. -1.
       -1    1    3    3    0  502  0.69223806166E+02  0.43655805511E+02  0.72524322961E+03  0.72984622135E+03  0.50400001928E-02 0.  1.
</event>
<event>
 5   0  0.5785798E-03  0.5993134E+03  0.7818609E-02  0.9906832E-01
       -1   -1    0    0    0  501  0.00000000000E+00  0.00000000000E+00  0.75738019699E+02  0.75738019867E+02  0.50400001928E-02 0.  1.
        1   -1    0    0  501    0  0.00000000000E+00  0.00000000000E+00 -0.11855886114E+04  0.11855886114E+04  0.50400001928E-02 0. -1.
    10030    2    1    2    0    0  0.00000000000E+00  0.00000000000E+00 -0.11098505917E+04  0.12613266313E+04  0.59931338619E+03 0.  0.
        1    1    3    3  502    0  0.55116563545E+02 -0.18466234305E+02  0.63758724409E+02  0.86278690012E+02  0.50400001928E-02 0.  1.
       -1    1    3    3    0  502 -0.55116563545E+02  0.18466234305E+02 -0.11736093161E+04  0.11750479412E+04  0.50400001928E-02 0. -1.
</event>
<event>
 5   0  0.5653633E-03  0.6015322E+03  0.7818609E-02  0.9902232E-01
       -1   -1    0    0    0  501  0.00000000000E+00  0.00000000000E+00  0.14679943975E+03  0.14679943984E+03  0.50400001928E-02 0. -1.
        1   -1    0    0  501    0  0.00000000000E+00  0.00000000000E+00 -0.61621657130E+03  0.61621657132E+03  0.50400001928E-02 0.  1.
    10030    2    1    2    0    0  0.00000000000E+00  0.00000000000E+00 -0.46941713155E+03  0.76301601116E+03  0.60153220187E+03 0.  0.
        2    1    3    3  502    0  0.13594441087E+03 -0.14823697786E+03  0.48941046056E+02  0.20700316531E+03  0.25500000920E-02 0. -1.
       -2    1    3    3    0  502 -0.13594441087E+03  0.14823697786E+03 -0.51835817761E+03  0.55601284585E+03  0.25500000920E-02 0.  1.
</event>
<event>
 5   0  0.9866317E-03  0.5995921E+03  0.7818609E-02  0.9906253E-01
       -2   -1    0    0    0  501  0.00000000000E+00  0.00000000000E+00  0.10238108544E+03  0.10238108547E+03  0.25500000920E-02 0.  1.
        2   -1    0    0  501    0  0.00000000000E+00  0.00000000000E+00 -0.87787373921E+03  0.87787373922E+03  0.25500000920E-02 0. -1.
    10030    2    1    2    0    0  0.00000000000E+00  0.00000000000E+00 -0.77549265378E+03  0.98025482469E+03  0.59959208239E+03 0.  0.
        1    1    3    3  502    0  0.11768283292E+03  0.23899803379E+03 -0.16293924125E+03  0.31227953133E+03  0.50400001928E-02 0.  1.
       -1    1    3    3    0  502 -0.11768283292E+03 -0.23899803379E+03 -0.61255341252E+03  0.66797529336E+03  0.50400001928E-02 0. -1.
</event>
<event>
 5   0  0.9866317E-03  0.5996084E+03  0.7818609E-02  0.9906219E-01
        2   -1    0    0  501    0  0.00000000000E+00  0.00000000000E+00  0.12062364530E+04  0.12062364530E+04  0.25500000920E-02 0.  1.
       -2   -1    0    0    0  501  0.00000000000E+00  0.00000000000E+00 -0.74514871854E+02  0.74514871898E+02  0.25500000920E-02 0. -1.
    10030    2    1    2    0    0  0.00000000000E+00  0.00000000000E+00  0.11317215811E+04  0.12807513249E+04  0.59960838803E+03 0.  0.
        1    1    3    3  502    0  0.46187696381E+02  0.25318433415E+03  0.23739917171E+03  0.35013422727E+03  0.50400001928E-02 0. -1.
       -1    1    3    3    0  502 -0.46187696381E+02 -0.25318433415E+03  0.89432240943E+03  0.93061709763E+03  0.50400001928E-02 0.  1.
</event>
<event>
 5   0  0.5574736E-03  0.5996725E+03  0.7818609E-02  0.9906086E-01
        1   -1    0    0  501    0  0.00000000000E+00  0.00000000000E+00  0.27549411814E+03  0.27549411818E+03  0.50400001928E-02 0. -1.
       -1   -1    0    0    0  501  0.00000000000E+00  0.00000000000E+00 -0.32632919570E+03  0.32632919574E+03  0.50400001928E-02 0.  1.
    10030    2    1    2    0    0  0.00000000000E+00  0.00000000000E+00 -0.50835077568E+02  0.60182331392E+03  0.59967249067E+03 0.  0.
        5    1    3    3  502    0 -0.25244987892E+03 -0.44225160130E+02 -0.18151600930E+03  0.31409705153E+03  0.46999998093E+01 0.  1.
       -5    1    3    3    0  502  0.25244987892E+03  0.44225160130E+02  0.13068093173E+03  0.28772626239E+03  0.46999998093E+01 0. -1.
</event>
<event>
 5   0  0.5503975E-03  0.5997379E+03  0.7818609E-02  0.9905950E-01
        1   -1    0    0  501    0  0.00000000000E+00  0.00000000000E+00  0.83405290844E+02  0.83405290996E+02  0.50400001928E-02 0.  1.
       -1   -1    0    0    0  501  0.00000000000E+00  0.00000000000E+00 -0.10781258668E+04  0.10781258668E+04  0.50400001928E-02 0. -1.
    10030    2    1    2    0    0  0.00000000000E+00  0.00000000000E+00 -0.99472057597E+03  0.11615311578E+04  0.59973794805E+03 0.  0.
        4    1    3    3  502    0  0.12363426844E+03  0.23804256849E+03 -0.75698407723E+03  0.80310410460E+03  0.12699999809E+01 0.  1.
       -4    1    3    3    0  502 -0.12363426844E+03 -0.23804256849E+03 -0.23773649874E+03  0.35842705322E+03  0.12699999809E+01 0. -1.
</event>
<event>
 5   0  0.9571790E-03  0.6007333E+03  0.7818609E-02  0.9903886E-01
       -2   -1    0    0    0  501  0.00000000000E+00  0.00000000000E+00  0.23823714107E+03  0.23823714108E+03  0.25500000920E-02 0.  1.
        2   -1    0    0  501    0  0.00000000000E+00  0.00000000000E+00 -0.37869880613E+03  0.37869880614E+03  0.25500000920E-02 0. -1.
    10030    2    1    2    0    0  0.00000000000E+00  0.00000000000E+00 -0.14046166506E+03  0.61693594722E+03  0.60073328826E+03 0.  0.
        5    1    3    3  502    0  0.25124834296E+02  0.12090037333E+03  0.21092288464E+03  0.24445594865E+03  0.46999998093E+01 0.  1.
       -5    1    3    3    0  502 -0.25124834296E+02 -0.12090037333E+03 -0.35138454970E+03  0.37247999857E+03  0.46999998093E+01 0. -1.
</event>
<event>
 5   0  0.5574736E-03  0.6011357E+03  0.7818609E-02  0.9903053E-01
        1   -1    0    0  501    0  0.00000000000E+00  0.00000000000E+00  0.20178332811E+04  0.20178332811E+04  0.50400001928E-02 0. -1.
       -1   -1    0    0    0  501  0.00000000000E+00  0.00000000000E+00 -0.44771308524E+02  0.44771308808E+02  0.50400001928E-02 0.  1.
    10030    2    1    2    0    0  0.00000000000E+00  0.00000000000E+00  0.19730619725E+04  0.20626045899E+04  0.60113571405E+03 0.  0.
        5    1    3    3  502    0 -0.29013817021E+03 -0.22388263262E+02  0.72890549844E+03  0.78486094807E+03  0.46999998093E+01 0. -1.
       -5    1    3    3    0  502  0.29013817021E+03  0.22388263262E+02  0.12441564741E+04  0.12777436418E+04  0.46999998093E+01 0.  1.
</event>
<event>
 5   0  0.5653633E-03  0.5996707E+03  0.7818609E-02  0.9906090E-01
       -1   -1    0    0    0  501  0.00000000000E+00  0.00000000000E+00  0.10512603836E+03  0.10512603848E+03  0.50400001928E-02 0.  1.
        1   -1    0    0  501    0  0.00000000000E+00  0.00000000000E+00 -0.85517560392E+03  0.85517560394E+03  0.50400001928E-02 0. -1.
    10030    2    1    2    0    0  0.00000000000E+00  0.00000000000E+00 -0.75004956556E+03  0.96030164242E+03  0.59967065430E+03 0.  0.
        2    1    3    3  502    0  0.16835894081E+03 -0.83156083931E+02 -0.69325676737E+00  0.18777685655E+03  0.25500000920E-02 0.  1.
       -2    1    3    3    0  502 -0.16835894081E+03  0.83156083931E+02 -0.74935630879E+03  0.77252478587E+03  0.25500000920E-02 0. -1.
</event>
<event>
 5   0  0.9571790E-03  0.5997791E+03  0.7818609E-02  0.9905864E-01
        2   -1    0    0  501    0  0.00000000000E+00  0.00000000000E+00  0.29795141955E+04  0.29795141955E+04  0.25500000920E-02 0.  1.
       -2   -1    0    0    0  501  0.00000000000E+00  0.00000000000E+00 -0.30184033577E+02  0.30184033685E+02  0.25500000920E-02 0. -1.
    10030    2    1    2    0    0  0.00000000000E+00  0.00000000000E+00  0.29493301619E+04  0.30096982292E+04  0.59977914830E+03 0.  0.
        5    1    3    3  502    0 -0.18796927168E+03 -0.10834578372E+02  0.30360895395E+03  0.35728185247E+03  0.46999998093E+01 0. -1.
       -5    1    3    3    0  502  0.18796927168E+03  0.10834578372E+02  0.26457212080E+04  0.26524163767E+04  0.46999998093E+01 0.  1.
</event>
<event>
 5   0  0.9866317E-03  0.6010455E+03  0.7818609E-02  0.9903239E-01
        2   -1    0    0  501    0  0.00000000000E+00  0.00000000000E+00  0.45371534776E+03  0.45371534776E+03  0.25500000920E-02 0.  1.
       -2   -1    0    0    0  501  0.00000000000E+00  0.00000000000E+00 -0.19905412792E+03  0.19905412793E+03  0.25500000920E-02 0. -1.
    10030    2    1    2    0    0  0.00000000000E+00  0.00000000000E+00  0.25466121984E+03  0.65276947570E+03  0.60104546543E+03 0.  0.
        1    1    3    3  502    0 -0.41213488983E+02 -0.59515316811E+02  0.44410431394E+03  0.44996585015E+03  0.50400001928E-02 0.  1.
       -1    1    3    3    0  502  0.41213488983E+02  0.59515316811E+02 -0.18944309410E+03  0.20280362555E+03  0.50400001928E-02 0. -1.
</event>
<event>
 5   0  0.5653633E-03  0.6005045E+03  0.7818609E-02  0.9904360E-01
        1   -1    0    0  501    0  0.00000000000E+00  0.00000000000E+00  0.75898292730E+03  0.75898292732E+03  0.50400001928E-02 0.  1.
       -1   -1    0    0    0  501  0.00000000000E+00  0.00000000000E+00 -0.11877921838E+03  0.11877921849E+03  0.50400001928E-02 0. -1.
    10030    2    1    2    0    0  0.00000000000E+00  0.00000000000E+00  0.64020370892E+03  0.87776214581E+03  0.60050445102E+03 0.  0.
        2    1    3    3  502    0 -0.14055590690E+03  0.25302960789E+03  0.20342629950E+03  0.35378270840E+03  0.25500000920E-02 0. -1.
       -2    1    3    3    0  502  0.14055590690E+03 -0.25302960789E+03  0.43677740943E+03  0.52397943740E+03  0.25500000920E-02 0.  1.
</event>
<event>
 5   0  0.5574736E-03  0.6007468E+03  0.7818609E-02  0.9903858E-01
        1   -1    0    0  501    0  0.00000000000E+00  0.00000000000E+00  0.91127734761E+03  0.91127734762E+03  0.50400001928E-02 0. -1.
       -1   -1    0    0    0  501  0.00000000000E+00  0.00000000000E+00 -0.99008487778E+02  0.99008487907E+02  0.50400001928E-02 0.  1.
    10030    2    1    2    0    0  0.00000000000E+00  0.00000000000E+00  0.81226885983E+03  0.10102858355E+04  0.60074684254E+03 0.  0.
        5    1    3    3  502    0  0.11107667920E+03 -0.97684159489E+02 -0.33440248125E+02  0.15172529081E+03  0.46999998093E+01 0.  1.
       -5    1    3    3    0  502 -0.11107667920E+03  0.97684159489E+02  0.84570910795E+03  0.85856054472E+03  0.46999998093E+01 0. -1.
</event>
<event>
 5   0  0.5491236E-03  0.6003818E+03  0.7818609E-02  0.9904614E-01
        1   -1    0    0  501    0  0.00000000000E+00  0.00000000000E+00  0.14195534075E+04  0.14195534075E+04  0.50400001928E-02 0. -1.
       -1   -1    0    0    0  501  0.00000000000E+00  0.00000000000E+00 -0.63480932549E+02  0.63480932749E+02  0.50400001928E-02 0.  1.
    10030    2    1    2    0    0  0.00000000000E+00  0.00000000000E+00  0.13560724750E+04  0.14830343403E+04  0.60038179275E+03 0.  0.
        3    1    3    3  502    0  0.26696520333E+02  0.17891168132E+03  0.12698037957E+04  0.12826237888E+04  0.10100000352E+00 0. -1.
       -3    1    3    3    0  502 -0.26696520333E+02 -0.17891168132E+03  0.86268679290E+02  0.20041055146E+03  0.10100000352E+00 0.  1.
</event>
<event>
 5   0  0.5491236E-03  0.5996958E+03  0.7818609E-02  0.9906037E-01
        1   -1    0    0  501    0  0.00000000000E+00  0.00000000000E+00  0.33223474233E+03  0.33223474236E+03  0.50400001928E-02 0. -1.
       -1   -1    0    0    0  501  0.00000000000E+00  0.00000000000E+00 -0.27061817447E+03  0.27061817452E+03  0.50400001928E-02 0.  1.
    10030    2    1    2    0    0  0.00000000000E+00  0.00000000000E+00  0.61616567854E+02  0.60285291688E+03  0.59969578785E+03 0.  0.
        3    1    3    3  502    0  0.20479878760E+03 -0.19219480262E+03 -0.74755808456E+02  0.29063693271E+03  0.10100000352E+00 0.  1.
       -3    1    3    3    0  502 -0.20479878760E+03  0.19219480262E+03  0.13637237631E+03  0.31221598418E+03  0.10100000352E+00 0. -1.
</event>
<event>
 5   0  0.5574736E-03  0.5997947E+03  0.7818609E-02  0.9905832E-01
        1   -1    0    0  501    0  0.00000000000E+00  0.00000000000E+00  0.15836862525E+04  0.15836862525E+04  0.50400001928E-02 0.  1.
       -1   -1    0    0    0  501  0.00000000000E+00  0.00000000000E+00 -0.56790556077E+02  0.56790556301E+02  0.50400001928E-02 0. -1.
    10030    2    1    2    0    0  0.00000000000E+00  0.00000000000E+00  0.15268956965E+04  0.16404768088E+04  0.59979470863E+03 0.  0.
        5    1    3    3  502    0  0.36787459999E+02 -0.38140356447E+02 -0.43782176086E+02  0.68898279689E+02  0.46999998093E+01 0. -1.
       -5    1    3    3    0  502 -0.36787459999E+02  0.38140356447E+02  0.15706778725E+04  0.15715785292E+04  0.46999998093E+01 0.  1.
</event>
<event>
 5   0  0.5503975E-03  0.6058628E+03  0.7818609E-02  0.9893317E-01
        1   -1    0    0  501    0  0.00000000000E+00  0.00000000000E+00  0.80354198595E+03  0.80354198597E+03  0.50400001928E-02 0. -1.
       -1   -1    0    0    0  501  0.00000000000E+00  0.00000000000E+00 -0.11420364470E+03  0.11420364481E+03  0.50400001928E-02 0.  1.
    10030    2    1    2    0    0  0.00000000000E+00  0.00000000000E+00  0.68933834125E+03  0.91774563078E+03  0.60586276837E+03 0.  0.
        4    1    3    3  502    0  0.10035319559E+03 -0.35026783213E+02 -0.85025657325E+02  0.13611985421E+03  0.12699999809E+01 0.  1.
       -4    1    3    3    0  502 -0.10035319559E+03  0.35026783213E+02  0.77436399858E+03  0.78162577657E+03  0.12699999809E+01 0. -1.
</event>
<event>
 5   0  0.5491236E-03  0.6007207E+03  0.7818609E-02  0.9903912E-01
        1   -1    0    0  501    0  0.00000000000E+00  0.00000000000E+00  0.24085981895E+03  0.24085981900E+03  0.50400001928E-02 0. -1.
       -1   -1    0    0    0  501  0.00000000000E+00  0.00000000000E+00 -0.37455956422E+03  0.37455956425E+03  0.50400001928E-02 0.  1.
    10030    2    1    2    0    0  0.00000000000E+00  0.00000000000E+00 -0.13369974527E+03  0.61541938325E+03  0.60072072995E+03 0.  0.
        3    1    3    3  502    0  0.27642480718E+03 -0.65136937089E+02 -0.16703242413E+03  0.32947433210E+03  0.10100000352E+00 0.  1.
       -3    1    3    3    0  502 -0.27642480718E+03  0.65136937089E+02  0.33332678860E+02  0.28594505115E+03  0.10100000352E+00 0. -1.
</event>
<event>
 5   0  0.9681801E-03  0.5981906E+03  0.7818609E-02  0.9909167E-01
        2   -1    0    0  501    0  0.00000000000E+00  0.00000000000E+00  0.51516899322E+03  0.51516899323E+03  0.25500000920E-02 0. -1.
       -2   -1    0    0    0  501  0.00000000000E+00  0.00000000000E+00 -0.17364787568E+03  0.17364787570E+03  0.25500000920E-02 0.  1.
    10030    2    1    2    0    0  0.00000000000E+00  0.00000000000E+00  0.34152111754E+03  0.68881686893E+03  0.59819060942E+03 0.  0.
        4    1    3    3  502    0 -0.20985987991E+03 -0.36185824080E+02  0.41259160873E+03  0.46431027509E+03  0.12699999809E+01 0. -1.
       -4    1    3    3    0  502  0.20985987991E+03  0.36185824080E+02 -0.71070491188E+02  0.22450659384E+03  0.12699999809E+01 0.  1.
</event>
<event>
 5   0  0.5491236E-03  0.6000730E+03  0.7818609E-02  0.9905255E-01
       -1   -1    0    0    0  501  0.00000000000E+00  0.00000000000E+00  0.41321960358E+03  0.41321960361E+03  0.50400001928E-02 0. -1.
        1   -1    0    0  501    0  0.00000000000E+00  0.00000000000E+00 -0.21785486399E+03  0.21785486405E+03  0.50400001928E-02 0.  1.
    10030    2    1    2    0    0  0.00000000000E+00  0.00000000000E+00  0.19536473959E+03  0.63107446766E+03  0.60007299743E+03 0.  0.
        3    1    3    3  502    0  0.17963470204E+02 -0.29949426650E+03  0.99307668019E+02  0.31604038517E+03  0.10100000352E+00 0. -1.
       -3    1    3    3    0  502 -0.17963470204E+02  0.29949426650E+03  0.96057071573E+02  0.31503408249E+03  0.10100000352E+00 0.  1.
</event>
<event>
 5   0  0.9428629E-03  0.6008607E+03  0.7818609E-02  0.9903622E-01
       -2   -1    0    0    0  501  0.00000000000E+00  0.00000000000E+00  0.27320782791E+02  0.27320782910E+02  0.25500000920E-02 0.  1.
        2   -1    0    0  501    0  0.00000000000E+00  0.00000000000E+00 -0.33036538600E+04  0.33036538600E+04  0.25500000920E-02 0. -1.
    10030    2    1    2    0    0  0.00000000000E+00  0.00000000000E+00 -0.32763330772E+04  0.33309746429E+04  0.60086074835E+03 0.  0.
        3    1    3    3  502    0 -0.25689762058E+03 -0.12688425013E+03 -0.11373180055E+04  0.11728547465E+04  0.10100000352E+00 0.  1.
       -3    1    3    3    0  502  0.25689762058E+03  0.12688425013E+03 -0.21390150717E+04  0.21581198965E+04  0.10100000352E+00 0. -1.
</event>
<event>
 5   0  0.9428629E-03  0.6000847E+03  0.7818609E-02  0.9905230E-01
        2   -1    0    0  501    0  0.00000000000E+00  0.00000000000E+00  0.40233769351E+03  0.40233769352E+03  0.25500000920E-02 0. -1.
       -2   -1    0    0    0  501  0.00000000000E+00  0.00000000000E+00 -0.22375582227E+03  0.22375582229E+03  0.25500000920E-02 0.  1.
    10030    2    1    2    0    0  0.00000000000E+00  0.00000000000E+00  0.17858187124E+03  0.62609351581E+03  0.60008466553E+03 0.  0.
        3    1    3    3  502    0 -0.86869414639E+02  0.69303192047E+02  0.38007497215E+03  0.39598765420E+03  0.10100000352E+00 0. -1.
       -3    1    3    3    0  502  0.86869414639E+02 -0.69303192047E+02 -0.20149310091E+03  0.23010586160E+03  0.10100000352E+00 0.  1.
</event>
<event>
 5   0  0.3794375E-03  0.5992741E+03  0.7818609E-02  0.9906913E-01
       -4   -1    0    0    0  501  0.00000000000E+00  0.00000000000E+00  0.47523783842E+03  0.47523953536E+03  0.12699999809E+01 0. -1.
        4   -1    0    0  501    0  0.00000000000E+00  0.00000000000E+00 -0.18891672867E+03  0.18892099743E+03  0.12699999809E+01 0.  1.
    10030    2    1    2    0    0  0.00000000000E+00  0.00000000000E+00  0.28632110975E+03  0.66416053280E+03  0.59927409041E+03 0.  0.
        1    1    3    3  502    0 -0.25142052574E+02  0.28995238525E+03  0.64185941189E+02  0.29803413159E+03  0.50400001928E-02 0. -1.
       -1    1    3    3    0  502  0.25142052574E+02 -0.28995238525E+03  0.22213516856E+03  0.36612640121E+03  0.50400001928E-02 0.  1.
</event>
<event>
 5   0  0.9571790E-03  0.6032453E+03  0.7818609E-02  0.9898696E-01
       -2   -1    0    0    0  501  0.00000000000E+00  0.00000000000E+00  0.91325812924E+03  0.91325812924E+03  0.25500000920E-02 0.  1.
        2   -1    0    0  501    0  0.00000000000E+00  0.00000000000E+00 -0.99617221310E+02  0.99617221342E+02  0.25500000920E-02 0. -1.
    10030    2    1    2    0    0  0.00000000000E+00  0.00000000000E+00  0.81364090793E+03  0.10128753506E+04  0.60324534707E+03 0.  0.
        5    1    3    3  502    0 -0.13976122687E+03  0.57086393910E+02  0.84518303115E+03  0.85857352804E+03  0.46999998093E+01 0.  1.
       -5    1    3    3    0  502  0.13976122687E+03 -0.57086393910E+02 -0.31542123223E+02  0.15430182255E+03  0.46999998093E+01 0. -1.
</event>
<event>
 5   0  0.5574736E-03  0.5994161E+03  0.7818609E-02  0.9906618E-01
        1   -1    0    0  501    0  0.00000000000E+00  0.00000000000E+00  0.72403139764E+03  0.72403139766E+03  0.50400001928E-02 0.  1.
       -1   -1    0    0    0  501  0.00000000000E+00  0.00000000000E+00 -0.12406217421E+03  0.12406217432E+03  0.50400001928E-02 0. -1.
    10030    2    1    2    0    0  0.00000000000E+00  0.00000000000E+00  0.59996922343E+03  0.84809357197E+03  0.59941608067E+03 0.  0.
        5    1    3    3  502    0 -0.14003356895E+03  0.25355172540E+03  0.40870805139E+03  0.50096131502E+03  0.46999998093E+01 0.  1.
       -5    1    3    3    0  502  0.14003356895E+03 -0.25355172540E+03  0.19126117204E+03  0.34713225695E+03  0.46999998093E+01 0. -1.
</event>
<event>
 5   0  0.5653633E-03  0.6005474E+03  0.7818609E-02  0.9904271E-01
        1   -1    0    0  501    0  0.00000000000E+00  0.00000000000E+00  0.14123332800E+03  0.14123332809E+03  0.50400001928E-02 0.  1.
       -1   -1    0    0    0  501  0.00000000000E+00  0.00000000000E+00 -0.63840673813E+03  0.63840673815E+03  0.50400001928E-02 0. -1.
    10030    2    1    2    0    0  0.00000000000E+00  0.00000000000E+00 -0.49717341013E+03  0.77964006624E+03  0.60054744454E+03 0.  0.
        2    1    3    3  502    0  0.64888785636E+02 -0.65118839864E+02  0.12251519335E+03  0.15316980909E+03  0.25500000920E-02 0.  1.
       -2    1    3    3    0  502 -0.64888785636E+02  0.65118839864E+02 -0.61968860348E+03  0.62647025715E+03  0.25500000920E-02 0. -1.
</event>
<event>
 5   0  0.9571790E-03  0.5998083E+03  0.7818609E-02  0.9905804E-01
       -2   -1    0    0    0  501  0.00000000000E+00  0.00000000000E+00  0.16575104048E+03  0.16575104050E+03  0.25500000920E-02 0.  1.
        2   -1    0    0  501    0  0.00000000000E+00  0.00000000000E+00 -0.54263603656E+03  0.54263603657E+03  0.25500000920E-02 0. -1.
    10030    2    1    2    0    0  0.00000000000E+00  0.00000000000E+00 -0.37688499608E+03  0.70838707707E+03  0.59980826161E+03 0.  0.
        5    1    3    3  502    0 -0.18519181105E+03 -0.15703051685E+02 -0.46636650030E+03  0.50205815930E+03  0.46999998093E+01 0. -1.
       -5    1    3    3    0  502  0.18519181105E+03  0.15703051685E+02  0.89481504224E+02  0.20632891778E+03  0.46999998093E+01 0.  1.
</event>
<event>
 5   0  0.9866317E-03  0.5999070E+03  0.7818609E-02  0.9905599E-01
       -2   -1    0    0    0  501  0.00000000000E+00  0.00000000000E+00  0.24097919059E+03  0.24097919061E+03  0.25500000920E-02 0. -1.
        2   -1    0    0  501    0  0.00000000000E+00  0.00000000000E+00 -0.37336048373E+03  0.37336048374E+03  0.25500000920E-02 0.  1.
    10030    2    1    2    0    0  0.00000000000E+00  0.00000000000E+00 -0.13238129314E+03  0.61433967435E+03  0.59990701672E+03 0.  0.
        1    1    3    3  502    0  0.29906284527E+03 -0.21461417371E+02 -0.74935964904E+02  0.30905432649E+03  0.50400001928E-02 0. -1.
       -1    1    3    3    0  502 -0.29906284527E+03  0.21461417371E+02 -0.57445328233E+02  0.30528534786E+03  0.50400001928E-02 0.  1.
</event>
<event>
 5   0  0.5653633E-03  0.6001332E+03  0.7818609E-02  0.9905130E-01
       -1   -1    0    0    0  501  0.00000000000E+00  0.00000000000E+00  0.10616689887E+03  0.10616689899E+03  0.50400001928E-02 0. -1.
        1   -1    0    0  501    0  0.00000000000E+00  0.00000000000E+00 -0.84809831900E+03  0.84809831901E+03  0.50400001928E-02 0.  1.
    10030    2    1    2    0    0  0.00000000000E+00  0.00000000000E+00 -0.74193142013E+03  0.95426521800E+03  0.60013321363E+03 0.  0.
        2    1    3    3  502    0  0.26967052796E+03 -0.11009879270E+03 -0.48558488721E+03  0.56624784371E+03  0.25500000920E-02 0. -1.
       -2    1    3    3    0  502 -0.26967052796E+03  0.11009879270E+03 -0.25634653292E+03  0.38801737429E+03  0.25500000920E-02 0.  1.
</event>
<event>
 5   0  0.9866317E-03  0.6009330E+03  0.7818609E-02  0.9903472E-01
       -2   -1    0    0    0  501  0.00000000000E+00  0.00000000000E+00  0.67826529524E+02  0.67826529572E+02  0.25500000920E-02 0. -1.
        2   -1    0    0  501    0  0.00000000000E+00  0.00000000000E+00 -0.13310445328E+04  0.13310445328E+04  0.25500000920E-02 0.  1.
    10030    2    1    2    0    0  0.00000000000E+00  0.00000000000E+00 -0.12632180033E+04  0.13988710624E+04  0.60093304564E+03 0.  0.
        1    1    3    3  502    0 -0.14238697719E+03 -0.14455811482E+03 -0.11574849057E+03  0.23359968521E+03  0.50400001928E-02 0.  1.
       -1    1    3    3    0  502  0.14238697719E+03  0.14455811482E+03 -0.11474695127E+04  0.11652713772E+04  0.50400001928E-02 0. -1.
</event>
<event>
 5   0  0.5503975E-03  0.6033747E+03  0.7818609E-02  0.9898429E-01
        1   -1    0    0  501    0  0.00000000000E+00  0.00000000000E+00  0.80226767204E+03  0.80226767205E+03  0.50400001928E-02 0. -1.
       -1   -1    0    0    0  501  0.00000000000E+00  0.00000000000E+00 -0.11344751145E+03  0.11344751156E+03  0.50400001928E-02 0.  1.
    10030    2    1    2    0    0  0.00000000000E+00  0.00000000000E+00  0.68882016059E+03  0.91571518361E+03  0.60337474579E+03 0.  0.
        4    1    3    3  502    0  0.16682481353E+03  0.17105967621E+03  0.64890482483E+02  0.24759708974E+03  0.12699999809E+01 0. -1.
       -4    1    3    3    0  502 -0.16682481353E+03 -0.17105967621E+03  0.62392967811E+03  0.66811809387E+03  0.12699999809E+01 0.  1.
</event>
<event>
 5   0  0.3794375E-03  0.6002066E+03  0.7818609E-02  0.9904978E-01
       -3   -1    0    0    0  501  0.00000000000E+00  0.00000000000E+00  0.30847398704E+03  0.30847400357E+03  0.10100000352E+00 0.  1.
        3   -1    0    0  501    0  0.00000000000E+00  0.00000000000E+00 -0.29195970681E+03  0.29195972428E+03  0.10100000352E+00 0. -1.
    10030    2    1    2    0    0  0.00000000000E+00  0.00000000000E+00  0.16514280224E+02  0.60043372785E+03  0.60020658118E+03 0.  0.
        4    1    3    3  502    0  0.19816562086E+03  0.18124379284E+03  0.14225351599E+03  0.30390228931E+03  0.12699999809E+01 0.  1.
       -4    1    3    3    0  502 -0.19816562086E+03 -0.18124379284E+03 -0.12573923577E+03  0.29653143855E+03  0.12699999809E+01 0. -1.
</event>
<event>
 5   0  0.9428629E-03  0.5997435E+03  0.7818609E-02  0.9905938E-01
       -2   -1    0    0    0  501  0.00000000000E+00  0.00000000000E+00  0.15376014071E+03  0.15376014073E+03  0.25500000920E-02 0.  1.
        2   -1    0    0  501    0  0.00000000000E+00  0.00000000000E+00 -0.58482687226E+03  0.58482687227E+03  0.25500000920E-02 0. -1.
    10030    2    1    2    0    0  0.00000000000E+00  0.00000000000E+00 -0.43106673155E+03  0.73858701300E+03  0.59974348577E+03 0.  0.
        3    1    3    3  502    0  0.59003954524E+02  0.51301016027E+02 -0.57205304449E+03  0.57737159335E+03  0.10100000352E+00 0. -1.
       -3    1    3    3    0  502 -0.59003954524E+02 -0.51301016027E+02  0.14098631294E+03  0.16121541965E+03  0.10100000352E+00 0.  1.
</event>
<event>
 5   0  0.5503975E-03  0.6003379E+03  0.7818609E-02  0.9904705E-01
       -1   -1    0    0    0  501  0.00000000000E+00  0.00000000000E+00  0.74552555433E+03  0.74552555434E+03  0.50400001928E-02 0. -1.
        1   -1    0    0  501    0  0.00000000000E+00  0.00000000000E+00 -0.12085622931E+03  0.12085622941E+03  0.50400001928E-02 0.  1.
    10030    2    1    2    0    0  0.00000000000E+00  0.00000000000E+00  0.62466932502E+03  0.86638178375E+03  0.60033792950E+03 0.  0.
        4    1    3    3  502    0  0.20960393832E+02 -0.22363100278E+03  0.24970170246E+02  0.22599841994E+03  0.12699999809E+01 0.  1.
       -4    1    3    3    0  502 -0.20960393832E+02  0.22363100278E+03  0.59969915477E+03  0.64038336381E+03  0.12699999809E+01 0. -1.
</event>
<event>
 5   0  0.9428629E-03  0.6079391E+03  0.7818609E-02  0.9889070E-01
        2   -1    0    0  501    0  0.00000000000E+00  0.00000000000E+00  0.35329417318E+03  0.35329417319E+03  0.25500000920E-02 0.  1.
       -2   -1    0    0    0  501  0.00000000000E+00  0.00000000000E+00 -0.26153130961E+03  0.26153130962E+03  0.25500000920E-02 0. -1.
    10030    2    1    2    0    0  0.00000000000E+00  0.00000000000E+00  0.91762863573E+02  0.61482548281E+03  0.60793910154E+03 0.  0.
        3    1    3    3  502    0 -0.21893504697E+02  0.21822031674E+03  0.25873653368E+03  0.33918142085E+03  0.10100000352E+00 0.  1.
       -3    1    3    3    0  502  0.21893504697E+02 -0.21822031674E+03 -0.16697367011E+03  0.27564406196E+03  0.10100000352E+00 0. -1.
</event>
<event>
 5   0  0.9681801E-03  0.5994997E+03  0.7818609E-02  0.9906445E-01
       -2   -1    0    0    0  501  0.00000000000E+00  0.00000000000E+00  0.16224095864E+03  0.16224095866E+03  0.25500000920E-02 0.  1.
        2   -1    0    0  501    0  0.00000000000E+00  0.00000000000E+00 -0.55380571529E+03  0.55380571530E+03  0.25500000920E-02 0. -1.
    10030    2    1    2    0    0  0.00000000000E+00  0.00000000000E+00 -0.39156475665E+03  0.71604667396E+03  0.59949969194E+03 0.  0.
        4    1    3    3  502    0 -0.18417220328E+02  0.98718178365E+02 -0.53311280492E+03  0.54248995236E+03  0.12699999809E+01 0. -1.
       -4    1    3    3    0  502  0.18417220328E+02 -0.98718178365E+02  0.14154804827E+03  0.17355672160E+03  0.12699999809E+01 0.  1.
</event>
<event>
 5   0  0.9530666E-03  0.5979474E+03  0.7818609E-02  0.9909674E-01
       -2   -1    0    0    0  501  0.00000000000E+00  0.00000000000E+00  0.62204594569E+03  0.62204594570E+03  0.25500000920E-02 0.  1.
        2   -1    0    0  501    0  0.00000000000E+00  0.00000000000E+00 -0.14369559793E+03  0.14369559795E+03  0.25500000920E-02 0. -1.
    10030    2    1    2    0    0  0.00000000000E+00  0.00000000000E+00  0.47835034776E+03  0.76574154365E+03  0.59794736931E+03 0.  0.
        2    1    3    3  502    0  0.21442631455E+03 -0.12694716743E+03  0.45073308216E+03  0.51502867789E+03  0.25500000920E-02 0. -1.
       -2    1    3    3    0  502 -0.21442631455E+03  0.12694716743E+03  0.27617265601E+02  0.25071286576E+03  0.25500000920E-02 0.  1.
</event>
<event>
 5   0  0.9530666E-03  0.6005612E+03  0.7818609E-02  0.9904242E-01
       -2   -1    0    0    0  501  0.00000000000E+00  0.00000000000E+00  0.45702676369E+02  0.45702676440E+02  0.25500000920E-02 0.  1.
        2   -1    0    0  501    0  0.00000000000E+00  0.00000000000E+00 -0.19729355932E+04  0.19729355932E+04  0.25500000920E-02 0. -1.
    10030    2    1    2    0    0  0.00000000000E+00  0.00000000000E+00 -0.19272329168E+04  0.20186382697E+04  0.60056119418E+03 0.  0.
        2    1    3    3  502    0  0.14052237125E+03  0.22522843501E+03 -0.14353196108E+04  0.14596632385E+04  0.25500000920E-02 0. -1.
       -2    1    3    3    0  502 -0.14052237125E+03 -0.22522843501E+03 -0.49191330608E+03  0.55897503117E+03  0.25500000920E-02 0.  1.
</event>
<event>
 5   0  0.5653633E-03  0.5992891E+03  0.7818609E-02  0.9906882E-01
        1   -1    0    0  501    0  0.00000000000E+00  0.00000000000E+00  0.24273893645E+04  0.24273893645E+04  0.50400001928E-02 0. -1.
       -1   -1    0    0    0  501  0.00000000000E+00  0.00000000000E+00 -0.36989058646E+02  0.36989058989E+02  0.50400001928E-02 0.  1.
    10030    2    1    2    0    0  0.00000000000E+00  0.00000000000E+00  0.23904003058E+04  0.24643784235E+04  0.59928907211E+03 0.  0.
        2    1    3    3  502    0  0.14031861477E+03  0.25549672102E+03  0.90973855373E+03  0.95529687755E+03  0.25500000920E-02 0.  1.
       -2    1    3    3    0  502 -0.14031861477E+03 -0.25549672102E+03  0.14806617521E+04  0.15090815459E+04  0.25500000920E-02 0. -1.
</event>
<event>
 5   0  0.9530666E-03  0.6002438E+03  0.7818609E-02  0.9904900E-01
        2   -1    0    0  501    0  0.00000000000E+00  0.00000000000E+00  0.21923355989E+04  0.21923355989E+04  0.25500000920E-02 0. -1.
       -2   -1    0    0    0  501  0.00000000000E+00  0.00000000000E+00 -0.41085483194E+02  0.41085483273E+02  0.25500000920E-02 0.  1.
    10030    2    1    2    0    0  0.00000000000E+00  0.00000000000E+00  0.21512501157E+04  0.22334210822E+04  0.60024384209E+03 0.  0.
        2    1    3    3  502    0 -0.26571024072E+03 -0.11772438491E+03  0.13543717023E+04  0.13852016716E+04  0.25500000920E-02 0. -1.
       -2    1    3    3    0  502  0.26571024072E+03  0.11772438491E+03  0.79687841335E+03  0.84821941059E+03  0.25500000920E-02 0.  1.
</event>
<event>
 5   0  0.9571790E-03  0.6005099E+03  0.7818609E-02  0.9904349E-01
        2   -1    0    0  501    0  0.00000000000E+00  0.00000000000E+00  0.13731134437E+04  0.13731134437E+04  0.25500000920E-02 0.  1.
       -2   -1    0    0    0  501  0.00000000000E+00  0.00000000000E+00 -0.65655916966E+02  0.65655917016E+02  0.25500000920E-02 0. -1.
    10030    2    1    2    0    0  0.00000000000E+00  0.00000000000E+00  0.13074575268E+04  0.14387693607E+04  0.60050985765E+03 0.  0.
        5    1    3    3  502    0 -0.45947475179E+02  0.76567596772E+02 -0.33013478570E+02  0.95319185457E+02  0.46999998093E+01 0. -1.
       -5    1    3    3    0  502  0.45947475179E+02 -0.76567596772E+02  0.13404710053E+04  0.13434501753E+04  0.46999998093E+01 0.  1.
</event>
<event>
 5   0  0.9571790E-03  0.5995445E+03  0.7818609E-02  0.9906352E-01
        2   -1    0    0  501    0  0.00000000000E+00  0.00000000000E+00  0.18032653442E+04  0.18032653442E+04  0.25500000920E-02 0.  1.
       -2   -1    0    0    0  501  0.00000000000E+00  0.00000000000E+00 -0.49833709035E+02  0.49833709101E+02  0.25500000920E-02 0. -1.
    10030    2    1    2    0    0  0.00000000000E+00  0.00000000000E+00  0.17534316351E+04  0.18530990533E+04  0.59954449555E+03 0.  0.
        5    1    3    3  502    0 -0.29264864227E+03 -0.25455877871E+02  0.69255537709E+03  0.75229400495E+03  0.46999998093E+01 0.  1.
       -5    1    3    3    0  502  0.29264864227E+03  0.25455877871E+02  0.10608762581E+04  0.11008050483E+04  0.46999998093E+01 0. -1.
</event>
<event>
 5   0  0.9428629E-03  0.5994947E+03  0.7818609E-02  0.9906455E-01
       -2   -1    0    0    0  501  0.00000000000E+00  0.00000000000E+00  0.15161339924E+03  0.15161339926E+03  0.25500000920E-02 0.  1.
        2   -1    0    0  501    0  0.00000000000E+00  0.00000000000E+00 -0.59261559673E+03  0.59261559673E+03  0.25500000920E-02 0. -1.
    10030    2    1    2    0    0  0.00000000000E+00  0.00000000000E+00 -0.44100219749E+03  0.74422899599E+03  0.59949467077E+03 0.  0.
        3    1    3    3  502    0 -0.21223968742E+02  0.29759056348E+03 -0.18456709777E+03  0.35082135640E+03  0.10100000352E+00 0. -1.
       -3    1    3    3    0  502  0.21223968742E+02 -0.29759056348E+03 -0.25643509971E+03  0.39340763959E+03  0.10100000352E+00 0.  1.
</event>
<event>
 5   0  0.5491236E-03  0.6012126E+03  0.7818609E-02  0.9902893E-01
        1   -1    0    0  501    0  0.00000000000E+00  0.00000000000E+00  0.26517451597E+03  0.26517451602E+03  0.50400001928E-02 0.  1.
       -1   -1    0    0    0  501  0.00000000000E+00  0.00000000000E+00 -0.34077241138E+03  0.34077241142E+03  0.50400001928E-02 0. -1.
    10030    2    1    2    0    0  0.00000000000E+00  0.00000000000E+00 -0.75597895410E+02  0.60594692743E+03  0.60121263882E+03 0.  0.
        3    1    3    3  502    0 -0.11020730256E+03 -0.24813871695E+03  0.92235139444E+02  0.28675042029E+03  0.10100000352E+00 0.  1.
       -3    1    3    3    0  502  0.11020730256E+03  0.24813871695E+03 -0.16783303485E+03  0.31919650715E+03  0.10100000352E+00 0. -1.
</event>
<event>
 5   0  0.3794375E-03  0.6037676E+03  0.7818609E-02  0.9897620E-01
        3   -1    0    0  501    0  0.00000000000E+00  0.00000000000E+00  0.80691845814E+03  0.80691846447E+03  0.10100000352E+00 0.  1.
       -3   -1    0    0    0  501  0.00000000000E+00  0.00000000000E+00 -0.11294054592E+03  0.11294059108E+03  0.10100000352E+00 0. -1.
    10030    2    1    2    0    0  0.00000000000E+00  0.00000000000E+00  0.69397791222E+03  0.91985905555E+03  0.60376762038E+03 0.  0.
        5    1    3    3  502    0 -0.22114940346E+03  0.16042792663E+03  0.15148021310E+03  0.31243002937E+03  0.46999998093E+01 0. -1.
       -5    1    3    3    0  502  0.22114940346E+03 -0.16042792663E+03  0.54249769912E+03  0.60742902618E+03  0.46999998093E+01 0.  1.
</event>
<event>
 5   0  0.5785798E-03  0.5989905E+03  0.7818609E-02  0.9907503E-01
       -1   -1    0    0    0  501  0.00000000000E+00  0.00000000000E+00  0.23718579071E+03  0.23718579077E+03  0.50400001928E-02 0. -1.
        1   -1    0    0  501    0  0.00000000000E+00  0.00000000000E+00 -0.37817354586E+03  0.37817354590E+03  0.50400001928E-02 0.  1.
    10030    2    1    2    0    0  0.00000000000E+00  0.00000000000E+00 -0.14098775515E+03  0.61535933666E+03  0.59899045578E+03 0.  0.
        1    1    3    3  502    0  0.78832776542E+02  0.21777894518E+03 -0.26556471115E+03  0.35237322750E+03  0.50400001928E-02 0.  1.
       -1    1    3    3    0  502 -0.78832776542E+02 -0.21777894518E+03  0.12457695600E+03  0.26298610917E+03  0.50400001928E-02 0. -1.
</event>
<event>
 5   0  0.9428629E-03  0.6001037E+03  0.7818609E-02  0.9905191E-01
        2   -1    0    0  501    0  0.00000000000E+00  0.00000000000E+00  0.18476935252E+04  0.18476935252E+04  0.25500000920E-02 0. -1.
       -2   -1    0    0    0  501  0.00000000000E+00  0.00000000000E+00 -0.48726207345E+02  0.48726207411E+02  0.25500000920E-02 0.  1.
    10030    2    1    2    0    0  0.00000000000E+00  0.00000000000E+00  0.17989673179E+04  0.18964197326E+04  0.60010365066E+03 0.  0.
        3    1    3    3  502    0  0.12338550844E+03  0.27172450260E+03  0.80091428369E+03  0.85470573242E+03  0.10100000352E+00 0.  1.
       -3    1    3    3    0  502 -0.12338550844E+03 -0.27172450260E+03  0.99805303420E+03  0.10417140002E+04  0.10100000352E+00 0. -1.
</event>
<event>
 5   0  0.3794375E-03  0.5995331E+03  0.7818609E-02  0.9906375E-01
       -4   -1    0    0    0  501  0.00000000000E+00  0.00000000000E+00  0.18357740315E+03  0.18358179607E+03  0.12699999809E+01 0.  1.
        4   -1    0    0  501    0  0.00000000000E+00  0.00000000000E+00 -0.48948269592E+03  0.48948434347E+03  0.12699999809E+01 0. -1.
    10030    2    1    2    0    0  0.00000000000E+00  0.00000000000E+00 -0.30590529277E+03  0.67306613954E+03  0.59953313508E+03 0.  0.
        3    1    3    3  502    0  0.20707015912E+03 -0.62434092219E+02 -0.38597744859E+03  0.44244171107E+03  0.10100000352E+00 0. -1.
       -3    1    3    3    0  502 -0.20707015912E+03  0.62434092219E+02  0.80072155823E+02  0.23062442847E+03  0.10100000352E+00 0.  1.
</event>
<event>
 5   0  0.9681801E-03  0.6003215E+03  0.7818609E-02  0.9904739E-01
        2   -1    0    0  501    0  0.00000000000E+00  0.00000000000E+00  0.81844624611E+03  0.81844624612E+03  0.25500000920E-02 0. -1.
       -2   -1    0    0    0  501  0.00000000000E+00  0.00000000000E+00 -0.11008235304E+03  0.11008235307E+03  0.25500000920E-02 0.  1.
    10030    2    1    2    0    0  0.00000000000E+00  0.00000000000E+00  0.70836389307E+03  0.92852859919E+03  0.60032154259E+03 0.  0.
        4    1    3    3  502    0  0.52865356313E+02 -0.24273017425E+03  0.93605998904E+02  0.26547387691E+03  0.12699999809E+01 0.  1.
       -4    1    3    3    0  502 -0.52865356313E+02  0.24273017425E+03  0.61475789417E+03  0.66305472228E+03  0.12699999809E+01 0. -1.
</event>
<event>
 5   0  0.3794375E-03  0.6018112E+03  0.7818609E-02  0.9901655E-01
        3   -1    0    0  501    0  0.00000000000E+00  0.00000000000E+00  0.11817296424E+03  0.11817300741E+03  0.10100000352E+00 0.  1.
       -3   -1    0    0    0  501  0.00000000000E+00  0.00000000000E+00 -0.76620035738E+03  0.76620036404E+03  0.10100000352E+00 0. -1.
    10030    2    1    2    0    0  0.00000000000E+00  0.00000000000E+00 -0.64802739314E+03  0.88437337144E+03  0.60181123109E+03 0.  0.
        2    1    3    3  502    0 -0.25888542258E+03  0.15207241410E+03 -0.35327552847E+03  0.46362838587E+03  0.25500000920E-02 0. -1.
       -2    1    3    3    0  502  0.25888542258E+03 -0.15207241410E+03 -0.29475186467E+03  0.42074498558E+03  0.25500000920E-02 0.  1.
</event>
<event>
 5   0  0.5503975E-03  0.5999878E+03  0.7818609E-02  0.9905431E-01
        1   -1    0    0  501    0  0.00000000000E+00  0.00000000000E+00  0.90427974111E+03  0.90427974112E+03  0.50400001928E-02 0. -1.
       -1   -1    0    0    0  501  0.00000000000E+00  0.00000000000E+00 -0.99522659830E+02  0.99522659958E+02  0.50400001928E-02 0.  1.
    10030    2    1    2    0    0  0.00000000000E+00  0.00000000000E+00  0.80475708128E+03  0.10038024011E+04  0.59998775033E+03 0.  0.
        4    1    3    3  502    0  0.11954613261E+03  0.21294813882E+03  0.69387405165E+03  0.73559567706E+03  0.12699999809E+01 0. -1.
       -4    1    3    3    0  502 -0.11954613261E+03 -0.21294813882E+03  0.11088302963E+03  0.26820672402E+03  0.12699999809E+01 0.  1.
</event>
<event>
 5   0  0.9681801E-03  0.6006236E+03  0.7818609E-02  0.9904113E-01
       -2   -1    0    0    0  501  0.00000000000E+00  0.00000000000E+00  0.14139291660E+03  0.14139291662E+03  0.25500000920E-02 0. -1.
        2   -1    0    0  501    0  0.00000000000E+00  0.00000000000E+00 -0.63784793472E+03  0.63784793473E+03  0.25500000920E-02 0.  1.
    10030    2    1    2    0    0  0.00000000000E+00  0.00000000000E+00 -0.49645501812E+03  0.77924085135E+03  0.60062360875E+03 0.  0.
        4    1    3    3  502    0  0.92312675163E+02 -0.10963331122E+03  0.94155846937E+02  0.17148769442E+03  0.12699999809E+01 0. -1.
       -4    1    3    3    0  502 -0.92312675163E+02  0.10963331122E+03 -0.59061086506E+03  0.60775315693E+03  0.12699999809E+01 0.  1.
</event>
<event>
 5   0  0.9866317E-03  0.5995739E+03  0.7818609E-02  0.9906291E-01
        2   -1    0    0  501    0  0.00000000000E+00  0.00000000000E+00  0.15492387794E+04  0.15492387794E+04  0.25500000920E-02 0. -1.
       -2   -1    0    0    0  501  0.00000000000E+00  0.00000000000E+00 -0.58010559414E+02  0.58010559470E+02  0.25500000920E-02 0.  1.
    10030    2    1    2    0    0  0.00000000000E+00  0.00000000000E+00  0.14912282200E+04  0.16072493389E+04  0.59957387637E+03 0.  0.
        1    1    3    3  502    0 -0.12150739243E+03  0.24224031199E+03  0.40203229783E+03  0.48484470060E+03  0.50400001928E-02 0.  1.
       -1    1    3    3    0  502  0.12150739243E+03 -0.24224031199E+03  0.10891959222E+04  0.11224046383E+04  0.50400001928E-02 0. -1.
</event>
<event>
 5   0  0.9530666E-03  0.6003774E+03  0.7818609E-02  0.9904623E-01
        2   -1    0    0  501    0  0.00000000000E+00  0.00000000000E+00  0.15377076676E+04  0.15377076676E+04  0.25500000920E-02 0.  1.
       -2   -1    0    0    0  501  0.00000000000E+00  0.00000000000E+00 -0.58602334784E+02  0.58602334840E+02  0.25500000920E-02 0. -1.
    10030    2    1    2    0    0  0.00000000000E+00  0.00000000000E+00  0.14791053328E+04  0.15963100024E+04  0.60037741324E+03 0.  0.
        2    1    3    3  502    0 -0.17712423214E+03  0.17551394846E+03  0.29515869453E+03  0.38638943396E+03  0.25500000920E-02 0. -1.
       -2    1    3    3    0  502  0.17712423214E+03 -0.17551394846E+03  0.11839466383E+04  0.12099205685E+04  0.25500000920E-02 0.  1.
</event>
<event>
 5   0  0.5491236E-03  0.5987798E+03  0.7818609E-02  0.9907941E-01
       -1   -1    0    0    0  501  0.00000000000E+00  0.00000000000E+00  0.11825352400E+03  0.11825352410E+03  0.50400001928E-02 0. -1.
        1   -1    0    0  501    0  0.00000000000E+00  0.00000000000E+00 -0.75798434525E+03  0.75798434527E+03  0.50400001928E-02 0.  1.
    10030    2    1    2    0    0  0.00000000000E+00  0.00000000000E+00 -0.63973082126E+03  0.87623786937E+03  0.59877982603E+03 0.  0.
        3    1    3    3  502    0 -0.21854331916E+03 -0.18304670255E+03 -0.18600856767E+03  0.34039164959E+03  0.10100000352E+00 0. -1.
       -3    1    3    3    0  502  0.21854331916E+03  0.18304670255E+03 -0.45372225358E+03  0.53584621979E+03  0.10100000352E+00 0.  1.
</event>
<event>
 5   0  0.5574736E-03  0.6013662E+03  0.7818609E-02  0.9902576E-01
       -1   -1    0    0    0  501  0.00000000000E+00  0.00000000000E+00  0.10900385679E+03  0.10900385690E+03  0.50400001928E-02 0.  1.
        1   -1    0    0  501    0  0.00000000000E+00  0.00000000000E+00 -0.82942330566E+03  0.82942330567E+03  0.50400001928E-02 0. -1.
    10030    2    1    2    0    0  0.00000000000E+00  0.00000000000E+00 -0.72041944887E+03  0.93842716257E+03  0.60136624211E+03 0.  0.
        5    1    3    3  502    0  0.93797794012E+02 -0.10297685076E+03 -0.77597465153E+03  0.78839140518E+03  0.46999998093E+01 0. -1.
       -5    1    3    3    0  502 -0.93797794012E+02  0.10297685076E+03  0.55555202660E+02  0.15003575739E+03  0.46999998093E+01 0.  1.
</event>
<event>
 5   0  0.5503975E-03  0.6005348E+03  0.7818609E-02  0.9904297E-01
       -1   -1    0    0    0  501  0.00000000000E+00  0.00000000000E+00  0.54757329796E+02  0.54757330028E+02  0.50400001928E-02 0. -1.
        1   -1    0    0  501    0  0.00000000000E+00  0.00000000000E+00 -0.16465471172E+04  0.16465471172E+04  0.50400001928E-02 0.  1.
    10030    2    1    2    0    0  0.00000000000E+00  0.00000000000E+00 -0.15917897874E+04  0.17013044473E+04  0.60053484071E+03 0.  0.
        4    1    3    3  502    0 -0.16258970929E+03  0.37947912534E+02 -0.88877382649E+02  0.18914613314E+03  0.12699999809E+01 0. -1.
       -4    1    3    3    0  502  0.16258970929E+03 -0.37947912534E+02 -0.15029124048E+04  0.15121583141E+04  0.12699999809E+01 0.  1.
</event>
<event>
 5   0  0.5653633E-03  0.5894826E+03  0.7818609E-02  0.9927470E-01
        1   -1    0    0  501    0  0.00000000000E+00  0.00000000000E+00  0.15367869663E+03  0.15367869671E+03  0.50400001928E-02 0.  1.
       -1   -1    0    0    0  501  0.00000000000E+00  0.00000000000E+00 -0.56528615611E+03  0.56528615614E+03  0.50400001928E-02 0. -1.
    10030    2    1    2    0    0  0.00000000000E+00  0.00000000000E+00 -0.41160745949E+03  0.71896485285E+03  0.58948261970E+03 0.  0.
        2    1    3    3  502    0  0.19791788281E+03 -0.97521545399E+02 -0.44415327348E+03  0.49593756714E+03  0.25500000920E-02 0. -1.
       -2    1    3    3    0  502 -0.19791788281E+03  0.97521545399E+02  0.32545813995E+02  0.22302728571E+03  0.25500000920E-02 0.  1.
</event>
<event>
 5   0  0.9530666E-03  0.6010505E+03  0.7818609E-02  0.9903229E-01
        2   -1    0    0  501    0  0.00000000000E+00  0.00000000000E+00  0.43036219646E+03  0.43036219646E+03  0.25500000920E-02 0.  1.
       -2   -1    0    0    0  501  0.00000000000E+00  0.00000000000E+00 -0.20985913240E+03  0.20985913242E+03  0.25500000920E-02 0. -1.
    10030    2    1    2    0    0  0.00000000000E+00  0.00000000000E+00  0.22050306406E+03  0.64022132888E+03  0.60105053755E+03 0.  0.
        2    1    3    3  502    0 -0.19941419153E+03  0.82313471199E+02  0.33310880821E+03  0.39686648314E+03  0.25500000920E-02 0.  1.
       -2    1    3    3    0  502  0.19941419153E+03 -0.82313471199E+02 -0.11260574415E+03  0.24335484574E+03  0.25500000920E-02 0. -1.
</event>
<event>
 5   0  0.9571790E-03  0.6066122E+03  0.7818609E-02  0.9891782E-01
       -2   -1    0    0    0  501  0.00000000000E+00  0.00000000000E+00  0.10343668647E+03  0.10343668650E+03  0.25500000920E-02 0. -1.
        2   -1    0    0  501    0  0.00000000000E+00  0.00000000000E+00 -0.88938064470E+03  0.88938064470E+03  0.25500000920E-02 0.  1.
    10030    2    1    2    0    0  0.00000000000E+00  0.00000000000E+00 -0.78594395823E+03  0.99281733121E+03  0.60661218886E+03 0.  0.
        5    1    3    3  502    0  0.15820242472E+03  0.18354175953E+02  0.29424369800E+02  0.16202705484E+03  0.46999998093E+01 0. -1.
       -5    1    3    3    0  502 -0.15820242472E+03 -0.18354175953E+02 -0.81536832803E+03  0.83079027637E+03  0.46999998093E+01 0.  1.
</event>
<event>
 5   0  0.5785798E-03  0.6027025E+03  0.7818609E-02  0.9899815E-01
        1   -1    0    0  501    0  0.00000000000E+00  0.00000000000E+00  0.58506483340E+03  0.58506483342E+03  0.50400001928E-02 0.  1.
       -1   -1    0    0    0  501  0.00000000000E+00  0.00000000000E+00 -0.15521794833E+03  0.15521794841E+03  0.50400001928E-02 0. -1.
    10030    2    1    2    0    0  0.00000000000E+00  0.00000000000E+00  0.42984688507E+03  0.74028278183E+03  0.60270245766E+03 0.  0.
        1    1    3    3  502    0 -0.79143122065E+02 -0.19459980913E+03 -0.50451175481E+02  0.21605101392E+03  0.50400001928E-02 0. -1.
       -1    1    3    3    0  502  0.79143122065E+02  0.19459980913E+03  0.48029806055E+03  0.52423176791E+03  0.50400001928E-02 0.  1.
</event>
<event>
 5   0  0.9866317E-03  0.5999678E+03  0.7818609E-02  0.9905473E-01
       -2   -1    0    0    0  501  0.00000000000E+00  0.00000000000E+00  0.34714646669E+02  0.34714646762E+02  0.25500000920E-02 0.  1.
        2   -1    0    0  501    0  0.00000000000E+00  0.00000000000E+00 -0.25922873482E+04  0.25922873482E+04  0.25500000920E-02 0. -1.
    10030    2    1    2    0    0  0.00000000000E+00  0.00000000000E+00 -0.25575727016E+04  0.26270019950E+04  0.59996779741E+03 0.  0.
        1    1    3    3  502    0  0.73353652654E+02 -0.27034360469E+03 -0.17488238568E+04  0.17711158362E+04  0.50400001928E-02 0. -1.
       -1    1    3    3    0  502 -0.73353652654E+02  0.27034360469E+03 -0.80874884478E+03  0.85588615885E+03  0.50400001928E-02 0.  1.
</event>
<event>
 5   0  0.5503975E-03  0.6007460E+03  0.7818609E-02  0.9903860E-01
       -1   -1    0    0    0  501  0.00000000000E+00  0.00000000000E+00  0.17068023398E+03  0.17068023405E+03  0.50400001928E-02 0.  1.
        1   -1    0    0  501    0  0.00000000000E+00  0.00000000000E+00 -0.52861381133E+03  0.52861381135E+03  0.50400001928E-02 0. -1.
    10030    2    1    2    0    0  0.00000000000E+00  0.00000000000E+00 -0.35793357735E+03  0.69929404541E+03  0.60074596640E+03 0.  0.
        4    1    3    3  502    0  0.11377496858E+03  0.22101891122E+03  0.17298614698E+02  0.24918859838E+03  0.12699999809E+01 0.  1.
       -4    1    3    3    0  502 -0.11377496858E+03 -0.22101891122E+03 -0.37523219205E+03  0.45010544703E+03  0.12699999809E+01 0. -1.
</event>
<event>
 5   0  0.9571790E-03  0.6035349E+03  0.7818609E-02  0.9898099E-01
       -2   -1    0    0    0  501  0.00000000000E+00  0.00000000000E+00  0.40095981471E+03  0.40095981472E+03  0.25500000920E-02 0.  1.
        2   -1    0    0  501    0  0.00000000000E+00  0.00000000000E+00 -0.22711400757E+03  0.22711400759E+03  0.25500000920E-02 0. -1.
    10030    2    1    2    0    0  0.00000000000E+00  0.00000000000E+00  0.17384580714E+03  0.62807382231E+03  0.60353488848E+03 0.  0.
        5    1    3    3  502    0 -0.20281277302E+03  0.13163636986E+03  0.27476207157E+03  0.36602928946E+03  0.46999998093E+01 0. -1.
       -5    1    3    3    0  502  0.20281277302E+03 -0.13163636986E+03 -0.10091626443E+03  0.26204453285E+03  0.46999998093E+01 0.  1.
</event>
<event>
 5   0  0.9866317E-03  0.6000120E+03  0.7818609E-02  0.9905381E-01
       -2   -1    0    0    0  501  0.00000000000E+00  0.00000000000E+00  0.44943982752E+03  0.44943982752E+03  0.25500000920E-02 0. -1.
        2   -1    0    0  501    0  0.00000000000E+00  0.00000000000E+00 -0.20025730147E+03  0.20025730148E+03  0.25500000920E-02 0.  1.
    10030    2    1    2    0    0  0.00000000000E+00  0.00000000000E+00  0.24918252605E+03  0.64969712901E+03  0.60001202334E+03 0.  0.
        1    1    3    3  502    0  0.17482137649E+03 -0.24378918752E+03  0.12154293916E+03  0.32367942121E+03  0.50400001928E-02 0.  1.
       -1    1    3    3    0  502 -0.17482137649E+03  0.24378918752E+03  0.12763958689E+03  0.32601770779E+03  0.50400001928E-02 0. -1.
</event>
<event>
 5   0  0.9571790E-03  0.5999498E+03  0.7818609E-02  0.9905510E-01
       -2   -1    0    0    0  501  0.00000000000E+00  0.00000000000E+00  0.29284982786E+03  0.29284982788E+03  0.25500000920E-02 0.  1.
        2   -1    0    0  501    0  0.00000000000E+00  0.00000000000E+00 -0.30727336985E+03  0.30727336986E+03  0.25500000920E-02 0. -1.
    10030    2    1    2    0    0  0.00000000000E+00  0.00000000000E+00 -0.14423541987E+02  0.60012319774E+03  0.59994984282E+03 0.  0.
        5    1    3    3  502    0 -0.37593470868E+02  0.41477072299E+02  0.28754140134E+03  0.29297741220E+03  0.46999998093E+01 0.  1.
       -5    1    3    3    0  502  0.37593470868E+02 -0.41477072299E+02 -0.30196494332E+03  0.30714578554E+03  0.46999998093E+01 0. -1.
</event>
<event>
 5   0  0.9571790E-03  0.6010147E+03  0.7818609E-02  0.9903303E-01
       -2   -1    0    0    0  501  0.00000000000E+00  0.00000000000E+00  0.91822791348E+02  0.91822791383E+02  0.25500000920E-02 0.  1.
        2   -1    0    0  501    0  0.00000000000E+00  0.00000000000E+00 -0.98346693527E+03  0.98346693527E+03  0.25500000920E-02 0. -1.
    10030    2    1    2    0    0  0.00000000000E+00  0.00000000000E+00 -0.89164414392E+03  0.10752897267E+04  0.60101473930E+03 0.  0.
        5    1    3    3  502    0 -0.11206146176E+03 -0.18092930994E+02  0.51919298001E+02  0.12491128398E+03  0.46999998093E+01 0.  1.
       -5    1    3    3    0  502  0.11206146176E+03  0.18092930994E+02 -0.94356344192E+03  0.95037844267E+03  0.46999998093E+01 0. -1.
</event>
<event>
 5   0  0.3794375E-03  0.6031112E+03  0.7818609E-02  0.9898972E-01
       -4   -1    0    0    0  501  0.00000000000E+00  0.00000000000E+00  0.17392121661E+03  0.17392585341E+03  0.12699999809E+01 0. -1.
        4   -1    0    0  501    0  0.00000000000E+00  0.00000000000E+00 -0.52284374627E+03  0.52284528870E+03  0.12699999809E+01 0.  1.
    10030    2    1    2    0    0  0.00000000000E+00  0.00000000000E+00 -0.34892252967E+03  0.69677114212E+03  0.60311117779E+03 0.  0.
        1    1    3    3  502    0  0.16061772752E+03  0.22904782764E+03 -0.44395340652E+02  0.28325237517E+03  0.50400001928E-02 0. -1.
       -1    1    3    3    0  502 -0.16061772752E+03 -0.22904782764E+03 -0.30452718902E+03  0.41351876695E+03  0.50400001928E-02 0.  1.
</event>
<event>
 5   0  0.9428629E-03  0.6055503E+03  0.7818609E-02  0.9893957E-01
        2   -1    0    0  501    0  0.00000000000E+00  0.00000000000E+00  0.73802521676E+03  0.73802521676E+03  0.25500000920E-02 0. -1.
       -2   -1    0    0    0  501  0.00000000000E+00  0.00000000000E+00 -0.12421365006E+03  0.12421365008E+03  0.25500000920E-02 0.  1.
    10030    2    1    2    0    0  0.00000000000E+00  0.00000000000E+00  0.61381156670E+03  0.86223886685E+03  0.60555034810E+03 0.  0.
        3    1    3    3  502    0  0.11343738487E+03  0.11064247353E+03  0.67426739906E+03  0.69263723035E+03  0.10100000352E+00 0. -1.
       -3    1    3    3    0  502 -0.11343738487E+03 -0.11064247353E+03 -0.60455832355E+02  0.16960163650E+03  0.10100000352E+00 0.  1.
</event>
<event>
 5   0  0.5653633E-03  0.6003706E+03  0.7818609E-02  0.9904637E-01
       -1   -1    0    0    0  501  0.00000000000E+00  0.00000000000E+00  0.10813618400E+03  0.10813618412E+03  0.50400001928E-02 0. -1.
        1   -1    0    0  501    0  0.00000000000E+00  0.00000000000E+00 -0.83331235903E+03  0.83331235905E+03  0.50400001928E-02 0.  1.
    10030    2    1    2    0    0  0.00000000000E+00  0.00000000000E+00 -0.72517617503E+03  0.94144854316E+03  0.60037061437E+03 0.  0.
        2    1    3    3  502    0 -0.58282221922E+02 -0.10888665498E+03  0.66450697016E+02  0.14024555667E+03  0.25500000920E-02 0. -1.
       -2    1    3    3    0  502  0.58282221922E+02  0.10888665498E+03 -0.79162687204E+03  0.80120298650E+03  0.25500000920E-02 0.  1.
</event>
<event>
 5   0  0.9681801E-03  0.5999284E+03  0.7818609E-02  0.9905555E-01
       -2   -1    0    0    0  501  0.00000000000E+00  0.00000000000E+00  0.38269145214E+02  0.38269145299E+02  0.25500000920E-02 0.  1.
        2   -1    0    0  501    0  0.00000000000E+00  0.00000000000E+00 -0.23512029739E+04  0.23512029739E+04  0.25500000920E-02 0. -1.
    10030    2    1    2    0    0  0.00000000000E+00  0.00000000000E+00 -0.23129338287E+04  0.23894721192E+04  0.59992842286E+03 0.  0.
        4    1    3    3  502    0  0.23833872582E+02 -0.22511554623E+03 -0.37261023272E+03  0.43598745517E+03  0.12699999809E+01 0.  1.
       -4    1    3    3    0  502 -0.23833872582E+02  0.22511554623E+03 -0.19403235960E+04  0.19534846640E+04  0.12699999809E+01 0. -1.
</event>
<event>
 5   0  0.5491236E-03  0.5996769E+03  0.7818609E-02  0.9906077E-01
       -1   -1    0    0    0  501  0.00000000000E+00  0.00000000000E+00  0.41224960374E+03  0.41224960377E+03  0.50400001928E-02 0.  1.
        1   -1    0    0  501    0  0.00000000000E+00  0.00000000000E+00 -0.21807924240E+03  0.21807924245E+03  0.50400001928E-02 0. -1.
    10030    2    1    2    0    0  0.00000000000E+00  0.00000000000E+00  0.19417036134E+03  0.63032884622E+03  0.59967685061E+03 0.  0.
        3    1    3    3  502    0  0.22796383385E+03  0.11459152209E+03 -0.68458945866E+02  0.26416919568E+03  0.10100000352E+00 0. -1.
       -3    1    3    3    0  502 -0.22796383385E+03 -0.11459152209E+03  0.26262930721E+03  0.36615965054E+03  0.10100000352E+00 0.  1.
</event>
<event>
 5   0  0.9428629E-03  0.5992956E+03  0.7818609E-02  0.9906868E-01
       -2   -1    0    0    0  501  0.00000000000E+00  0.00000000000E+00  0.21094114833E+03  0.21094114835E+03  0.25500000920E-02 0.  1.
        2   -1    0    0  501    0  0.00000000000E+00  0.00000000000E+00 -0.42565813310E+03  0.42565813311E+03  0.25500000920E-02 0. -1.
    10030    2    1    2    0    0  0.00000000000E+00  0.00000000000E+00 -0.21471698477E+03  0.63659928146E+03  0.59929563790E+03 0.  0.
        3    1    3    3  502    0  0.92938145494E+02 -0.16289438282E+03 -0.35560769391E+03  0.40203099509E+03  0.10100000352E+00 0. -1.
       -3    1    3    3    0  502 -0.92938145494E+02  0.16289438282E+03  0.14089070914E+03  0.23456828636E+03  0.10100000352E+00 0.  1.
</event>
<event>
 5   0  0.5503975E-03  0.6010578E+03  0.7818609E-02  0.9903214E-01
       -1   -1    0    0    0  501  0.00000000000E+00  0.00000000000E+00  0.43875298181E+03  0.43875298184E+03  0.50400001928E-02 0. -1.
        1   -1    0    0  501    0  0.00000000000E+00  0.00000000000E+00 -0.20585069654E+03  0.20585069660E+03  0.50400001928E-02 0.  1.
    10030    2    1    2    0    0  0.00000000000E+00  0.00000000000E+00  0.23290228527E+03  0.64460367844E+03  0.60105775744E+03 0.  0.
        4    1    3    3  502    0  0.15651647819E+03 -0.96165679247E+01 -0.15849366979E+03  0.22296130289E+03  0.12699999809E+01 0.  1.
       -4    1    3    3    0  502 -0.15651647819E+03  0.96165679247E+01  0.39139595506E+03  0.42164237555E+03  0.12699999809E+01 0. -1.
</event>
<event>
 5   0  0.9866317E-03  0.6002024E+03  0.7818609E-02  0.9904986E-01
        2   -1    0    0  501    0  0.00000000000E+00  0.00000000000E+00  0.59411400266E+03  0.59411400267E+03  0.25500000920E-02 0. -1.
       -2   -1    0    0    0  501  0.00000000000E+00  0.00000000000E+00 -0.15158829714E+03  0.15158829717E+03  0.25500000920E-02 0.  1.
    10030    2    1    2    0    0  0.00000000000E+00  0.00000000000E+00  0.44252570551E+03  0.74570229983E+03  0.60020239914E+03 0.  0.
        1    1    3    3  502    0 -0.14846915137E+03 -0.25126622739E+03  0.13444526016E+03  0.32133056801E+03  0.50400001928E-02 0.  1.
       -1    1    3    3    0  502  0.14846915137E+03  0.25126622739E+03  0.30808044535E+03  0.42437173182E+03  0.50400001928E-02 0. -1.
</event>
<event>
 5   0  0.5574736E-03  0.6002397E+03  0.7818609E-02  0.9904909E-01
        1   -1    0    0  501    0  0.00000000000E+00  0.00000000000E+00  0.13140040040E+04  0.13140040040E+04  0.50400001928E-02 0. -1.
       -1   -1    0    0    0  501  0.00000000000E+00  0.00000000000E+00 -0.68547671538E+02  0.68547671723E+02  0.50400001928E-02 0.  1.
    10030    2    1    2    0    0  0.00000000000E+00  0.00000000000E+00  0.12454563325E+04  0.13825516758E+04  0.60023966881E+03 0.  0.
        5    1    3    3  502    0 -0.60036872153E+02  0.26176009313E+03  0.31433046948E+03  0.41345919559E+03  0.46999998093E+01 0.  1.
       -5    1    3    3    0  502  0.60036872153E+02 -0.26176009313E+03  0.93112586302E+03  0.96909248019E+03  0.46999998093E+01 0. -1.
</event>
<event>
 5   0  0.5503975E-03  0.5998703E+03  0.7818609E-02  0.9905675E-01
        1   -1    0    0  501    0  0.00000000000E+00  0.00000000000E+00  0.10781771016E+03  0.10781771028E+03  0.50400001928E-02 0.  1.
       -1   -1    0    0    0  501  0.00000000000E+00  0.00000000000E+00 -0.83438138699E+03  0.83438138701E+03  0.50400001928E-02 0. -1.
    10030    2    1    2    0    0  0.00000000000E+00  0.00000000000E+00 -0.72656367683E+03  0.94219909729E+03  0.59987028802E+03 0.  0.
        4    1    3    3  502    0 -0.27402210917E+02 -0.28821784920E+03 -0.48634740417E+03  0.56599984117E+03  0.12699999809E+01 0. -1.
       -4    1    3    3    0  502  0.27402210917E+02  0.28821784920E+03 -0.24021627266E+03  0.37619925612E+03  0.12699999809E+01 0.  1.
</event>
<event>
 5   0  0.9428629E-03  0.5997015E+03  0.7818609E-02  0.9906026E-01
       -2   -1    0    0    0  501  0.00000000000E+00  0.00000000000E+00  0.10693702217E+03  0.10693702220E+03  0.25500000920E-02 0. -1.
        2   -1    0    0  501    0  0.00000000000E+00  0.00000000000E+00 -0.84077968183E+03  0.84077968184E+03  0.25500000920E-02 0.  1.
    10030    2    1    2    0    0  0.00000000000E+00  0.00000000000E+00 -0.73384265967E+03  0.94771670403E+03  0.59970151072E+03 0.  0.
        3    1    3    3  502    0  0.73827856650E+02 -0.10039450217E+03  0.64075405846E+02  0.14012593021E+03  0.10100000352E+00 0. -1.
       -3    1    3    3    0  502 -0.73827856650E+02  0.10039450217E+03 -0.79791806551E+03  0.80759077382E+03  0.10100000352E+00 0.  1.
</event>
<event>
 5   0  0.5574736E-03  0.5833269E+03  0.7818609E-02  0.9940614E-01
        1   -1    0    0  501    0  0.00000000000E+00  0.00000000000E+00  0.59516352620E+03  0.59516352622E+03  0.50400001928E-02 0. -1.
       -1   -1    0    0    0  501  0.00000000000E+00  0.00000000000E+00 -0.14293143768E+03  0.14293143777E+03  0.50400001928E-02 0.  1.
    10030    2    1    2    0    0  0.00000000000E+00  0.00000000000E+00  0.45223208851E+03  0.73809496399E+03  0.58332693576E+03 0.  0.
        5    1    3    3  502    0  0.12632498865E+03 -0.20938578784E+03  0.25073224844E+02  0.24586819133E+03  0.46999998093E+01 0. -1.
       -5    1    3    3    0  502 -0.12632498865E+03  0.20938578784E+03  0.42715886367E+03  0.49222677265E+03  0.46999998093E+01 0.  1.
</event>
<event>
 5   0  0.5491236E-03  0.5958834E+03  0.7818609E-02  0.9913984E-01
       -1   -1    0    0    0  501  0.00000000000E+00  0.00000000000E+00  0.60892360296E+02  0.60892360505E+02  0.50400001928E-02 0.  1.
        1   -1    0    0  501    0  0.00000000000E+00  0.00000000000E+00 -0.14578060770E+04  0.14578060770E+04  0.50400001928E-02 0. -1.
    10030    2    1    2    0    0  0.00000000000E+00  0.00000000000E+00 -0.13969137167E+04  0.15186984375E+04  0.59588338808E+03 0.  0.
        3    1    3    3  502    0 -0.11212114627E+03 -0.65594561119E+02 -0.15078917804E+02  0.13077148715E+03  0.10100000352E+00 0.  1.
       -3    1    3    3    0  502  0.11212114627E+03  0.65594561119E+02 -0.13818347989E+04  0.13879269504E+04  0.10100000352E+00 0. -1.
</event>
<event>
 5   0  0.5653633E-03  0.6042176E+03  0.7818609E-02  0.9896694E-01
        1   -1    0    0  501    0  0.00000000000E+00  0.00000000000E+00  0.45373770246E+03  0.45373770249E+03  0.50400001928E-02 0. -1.
       -1   -1    0    0    0  501  0.00000000000E+00  0.00000000000E+00 -0.20115084358E+03  0.20115084365E+03  0.50400001928E-02 0.  1.
    10030    2    1    2    0    0  0.00000000000E+00  0.00000000000E+00  0.25258685888E+03  0.65488854614E+03  0.60421758215E+03 0.  0.
        2    1    3    3  502    0  0.30971874759E+01 -0.18743051072E+03  0.38307940263E+03  0.42648519042E+03  0.25500000920E-02 0. -1.
       -2    1    3    3    0  502 -0.30971874759E+01  0.18743051072E+03 -0.13049254376E+03  0.22840335572E+03  0.25500000920E-02 0.  1.
</event>
<event>
 5   0  0.9530666E-03  0.6094705E+03  0.7818609E-02  0.9885950E-01
       -2   -1    0    0    0  501  0.00000000000E+00  0.00000000000E+00  0.84089545320E+02  0.84089545359E+02  0.25500000920E-02 0.  1.
        2   -1    0    0  501    0  0.00000000000E+00  0.00000000000E+00 -0.11043414341E+04  0.11043414341E+04  0.25500000920E-02 0. -1.
    10030    2    1    2    0    0  0.00000000000E+00  0.00000000000E+00 -0.10202518888E+04  0.11884309795E+04  0.60947048854E+03 0.  0.
        2    1    3    3  502    0 -0.10631273067E+03 -0.29988695913E+02 -0.10639290331E+04  0.10696479356E+04  0.25500000920E-02 0. -1.
       -2    1    3    3    0  502  0.10631273067E+03  0.29988695913E+02  0.43677144289E+02  0.11878304393E+03  0.25500000920E-02 0.  1.
</event>
<event>
 5   0  0.5653633E-03  0.6004367E+03  0.7818609E-02  0.9904500E-01
        1   -1    0    0  501    0  0.00000000000E+00  0.00000000000E+00  0.10601680876E+04  0.10601680876E+04  0.50400001928E-02 0. -1.
       -1   -1    0    0    0  501  0.00000000000E+00  0.00000000000E+00 -0.85015823887E+02  0.85015824037E+02  0.50400001928E-02 0.  1.
    10030    2    1    2    0    0  0.00000000000E+00  0.00000000000E+00  0.97515226367E+03  0.11451839116E+04  0.60043671945E+03 0.  0.
        2    1    3    3  502    0  0.18079043500E+03 -0.20139415928E+03  0.73541814036E+03  0.78363552112E+03  0.25500000920E-02 0.  1.
       -2    1    3    3    0  502 -0.18079043500E+03  0.20139415928E+03  0.23973412331E+03  0.36154839049E+03  0.25500000920E-02 0. -1.
</event>
<event>
 5   0  0.5653633E-03  0.6003561E+03  0.7818609E-02  0.9904668E-01
       -1   -1    0    0    0  501  0.00000000000E+00  0.00000000000E+00  0.10923504385E+03  0.10923504396E+03  0.50400001928E-02 0. -1.
        1   -1    0    0  501    0  0.00000000000E+00  0.00000000000E+00 -0.82488956618E+03  0.82488956620E+03  0.50400001928E-02 0.  1.
    10030    2    1    2    0    0  0.00000000000E+00  0.00000000000E+00 -0.71565452234E+03  0.93412461016E+03  0.60035605433E+03 0.  0.
        2    1    3    3  502    0 -0.13900127435E+03 -0.83425969956E+02 -0.75091851109E+03  0.76821862581E+03  0.25500000920E-02 0.  1.
       -2    1    3    3    0  502  0.13900127435E+03  0.83425969956E+02  0.35263988754E+02  0.16590598435E+03  0.25500000920E-02 0. -1.
</event>
<event>
 5   0  0.5491236E-03  0.6011163E+03  0.7818609E-02  0.9903093E-01
        1   -1    0    0  501    0  0.00000000000E+00  0.00000000000E+00  0.45220457876E+03  0.45220457879E+03  0.50400001928E-02 0.  1.
       -1   -1    0    0    0  501  0.00000000000E+00  0.00000000000E+00 -0.19976619937E+03  0.19976619943E+03  0.50400001928E-02 0. -1.
    10030    2    1    2    0    0  0.00000000000E+00  0.00000000000E+00  0.25243837940E+03  0.65197077822E+03  0.60111626185E+03 0.  0.
        3    1    3    3  502    0  0.29633363786E+03 -0.48872166839E+02  0.13873052349E+03  0.33082968725E+03  0.10100000352E+00 0. -1.
       -3    1    3    3    0  502 -0.29633363786E+03  0.48872166839E+02  0.11370785591E+03  0.32114109098E+03  0.10100000352E+00 0.  1.
</event>
<event>
 5   0  0.9866317E-03  0.5993591E+03  0.7818609E-02  0.9906737E-01
       -2   -1    0    0    0  501  0.00000000000E+00  0.00000000000E+00  0.12654235349E+04  0.12654235349E+04  0.25500000920E-02 0. -1.
        2   -1    0    0  501    0  0.00000000000E+00  0.00000000000E+00 -0.70970564562E+02  0.70970564608E+02  0.25500000920E-02 0.  1.
    10030    2    1    2    0    0  0.00000000000E+00  0.00000000000E+00  0.11944529703E+04  0.13363940995E+04  0.59935906671E+03 0.  0.
        1    1    3    3  502    0  0.14086163181E+03 -0.12263475751E+03  0.11197894049E+04  0.11352575014E+04  0.50400001928E-02 0. -1.
       -1    1    3    3    0  502 -0.14086163181E+03  0.12263475751E+03  0.74663565377E+02  0.20113659808E+03  0.50400001928E-02 0.  1.
</event>
<event>
 5   0  0.3794375E-03  0.5994244E+03  0.7818609E-02  0.9906601E-01
        3   -1    0    0  501    0  0.00000000000E+00  0.00000000000E+00  0.15303685690E+03  0.15303689023E+03  0.10100000352E+00 0. -1.
       -3   -1    0    0    0  501  0.00000000000E+00  0.00000000000E+00 -0.58696568222E+03  0.58696569091E+03  0.10100000352E+00 0.  1.
    10030    2    1    2    0    0  0.00000000000E+00  0.00000000000E+00 -0.43392882531E+03  0.74000258114E+03  0.59942438610E+03 0.  0.
        4    1    3    3  502    0  0.61433011870E+00 -0.29568174045E+03 -0.15651420959E+03  0.33455400123E+03  0.12699999809E+01 0. -1.
       -4    1    3    3    0  502 -0.61433011870E+00  0.29568174045E+03 -0.27741461572E+03  0.40544857991E+03  0.12699999809E+01 0.  1.
</event>
<event>
 5   0  0.9681801E-03  0.6016775E+03  0.7818609E-02  0.9901932E-01
       -2   -1    0    0    0  501  0.00000000000E+00  0.00000000000E+00  0.40268362397E+03  0.40268362398E+03  0.25500000920E-02 0. -1.
        2   -1    0    0  501    0  0.00000000000E+00  0.00000000000E+00 -0.22475202195E+03  0.22475202196E+03  0.25500000920E-02 0.  1.
    10030    2    1    2    0    0  0.00000000000E+00  0.00000000000E+00  0.17793160202E+03  0.62743564594E+03  0.60167751728E+03 0.  0.
        4    1    3    3  502    0 -0.28214567990E+03 -0.74474439657E+02  0.16523881147E+03  0.33534773678E+03  0.12699999809E+01 0. -1.
       -4    1    3    3    0  502  0.28214567990E+03  0.74474439657E+02  0.12692790555E+02  0.29208790916E+03  0.12699999809E+01 0.  1.
</event>
<event>
 5   0  0.5785798E-03  0.6004468E+03  0.7818609E-02  0.9904480E-01
        1   -1    0    0  501    0  0.00000000000E+00  0.00000000000E+00  0.64597739416E+03  0.64597739418E+03  0.50400001928E-02 0.  1.
       -1   -1    0    0    0  501  0.00000000000E+00  0.00000000000E+00 -0.13953134269E+03  0.13953134279E+03  0.50400001928E-02 0. -1.
    10030    2    1    2    0    0  0.00000000000E+00  0.00000000000E+00  0.50644605147E+03  0.78550873697E+03  0.60044681097E+03 0.  0.
        1    1    3    3  502    0 -0.13449806493E+03  0.14645335901E+02  0.60383685442E+03  0.61880785557E+03  0.50400001928E-02 0.  1.
       -1    1    3    3    0  502  0.13449806493E+03 -0.14645335901E+02 -0.97390802954E+02  0.16670088140E+03  0.50400001928E-02 0. -1.
</event>
<event>
 5   0  0.9866317E-03  0.6006665E+03  0.7818609E-02  0.9904024E-01
        2   -1    0    0  501    0  0.00000000000E+00  0.00000000000E+00  0.24411908252E+03  0.24411908254E+03  0.25500000920E-02 0. -1.
       -2   -1    0    0    0  501  0.00000000000E+00  0.00000000000E+00 -0.36949200843E+03  0.36949200844E+03  0.25500000920E-02 0.  1.
    10030    2    1    2    0    0  0.00000000000E+00  0.00000000000E+00 -0.12537292591E+03  0.61361109098E+03  0.60066646354E+03 0.  0.
        1    1    3    3  502    0 -0.13784904148E+03  0.17697923084E+03 -0.26667973656E+03  0.34848542050E+03  0.50400001928E-02 0.  1.
       -1    1    3    3    0  502  0.13784904148E+03 -0.17697923084E+03  0.14130681065E+03  0.26512567048E+03  0.50400001928E-02 0. -1.
</event>
<event>
 5   0  0.3794375E-03  0.6018056E+03  0.7818609E-02  0.9901667E-01
       -3   -1    0    0    0  501  0.00000000000E+00  0.00000000000E+00  0.81029926822E+03  0.81029927451E+03  0.10100000352E+00 0.  1.
        3   -1    0    0  501    0  0.00000000000E+00  0.00000000000E+00 -0.11173953041E+03  0.11173957606E+03  0.10100000352E+00 0. -1.
    10030    2    1    2    0    0  0.00000000000E+00  0.00000000000E+00  0.69855973780E+03  0.92203885057E+03  0.60180556219E+03 0.  0.
        3    1    3    3  502    0 -0.23650656876E+03  0.18526059524E+03  0.32338619900E+03  0.44140173212E+03  0.10100000352E+00 0. -1.
       -3    1    3    3    0  502  0.23650656876E+03 -0.18526059524E+03  0.37517353880E+03  0.48063711845E+03  0.10100000352E+00 0.  1.
</event>
<event>
 5   0  0.9681801E-03  0.5989053E+03  0.7818609E-02  0.9907680E-01
        2   -1    0    0  501    0  0.00000000000E+00  0.00000000000E+00  0.15609212737E+04  0.15609212737E+04  0.25500000920E-02 0. -1.
       -2   -1    0    0    0  501  0.00000000000E+00  0.00000000000E+00 -0.57448045063E+02  0.57448045119E+02  0.25500000920E-02 0.  1.
    10030    2    1    2    0    0  0.00000000000E+00  0.00000000000E+00  0.15034732286E+04  0.16183693188E+04  0.59890525367E+03 0.  0.
        4    1    3    3  502    0 -0.11192321632E+03 -0.22015553619E+03  0.29415222559E+03  0.38408646316E+03  0.12699999809E+01 0.  1.
       -4    1    3    3    0  502  0.11192321632E+03  0.22015553619E+03  0.12093210030E+04  0.12342828556E+04  0.12699999809E+01 0. -1.
</event>
<event>
 5   0  0.9571790E-03  0.6020330E+03  0.7818609E-02  0.9901197E-01
       -2   -1    0    0    0  501  0.00000000000E+00  0.00000000000E+00  0.18806407478E+03  0.18806407480E+03  0.25500000920E-02 0.  1.
        2   -1    0    0  501    0  0.00000000000E+00  0.00000000000E+00 -0.48180882168E+03  0.48180882168E+03  0.25500000920E-02 0. -1.
    10030    2    1    2    0    0  0.00000000000E+00  0.00000000000E+00 -0.29374474689E+03  0.66987289648E+03  0.60203299005E+03 0.  0.
        5    1    3    3  502    0 -0.64930695588E+02  0.82071326197E+02 -0.46087259187E+03  0.47262811359E+03  0.46999998093E+01 0. -1.
       -5    1    3    3    0  502  0.64930695588E+02 -0.82071326197E+02  0.16712784498E+03  0.19724478290E+03  0.46999998093E+01 0.  1.
</event>
<event>
 5   0  0.9866317E-03  0.5996645E+03  0.7818609E-02  0.9906102E-01
       -2   -1    0    0    0  501  0.00000000000E+00  0.00000000000E+00  0.31639575614E+03  0.31639575616E+03  0.25500000920E-02 0.  1.
        2   -1    0    0  501    0  0.00000000000E+00  0.00000000000E+00 -0.28413586141E+03  0.28413586142E+03  0.25500000920E-02 0. -1.
    10030    2    1    2    0    0  0.00000000000E+00  0.00000000000E+00  0.32259894735E+02  0.60053161758E+03  0.59966450862E+03 0.  0.
        1    1    3    3  502    0 -0.14393530449E+03 -0.12597306596E+03  0.24735945780E+03  0.31268720251E+03  0.50400001928E-02 0.  1.
       -1    1    3    3    0  502  0.14393530449E+03  0.12597306596E+03 -0.21509956307E+03  0.28784441506E+03  0.50400001928E-02 0. -1.
</event>
<event>
 5   0  0.9571790E-03  0.6031255E+03  0.7818609E-02  0.9898943E-01
       -2   -1    0    0    0  501  0.00000000000E+00  0.00000000000E+00  0.16535226324E+03  0.16535226326E+03  0.25500000920E-02 0.  1.
        2   -1    0    0  501    0  0.00000000000E+00  0.00000000000E+00 -0.54997794988E+03  0.54997794988E+03  0.25500000920E-02 0. -1.
    10030    2    1    2    0    0  0.00000000000E+00  0.00000000000E+00 -0.38462568663E+03  0.71533021315E+03  0.60312552178E+03 0.  0.
        5    1    3    3  502    0  0.26554816850E+03 -0.14177880598E+03 -0.17173757943E+03  0.34660199913E+03  0.46999998093E+01 0.  1.
       -5    1    3    3    0  502 -0.26554816850E+03  0.14177880598E+03 -0.21288810721E+03  0.36872821401E+03  0.46999998093E+01 0. -1.
</event>
<event>
 5   0  0.9866317E-03  0.5997237E+03  0.7818609E-02  0.9905979E-01
        2   -1    0    0  501    0  0.00000000000E+00  0.00000000000E+00  0.63188987801E+03  0.63188987802E+03  0.25500000920E-02 0. -1.
       -2   -1    0    0    0  501  0.00000000000E+00  0.00000000000E+00 -0.14229874947E+03  0.14229874950E+03  0.25500000920E-02 0.  1.
    10030    2    1    2    0    0  0.00000000000E+00  0.00000000000E+00  0.48959112854E+03  0.77418862751E+03  0.59972373459E+03 0.  0.
        1    1    3    3  502    0  0.27336434158E+03 -0.17288209949E+02  0.87271928024E+02  0.28747753808E+03  0.50400001928E-02 0. -1.
       -1    1    3    3    0  502 -0.27336434158E+03  0.17288209949E+02  0.40231920052E+03  0.48671108944E+03  0.50400001928E-02 0.  1.
</event>
<event>
 5   0  0.5503975E-03  0.6020458E+03  0.7818609E-02  0.9901171E-01
       -1   -1    0    0    0  501  0.00000000000E+00  0.00000000000E+00  0.41167427415E+03  0.41167427418E+03  0.50400001928E-02 0.  1.
        1   -1    0    0  501    0  0.00000000000E+00  0.00000000000E+00 -0.22011278775E+03  0.22011278780E+03  0.50400001928E-02 0. -1.
    10030    2    1    2    0    0  0.00000000000E+00  0.00000000000E+00  0.19156148641E+03  0.63178706199E+03  0.60204575293E+03 0.  0.
        4    1    3    3  502    0  0.42692233435E+02 -0.19082263295E+03  0.33594733711E+03  0.38871342947E+03  0.12699999809E+01 0.  1.
       -4    1    3    3    0  502 -0.42692233435E+02  0.19082263295E+03 -0.14438585070E+03  0.24307363251E+03  0.12699999809E+01 0. -1.
</event>
<event>
 5   0  0.5491236E-03  0.6001749E+03  0.7818609E-02  0.9905043E-01
       -1   -1    0    0    0  501  0.00000000000E+00  0.00000000000E+00  0.17602661459E+03  0.17602661466E+03  0.50400001928E-02 0. -1.
        1   -1    0    0  501    0  0.00000000000E+00  0.00000000000E+00 -0.51158448057E+03  0.51158448060E+03  0.50400001928E-02 0.  1.
    10030    2    1    2    0    0  0.00000000000E+00  0.00000000000E+00 -0.33555786598E+03  0.68761109526E+03  0.60017492192E+03 0.  0.
        3    1    3    3  502    0 -0.11524201712E+03  0.27270646626E+03 -0.22394008691E+03  0.37121248898E+03  0.10100000352E+00 0.  1.
       -3    1    3    3    0  502  0.11524201712E+03 -0.27270646626E+03 -0.11161777907E+03  0.31639860628E+03  0.10100000352E+00 0. -1.
</event>
<event>
 5   0  0.9866317E-03  0.5995996E+03  0.7818609E-02  0.9906237E-01
        2   -1    0    0  501    0  0.00000000000E+00  0.00000000000E+00  0.40186641633E+03  0.40186641634E+03  0.25500000920E-02 0.  1.
       -2   -1    0    0    0  501  0.00000000000E+00  0.00000000000E+00 -0.22365617990E+03  0.22365617992E+03  0.25500000920E-02 0. -1.
    10030    2    1    2    0    0  0.00000000000E+00  0.00000000000E+00  0.17821023642E+03  0.62552259626E+03  0.59959955809E+03 0.  0.
        1    1    3    3  502    0 -0.69395967842E+02  0.15242779969E+03  0.34851163123E+03  0.38666573626E+03  0.50400001928E-02 0.  1.
       -1    1    3    3    0  502  0.69395967842E+02 -0.15242779969E+03 -0.17030139480E+03  0.23885686000E+03  0.50400001928E-02 0. -1.
</event>
<event>
 5   0  0.5653633E-03  0.5997515E+03  0.7818609E-02  0.9905922E-01
        1   -1    0    0  501    0  0.00000000000E+00  0.00000000000E+00  0.17079059755E+04  0.17079059755E+04  0.50400001928E-02 0. -1.
       -1   -1    0    0    0  501  0.00000000000E+00  0.00000000000E+00 -0.52652463942E+02  0.52652464183E+02  0.50400001928E-02 0.  1.
    10030    2    1    2    0    0  0.00000000000E+00  0.00000000000E+00  0.16552535115E+04  0.17605584397E+04  0.59975147522E+03 0.  0.
        2    1    3    3  502    0  0.27555931419E+03  0.90621703928E+02  0.10508048929E+04  0.10901083211E+04  0.25500000920E-02 0. -1.
       -2    1    3    3    0  502 -0.27555931419E+03 -0.90621703928E+02  0.60444861861E+03  0.67045011851E+03  0.25500000920E-02 0.  1.
</event>
<event>
 5   0  0.9530666E-03  0.5991288E+03  0.7818609E-02  0.9907215E-01
       -2   -1    0    0    0  501  0.00000000000E+00  0.00000000000E+00  0.10479655125E+03  0.10479655128E+03  0.25500000920E-02 0. -1.
        2   -1    0    0  501    0  0.00000000000E+00  0.00000000000E+00 -0.85631475282E+03  0.85631475282E+03  0.25500000920E-02 0.  1.
    10030    2    1    2    0    0  0.00000000000E+00  0.00000000000E+00 -0.75151820157E+03  0.96111130411E+03  0.59912881052E+03 0.  0.
        2    1    3    3  502    0 -0.11565805046E+03  0.16720654812E+03 -0.22824538397E+02  0.20458683714E+03  0.25500000920E-02 0. -1.
       -2    1    3    3    0  502  0.11565805046E+03 -0.16720654812E+03 -0.72869366317E+03  0.75652446697E+03  0.25500000920E-02 0.  1.
</event>
<event>
 5   0  0.5503975E-03  0.5997729E+03  0.7818609E-02  0.9905877E-01
        1   -1    0    0  501    0  0.00000000000E+00  0.00000000000E+00  0.23981369938E+04  0.23981369938E+04  0.50400001928E-02 0.  1.
       -1   -1    0    0    0  501  0.00000000000E+00  0.00000000000E+00 -0.37500733371E+02  0.37500733710E+02  0.50400001928E-02 0. -1.
    10030    2    1    2    0    0  0.00000000000E+00  0.00000000000E+00  0.23606362604E+04  0.24356377275E+04  0.59977294507E+03 0.  0.
        4    1    3    3  502    0 -0.14043038874E+03  0.15194954119E+03  0.29879699163E+03  0.36344272211E+03  0.12699999809E+01 0. -1.
       -4    1    3    3    0  502  0.14043038874E+03 -0.15194954119E+03  0.20618392688E+04  0.20721950054E+04  0.12699999809E+01 0.  1.
</event>
<event>
 5   0  0.9571790E-03  0.5994379E+03  0.7818609E-02  0.9906573E-01
       -2   -1    0    0    0  501  0.00000000000E+00  0.00000000000E+00  0.60909234219E+02  0.60909234272E+02  0.25500000920E-02 0. -1.
        2   -1    0    0  501    0  0.00000000000E+00  0.00000000000E+00 -0.14748411911E+04  0.14748411911E+04  0.25500000920E-02 0.  1.
    10030    2    1    2    0    0  0.00000000000E+00  0.00000000000E+00 -0.14139319569E+04  0.15357504254E+04  0.59943789533E+03 0.  0.
        5    1    3    3  502    0  0.19427971170E+03 -0.22759926331E+03 -0.74854016675E+03  0.80615166208E+03  0.46999998093E+01 0. -1.
       -5    1    3    3    0  502 -0.19427971170E+03  0.22759926331E+03 -0.66539179017E+03  0.72959876334E+03  0.46999998093E+01 0.  1.
</event>
<event>
 5   0  0.5503975E-03  0.6065119E+03  0.7818609E-02  0.9891987E-01
        1   -1    0    0  501    0  0.00000000000E+00  0.00000000000E+00  0.23799801699E+04  0.23799801699E+04  0.50400001928E-02 0. -1.
       -1   -1    0    0    0  501  0.00000000000E+00  0.00000000000E+00 -0.38640729364E+02  0.38640729693E+02  0.50400001928E-02 0.  1.
    10030    2    1    2    0    0  0.00000000000E+00  0.00000000000E+00  0.23413394405E+04  0.24186208996E+04  0.60651189614E+03 0.  0.
        4    1    3    3  502    0 -0.73571372061E+02 -0.28192658952E+03  0.15059070936E+04  0.15338360851E+04  0.12699999809E+01 0. -1.
       -4    1    3    3    0  502  0.73571372061E+02  0.28192658952E+03  0.83543234692E+03  0.88478481443E+03  0.12699999809E+01 0.  1.
</event>
<event>
 5   0  0.9866317E-03  0.5997517E+03  0.7818609E-02  0.9905921E-01
       -2   -1    0    0    0  501  0.00000000000E+00  0.00000000000E+00  0.28576610417E+03  0.28576610418E+03  0.25500000920E-02 0.  1.
        2   -1    0    0  501    0  0.00000000000E+00  0.00000000000E+00 -0.31468224866E+03  0.31468224867E+03  0.25500000920E-02 0. -1.
    10030    2    1    2    0    0  0.00000000000E+00  0.00000000000E+00 -0.28916144488E+02  0.60044835285E+03  0.59975168281E+03 0.  0.
        1    1    3    3  502    0  0.72857032340E+02 -0.28965124683E+03  0.12397110776E+02  0.29893089558E+03  0.50400001928E-02 0.  1.
       -1    1    3    3    0  502 -0.72857032340E+02  0.28965124683E+03 -0.41313255265E+02  0.30151745727E+03  0.50400001928E-02 0. -1.
</event>
<event>
 5   0  0.5653633E-03  0.6003565E+03  0.7818609E-02  0.9904667E-01
        1   -1    0    0  501    0  0.00000000000E+00  0.00000000000E+00  0.48656046488E+03  0.48656046491E+03  0.50400001928E-02 0. -1.
       -1   -1    0    0    0  501  0.00000000000E+00  0.00000000000E+00 -0.18519172280E+03  0.18519172287E+03  0.50400001928E-02 0.  1.
    10030    2    1    2    0    0  0.00000000000E+00  0.00000000000E+00  0.30136874209E+03  0.67175218778E+03  0.60035646334E+03 0.  0.
        2    1    3    3  502    0  0.52276811666E+01 -0.26519580586E+03  0.30793505311E+03  0.40642359802E+03  0.25500000920E-02 0. -1.
       -2    1    3    3    0  502 -0.52276811666E+01  0.26519580586E+03 -0.65663110194E+01  0.26532858975E+03  0.25500000920E-02 0.  1.
</event>
<event>
 5   0  0.5653633E-03  0.6000999E+03  0.7818609E-02  0.9905199E-01
        1   -1    0    0  501    0  0.00000000000E+00  0.00000000000E+00  0.90415608388E+03  0.90415608389E+03  0.50400001928E-02 0. -1.
       -1   -1    0    0    0  501  0.00000000000E+00  0.00000000000E+00 -0.99573496021E+02  0.99573496148E+02  0.50400001928E-02 0.  1.
    10030    2    1    2    0    0  0.00000000000E+00  0.00000000000E+00  0.80458258786E+03  0.10037295800E+04  0.60009993265E+03 0.  0.
        2    1    3    3  502    0 -0.70220232182E+02  0.26974526680E+03  0.21651480466E+03  0.35294765988E+03  0.25500000920E-02 0.  1.
       -2    1    3    3    0  502  0.70220232182E+02 -0.26974526680E+03  0.58806778320E+03  0.65078192017E+03  0.25500000920E-02 0. -1.
</event>
<event>
 5   0  0.5491236E-03  0.6006717E+03  0.7818609E-02  0.9904014E-01
        1   -1    0    0  501    0  0.00000000000E+00  0.00000000000E+00  0.95873968543E+03  0.95873968544E+03  0.50400001928E-02 0.  1.
       -1   -1    0    0    0  501  0.00000000000E+00  0.00000000000E+00 -0.94083532085E+02  0.94083532220E+02  0.50400001928E-02 0. -1.
    10030    2    1    2    0    0  0.00000000000E+00  0.00000000000E+00  0.86465615334E+03  0.10528232177E+04  0.60067167749E+03 0.  0.
        3    1    3    3  502    0  0.14497769908E+03  0.18913405709E+03  0.11194799138E+03  0.26329183002E+03  0.10100000352E+00 0. -1.
       -3    1    3    3    0  502 -0.14497769908E+03 -0.18913405709E+03  0.75270816197E+03  0.78953138764E+03  0.10100000352E+00 0.  1.
</event>
<event>
 5   0  0.5574736E-03  0.6003012E+03  0.7818609E-02  0.9904781E-01
        1   -1    0    0  501    0  0.00000000000E+00  0.00000000000E+00  0.71473168841E+03  0.71473168843E+03  0.50400001928E-02 0. -1.
       -1   -1    0    0    0  501  0.00000000000E+00  0.00000000000E+00 -0.12604782272E+03  0.12604782282E+03  0.50400001928E-02 0.  1.
    10030    2    1    2    0    0  0.00000000000E+00  0.00000000000E+00  0.58868386569E+03  0.84077951124E+03  0.60030116841E+03 0.  0.
        5    1    3    3  502    0 -0.26978136526E+03  0.12875799784E+03  0.25708301717E+03  0.39430239000E+03  0.46999998093E+01 0. -1.
       -5    1    3    3    0  502  0.26978136526E+03 -0.12875799784E+03  0.33160084853E+03  0.44647712124E+03  0.46999998093E+01 0.  1.
</event>
<event>
 5   0  0.5503975E-03  0.5996847E+03  0.7818609E-02  0.9906060E-01
       -1   -1    0    0    0  501  0.00000000000E+00  0.00000000000E+00  0.20788968342E+03  0.20788968348E+03  0.50400001928E-02 0. -1.
        1   -1    0    0  501    0  0.00000000000E+00  0.00000000000E+00 -0.43246705246E+03  0.43246705249E+03  0.50400001928E-02 0.  1.
    10030    2    1    2    0    0  0.00000000000E+00  0.00000000000E+00 -0.22457736904E+03  0.64035673597E+03  0.59968471268E+03 0.  0.
        4    1    3    3  502    0  0.17286442935E+03 -0.42816318147E+02 -0.36987186559E+03  0.41051450387E+03  0.12699999809E+01 0.  1.
       -4    1    3    3    0  502 -0.17286442935E+03  0.42816318147E+02  0.14529449654E+03  0.22984223210E+03  0.12699999809E+01 0. -1.
</event>
<event>
 5   0  0.9681801E-03  0.6037294E+03  0.7818609E-02  0.9897699E-01
       -2   -1    0    0    0  501  0.00000000000E+00  0.00000000000E+00  0.40350772339E+02  0.40350772420E+02  0.25500000920E-02 0.  1.
        2   -1    0    0  501    0  0.00000000000E+00  0.00000000000E+00 -0.22582540107E+04  0.22582540107E+04  0.25500000920E-02 0. -1.
    10030    2    1    2    0    0  0.00000000000E+00  0.00000000000E+00 -0.22179032384E+04  0.22986047831E+04  0.60372938827E+03 0.  0.
        4    1    3    3  502    0  0.18438254449E+03 -0.23066046885E+03 -0.13473139698E+04  0.13792960961E+04  0.12699999809E+01 0.  1.
       -4    1    3    3    0  502 -0.18438254449E+03  0.23066046885E+03 -0.87058926858E+03  0.91930868704E+03  0.12699999809E+01 0. -1.
</event>
<event>
 5   0  0.9866317E-03  0.6003812E+03  0.7818609E-02  0.9904616E-01
       -2   -1    0    0    0  501  0.00000000000E+00  0.00000000000E+00  0.10082671554E+03  0.10082671557E+03  0.25500000920E-02 0.  1.
        2   -1    0    0  501    0  0.00000000000E+00  0.00000000000E+00 -0.89375504379E+03  0.89375504380E+03  0.25500000920E-02 0. -1.
    10030    2    1    2    0    0  0.00000000000E+00  0.00000000000E+00 -0.79292832825E+03  0.99458175937E+03  0.60038116420E+03 0.  0.
        1    1    3    3  502    0 -0.57355721958E+02  0.22200682521E+03 -0.71742136492E+03  0.75317336925E+03  0.50400001928E-02 0. -1.
       -1    1    3    3    0  502  0.57355721958E+02 -0.22200682521E+03 -0.75506963333E+02  0.24140839012E+03  0.50400001928E-02 0.  1.
</event>
<event>
 5   0  0.9571790E-03  0.6009087E+03  0.7818609E-02  0.9903523E-01
        2   -1    0    0  501    0  0.00000000000E+00  0.00000000000E+00  0.31208286988E+03  0.31208286989E+03  0.25500000920E-02 0. -1.
       -2   -1    0    0    0  501  0.00000000000E+00  0.00000000000E+00 -0.28925913864E+03  0.28925913865E+03  0.25500000920E-02 0.  1.
    10030    2    1    2    0    0  0.00000000000E+00  0.00000000000E+00  0.22823731237E+02  0.60134200854E+03  0.60090871896E+03 0.  0.
        5    1    3    3  502    0 -0.27065868561E+03 -0.10394966136E+03  0.90139271975E+02  0.30365907618E+03  0.46999998093E+01 0. -1.
       -5    1    3    3    0  502  0.27065868561E+03  0.10394966136E+03 -0.67315540737E+02  0.29768293236E+03  0.46999998093E+01 0.  1.
</event>
<event>
 5   0  0.9530666E-03  0.5994000E+03  0.7818609E-02  0.9906652E-01
       -2   -1    0    0    0  501  0.00000000000E+00  0.00000000000E+00  0.85874147883E+02  0.85874147920E+02  0.25500000920E-02 0.  1.
        2   -1    0    0  501    0  0.00000000000E+00  0.00000000000E+00 -0.10459501797E+04  0.10459501798E+04  0.25500000920E-02 0. -1.
    10030    2    1    2    0    0  0.00000000000E+00  0.00000000000E+00 -0.96007603186E+03  0.11318243277E+04  0.59939996809E+03 0.  0.
        2    1    3    3  502    0 -0.68570063208E+02 -0.21764978661E+03 -0.84689970666E+03  0.87710455268E+03  0.25500000920E-02 0. -1.
       -2    1    3    3    0  502  0.68570063208E+02  0.21764978661E+03 -0.11317632521E+03  0.25471977500E+03  0.25500000920E-02 0.  1.
</event>
<event>
 5   0  0.5653633E-03  0.6001982E+03  0.7818609E-02  0.9904995E-01
        1   -1    0    0  501    0  0.00000000000E+00  0.00000000000E+00  0.90003204787E+03  0.90003204788E+03  0.50400001928E-02 0.  1.
       -1   -1    0    0    0  501  0.00000000000E+00  0.00000000000E+00 -0.10006253036E+03  0.10006253049E+03  0.50400001928E-02 0. -1.
    10030    2    1    2    0    0  0.00000000000E+00  0.00000000000E+00  0.79996951751E+03  0.10000945784E+04  0.60019824786E+03 0.  0.
        2    1    3    3  502    0  0.27210437615E+03 -0.80600114470E+02  0.56258365883E+03  0.63010915179E+03  0.25500000920E-02 0.  1.
       -2    1    3    3    0  502 -0.27210437615E+03  0.80600114470E+02  0.23738585868E+03  0.36998542658E+03  0.25500000920E-02 0. -1.
</event>
<event>
 5   0  0.5785798E-03  0.6017754E+03  0.7818609E-02  0.9901729E-01
        1   -1    0    0  501    0  0.00000000000E+00  0.00000000000E+00  0.45451639154E+03  0.45451639157E+03  0.50400001928E-02 0.  1.
       -1   -1    0    0    0  501  0.00000000000E+00  0.00000000000E+00 -0.19918623939E+03  0.19918623946E+03  0.50400001928E-02 0. -1.
    10030    2    1    2    0    0  0.00000000000E+00  0.00000000000E+00  0.25533015215E+03  0.65370263102E+03  0.60177540928E+03 0.  0.
        1    1    3    3  502    0  0.19378089910E+03 -0.44808309031E+02  0.37292278328E+03  0.42264668901E+03  0.50400001928E-02 0.  1.
       -1    1    3    3    0  502 -0.19378089910E+03  0.44808309031E+02 -0.11759263114E+03  0.23105594201E+03  0.50400001928E-02 0. -1.
</event>
<event>
 5   0  0.9571790E-03  0.5898889E+03  0.7818609E-02  0.9926608E-01
       -2   -1    0    0    0  501  0.00000000000E+00  0.00000000000E+00  0.74759202756E+03  0.74759202756E+03  0.25500000920E-02 0. -1.
        2   -1    0    0  501    0  0.00000000000E+00  0.00000000000E+00 -0.11636322492E+03  0.11636322495E+03  0.25500000920E-02 0.  1.
    10030    2    1    2    0    0  0.00000000000E+00  0.00000000000E+00  0.63122880264E+03  0.86395525251E+03  0.58988886840E+03 0.  0.
        5    1    3    3  502    0 -0.29272726340E+03 -0.72936511205E+01  0.36693170723E+03  0.46947142176E+03  0.46999998093E+01 0.  1.
       -5    1    3    3    0  502  0.29272726340E+03  0.72936511205E+01  0.26429709541E+03  0.39448383075E+03  0.46999998093E+01 0. -1.
</event>
<event>
 5   0  0.9866317E-03  0.6001433E+03  0.7818609E-02  0.9905109E-01
        2   -1    0    0  501    0  0.00000000000E+00  0.00000000000E+00  0.13866753781E+04  0.13866753781E+04  0.25500000920E-02 0.  1.
       -2   -1    0    0    0  501  0.00000000000E+00  0.00000000000E+00 -0.64934446768E+02  0.64934446818E+02  0.25500000920E-02 0. -1.
    10030    2    1    2    0    0  0.00000000000E+00  0.00000000000E+00  0.13217409313E+04  0.14516098249E+04  0.60014331143E+03 0.  0.
        1    1    3    3  502    0 -0.44315006882E+02  0.18155499682E+03  0.12287256091E+04  0.12428566527E+04  0.50400001928E-02 0.  1.
       -1    1    3    3    0  502  0.44315006882E+02 -0.18155499682E+03  0.93015322210E+02  0.20875317219E+03  0.50400001928E-02 0. -1.
</event>
<event>
 5   0  0.5574736E-03  0.5994557E+03  0.7818609E-02  0.9906536E-01
       -1   -1    0    0    0  501  0.00000000000E+00  0.00000000000E+00  0.17700438733E+03  0.17700438740E+03  0.50400001928E-02 0.  1.
        1   -1    0    0  501    0  0.00000000000E+00  0.00000000000E+00 -0.50753979811E+03  0.50753979814E+03  0.50400001928E-02 0. -1.
    10030    2    1    2    0    0  0.00000000000E+00  0.00000000000E+00 -0.33053541079E+03  0.68454418554E+03  0.59945565655E+03 0.  0.
        5    1    3    3  502    0  0.97189342457E+02  0.22659846218E+03 -0.35980750493E+03  0.43620655882E+03  0.46999998093E+01 0. -1.
       -5    1    3    3    0  502 -0.97189342457E+02 -0.22659846218E+03  0.29272094144E+02  0.24833762672E+03  0.46999998093E+01 0.  1.
</event>
<event>
 5   0  0.5785798E-03  0.6016528E+03  0.7818609E-02  0.9901983E-01
        1   -1    0    0  501    0  0.00000000000E+00  0.00000000000E+00  0.97254421662E+03  0.97254421664E+03  0.50400001928E-02 0.  1.
       -1   -1    0    0    0  501  0.00000000000E+00  0.00000000000E+00 -0.93051316513E+02  0.93051316650E+02  0.50400001928E-02 0. -1.
    10030    2    1    2    0    0  0.00000000000E+00  0.00000000000E+00  0.87949290011E+03  0.10655955333E+04  0.60165278958E+03 0.  0.
        1    1    3    3  502    0 -0.39229488665E+01  0.21061296177E+03  0.82011683206E+03  0.84673775600E+03  0.50400001928E-02 0.  1.
       -1    1    3    3    0  502  0.39229488665E+01 -0.21061296177E+03  0.59376068054E+02  0.21885777728E+03  0.50400001928E-02 0. -1.
</event>
<event>
 5   0  0.9571790E-03  0.6007348E+03  0.7818609E-02  0.9903883E-01
       -2   -1    0    0    0  501  0.00000000000E+00  0.00000000000E+00  0.71746250587E+02  0.71746250632E+02  0.25500000920E-02 0.  1.
        2   -1    0    0  501    0  0.00000000000E+00  0.00000000000E+00 -0.12574954654E+04  0.12574954654E+04  0.25500000920E-02 0. -1.
    10030    2    1    2    0    0  0.00000000000E+00  0.00000000000E+00 -0.11857492148E+04  0.13292417160E+04  0.60073483269E+03 0.  0.
        5    1    3    3  502    0  0.56029607637E+02 -0.22434871216E+03 -0.10169205277E+04  0.10428907475E+04  0.46999998093E+01 0. -1.
       -5    1    3    3    0  502 -0.56029607637E+02  0.22434871216E+03 -0.16882868709E+03  0.28635096850E+03  0.46999998093E+01 0.  1.
</event>
<event>
 5   0  0.5491236E-03  0.5998238E+03  0.7818609E-02  0.9905772E-01
        1   -1    0    0  501    0  0.00000000000E+00  0.00000000000E+00  0.97052534625E+02  0.97052534756E+02  0.50400001928E-02 0.  1.
       -1   -1    0    0    0  501  0.00000000000E+00  0.00000000000E+00 -0.92678838130E+03  0.92678838132E+03  0.50400001928E-02 0. -1.
    10030    2    1    2    0    0  0.00000000000E+00  0.00000000000E+00 -0.82973584668E+03  0.10238409161E+04  0.59982384594E+03 0.  0.
        3    1    3    3  502    0  0.25311599637E+03  0.16029396669E+03 -0.39163347535E+03  0.49309091717E+03  0.10100000352E+00 0. -1.
       -3    1    3    3    0  502 -0.25311599637E+03 -0.16029396669E+03 -0.43810237133E+03  0.53074999891E+03  0.10100000352E+00 0.  1.
</event>
<event>
 5   0  0.9571790E-03  0.6006206E+03  0.7818609E-02  0.9904119E-01
        2   -1    0    0  501    0  0.00000000000E+00  0.00000000000E+00  0.21557785480E+03  0.21557785481E+03  0.25500000920E-02 0. -1.
       -2   -1    0    0    0  501  0.00000000000E+00  0.00000000000E+00 -0.41834662998E+03  0.41834662999E+03  0.25500000920E-02 0.  1.
    10030    2    1    2    0    0  0.00000000000E+00  0.00000000000E+00 -0.20276877518E+03  0.63392448480E+03  0.60062057594E+03 0.  0.
        5    1    3    3  502    0 -0.37143260219E+02 -0.15542092375E+03 -0.36970292709E+03  0.40278732554E+03  0.46999998093E+01 0.  1.
       -5    1    3    3    0  502  0.37143260219E+02  0.15542092375E+03  0.16693415191E+03  0.23113715926E+03  0.46999998093E+01 0. -1.
</event>
<event>
 5   0  0.5653633E-03  0.5998248E+03  0.7818609E-02  0.9905770E-01
       -1   -1    0    0    0  501  0.00000000000E+00  0.00000000000E+00  0.13682445947E+03  0.13682445956E+03  0.50400001928E-02 0.  1.
        1   -1    0    0  501    0  0.00000000000E+00  0.00000000000E+00 -0.65739309969E+03  0.65739309971E+03  0.50400001928E-02 0. -1.
    10030    2    1    2    0    0  0.00000000000E+00  0.00000000000E+00 -0.52056864022E+03  0.79421755927E+03  0.59982482633E+03 0.  0.
        2    1    3    3  502    0  0.25798138104E+03 -0.15162146577E+03 -0.28689784215E+03  0.41455257047E+03  0.25500000920E-02 0. -1.
       -2    1    3    3    0  502 -0.25798138104E+03  0.15162146577E+03 -0.23367079806E+03  0.37966498880E+03  0.25500000920E-02 0.  1.
</event>
<event>
 5   0  0.9866317E-03  0.5998808E+03  0.7818609E-02  0.9905653E-01
        2   -1    0    0  501    0  0.00000000000E+00  0.00000000000E+00  0.14343814957E+04  0.14343814957E+04  0.25500000920E-02 0. -1.
       -2   -1    0    0    0  501  0.00000000000E+00  0.00000000000E+00 -0.62719887173E+02  0.62719887225E+02  0.25500000920E-02 0.  1.
    10030    2    1    2    0    0  0.00000000000E+00  0.00000000000E+00  0.13716616085E+04  0.14971013829E+04  0.59988080687E+03 0.  0.
        1    1    3    3  502    0 -0.15101163658E+03  0.24659157027E+03  0.48692258703E+03  0.56630868146E+03  0.50400001928E-02 0. -1.
       -1    1    3    3    0  502  0.15101163658E+03 -0.24659157027E+03  0.88473902149E+03  0.93079270146E+03  0.50400001928E-02 0.  1.
</event>
<event>
 5   0  0.5653633E-03  0.6044628E+03  0.7818609E-02  0.9896190E-01
       -1   -1    0    0    0  501  0.00000000000E+00  0.00000000000E+00  0.13694124237E+03  0.13694124246E+03  0.50400001928E-02 0.  1.
        1   -1    0    0  501    0  0.00000000000E+00  0.00000000000E+00 -0.66702922945E+03  0.66702922947E+03  0.50400001928E-02 0. -1.
    10030    2    1    2    0    0  0.00000000000E+00  0.00000000000E+00 -0.53008798708E+03  0.80397047193E+03  0.60446277444E+03 0.  0.
        2    1    3    3  502    0 -0.64625028107E+02 -0.29502012512E+03 -0.28024062102E+03  0.41200494434E+03  0.25500000920E-02 0. -1.
       -2    1    3    3    0  502  0.64625028107E+02  0.29502012512E+03 -0.24984736606E+03  0.39196552759E+03  0.25500000920E-02 0.  1.
</event>
<event>
 5   0  0.3794375E-03  0.5990095E+03  0.7818609E-02  0.9907463E-01
        3   -1    0    0  501    0  0.00000000000E+00  0.00000000000E+00  0.16089015150E+03  0.16089018320E+03  0.10100000352E+00 0.  1.
       -3   -1    0    0    0  501  0.00000000000E+00  0.00000000000E+00 -0.55754247822E+03  0.55754248737E+03  0.10100000352E+00 0. -1.
    10030    2    1    2    0    0  0.00000000000E+00  0.00000000000E+00 -0.39665232672E+03  0.71843267057E+03  0.59900954403E+03 0.  0.
        3    1    3    3  502    0  0.21575796419E+03 -0.76099303263E+02 -0.43015029593E+03  0.48720826179E+03  0.10100000352E+00 0.  1.
       -3    1    3    3    0  502 -0.21575796419E+03  0.76099303263E+02  0.33497969208E+02  0.23122440877E+03  0.10100000352E+00 0. -1.
</event>
<event>
 5   0  0.9681801E-03  0.5983829E+03  0.7818609E-02  0.9908767E-01
       -2   -1    0    0    0  501  0.00000000000E+00  0.00000000000E+00  0.56117686494E+03  0.56117686495E+03  0.25500000920E-02 0. -1.
        2   -1    0    0  501    0  0.00000000000E+00  0.00000000000E+00 -0.15951390562E+03  0.15951390564E+03  0.25500000920E-02 0.  1.
    10030    2    1    2    0    0  0.00000000000E+00  0.00000000000E+00  0.40166295932E+03  0.72069077059E+03  0.59838286566E+03 0.  0.
        4    1    3    3  502    0  0.32163306918E+02 -0.17432663272E+03 -0.89449901802E+02  0.19856271307E+03  0.12699999809E+01 0.  1.
       -4    1    3    3    0  502 -0.32163306918E+02  0.17432663272E+03  0.49111286113E+03  0.52212805752E+03  0.12699999809E+01 0. -1.
</event>
<event>
 5   0  0.5503975E-03  0.5998714E+03  0.7818609E-02  0.9905673E-01
       -1   -1    0    0    0  501  0.00000000000E+00  0.00000000000E+00  0.13511945967E+03  0.13511945977E+03  0.50400001928E-02 0. -1.
        1   -1    0    0  501    0  0.00000000000E+00  0.00000000000E+00 -0.66579187107E+03  0.66579187109E+03  0.50400001928E-02 0.  1.
    10030    2    1    2    0    0  0.00000000000E+00  0.00000000000E+00 -0.53067241140E+03  0.80091133086E+03  0.59987144596E+03 0.  0.
        4    1    3    3  502    0 -0.15720980607E+03 -0.20165354025E+03 -0.56009891258E+02  0.26175903851E+03  0.12699999809E+01 0. -1.
       -4    1    3    3    0  502  0.15720980607E+03  0.20165354025E+03 -0.47466252014E+03  0.53915229235E+03  0.12699999809E+01 0.  1.
</event>
<event>
 5   0  0.3794375E-03  0.6015598E+03  0.7818609E-02  0.9902175E-01
        4   -1    0    0  501    0  0.00000000000E+00  0.00000000000E+00  0.15710541979E+03  0.15711055288E+03  0.12699999809E+01 0.  1.
       -4   -1    0    0    0  501  0.00000000000E+00  0.00000000000E+00 -0.57583085598E+03  0.57583225647E+03  0.12699999809E+01 0. -1.
    10030    2    1    2    0    0  0.00000000000E+00  0.00000000000E+00 -0.41872543619E+03  0.73294280935E+03  0.60155978163E+03 0.  0.
        1    1    3    3  502    0  0.14434509851E+03 -0.20340833750E+03 -0.41417813662E+03  0.48348111453E+03  0.50400001928E-02 0. -1.
       -1    1    3    3    0  502 -0.14434509851E+03  0.20340833750E+03 -0.45472995722E+01  0.24946169483E+03  0.50400001928E-02 0.  1.
</event>
<event>
 5   0  0.5491236E-03  0.6001604E+03  0.7818609E-02  0.9905073E-01
        1   -1    0    0  501    0  0.00000000000E+00  0.00000000000E+00  0.43179853079E+03  0.43179853082E+03  0.50400001928E-02 0.  1.
       -1   -1    0    0    0  501  0.00000000000E+00  0.00000000000E+00 -0.20854199738E+03  0.20854199744E+03  0.50400001928E-02 0. -1.
    10030    2    1    2    0    0  0.00000000000E+00  0.00000000000E+00  0.22325653341E+03  0.64034052826E+03  0.60016040557E+03 0.  0.
        3    1    3    3  502    0 -0.25304333116E+02  0.26917951942E+03 -0.27280929553E+02  0.27173918059E+03  0.10100000352E+00 0.  1.
       -3    1    3    3    0  502  0.25304333116E+02 -0.26917951942E+03  0.25053746297E+03  0.36860134767E+03  0.10100000352E+00 0. -1.
</event>
<event>
 5   0  0.5653633E-03  0.6074143E+03  0.7818609E-02  0.9890142E-01
        1   -1    0    0  501    0  0.00000000000E+00  0.00000000000E+00  0.11482055609E+03  0.11482055620E+03  0.50400001928E-02 0.  1.
       -1   -1    0    0    0  501  0.00000000000E+00  0.00000000000E+00 -0.80332323436E+03  0.80332323438E+03  0.50400001928E-02 0. -1.
    10030    2    1    2    0    0  0.00000000000E+00  0.00000000000E+00 -0.68850267828E+03  0.91814379058E+03  0.60741425912E+03 0.  0.
        2    1    3    3  502    0 -0.24212209623E+03  0.13138126124E+03 -0.53755321069E+03  0.60402615806E+03  0.25500000920E-02 0. -1.
       -2    1    3    3    0  502  0.24212209623E+03 -0.13138126124E+03 -0.15094946759E+03  0.31411763252E+03  0.25500000920E-02 0.  1.
</event>
<event>
 5   0  0.5785798E-03  0.6003625E+03  0.7818609E-02  0.9904654E-01
        1   -1    0    0  501    0  0.00000000000E+00  0.00000000000E+00  0.12794175399E+04  0.12794175399E+04  0.50400001928E-02 0. -1.
       -1   -1    0    0    0  501  0.00000000000E+00  0.00000000000E+00 -0.70429537576E+02  0.70429537756E+02  0.50400001928E-02 0.  1.
    10030    2    1    2    0    0  0.00000000000E+00  0.00000000000E+00  0.12089880023E+04  0.13498470777E+04  0.60036250992E+03 0.  0.
        1    1    3    3  502    0  0.26207390748E+03 -0.12213954131E+03  0.78587604307E+03  0.83737802433E+03  0.50400001928E-02 0.  1.
       -1    1    3    3    0  502 -0.26207390748E+03  0.12213954131E+03  0.42311195924E+03  0.51246905332E+03  0.50400001928E-02 0. -1.
</event>
<event>
 5   0  0.5491236E-03  0.6004377E+03  0.7818609E-02  0.9904498E-01
       -1   -1    0    0    0  501  0.00000000000E+00  0.00000000000E+00  0.56574900699E+02  0.56574900923E+02  0.50400001928E-02 0. -1.
        1   -1    0    0  501    0  0.00000000000E+00  0.00000000000E+00 -0.15931332769E+04  0.15931332769E+04  0.50400001928E-02 0.  1.
    10030    2    1    2    0    0  0.00000000000E+00  0.00000000000E+00 -0.15365583762E+04  0.16497081778E+04  0.60043769745E+03 0.  0.
        3    1    3    3  502    0  0.29405722978E+03  0.52321514227E+02 -0.68475527977E+03  0.74705889902E+03  0.10100000352E+00 0. -1.
       -3    1    3    3    0  502 -0.29405722978E+03 -0.52321514227E+02 -0.85180309640E+03  0.90264927878E+03  0.10100000352E+00 0.  1.
</event>
<event>
 5   0  0.5574736E-03  0.6001325E+03  0.7818609E-02  0.9905131E-01
       -1   -1    0    0    0  501  0.00000000000E+00  0.00000000000E+00  0.13859824534E+04  0.13859824535E+04  0.50400001928E-02 0. -1.
        1   -1    0    0  501    0  0.00000000000E+00  0.00000000000E+00 -0.64964566973E+02  0.64964567169E+02  0.50400001928E-02 0.  1.
    10030    2    1    2    0    0  0.00000000000E+00  0.00000000000E+00  0.13210178865E+04  0.14509470206E+04  0.60013248560E+03 0.  0.
        5    1    3    3  502    0  0.14269911133E+02  0.28446617891E+03  0.88850593714E+03  0.93305387178E+03  0.46999998093E+01 0. -1.
       -5    1    3    3    0  502 -0.14269911133E+02 -0.28446617891E+03  0.43251194933E+03  0.51789314885E+03  0.46999998093E+01 0.  1.
</event>
<event>
 5   0  0.5574736E-03  0.6007510E+03  0.7818609E-02  0.9903849E-01
       -1   -1    0    0    0  501  0.00000000000E+00  0.00000000000E+00  0.28448304583E+03  0.28448304588E+03  0.50400001928E-02 0.  1.
        1   -1    0    0  501    0  0.00000000000E+00  0.00000000000E+00 -0.31715575683E+03  0.31715575687E+03  0.50400001928E-02 0. -1.
    10030    2    1    2    0    0  0.00000000000E+00  0.00000000000E+00 -0.32672711000E+02  0.60163880275E+03  0.60075098247E+03 0.  0.
        5    1    3    3  502    0 -0.23739404838E+03  0.78401981496E+02 -0.18301711580E+03  0.30987119838E+03  0.46999998093E+01 0. -1.
       -5    1    3    3    0  502  0.23739404838E+03 -0.78401981496E+02  0.15034440480E+03  0.29176760438E+03  0.46999998093E+01 0.  1.
</event>
<event>
 5   0  0.9681801E-03  0.6173502E+03  0.7818609E-02  0.9870050E-01
       -2   -1    0    0    0  501  0.00000000000E+00  0.00000000000E+00  0.74772399176E+02  0.74772399219E+02  0.25500000920E-02 0.  1.
        2   -1    0    0  501    0  0.00000000000E+00  0.00000000000E+00 -0.12742712263E+04  0.12742712263E+04  0.25500000920E-02 0. -1.
    10030    2    1    2    0    0  0.00000000000E+00  0.00000000000E+00 -0.11994988271E+04  0.13490436255E+04  0.61735019825E+03 0.  0.
        4    1    3    3  502    0  0.23532243808E+03  0.19661074140E+03 -0.52260569915E+03  0.60592966852E+03  0.12699999809E+01 0.  1.
       -4    1    3    3    0  502 -0.23532243808E+03 -0.19661074140E+03 -0.67689312792E+03  0.74311395696E+03  0.12699999809E+01 0. -1.
</event>
<event>
 5   0  0.5503975E-03  0.5996430E+03  0.7818609E-02  0.9906147E-01
        1   -1    0    0  501    0  0.00000000000E+00  0.00000000000E+00  0.34294137584E+03  0.34294137587E+03  0.50400001928E-02 0.  1.
       -1   -1    0    0    0  501  0.00000000000E+00  0.00000000000E+00 -0.26212333487E+03  0.26212333492E+03  0.50400001928E-02 0. -1.
    10030    2    1    2    0    0  0.00000000000E+00  0.00000000000E+00  0.80818040962E+02  0.60506471080E+03  0.59964301756E+03 0.  0.
        4    1    3    3  502    0  0.18968633275E+03  0.15090816316E+02 -0.19338110537E+03  0.27130518311E+03  0.12699999809E+01 0. -1.
       -4    1    3    3    0  502 -0.18968633275E+03 -0.15090816316E+02  0.27419914633E+03  0.33375952768E+03  0.12699999809E+01 0.  1.
</event>
<event>
 5   0  0.9428629E-03  0.5998664E+03  0.7818609E-02  0.9905683E-01
        2   -1    0    0  501    0  0.00000000000E+00  0.00000000000E+00  0.22322174605E+03  0.22322174607E+03  0.25500000920E-02 0.  1.
       -2   -1    0    0    0  501  0.00000000000E+00  0.00000000000E+00 -0.40300704298E+03  0.40300704299E+03  0.25500000920E-02 0. -1.
    10030    2    1    2    0    0  0.00000000000E+00  0.00000000000E+00 -0.17978529693E+03  0.62622878905E+03  0.59986643784E+03 0.  0.
        3    1    3    3  502    0 -0.24618746563E+03  0.14082293426E+03 -0.19175405751E+03  0.34235799366E+03  0.10100000352E+00 0. -1.
       -3    1    3    3    0  502  0.24618746563E+03 -0.14082293426E+03  0.11968760586E+02  0.28387079539E+03  0.10100000352E+00 0.  1.
</event>
<event>
 5   0  0.3794375E-03  0.6001298E+03  0.7818609E-02  0.9905137E-01
        3   -1    0    0  501    0  0.00000000000E+00  0.00000000000E+00  0.51131393720E+03  0.51131394717E+03  0.10100000352E+00 0. -1.
       -3   -1    0    0    0  501  0.00000000000E+00  0.00000000000E+00 -0.17609324175E+03  0.17609327071E+03  0.10100000352E+00 0.  1.
    10030    2    1    2    0    0  0.00000000000E+00  0.00000000000E+00  0.33522069545E+03  0.68740721788E+03  0.60012979308E+03 0.  0.
        3    1    3    3  502    0  0.48713229516E+02  0.26936658137E+03  0.30839866269E+03  0.41236037545E+03  0.10100000352E+00 0.  1.
       -3    1    3    3    0  502 -0.48713229516E+02 -0.26936658137E+03  0.26822032764E+02  0.27504684243E+03  0.10100000352E+00 0. -1.
</event>
<event>
 5   0  0.9866317E-03  0.6005057E+03  0.7818609E-02  0.9904357E-01
       -2   -1    0    0    0  501  0.00000000000E+00  0.00000000000E+00  0.74538987967E+02  0.74538988011E+02  0.25500000920E-02 0. -1.
        2   -1    0    0  501    0  0.00000000000E+00  0.00000000000E+00 -0.12094580282E+04  0.12094580282E+04  0.25500000920E-02 0.  1.
    10030    2    1    2    0    0  0.00000000000E+00  0.00000000000E+00 -0.11349190402E+04  0.12839970162E+04  0.60050571168E+03 0.  0.
        1    1    3    3  502    0  0.32022939270E+02  0.23920221508E+03 -0.18551453811E+03  0.30439910022E+03  0.50400001928E-02 0. -1.
       -1    1    3    3    0  502 -0.32022939270E+02 -0.23920221508E+03 -0.94940450211E+03  0.97959791598E+03  0.50400001928E-02 0.  1.
</event>
<event>
 5   0  0.5503975E-03  0.6001501E+03  0.7818609E-02  0.9905095E-01
       -1   -1    0    0    0  501  0.00000000000E+00  0.00000000000E+00  0.10459906184E+03  0.10459906196E+03  0.50400001928E-02 0. -1.
        1   -1    0    0  501    0  0.00000000000E+00  0.00000000000E+00 -0.86085905463E+03  0.86085905465E+03  0.50400001928E-02 0.  1.
    10030    2    1    2    0    0  0.00000000000E+00  0.00000000000E+00 -0.75625999279E+03  0.96545811661E+03  0.60015014640E+03 0.  0.
        4    1    3    3  502    0 -0.26369372688E+03  0.13898581038E+03 -0.32258926786E+03  0.43922304780E+03  0.12699999809E+01 0. -1.
       -4    1    3    3    0  502  0.26369372688E+03 -0.13898581038E+03 -0.43367072493E+03  0.52623506881E+03  0.12699999809E+01 0.  1.
</event>
<event>
 5   0  0.9866317E-03  0.6002673E+03  0.7818609E-02  0.9904852E-01
        2   -1    0    0  501    0  0.00000000000E+00  0.00000000000E+00  0.32716631693E+03  0.32716631694E+03  0.25500000920E-02 0. -1.
       -2   -1    0    0    0  501  0.00000000000E+00  0.00000000000E+00 -0.27533464199E+03  0.27533464200E+03  0.25500000920E-02 0.  1.
    10030    2    1    2    0    0  0.00000000000E+00  0.00000000000E+00  0.51831674939E+02  0.60250095894E+03  0.60026734294E+03 0.  0.
        1    1    3    3  502    0  0.24697708675E+03 -0.13823821977E+03  0.12615101002E+03  0.30987346472E+03  0.50400001928E-02 0. -1.
       -1    1    3    3    0  502 -0.24697708675E+03  0.13823821977E+03 -0.74319335076E+02  0.29262749422E+03  0.50400001928E-02 0.  1.
</event>
<event>
 5   0  0.9428629E-03  0.6015255E+03  0.7818609E-02  0.9902246E-01
        2   -1    0    0  501    0  0.00000000000E+00  0.00000000000E+00  0.14105146278E+03  0.14105146280E+03  0.25500000920E-02 0. -1.
       -2   -1    0    0    0  501  0.00000000000E+00  0.00000000000E+00 -0.64131361353E+03  0.64131361353E+03  0.25500000920E-02 0.  1.
    10030    2    1    2    0    0  0.00000000000E+00  0.00000000000E+00 -0.50026215075E+03  0.78236507634E+03  0.60152547178E+03 0.  0.
        3    1    3    3  502    0  0.29036856143E+01 -0.28173054146E+03 -0.38702365712E+03  0.47871479061E+03  0.10100000352E+00 0. -1.
       -3    1    3    3    0  502 -0.29036856143E+01  0.28173054146E+03 -0.11323849363E+03  0.30365028572E+03  0.10100000352E+00 0.  1.
</event>
<event>
 5   0  0.5653633E-03  0.6009139E+03  0.7818609E-02  0.9903512E-01
       -1   -1    0    0    0  501  0.00000000000E+00  0.00000000000E+00  0.14100397490E+03  0.14100397499E+03  0.50400001928E-02 0.  1.
        1   -1    0    0  501    0  0.00000000000E+00  0.00000000000E+00 -0.64022579285E+03  0.64022579287E+03  0.50400001928E-02 0. -1.
    10030    2    1    2    0    0  0.00000000000E+00  0.00000000000E+00 -0.49922181795E+03  0.78122976786E+03  0.60091390954E+03 0.  0.
        2    1    3    3  502    0  0.17571184529E+01  0.13873799216E+03  0.96859562962E+02  0.16921315811E+03  0.25500000920E-02 0.  1.
       -2    1    3    3    0  502 -0.17571184529E+01 -0.13873799216E+03 -0.59608138091E+03  0.61201660975E+03  0.25500000920E-02 0. -1.
</event>
<event>
 5   0  0.9428629E-03  0.6070687E+03  0.7818609E-02  0.9890848E-01
       -2   -1    0    0    0  501  0.00000000000E+00  0.00000000000E+00  0.88248438119E+02  0.88248438156E+02  0.25500000920E-02 0.  1.
        2   -1    0    0  501    0  0.00000000000E+00  0.00000000000E+00 -0.10440195842E+04  0.10440195842E+04  0.25500000920E-02 0. -1.
    10030    2    1    2    0    0  0.00000000000E+00  0.00000000000E+00 -0.95577114612E+03  0.11322680224E+04  0.60706868704E+03 0.  0.
        3    1    3    3  502    0  0.16721384332E+03 -0.33558578677E+02 -0.94620448249E+03  0.96145180872E+03  0.10100000352E+00 0. -1.
       -3    1    3    3    0  502 -0.16721384332E+03  0.33558578677E+02 -0.95666636241E+01  0.17081621367E+03  0.10100000352E+00 0.  1.
</event>
<event>
 5   0  0.5503975E-03  0.5999998E+03  0.7818609E-02  0.9905407E-01
       -1   -1    0    0    0  501  0.00000000000E+00  0.00000000000E+00  0.90496968851E+02  0.90496968991E+02  0.50400001928E-02 0. -1.
        1   -1    0    0  501    0  0.00000000000E+00  0.00000000000E+00 -0.99450772509E+03  0.99450772510E+03  0.50400001928E-02 0.  1.
    10030    2    1    2    0    0  0.00000000000E+00  0.00000000000E+00 -0.90401075624E+03  0.10850046941E+04  0.59999978234E+03 0.  0.
        4    1    3    3  502    0  0.11987721245E+03  0.26935648133E+03 -0.55228052757E+03  0.62605020097E+03  0.12699999809E+01 0.  1.
       -4    1    3    3    0  502 -0.11987721245E+03 -0.26935648133E+03 -0.35173022866E+03  0.45895449312E+03  0.12699999809E+01 0. -1.
</event>
<event>
 5   0  0.3794375E-03  0.5999720E+03  0.7818609E-02  0.9905464E-01
        4   -1    0    0  501    0  0.00000000000E+00  0.00000000000E+00  0.30649717444E+03  0.30649980562E+03  0.12699999809E+01 0. -1.
       -4   -1    0    0    0  501  0.00000000000E+00  0.00000000000E+00 -0.29360786186E+03  0.29361060854E+03  0.12699999809E+01 0.  1.
    10030    2    1    2    0    0  0.00000000000E+00  0.00000000000E+00  0.12889312581E+02  0.60011041416E+03  0.59997197835E+03 0.  0.
        3    1    3    3  502    0  0.12453654667E+03 -0.24876874557E+03 -0.10581467219E+03  0.29764407483E+03  0.10100000352E+00 0.  1.
       -3    1    3    3    0  502 -0.12453654667E+03  0.24876874557E+03  0.11870398477E+03  0.30246633933E+03  0.10100000352E+00 0. -1.
</event>
<event>
 5   0  0.5503975E-03  0.6007494E+03  0.7818609E-02  0.9903852E-01
       -1   -1    0    0    0  501  0.00000000000E+00  0.00000000000E+00  0.39387498159E+03  0.39387498162E+03  0.50400001928E-02 0.  1.
        1   -1    0    0  501    0  0.00000000000E+00  0.00000000000E+00 -0.22907007401E+03  0.22907007406E+03  0.50400001928E-02 0. -1.
    10030    2    1    2    0    0  0.00000000000E+00  0.00000000000E+00  0.16480490758E+03  0.62294505569E+03  0.60074943599E+03 0.  0.
        4    1    3    3  502    0 -0.33379898693E+02  0.48517631440E+02 -0.22302219231E+03  0.23067008770E+03  0.12699999809E+01 0. -1.
       -4    1    3    3    0  502  0.33379898693E+02 -0.48517631440E+02  0.38782709989E+03  0.39227496799E+03  0.12699999809E+01 0.  1.
</event>
<event>
 5   0  0.9866317E-03  0.6005246E+03  0.7818609E-02  0.9904318E-01
       -2   -1    0    0    0  501  0.00000000000E+00  0.00000000000E+00  0.80946715927E+02  0.80946715967E+02  0.25500000920E-02 0.  1.
        2   -1    0    0  501    0  0.00000000000E+00  0.00000000000E+00 -0.11137874747E+04  0.11137874747E+04  0.25500000920E-02 0. -1.
    10030    2    1    2    0    0  0.00000000000E+00  0.00000000000E+00 -0.10328407587E+04  0.11947341906E+04  0.60052456516E+03 0.  0.
        1    1    3    3  502    0 -0.11322458868E+03  0.27675304483E+03 -0.57073668970E+03  0.64432322968E+03  0.50400001928E-02 0. -1.
       -1    1    3    3    0  502  0.11322458868E+03 -0.27675304483E+03 -0.46210406904E+03  0.55041096097E+03  0.50400001928E-02 0.  1.
</event>
<event>
 5   0  0.5785798E-03  0.5995880E+03  0.7818609E-02  0.9906261E-01
       -1   -1    0    0    0  501  0.00000000000E+00  0.00000000000E+00  0.18097664840E+03  0.18097664847E+03  0.50400001928E-02 0. -1.
        1   -1    0    0  501    0  0.00000000000E+00  0.00000000000E+00 -0.49661898619E+03  0.49661898621E+03  0.50400001928E-02 0.  1.
    10030    2    1    2    0    0  0.00000000000E+00  0.00000000000E+00 -0.31564233778E+03  0.67759563468E+03  0.59958799083E+03 0.  0.
        1    1    3    3  502    0 -0.16410689715E+03 -0.21133939034E+03 -0.50230592654E+01  0.26762033322E+03  0.50400001928E-02 0. -1.
       -1    1    3    3    0  502  0.16410689715E+03  0.21133939034E+03 -0.31061927852E+03  0.40997530147E+03  0.50400001928E-02 0.  1.
</event>
<event>
 5   0  0.5653633E-03  0.5979955E+03  0.7818609E-02  0.9909573E-01
        1   -1    0    0  501    0  0.00000000000E+00  0.00000000000E+00  0.55854963479E+03  0.55854963481E+03  0.50400001928E-02 0. -1.
       -1   -1    0    0    0  501  0.00000000000E+00  0.00000000000E+00 -0.16005680080E+03  0.16005680088E+03  0.50400001928E-02 0.  1.
    10030    2    1    2    0    0  0.00000000000E+00  0.00000000000E+00  0.39849283399E+03  0.71860643569E+03  0.59799554402E+03 0.  0.
        2    1    3    3  502    0 -0.55214217247E+02  0.13006211371E+03 -0.11740546649E+03  0.18370848313E+03  0.25500000920E-02 0.  1.
       -2    1    3    3    0  502  0.55214217247E+02 -0.13006211371E+03  0.51589830048E+03  0.53489795256E+03  0.25500000920E-02 0. -1.
</event>
<event>
 5   0  0.9530666E-03  0.6001916E+03  0.7818609E-02  0.9905009E-01
       -2   -1    0    0    0  501  0.00000000000E+00  0.00000000000E+00  0.12551878840E+03  0.12551878842E+03  0.25500000920E-02 0. -1.
        2   -1    0    0  501    0  0.00000000000E+00  0.00000000000E+00 -0.71748203402E+03  0.71748203403E+03  0.25500000920E-02 0.  1.
    10030    2    1    2    0    0  0.00000000000E+00  0.00000000000E+00 -0.59196324563E+03  0.84300082245E+03  0.60019155482E+03 0.  0.
        2    1    3    3  502    0 -0.88023199827E+02  0.11331185681E+03  0.74218185273E+02  0.16154256292E+03  0.25500000920E-02 0. -1.
       -2    1    3    3    0  502  0.88023199827E+02 -0.11331185681E+03 -0.66618143090E+03  0.68145825953E+03  0.25500000920E-02 0.  1.
</event>
<event>
 5   0  0.9530666E-03  0.5989052E+03  0.7818609E-02  0.9907680E-01
        2   -1    0    0  501    0  0.00000000000E+00  0.00000000000E+00  0.34194125017E+03  0.34194125018E+03  0.25500000920E-02 0.  1.
       -2   -1    0    0    0  501  0.00000000000E+00  0.00000000000E+00 -0.26224349130E+03  0.26224349131E+03  0.25500000920E-02 0. -1.
    10030    2    1    2    0    0  0.00000000000E+00  0.00000000000E+00  0.79697758870E+02  0.60418474149E+03  0.59890522546E+03 0.  0.
        2    1    3    3  502    0 -0.85129096713E+02 -0.21103371989E+03  0.23621749608E+03  0.32799527359E+03  0.25500000920E-02 0.  1.
       -2    1    3    3    0  502  0.85129096713E+02  0.21103371989E+03 -0.15651973721E+03  0.27618946790E+03  0.25500000920E-02 0. -1.
</event>
<event>
 5   0  0.3794375E-03  0.5919174E+03  0.7818609E-02  0.9922318E-01
       -4   -1    0    0    0  501  0.00000000000E+00  0.00000000000E+00  0.38546915456E+03  0.38547124668E+03  0.12699999809E+01 0.  1.
        4   -1    0    0  501    0  0.00000000000E+00  0.00000000000E+00 -0.22722912838E+03  0.22723267742E+03  0.12699999809E+01 0. -1.
    10030    2    1    2    0    0  0.00000000000E+00  0.00000000000E+00  0.15824002618E+03  0.61270392410E+03  0.59191738674E+03 0.  0.
        4    1    3    3  502    0 -0.52112251547E+02  0.84514773199E+02 -0.20947451584E+03  0.23181807379E+03  0.12699999809E+01 0. -1.
       -4    1    3    3    0  502  0.52112251547E+02 -0.84514773199E+02  0.36771454202E+03  0.38088585031E+03  0.12699999809E+01 0.  1.
</event>
<event>
 5   0  0.9866317E-03  0.6019969E+03  0.7818609E-02  0.9901272E-01
        2   -1    0    0  501    0  0.00000000000E+00  0.00000000000E+00  0.30856351123E+03  0.30856351124E+03  0.25500000920E-02 0.  1.
       -2   -1    0    0    0  501  0.00000000000E+00  0.00000000000E+00 -0.29361885532E+03  0.29361885533E+03  0.25500000920E-02 0. -1.
    10030    2    1    2    0    0  0.00000000000E+00  0.00000000000E+00  0.14944655910E+02  0.60218236658E+03  0.60199689358E+03 0.  0.
        1    1    3    3  502    0 -0.67568644970E+01 -0.90277282574E+02 -0.27967781882E+03  0.29396483689E+03  0.50400001928E-02 0. -1.
       -1    1    3    3    0  502  0.67568644970E+01  0.90277282574E+02  0.29462247472E+03  0.30821752969E+03  0.50400001928E-02 0.  1.
</event>
<event>
 5   0  0.5785798E-03  0.6010494E+03  0.7818609E-02  0.9903231E-01
       -1   -1    0    0    0  501  0.00000000000E+00  0.00000000000E+00  0.26810736900E+03  0.26810736905E+03  0.50400001928E-02 0.  1.
        1   -1    0    0  501    0  0.00000000000E+00  0.00000000000E+00 -0.33686165645E+03  0.33686165649E+03  0.50400001928E-02 0. -1.
    10030    2    1    2    0    0  0.00000000000E+00  0.00000000000E+00 -0.68754287448E+02  0.60496902554E+03  0.60104939050E+03 0.  0.
        1    1    3    3  502    0 -0.16156416319E+03 -0.25339934369E+03 -0.35324674319E+02  0.30259219893E+03  0.50400001928E-02 0.  1.
       -1    1    3    3    0  502  0.16156416319E+03  0.25339934369E+03 -0.33429613128E+02  0.30237682661E+03  0.50400001928E-02 0. -1.
</event>
<event>
 5   0  0.9681801E-03  0.6008935E+03  0.7818609E-02  0.9903554E-01
       -2   -1    0    0    0  501  0.00000000000E+00  0.00000000000E+00  0.18675159085E+03  0.18675159087E+03  0.25500000920E-02 0.  1.
        2   -1    0    0  501    0  0.00000000000E+00  0.00000000000E+00 -0.48335994625E+03  0.48335994625E+03  0.25500000920E-02 0. -1.
    10030    2    1    2    0    0  0.00000000000E+00  0.00000000000E+00 -0.29660835540E+03  0.67011153712E+03  0.60089346451E+03 0.  0.
        4    1    3    3  502    0  0.20900990276E+03  0.70569673835E+01 -0.38886450610E+03  0.44153386874E+03  0.12699999809E+01 0. -1.
       -4    1    3    3    0  502 -0.20900990276E+03 -0.70569673835E+01  0.92256150701E+02  0.22857766838E+03  0.12699999809E+01 0.  1.
</event>
<event>
 5   0  0.9571790E-03  0.5997802E+03  0.7818609E-02  0.9905862E-01
       -2   -1    0    0    0  501  0.00000000000E+00  0.00000000000E+00  0.81231300449E+02  0.81231300489E+02  0.25500000920E-02 0.  1.
        2   -1    0    0  501    0  0.00000000000E+00  0.00000000000E+00 -0.11071358117E+04  0.11071358117E+04  0.25500000920E-02 0. -1.
    10030    2    1    2    0    0  0.00000000000E+00  0.00000000000E+00 -0.10259045112E+04  0.11883671122E+04  0.59978023235E+03 0.  0.
        5    1    3    3  502    0 -0.19434000465E+02 -0.32777912529E+02  0.76341374877E+02  0.85452720496E+02  0.46999998093E+01 0.  1.
       -5    1    3    3    0  502  0.19434000465E+02  0.32777912529E+02 -0.11022458861E+04  0.11029143917E+04  0.46999998093E+01 0. -1.
</event>
<event>
 5   0  0.9428629E-03  0.6037789E+03  0.7818609E-02  0.9897597E-01
        2   -1    0    0  501    0  0.00000000000E+00  0.00000000000E+00  0.40114271424E+03  0.40114271425E+03  0.25500000920E-02 0. -1.
       -2   -1    0    0    0  501  0.00000000000E+00  0.00000000000E+00 -0.22719406782E+03  0.22719406784E+03  0.25500000920E-02 0.  1.
    10030    2    1    2    0    0  0.00000000000E+00  0.00000000000E+00  0.17394864642E+03  0.62833678209E+03  0.60377891660E+03 0.  0.
        3    1    3    3  502    0 -0.62053457061E+02  0.18990855758E+02  0.39379827863E+03  0.39910948196E+03  0.10100000352E+00 0. -1.
       -3    1    3    3    0  502  0.62053457061E+02 -0.18990855758E+02 -0.21984963222E+03  0.22922730013E+03  0.10100000352E+00 0.  1.
</event>
<event>
 5   0  0.5785798E-03  0.5992189E+03  0.7818609E-02  0.9907028E-01
       -1   -1    0    0    0  501  0.00000000000E+00  0.00000000000E+00  0.23823878540E+03  0.23823878545E+03  0.50400001928E-02 0.  1.
        1   -1    0    0  501    0  0.00000000000E+00  0.00000000000E+00 -0.37678932965E+03  0.37678932968E+03  0.50400001928E-02 0. -1.
    10030    2    1    2    0    0  0.00000000000E+00  0.00000000000E+00 -0.13855054425E+03  0.61502811514E+03  0.59921893253E+03 0.  0.
        1    1    3    3  502    0 -0.14439034170E+03  0.11029256297E+03 -0.31378893715E+03  0.36259690749E+03  0.50400001928E-02 0. -1.
       -1    1    3    3    0  502  0.14439034170E+03 -0.11029256297E+03  0.17523839290E+03  0.25243120764E+03  0.50400001928E-02 0.  1.
</event>
<event>
 5   0  0.3794375E-03  0.5995774E+03  0.7818609E-02  0.9906283E-01
       -4   -1    0    0    0  501  0.00000000000E+00  0.00000000000E+00  0.39600352282E+03  0.39600555929E+03  0.12699999809E+01 0. -1.
        4   -1    0    0  501    0  0.00000000000E+00  0.00000000000E+00 -0.22694625998E+03  0.22694981344E+03  0.12699999809E+01 0.  1.
    10030    2    1    2    0    0  0.00000000000E+00  0.00000000000E+00  0.16905726284E+03  0.62295537273E+03  0.59957738307E+03 0.  0.
        1    1    3    3  502    0 -0.29321362751E+02 -0.25741086819E+03 -0.72194310220E+02  0.26894630659E+03  0.50400001928E-02 0.  1.
       -1    1    3    3    0  502  0.29321362751E+02  0.25741086819E+03  0.24125157306E+03  0.35400906614E+03  0.50400001928E-02 0. -1.
</event>
<event>
 5   0  0.5653633E-03  0.5973845E+03  0.7818609E-02  0.9910847E-01
        1   -1    0    0  501    0  0.00000000000E+00  0.00000000000E+00  0.56647111679E+03  0.56647111681E+03  0.50400001928E-02 0.  1.
       -1   -1    0    0    0  501  0.00000000000E+00  0.00000000000E+00 -0.15749622379E+03  0.15749622387E+03  0.50400001928E-02 0. -1.
    10030    2    1    2    0    0  0.00000000000E+00  0.00000000000E+00  0.40897489300E+03  0.72396734067E+03  0.59738450537E+03 0.  0.
        2    1    3    3  502    0  0.24388836122E+03 -0.42301084045E+02  0.40708117322E+03  0.47643047346E+03  0.25500000920E-02 0.  1.
       -2    1    3    3    0  502 -0.24388836122E+03  0.42301084045E+02  0.18937197823E+01  0.24753686721E+03  0.25500000920E-02 0. -1.
</event>
<event>
 5   0  0.9530666E-03  0.5999150E+03  0.7818609E-02  0.9905582E-01
        2   -1    0    0  501    0  0.00000000000E+00  0.00000000000E+00  0.44466400895E+03  0.44466400895E+03  0.25500000920E-02 0.  1.
       -2   -1    0    0    0  501  0.00000000000E+00  0.00000000000E+00 -0.20234265856E+03  0.20234265857E+03  0.25500000920E-02 0. -1.
    10030    2    1    2    0    0  0.00000000000E+00  0.00000000000E+00  0.24232135039E+03  0.64700666753E+03  0.59991498646E+03 0.  0.
        2    1    3    3  502    0 -0.14948917086E+00 -0.26513959263E+03 -0.30119362023E+02  0.26684490234E+03  0.25500000920E-02 0. -1.
       -2    1    3    3    0  502  0.14948917086E+00  0.26513959263E+03  0.27244071241E+03  0.38016176519E+03  0.25500000920E-02 0.  1.
</event>
<event>
 5   0  0.9681801E-03  0.6023969E+03  0.7818609E-02  0.9900446E-01
       -2   -1    0    0    0  501  0.00000000000E+00  0.00000000000E+00  0.60238041073E+02  0.60238041127E+02  0.25500000920E-02 0.  1.
        2   -1    0    0  501    0  0.00000000000E+00  0.00000000000E+00 -0.15060335716E+04  0.15060335716E+04  0.25500000920E-02 0. -1.
    10030    2    1    2    0    0  0.00000000000E+00  0.00000000000E+00 -0.14457955305E+04  0.15662716127E+04  0.60239691960E+03 0.  0.
        4    1    3    3  502    0  0.18628005177E+02 -0.26471638921E+03 -0.10933239265E+04  0.11250691492E+04  0.12699999809E+01 0. -1.
       -4    1    3    3    0  502 -0.18628005177E+02  0.26471638921E+03 -0.35247160402E+03  0.44120246354E+03  0.12699999809E+01 0.  1.
</event>
<event>
 5   0  0.9571790E-03  0.6001685E+03  0.7818609E-02  0.9905057E-01
        2   -1    0    0  501    0  0.00000000000E+00  0.00000000000E+00  0.43526913774E+03  0.43526913775E+03  0.25500000920E-02 0. -1.
       -2   -1    0    0    0  501  0.00000000000E+00  0.00000000000E+00 -0.20688475589E+03  0.20688475591E+03  0.25500000920E-02 0.  1.
    10030    2    1    2    0    0  0.00000000000E+00  0.00000000000E+00  0.22838438184E+03  0.64215389366E+03  0.60016847407E+03 0.  0.
        5    1    3    3  502    0 -0.15006692059E+02  0.10470441958E+03 -0.18623547143E+03  0.21422874948E+03  0.46999998093E+01 0.  1.
       -5    1    3    3    0  502  0.15006692059E+02 -0.10470441958E+03  0.41461985328E+03  0.42792514417E+03  0.46999998093E+01 0. -1.
</event>
<event>
 5   0  0.5503975E-03  0.6002739E+03  0.7818609E-02  0.9904838E-01
       -1   -1    0    0    0  501  0.00000000000E+00  0.00000000000E+00  0.19205242225E+03  0.19205242231E+03  0.50400001928E-02 0. -1.
        1   -1    0    0  501    0  0.00000000000E+00  0.00000000000E+00 -0.46905000771E+03  0.46905000773E+03  0.50400001928E-02 0.  1.
    10030    2    1    2    0    0  0.00000000000E+00  0.00000000000E+00 -0.27699758546E+03  0.66110243005E+03  0.60027390470E+03 0.  0.
        4    1    3    3  502    0 -0.24285763195E+03  0.17417876749E+03 -0.16891048501E+03  0.34329351478E+03  0.12699999809E+01 0. -1.
       -4    1    3    3    0  502  0.24285763195E+03 -0.17417876749E+03 -0.10808710045E+03  0.31780891527E+03  0.12699999809E+01 0.  1.
</event>
<event>
 5   0  0.5503975E-03  0.6005168E+03  0.7818609E-02  0.9904334E-01
       -1   -1    0    0    0  501  0.00000000000E+00  0.00000000000E+00  0.21548683901E+03  0.21548683907E+03  0.50400001928E-02 0.  1.
        1   -1    0    0  501    0  0.00000000000E+00  0.00000000000E+00 -0.41837875845E+03  0.41837875848E+03  0.50400001928E-02 0. -1.
    10030    2    1    2    0    0  0.00000000000E+00  0.00000000000E+00 -0.20289191944E+03  0.63386559755E+03  0.60051683140E+03 0.  0.
        4    1    3    3  502    0  0.20731676433E+03  0.72389433794E+02 -0.31759341750E+03  0.38611871573E+03  0.12699999809E+01 0. -1.
       -4    1    3    3    0  502 -0.20731676433E+03 -0.72389433794E+02  0.11470149806E+03  0.24774688183E+03  0.12699999809E+01 0.  1.
</event>
<event>
 5   0  0.9530666E-03  0.5988286E+03  0.7818609E-02  0.9907839E-01
        2   -1    0    0  501    0  0.00000000000E+00  0.00000000000E+00  0.62592007513E+03  0.62592007514E+03  0.25500000920E-02 0.  1.
       -2   -1    0    0    0  501  0.00000000000E+00  0.00000000000E+00 -0.14322744995E+03  0.14322744997E+03  0.25500000920E-02 0. -1.
    10030    2    1    2    0    0  0.00000000000E+00  0.00000000000E+00  0.48269262518E+03  0.76914752511E+03  0.59882864409E+03 0.  0.
        2    1    3    3  502    0  0.73894663487E+02 -0.28245850196E+03  0.15609226334E+03  0.33107102154E+03  0.25500000920E-02 0. -1.
       -2    1    3    3    0  502 -0.73894663487E+02  0.28245850196E+03  0.32660036184E+03  0.43807650357E+03  0.25500000920E-02 0.  1.
</event>
<event>
 5   0  0.9866317E-03  0.6022275E+03  0.7818609E-02  0.9900795E-01
        2   -1    0    0  501    0  0.00000000000E+00  0.00000000000E+00  0.75063870043E+03  0.75063870044E+03  0.25500000920E-02 0. -1.
       -2   -1    0    0    0  501  0.00000000000E+00  0.00000000000E+00 -0.12078980734E+03  0.12078980736E+03  0.25500000920E-02 0.  1.
    10030    2    1    2    0    0  0.00000000000E+00  0.00000000000E+00  0.62984889310E+03  0.87142850780E+03  0.60222754509E+03 0.  0.
        1    1    3    3  502    0  0.44082044648E+02 -0.14906217965E+03  0.68809209910E+03  0.70543142610E+03  0.50400001928E-02 0. -1.
       -1    1    3    3    0  502 -0.44082044648E+02  0.14906217965E+03 -0.58243206003E+02  0.16599708170E+03  0.50400001928E-02 0.  1.
</event>
<event>
 5   0  0.9866317E-03  0.5951441E+03  0.7818609E-02  0.9915532E-01
        2   -1    0    0  501    0  0.00000000000E+00  0.00000000000E+00  0.75177011302E+03  0.75177011302E+03  0.25500000920E-02 0. -1.
       -2   -1    0    0    0  501  0.00000000000E+00  0.00000000000E+00 -0.11778751936E+03  0.11778751939E+03  0.25500000920E-02 0.  1.
    10030    2    1    2    0    0  0.00000000000E+00  0.00000000000E+00  0.63398259366E+03  0.86955763241E+03  0.59514413970E+03 0.  0.
        1    1    3    3  502    0  0.19051905987E+03  0.22291211946E+03  0.24303931797E+03  0.38086143843E+03  0.50400001928E-02 0.  1.
       -1    1    3    3    0  502 -0.19051905987E+03 -0.22291211946E+03  0.39094327569E+03  0.48869619398E+03  0.50400001928E-02 0. -1.
</event>
<event>
 5   0  0.5653633E-03  0.5989875E+03  0.7818609E-02  0.9907509E-01
       -1   -1    0    0    0  501  0.00000000000E+00  0.00000000000E+00  0.16850247986E+03  0.16850247994E+03  0.50400001928E-02 0. -1.
        1   -1    0    0  501    0  0.00000000000E+00  0.00000000000E+00 -0.53231560013E+03  0.53231560015E+03  0.50400001928E-02 0.  1.
    10030    2    1    2    0    0  0.00000000000E+00  0.00000000000E+00 -0.36381312027E+03  0.70081808009E+03  0.59898747474E+03 0.  0.
        2    1    3    3  502    0  0.29382217471E+03  0.47465629057E+02 -0.22092305349E+03  0.37066352918E+03  0.25500000920E-02 0. -1.
       -2    1    3    3    0  502 -0.29382217471E+03 -0.47465629057E+02 -0.14289006678E+03  0.33015455091E+03  0.25500000920E-02 0.  1.
</event>
<event>
 5   0  0.9571790E-03  0.6000934E+03  0.7818609E-02  0.9905212E-01
       -2   -1    0    0    0  501  0.00000000000E+00  0.00000000000E+00  0.24598767863E+03  0.24598767864E+03  0.25500000920E-02 0. -1.
        2   -1    0    0  501    0  0.00000000000E+00  0.00000000000E+00 -0.36598589479E+03  0.36598589480E+03  0.25500000920E-02 0.  1.
    10030    2    1    2    0    0  0.00000000000E+00  0.00000000000E+00 -0.11999821616E+03  0.61197357344E+03  0.60009339499E+03 0.  0.
        5    1    3    3  502    0  0.15972196096E+03 -0.91823092595E+02  0.18146541256E+03  0.25863946161E+03  0.46999998093E+01 0. -1.
       -5    1    3    3    0  502 -0.15972196096E+03  0.91823092595E+02 -0.30146362872E+03  0.35333411183E+03  0.46999998093E+01 0.  1.
</event>
<event>
 5   0  0.5503975E-03  0.6001617E+03  0.7818609E-02  0.9905071E-01
       -1   -1    0    0    0  501  0.00000000000E+00  0.00000000000E+00  0.26459831673E+03  0.26459831677E+03  0.50400001928E-02 0. -1.
        1   -1    0    0  501    0  0.00000000000E+00  0.00000000000E+00 -0.34032160570E+03  0.34032160574E+03  0.50400001928E-02 0.  1.
    10030    2    1    2    0    0  0.00000000000E+00  0.00000000000E+00 -0.75723288974E+02  0.60491992251E+03  0.60016172500E+03 0.  0.
        4    1    3    3  502    0  0.17578654144E+02 -0.15384026337E+03  0.22121918609E+03  0.27002847426E+03  0.12699999809E+01 0. -1.
       -4    1    3    3    0  502 -0.17578654144E+02  0.15384026337E+03 -0.29694247507E+03  0.33489144825E+03  0.12699999809E+01 0.  1.
</event>
<event>
 5   0  0.5785798E-03  0.6023315E+03  0.7818609E-02  0.9900581E-01
       -1   -1    0    0    0  501  0.00000000000E+00  0.00000000000E+00  0.73931922685E+03  0.73931922686E+03  0.50400001928E-02 0. -1.
        1   -1    0    0  501    0  0.00000000000E+00  0.00000000000E+00 -0.12268150790E+03  0.12268150800E+03  0.50400001928E-02 0.  1.
    10030    2    1    2    0    0  0.00000000000E+00  0.00000000000E+00  0.61663771895E+03  0.86200073487E+03  0.60233146230E+03 0.  0.
        1    1    3    3  502    0  0.40329966885E+02  0.24855046891E+02  0.73395354035E+03  0.73548084883E+03  0.50400001928E-02 0. -1.
       -1    1    3    3    0  502 -0.40329966885E+02 -0.24855046891E+02 -0.11731582140E+03  0.12651988603E+03  0.50400001928E-02 0.  1.
</event>
<event>
 5   0  0.5785798E-03  0.6005399E+03  0.7818609E-02  0.9904287E-01
        1   -1    0    0  501    0  0.00000000000E+00  0.00000000000E+00  0.14813916831E+03  0.14813916839E+03  0.50400001928E-02 0.  1.
       -1   -1    0    0    0  501  0.00000000000E+00  0.00000000000E+00 -0.60863072032E+03  0.60863072034E+03  0.50400001928E-02 0. -1.
    10030    2    1    2    0    0  0.00000000000E+00  0.00000000000E+00 -0.46049155201E+03  0.75676988874E+03  0.60053991959E+03 0.  0.
        1    1    3    3  502    0  0.18281520316E+03 -0.23212169763E+03 -0.29763922952E+03  0.41939360032E+03  0.50400001928E-02 0.  1.
       -1    1    3    3    0  502 -0.18281520316E+03  0.23212169763E+03 -0.16285232250E+03  0.33737628842E+03  0.50400001928E-02 0. -1.
</event>
<event>
 5   0  0.3794375E-03  0.5993836E+03  0.7818609E-02  0.9906686E-01
       -4   -1    0    0    0  501  0.00000000000E+00  0.00000000000E+00  0.16243533352E+03  0.16244029819E+03  0.12699999809E+01 0.  1.
        4   -1    0    0  501    0  0.00000000000E+00  0.00000000000E+00 -0.55291475218E+03  0.55291621072E+03  0.12699999809E+01 0. -1.
    10030    2    1    2    0    0  0.00000000000E+00  0.00000000000E+00 -0.39047941866E+03  0.71535650891E+03  0.59938364879E+03 0.  0.
        5    1    3    3  502    0 -0.13242079019E+03  0.26587459666E+03 -0.24250740628E+03  0.38347946350E+03  0.46999998093E+01 0. -1.
       -5    1    3    3    0  502  0.13242079019E+03 -0.26587459666E+03 -0.14797201238E+03  0.33187704541E+03  0.46999998093E+01 0.  1.
</event>
<event>
 5   0  0.3794375E-03  0.6007753E+03  0.7818609E-02  0.9903799E-01
        3   -1    0    0  501    0  0.00000000000E+00  0.00000000000E+00  0.69297481754E+03  0.69297482490E+03  0.10100000352E+00 0.  1.
       -3   -1    0    0    0  501  0.00000000000E+00  0.00000000000E+00 -0.13021069721E+03  0.13021073638E+03  0.10100000352E+00 0. -1.
    10030    2    1    2    0    0  0.00000000000E+00  0.00000000000E+00  0.56276412033E+03  0.82318556128E+03  0.60077534334E+03 0.  0.
        4    1    3    3  502    0 -0.15896057196E+03 -0.25208908066E+03  0.33290200488E+03  0.44681397223E+03  0.12699999809E+01 0.  1.
       -4    1    3    3    0  502  0.15896057196E+03  0.25208908066E+03  0.22986211545E+03  0.37637158905E+03  0.12699999809E+01 0. -1.
</event>
<event>
 5   0  0.5785798E-03  0.5981258E+03  0.7818609E-02  0.9909302E-01
        1   -1    0    0  501    0  0.00000000000E+00  0.00000000000E+00  0.45990555955E+03  0.45990555958E+03  0.50400001928E-02 0. -1.
       -1   -1    0    0    0  501  0.00000000000E+00  0.00000000000E+00 -0.19447172533E+03  0.19447172539E+03  0.50400001928E-02 0.  1.
    10030    2    1    2    0    0  0.00000000000E+00  0.00000000000E+00  0.26543383423E+03  0.65437728497E+03  0.59812583186E+03 0.  0.
        1    1    3    3  502    0  0.13314714757E+03 -0.26714536666E+03  0.11243075692E+03  0.31896000526E+03  0.50400001928E-02 0. -1.
       -1    1    3    3    0  502 -0.13314714757E+03  0.26714536666E+03  0.15300307731E+03  0.33541727970E+03  0.50400001928E-02 0.  1.
</event>
<event>
 5   0  0.9428629E-03  0.6006983E+03  0.7818609E-02  0.9903958E-01
       -2   -1    0    0    0  501  0.00000000000E+00  0.00000000000E+00  0.92516048314E+02  0.92516048349E+02  0.25500000920E-02 0. -1.
        2   -1    0    0  501    0  0.00000000000E+00  0.00000000000E+00 -0.97506981756E+03  0.97506981756E+03  0.25500000920E-02 0.  1.
    10030    2    1    2    0    0  0.00000000000E+00  0.00000000000E+00 -0.88255376924E+03  0.10675858659E+04  0.60069828157E+03 0.  0.
        3    1    3    3  502    0  0.29361456777E+02  0.13801997552E+03 -0.91249054446E+03  0.92333667355E+03  0.10100000352E+00 0.  1.
       -3    1    3    3    0  502 -0.29361456777E+02 -0.13801997552E+03  0.29936775219E+02  0.14424919236E+03  0.10100000352E+00 0. -1.
</event>
<event>
 5   0  0.5785798E-03  0.5999609E+03  0.7818609E-02  0.9905487E-01
        1   -1    0    0  501    0  0.00000000000E+00  0.00000000000E+00  0.69612046968E+03  0.69612046970E+03  0.50400001928E-02 0.  1.
       -1   -1    0    0    0  501  0.00000000000E+00  0.00000000000E+00 -0.12927110120E+03  0.12927110130E+03  0.50400001928E-02 0. -1.
    10030    2    1    2    0    0  0.00000000000E+00  0.00000000000E+00  0.56684936848E+03  0.82539157100E+03  0.59996086450E+03 0.  0.
        1    1    3    3  502    0  0.10282974188E+03 -0.15290792650E+03  0.60908202025E+03  0.63634558002E+03  0.50400001928E-02 0.  1.
       -1    1    3    3    0  502 -0.10282974188E+03  0.15290792650E+03 -0.42232651769E+02  0.18904599097E+03  0.50400001928E-02 0. -1.
</event>
<event>
 5   0  0.9681801E-03  0.5965329E+03  0.7818609E-02  0.9912625E-01
       -2   -1    0    0    0  501  0.00000000000E+00  0.00000000000E+00  0.30622246486E+03  0.30622246487E+03  0.25500000920E-02 0.  1.
        2   -1    0    0  501    0  0.00000000000E+00  0.00000000000E+00 -0.29051711260E+03  0.29051711262E+03  0.25500000920E-02 0. -1.
    10030    2    1    2    0    0  0.00000000000E+00  0.00000000000E+00  0.15705352253E+02  0.59673957748E+03  0.59653287021E+03 0.  0.
        4    1    3    3  502    0  0.27554267594E+03 -0.70452728848E+02 -0.82033343705E+02  0.29600411424E+03  0.12699999809E+01 0. -1.
       -4    1    3    3    0  502 -0.27554267594E+03  0.70452728848E+02  0.97738695958E+02  0.30073546325E+03  0.12699999809E+01 0.  1.
</event>
<event>
 5   0  0.9428629E-03  0.5999005E+03  0.7818609E-02  0.9905613E-01
       -2   -1    0    0    0  501  0.00000000000E+00  0.00000000000E+00  0.17749001207E+03  0.17749001209E+03  0.25500000920E-02 0. -1.
        2   -1    0    0  501    0  0.00000000000E+00  0.00000000000E+00 -0.50690258687E+03  0.50690258687E+03  0.25500000920E-02 0.  1.
    10030    2    1    2    0    0  0.00000000000E+00  0.00000000000E+00 -0.32941257479E+03  0.68439259897E+03  0.59990047932E+03 0.  0.
        3    1    3    3  502    0  0.25072753440E+03 -0.25985778932E+02 -0.35017874766E+03  0.43146810164E+03  0.10100000352E+00 0.  1.
       -3    1    3    3    0  502 -0.25072753440E+03  0.25985778932E+02  0.20766172868E+02  0.25292449733E+03  0.10100000352E+00 0. -1.
</event>
<event>
 5   0  0.9530666E-03  0.5999740E+03  0.7818609E-02  0.9905460E-01
        2   -1    0    0  501    0  0.00000000000E+00  0.00000000000E+00  0.68897027516E+03  0.68897027517E+03  0.25500000920E-02 0. -1.
       -2   -1    0    0    0  501  0.00000000000E+00  0.00000000000E+00 -0.13061839237E+03  0.13061839240E+03  0.25500000920E-02 0.  1.
    10030    2    1    2    0    0  0.00000000000E+00  0.00000000000E+00  0.55835188279E+03  0.81958866757E+03  0.59997396526E+03 0.  0.
        2    1    3    3  502    0 -0.22341496236E+03 -0.13820367183E+03  0.81323066526E+02  0.27500534807E+03  0.25500000920E-02 0.  1.
       -2    1    3    3    0  502  0.22341496236E+03  0.13820367183E+03  0.47702881627E+03  0.54458331949E+03  0.25500000920E-02 0. -1.
</event>
<event>
 5   0  0.5574736E-03  0.5992425E+03  0.7818609E-02  0.9906979E-01
        1   -1    0    0  501    0  0.00000000000E+00  0.00000000000E+00  0.61928262824E+03  0.61928262826E+03  0.50400001928E-02 0.  1.
       -1   -1    0    0    0  501  0.00000000000E+00  0.00000000000E+00 -0.14496269803E+03  0.14496269812E+03  0.50400001928E-02 0. -1.
    10030    2    1    2    0    0  0.00000000000E+00  0.00000000000E+00  0.47431993021E+03  0.76424532638E+03  0.59924245736E+03 0.  0.
        5    1    3    3  502    0 -0.30190049834E+02 -0.10435913947E+03 -0.11890902803E+03  0.16113260392E+03  0.46999998093E+01 0. -1.
       -5    1    3    3    0  502  0.30190049834E+02  0.10435913947E+03  0.59322895824E+03  0.60311272246E+03  0.46999998093E+01 0.  1.
</event>
<event>
 5   0  0.5785798E-03  0.5989403E+03  0.7818609E-02  0.9907607E-01
        1   -1    0    0  501    0  0.00000000000E+00  0.00000000000E+00  0.87594339673E+03  0.87594339675E+03  0.50400001928E-02 0.  1.
       -1   -1    0    0    0  501  0.00000000000E+00  0.00000000000E+00 -0.10238373517E+03  0.10238373529E+03  0.50400001928E-02 0. -1.
    10030    2    1    2    0    0  0.00000000000E+00  0.00000000000E+00  0.77355966156E+03  0.97832713204E+03  0.59894025352E+03 0.  0.
        1    1    3    3  502    0  0.76899336654E+02 -0.20428869890E+03  0.51886885093E+02  0.22436494678E+03  0.50400001928E-02 0.  1.
       -1    1    3    3    0  502 -0.76899336654E+02  0.20428869890E+03  0.72167277647E+03  0.75396218526E+03  0.50400001928E-02 0. -1.
</event>
<event>
 5   0  0.9866317E-03  0.6016386E+03  0.7818609E-02  0.9902012E-01
       -2   -1    0    0    0  501  0.00000000000E+00  0.00000000000E+00  0.72284860754E+03  0.72284860755E+03  0.25500000920E-02 0. -1.
        2   -1    0    0  501    0  0.00000000000E+00  0.00000000000E+00 -0.12518839886E+03  0.12518839889E+03  0.25500000920E-02 0.  1.
    10030    2    1    2    0    0  0.00000000000E+00  0.00000000000E+00  0.59766020868E+03  0.84803700643E+03  0.60163862845E+03 0.  0.
        1    1    3    3  502    0  0.77787311556E+02 -0.53480595357E+02 -0.10377028380E+03  0.14028297026E+03  0.50400001928E-02 0.  1.
       -1    1    3    3    0  502 -0.77787311556E+02  0.53480595357E+02  0.70143049248E+03  0.70775403618E+03  0.50400001928E-02 0. -1.
</event>
<event>
 5   0  0.9681801E-03  0.5996112E+03  0.7818609E-02  0.9906213E-01
       -2   -1    0    0    0  501  0.00000000000E+00  0.00000000000E+00  0.72129082239E+02  0.72129082284E+02  0.25500000920E-02 0.  1.
        2   -1    0    0  501    0  0.00000000000E+00  0.00000000000E+00 -0.12461464791E+04  0.12461464791E+04  0.25500000920E-02 0. -1.
    10030    2    1    2    0    0  0.00000000000E+00  0.00000000000E+00 -0.11740173968E+04  0.13182755614E+04  0.59961121371E+03 0.  0.
        4    1    3    3  502    0 -0.31321062525E+02  0.27990969303E+03 -0.81284322610E+03  0.86025936108E+03  0.12699999809E+01 0.  1.
       -4    1    3    3    0  502  0.31321062525E+02 -0.27990969303E+03 -0.36117417073E+03  0.45801620028E+03  0.12699999809E+01 0. -1.
</event>
<event>
 5   0  0.3794375E-03  0.6000922E+03  0.7818609E-02  0.9905215E-01
       -4   -1    0    0    0  501  0.00000000000E+00  0.00000000000E+00  0.68963764192E+03  0.68963881130E+03  0.12699999809E+01 0.  1.
        4   -1    0    0  501    0  0.00000000000E+00  0.00000000000E+00 -0.13053907028E+03  0.13054524798E+03  0.12699999809E+01 0. -1.
    10030    2    1    2    0    0  0.00000000000E+00  0.00000000000E+00  0.55909857164E+03  0.82018405928E+03  0.60009222482E+03 0.  0.
        2    1    3    3  502    0 -0.37453986375E+02 -0.19851004941E+03 -0.23670878998E+02  0.20339457055E+03  0.25500000920E-02 0. -1.
       -2    1    3    3    0  502  0.37453986375E+02  0.19851004941E+03  0.58276945064E+03  0.61678948873E+03  0.25500000920E-02 0.  1.
</event>
<event>
 5   0  0.9428629E-03  0.5986553E+03  0.7818609E-02  0.9908200E-01
       -2   -1    0    0    0  501  0.00000000000E+00  0.00000000000E+00  0.15596312747E+03  0.15596312749E+03  0.25500000920E-02 0. -1.
        2   -1    0    0  501    0  0.00000000000E+00  0.00000000000E+00 -0.57447586235E+03  0.57447586235E+03  0.25500000920E-02 0.  1.
    10030    2    1    2    0    0  0.00000000000E+00  0.00000000000E+00 -0.41851273488E+03  0.73043898984E+03  0.59865533375E+03 0.  0.
        3    1    3    3  502    0 -0.16182192960E+03  0.25181442618E+03 -0.20980179277E+03  0.36553200213E+03  0.10100000352E+00 0. -1.
       -3    1    3    3    0  502  0.16182192960E+03 -0.25181442618E+03 -0.20871094211E+03  0.36490698772E+03  0.10100000352E+00 0.  1.
</event>
<event>
 5   0  0.3794375E-03  0.6012440E+03  0.7818609E-02  0.9902828E-01
        3   -1    0    0  501    0  0.00000000000E+00  0.00000000000E+00  0.25624840611E+03  0.25624842601E+03  0.10100000352E+00 0.  1.
       -3   -1    0    0    0  501  0.00000000000E+00  0.00000000000E+00 -0.35267958101E+03  0.35267959547E+03  0.10100000352E+00 0. -1.
    10030    2    1    2    0    0  0.00000000000E+00  0.00000000000E+00 -0.96431174901E+02  0.60892802148E+03  0.60124401357E+03 0.  0.
        1    1    3    3  502    0 -0.63447996138E+02  0.84493584689E+01  0.24926702200E+03  0.25735401329E+03  0.50400001928E-02 0.  1.
       -1    1    3    3    0  502  0.63447996138E+02 -0.84493584689E+01 -0.34569819690E+03  0.35157400820E+03  0.50400001928E-02 0. -1.
</event>
<event>
 5   0  0.9681801E-03  0.6009579E+03  0.7818609E-02  0.9903421E-01
        2   -1    0    0  501    0  0.00000000000E+00  0.00000000000E+00  0.44173971064E+03  0.44173971064E+03  0.25500000920E-02 0. -1.
       -2   -1    0    0    0  501  0.00000000000E+00  0.00000000000E+00 -0.20439096135E+03  0.20439096136E+03  0.25500000920E-02 0.  1.
    10030    2    1    2    0    0  0.00000000000E+00  0.00000000000E+00  0.23734874929E+03  0.64613067200E+03  0.60095791576E+03 0.  0.
        4    1    3    3  502    0 -0.14340386343E+03  0.24838014884E+03  0.21501220916E+03  0.35845394317E+03  0.12699999809E+01 0. -1.
       -4    1    3    3    0  502  0.14340386343E+03 -0.24838014884E+03  0.22336540130E+02  0.28767672883E+03  0.12699999809E+01 0.  1.
</event>
<event>
 5   0  0.3794375E-03  0.5999099E+03  0.7818609E-02  0.9905593E-01
        3   -1    0    0  501    0  0.00000000000E+00  0.00000000000E+00  0.26691793864E+03  0.26691795775E+03  0.10100000352E+00 0. -1.
       -3   -1    0    0    0  501  0.00000000000E+00  0.00000000000E+00 -0.33708097423E+03  0.33708098936E+03  0.10100000352E+00 0.  1.
    10030    2    1    2    0    0  0.00000000000E+00  0.00000000000E+00 -0.70163035589E+02  0.60399894712E+03  0.59990989036E+03 0.  0.
        4    1    3    3  502    0 -0.16386969306E+03 -0.42380239531E+02  0.21423915957E+03  0.27303734433E+03  0.12699999809E+01 0. -1.
       -4    1    3    3    0  502  0.16386969306E+03  0.42380239531E+02 -0.28440219516E+03  0.33096160278E+03  0.12699999809E+01 0.  1.
</event>
<event>
 5   0  0.5574736E-03  0.5958831E+03  0.7818609E-02  0.9913984E-01
       -1   -1    0    0    0  501  0.00000000000E+00  0.00000000000E+00  0.12983728573E+03  0.12983728583E+03  0.50400001928E-02 0. -1.
        1   -1    0    0  501    0  0.00000000000E+00  0.00000000000E+00 -0.68369556186E+03  0.68369556188E+03  0.50400001928E-02 0.  1.
    10030    2    1    2    0    0  0.00000000000E+00  0.00000000000E+00 -0.55385827613E+03  0.81353284771E+03  0.59588312971E+03 0.  0.
        5    1    3    3  502    0  0.53745675176E+02 -0.26507368005E+02 -0.67533089198E+03  0.67800084205E+03  0.46999998093E+01 0.  1.
       -5    1    3    3    0  502 -0.53745675176E+02  0.26507368005E+02  0.12147261585E+03  0.13553200566E+03  0.46999998093E+01 0. -1.
</event>
<event>
 5   0  0.5653633E-03  0.5978362E+03  0.7818609E-02  0.9909905E-01
       -1   -1    0    0    0  501  0.00000000000E+00  0.00000000000E+00  0.16440328682E+03  0.16440328690E+03  0.50400001928E-02 0. -1.
        1   -1    0    0  501    0  0.00000000000E+00  0.00000000000E+00 -0.54349301188E+03  0.54349301190E+03  0.50400001928E-02 0.  1.
    10030    2    1    2    0    0  0.00000000000E+00  0.00000000000E+00 -0.37908972506E+03  0.70789629880E+03  0.59783622357E+03 0.  0.
        2    1    3    3  502    0 -0.26345874473E+03 -0.57900845447E+02 -0.34205467046E+03  0.43561957677E+03  0.25500000920E-02 0.  1.
       -2    1    3    3    0  502  0.26345874473E+03  0.57900845447E+02 -0.37035054597E+02  0.27227672202E+03  0.25500000920E-02 0. -1.
</event>
<event>
 5   0  0.3794375E-03  0.6009566E+03  0.7818609E-02  0.9903423E-01
        3   -1    0    0  501    0  0.00000000000E+00  0.00000000000E+00  0.10341975096E+04  0.10341975145E+04  0.10100000352E+00 0. -1.
       -3   -1    0    0    0  501  0.00000000000E+00  0.00000000000E+00 -0.87301661746E+02  0.87301720170E+02  0.10100000352E+00 0.  1.
    10030    2    1    2    0    0  0.00000000000E+00  0.00000000000E+00  0.94689584782E+03  0.11214992347E+04  0.60095655978E+03 0.  0.
        2    1    3    3  502    0  0.23018497401E+02 -0.10091424173E+03  0.99987785258E+03  0.10052209983E+04  0.25500000920E-02 0. -1.
       -2    1    3    3    0  502 -0.23018497401E+02  0.10091424173E+03 -0.52982004770E+02  0.11627823632E+03  0.25500000920E-02 0.  1.
</event>
<event>
 5   0  0.9681801E-03  0.5998502E+03  0.7818609E-02  0.9905717E-01
       -2   -1    0    0    0  501  0.00000000000E+00  0.00000000000E+00  0.29368783329E+03  0.29368783330E+03  0.25500000920E-02 0. -1.
        2   -1    0    0  501    0  0.00000000000E+00  0.00000000000E+00 -0.30629488092E+03  0.30629488093E+03  0.25500000920E-02 0.  1.
    10030    2    1    2    0    0  0.00000000000E+00  0.00000000000E+00 -0.12607047625E+02  0.59998271423E+03  0.59985024775E+03 0.  0.
        4    1    3    3  502    0 -0.92616554797E+02 -0.23155905020E+03  0.16033472904E+03  0.29648989559E+03  0.12699999809E+01 0. -1.
       -4    1    3    3    0  502  0.92616554797E+02  0.23155905020E+03 -0.17294177667E+03  0.30349281864E+03  0.12699999809E+01 0.  1.
</event>
<event>
 5   0  0.9428629E-03  0.5995337E+03  0.7818609E-02  0.9906374E-01
        2   -1    0    0  501    0  0.00000000000E+00  0.00000000000E+00  0.64537052169E+03  0.64537052169E+03  0.25500000920E-02 0.  1.
       -2   -1    0    0    0  501  0.00000000000E+00  0.00000000000E+00 -0.13923809569E+03  0.13923809572E+03  0.25500000920E-02 0. -1.
    10030    2    1    2    0    0  0.00000000000E+00  0.00000000000E+00  0.50613242599E+03  0.78460861741E+03  0.59953369369E+03 0.  0.
        3    1    3    3  502    0  0.13581879392E+03 -0.13629087456E+03  0.55389092254E+03  0.58635920010E+03  0.10100000352E+00 0.  1.
       -3    1    3    3    0  502 -0.13581879392E+03  0.13629087456E+03 -0.47758496550E+02  0.19824941731E+03  0.10100000352E+00 0. -1.
</event>
<event>
 5   0  0.5574736E-03  0.6041641E+03  0.7818609E-02  0.9896804E-01
       -1   -1    0    0    0  501  0.00000000000E+00  0.00000000000E+00  0.24616002767E+03  0.24616002772E+03  0.50400001928E-02 0. -1.
        1   -1    0    0  501    0  0.00000000000E+00  0.00000000000E+00 -0.37070823723E+03  0.37070823727E+03  0.50400001928E-02 0.  1.
    10030    2    1    2    0    0  0.00000000000E+00  0.00000000000E+00 -0.12454820957E+03  0.61686826499E+03  0.60416405044E+03 0.  0.
        5    1    3    3  502    0  0.19064951274E+03  0.42475956884E+01 -0.30143485945E+03  0.35672166078E+03  0.46999998093E+01 0.  1.
       -5    1    3    3    0  502 -0.19064951274E+03 -0.42475956884E+01  0.17688664989E+03  0.26014660421E+03  0.46999998093E+01 0. -1.
</event>
<event>
 5   0  0.9530666E-03  0.5995405E+03  0.7818609E-02  0.9906360E-01
       -2   -1    0    0    0  501  0.00000000000E+00  0.00000000000E+00  0.12986354893E+03  0.12986354896E+03  0.25500000920E-02 0.  1.
        2   -1    0    0  501    0  0.00000000000E+00  0.00000000000E+00 -0.69197391073E+03  0.69197391073E+03  0.25500000920E-02 0. -1.
    10030    2    1    2    0    0  0.00000000000E+00  0.00000000000E+00 -0.56211036180E+03  0.82183745969E+03  0.59954045010E+03 0.  0.
        2    1    3    3  502    0 -0.68170373777E+02 -0.29043991672E+03 -0.24086440032E+03  0.38342952995E+03  0.25500000920E-02 0.  1.
       -2    1    3    3    0  502  0.68170373777E+02  0.29043991672E+03 -0.32124596147E+03  0.43840792974E+03  0.25500000920E-02 0. -1.
</event>
<event>
 5   0  0.3794375E-03  0.6005150E+03  0.7818609E-02  0.9904338E-01
       -3   -1    0    0    0  501  0.00000000000E+00  0.00000000000E+00  0.98983480739E+03  0.98983481254E+03  0.10100000352E+00 0. -1.
        3   -1    0    0  501    0  0.00000000000E+00  0.00000000000E+00 -0.91080373991E+02  0.91080429991E+02  0.10100000352E+00 0.  1.
    10030    2    1    2    0    0  0.00000000000E+00  0.00000000000E+00  0.89875443340E+03  0.10809152425E+04  0.60051497066E+03 0.  0.
        1    1    3    3  502    0 -0.11632882728E+03 -0.24160972442E+03  0.20623387689E+03  0.33828991560E+03  0.50400001928E-02 0.  1.
       -1    1    3    3    0  502  0.11632882728E+03  0.24160972442E+03  0.69252055651E+03  0.74262532694E+03  0.50400001928E-02 0. -1.
</event>
<event>
 5   0  0.9681801E-03  0.5982117E+03  0.7818609E-02  0.9909123E-01
        2   -1    0    0  501    0  0.00000000000E+00  0.00000000000E+00  0.19948910600E+03  0.19948910602E+03  0.25500000920E-02 0. -1.
       -2   -1    0    0    0  501  0.00000000000E+00  0.00000000000E+00 -0.44846718667E+03  0.44846718668E+03  0.25500000920E-02 0.  1.
    10030    2    1    2    0    0  0.00000000000E+00  0.00000000000E+00 -0.24897808067E+03  0.64795629270E+03  0.59821172890E+03 0.  0.
        4    1    3    3  502    0  0.45659687878E+02 -0.22787936575E+03  0.79446128015E+02  0.24561578245E+03  0.12699999809E+01 0. -1.
       -4    1    3    3    0  502 -0.45659687878E+02  0.22787936575E+03 -0.32842420868E+03  0.40234051024E+03  0.12699999809E+01 0.  1.
</event>
<event>
 5   0  0.5785798E-03  0.5999577E+03  0.7818609E-02  0.9905494E-01
        1   -1    0    0  501    0  0.00000000000E+00  0.00000000000E+00  0.28667160864E+03  0.28667160868E+03  0.50400001928E-02 0.  1.
       -1   -1    0    0    0  501  0.00000000000E+00  0.00000000000E+00 -0.31390381434E+03  0.31390381439E+03  0.50400001928E-02 0. -1.
    10030    2    1    2    0    0  0.00000000000E+00  0.00000000000E+00 -0.27232205707E+02  0.60057542307E+03  0.59995770331E+03 0.  0.
        1    1    3    3  502    0 -0.16538233348E+03 -0.13989821531E+03  0.19411740203E+03  0.29086834251E+03  0.50400001928E-02 0.  1.
       -1    1    3    3    0  502  0.16538233348E+03  0.13989821531E+03 -0.22134960774E+03  0.30970708056E+03  0.50400001928E-02 0. -1.
</event>
<event>
 5   0  0.9530666E-03  0.6012077E+03  0.7818609E-02  0.9902904E-01
       -2   -1    0    0    0  501  0.00000000000E+00  0.00000000000E+00  0.93578554106E+02  0.93578554141E+02  0.25500000920E-02 0.  1.
        2   -1    0    0  501    0  0.00000000000E+00  0.00000000000E+00 -0.96563459406E+03  0.96563459406E+03  0.25500000920E-02 0. -1.
    10030    2    1    2    0    0  0.00000000000E+00  0.00000000000E+00 -0.87205603995E+03  0.10592131482E+04  0.60120774821E+03 0.  0.
        2    1    3    3  502    0 -0.21287299773E+03 -0.97013471437E+02 -0.10344179453E+03  0.25578649625E+03  0.25500000920E-02 0.  1.
       -2    1    3    3    0  502  0.21287299773E+03  0.97013471437E+02 -0.76861424541E+03  0.80342665195E+03  0.25500000920E-02 0. -1.
</event>
<event>
 5   0  0.5574736E-03  0.5998119E+03  0.7818609E-02  0.9905796E-01
       -1   -1    0    0    0  501  0.00000000000E+00  0.00000000000E+00  0.64398561566E+02  0.64398561764E+02  0.50400001928E-02 0. -1.
        1   -1    0    0  501    0  0.00000000000E+00  0.00000000000E+00 -0.13966706720E+04  0.13966706720E+04  0.50400001928E-02 0.  1.
    10030    2    1    2    0    0  0.00000000000E+00  0.00000000000E+00 -0.13322721104E+04  0.14610692337E+04  0.59981191187E+03 0.  0.
        5    1    3    3  502    0 -0.26845461960E+03  0.10636998519E+03 -0.86311171755E+03  0.91014635279E+03  0.46999998093E+01 0. -1.
       -5    1    3    3    0  502  0.26845461960E+03 -0.10636998519E+03 -0.46916039284E+03  0.55092288094E+03  0.46999998093E+01 0.  1.
</event>
<event>
 5   0  0.3794375E-03  0.5978689E+03  0.7818609E-02  0.9909837E-01
        3   -1    0    0  501    0  0.00000000000E+00  0.00000000000E+00  0.40025765786E+03  0.40025767061E+03  0.10100000352E+00 0.  1.
       -3   -1    0    0    0  501  0.00000000000E+00  0.00000000000E+00 -0.22326067312E+03  0.22326069596E+03  0.10100000352E+00 0. -1.
    10030    2    1    2    0    0  0.00000000000E+00  0.00000000000E+00  0.17699698475E+03  0.62351836657E+03  0.59786889937E+03 0.  0.
        2    1    3    3  502    0  0.12202564321E+02  0.29478813190E+03  0.38343062929E+02  0.29752165596E+03  0.25500000920E-02 0. -1.
       -2    1    3    3    0  502 -0.12202564321E+02 -0.29478813190E+03  0.13865392182E+03  0.32599671061E+03  0.25500000920E-02 0.  1.
</event>
<event>
 5   0  0.5785798E-03  0.5996422E+03  0.7818609E-02  0.9906149E-01
       -1   -1    0    0    0  501  0.00000000000E+00  0.00000000000E+00  0.30823229295E+03  0.30823229299E+03  0.50400001928E-02 0.  1.
        1   -1    0    0  501    0  0.00000000000E+00  0.00000000000E+00 -0.29163939325E+03  0.29163939329E+03  0.50400001928E-02 0. -1.
    10030    2    1    2    0    0  0.00000000000E+00  0.00000000000E+00  0.16592899705E+02  0.59987168629E+03  0.59964215636E+03 0.  0.
        1    1    3    3  502    0  0.11587135704E+03  0.27640085404E+03  0.16610792581E+02  0.30016582408E+03  0.50400001928E-02 0.  1.
       -1    1    3    3    0  502 -0.11587135704E+03 -0.27640085404E+03 -0.17892876140E-01  0.29970586220E+03  0.50400001928E-02 0. -1.
</event>
<event>
 5   0  0.9571790E-03  0.6009949E+03  0.7818609E-02  0.9903344E-01
        2   -1    0    0  501    0  0.00000000000E+00  0.00000000000E+00  0.10749932879E+04  0.10749932879E+04  0.25500000920E-02 0. -1.
       -2   -1    0    0    0  501  0.00000000000E+00  0.00000000000E+00 -0.83999333879E+02  0.83999333918E+02  0.25500000920E-02 0.  1.
    10030    2    1    2    0    0  0.00000000000E+00  0.00000000000E+00  0.99099395403E+03  0.11589926218E+04  0.60099490891E+03 0.  0.
        5    1    3    3  502    0  0.21097896868E+03  0.41500326927E+02  0.90020751934E+03  0.92554312176E+03  0.46999998093E+01 0. -1.
       -5    1    3    3    0  502 -0.21097896868E+03 -0.41500326927E+02  0.90786434685E+02  0.23344950007E+03  0.46999998093E+01 0.  1.
</event>
<event>
 5   0  0.5574736E-03  0.5999727E+03  0.7818609E-02  0.9905463E-01
        1   -1    0    0  501    0  0.00000000000E+00  0.00000000000E+00  0.14639268240E+04  0.14639268240E+04  0.50400001928E-02 0. -1.
       -1   -1    0    0    0  501  0.00000000000E+00  0.00000000000E+00 -0.61472894741E+02  0.61472894947E+02  0.50400001928E-02 0.  1.
    10030    2    1    2    0    0  0.00000000000E+00  0.00000000000E+00  0.14024539293E+04  0.15253997189E+04  0.59997273179E+03 0.  0.
        5    1    3    3  502    0 -0.56377350347E+02 -0.13039481001E+03  0.13728786924E+04  0.13802170866E+04  0.46999998093E+01 0. -1.
       -5    1    3    3    0  502  0.56377350347E+02  0.13039481001E+03  0.29575236894E+02  0.14518263239E+03  0.46999998093E+01 0.  1.
</event>
<event>
 5   0  0.9428629E-03  0.6007927E+03  0.7818609E-02  0.9903763E-01
       -2   -1    0    0    0  501  0.00000000000E+00  0.00000000000E+00  0.51582765466E+02  0.51582765529E+02  0.25500000920E-02 0. -1.
        2   -1    0    0  501    0  0.00000000000E+00  0.00000000000E+00 -0.17493818617E+04  0.17493818617E+04  0.25500000920E-02 0.  1.
    10030    2    1    2    0    0  0.00000000000E+00  0.00000000000E+00 -0.16977990963E+04  0.18009646273E+04  0.60079265756E+03 0.  0.
        3    1    3    3  502    0  0.16384762535E+03  0.72102176056E+01 -0.94468946277E+02  0.18926812617E+03  0.10100000352E+00 0. -1.
       -3    1    3    3    0  502 -0.16384762535E+03 -0.72102176056E+01 -0.16033301500E+04  0.16116965011E+04  0.10100000352E+00 0.  1.
</event>
<event>
 5   0  0.5785798E-03  0.5988305E+03  0.7818609E-02  0.9907835E-01
        1   -1    0    0  501    0  0.00000000000E+00  0.00000000000E+00  0.16605824927E+03  0.16605824935E+03  0.50400001928E-02 0.  1.
       -1   -1    0    0    0  501  0.00000000000E+00  0.00000000000E+00 -0.53986779700E+03  0.53986779702E+03  0.50400001928E-02 0. -1.
    10030    2    1    2    0    0  0.00000000000E+00  0.00000000000E+00 -0.37380954772E+03  0.70592604637E+03  0.59883053110E+03 0.  0.
        1    1    3    3  502    0  0.14952540208E+03  0.21986753675E+03 -0.24627022605E+02  0.26703196410E+03  0.50400001928E-02 0.  1.
       -1    1    3    3    0  502 -0.14952540208E+03 -0.21986753675E+03 -0.34918252512E+03  0.43889408227E+03  0.50400001928E-02 0. -1.
</event>
<event>
 5   0  0.5491236E-03  0.5980723E+03  0.7818609E-02  0.9909413E-01
        1   -1    0    0  501    0  0.00000000000E+00  0.00000000000E+00  0.47150636995E+03  0.47150636998E+03  0.50400001928E-02 0. -1.
       -1   -1    0    0    0  501  0.00000000000E+00  0.00000000000E+00 -0.18965305018E+03  0.18965305025E+03  0.50400001928E-02 0.  1.
    10030    2    1    2    0    0  0.00000000000E+00  0.00000000000E+00  0.28185331977E+03  0.66115942023E+03  0.59807230758E+03 0.  0.
        3    1    3    3  502    0  0.13734996237E+03  0.59607580632E+02 -0.14523048626E+03  0.20859046040E+03  0.10100000352E+00 0.  1.
       -3    1    3    3    0  502 -0.13734996237E+03 -0.59607580632E+02  0.42708380602E+03  0.45256895983E+03  0.10100000352E+00 0. -1.
</event>
<event>
 5   0  0.9428629E-03  0.6004390E+03  0.7818609E-02  0.9904496E-01
       -2   -1    0    0    0  501  0.00000000000E+00  0.00000000000E+00  0.40067546118E+03  0.40067546119E+03  0.25500000920E-02 0. -1.
        2   -1    0    0  501    0  0.00000000000E+00  0.00000000000E+00 -0.22494949204E+03  0.22494949206E+03  0.25500000920E-02 0.  1.
    10030    2    1    2    0    0  0.00000000000E+00  0.00000000000E+00  0.17572596914E+03  0.62562495324E+03  0.60043897766E+03 0.  0.
        3    1    3    3  502    0 -0.73636616604E+02 -0.25209571427E+03  0.23941913696E+03  0.35538167342E+03  0.10100000352E+00 0. -1.
       -3    1    3    3    0  502  0.73636616604E+02  0.25209571427E+03 -0.63693167820E+02  0.27024327982E+03  0.10100000352E+00 0.  1.
</event>
<event>
 5   0  0.9571790E-03  0.6005523E+03  0.7818609E-02  0.9904261E-01
        2   -1    0    0  501    0  0.00000000000E+00  0.00000000000E+00  0.45714673171E+03  0.45714673172E+03  0.25500000920E-02 0. -1.
       -2   -1    0    0    0  501  0.00000000000E+00  0.00000000000E+00 -0.19723597218E+03  0.19723597220E+03  0.25500000920E-02 0.  1.
    10030    2    1    2    0    0  0.00000000000E+00  0.00000000000E+00  0.25991075953E+03  0.65438270392E+03  0.60055234599E+03 0.  0.
        5    1    3    3  502    0 -0.28224159994E+03  0.81418832825E+02  0.19760356084E+03  0.35406017050E+03  0.46999998093E+01 0. -1.
       -5    1    3    3    0  502  0.28224159994E+03 -0.81418832825E+02  0.62307198683E+02  0.30032253342E+03  0.46999998093E+01 0.  1.
</event>
<event>
 5   0  0.9571790E-03  0.6000289E+03  0.7818609E-02  0.9905346E-01
        2   -1    0    0  501    0  0.00000000000E+00  0.00000000000E+00  0.11593998123E+04  0.11593998123E+04  0.25500000920E-02 0.  1.
       -2   -1    0    0    0  501  0.00000000000E+00  0.00000000000E+00 -0.77633850673E+02  0.77633850715E+02  0.25500000920E-02 0. -1.
    10030    2    1    2    0    0  0.00000000000E+00  0.00000000000E+00  0.10817659616E+04  0.12370336630E+04  0.60002890572E+03 0.  0.
        5    1    3    3  502    0 -0.85332659061E+02 -0.21913424739E+03  0.92483842181E+03  0.95427966422E+03  0.46999998093E+01 0.  1.
       -5    1    3    3    0  502  0.85332659061E+02  0.21913424739E+03  0.15692753979E+03  0.28275399878E+03  0.46999998093E+01 0. -1.
</event>
<event>
 5   0  0.5503975E-03  0.6006824E+03  0.7818609E-02  0.9903991E-01
        1   -1    0    0  501    0  0.00000000000E+00  0.00000000000E+00  0.29569181760E+03  0.29569181765E+03  0.50400001928E-02 0. -1.
       -1   -1    0    0    0  501  0.00000000000E+00  0.00000000000E+00 -0.30506363811E+03  0.30506363815E+03  0.50400001928E-02 0.  1.
    10030    2    1    2    0    0  0.00000000000E+00  0.00000000000E+00 -0.93718205054E+01  0.60075545579E+03  0.60068235087E+03 0.  0.
        4    1    3    3  502    0  0.23616251011E+03 -0.76572430800E+02 -0.17372464624E+03  0.30301474214E+03  0.12699999809E+01 0.  1.
       -4    1    3    3    0  502 -0.23616251011E+03  0.76572430800E+02  0.16435282574E+03  0.29774071366E+03  0.12699999809E+01 0. -1.
</event>
<event>
 5   0  0.5574736E-03  0.5942574E+03  0.7818609E-02  0.9917392E-01
        1   -1    0    0  501    0  0.00000000000E+00  0.00000000000E+00  0.43004598416E+03  0.43004598419E+03  0.50400001928E-02 0.  1.
       -1   -1    0    0    0  501  0.00000000000E+00  0.00000000000E+00 -0.20529308500E+03  0.20529308507E+03  0.50400001928E-02 0. -1.
    10030    2    1    2    0    0  0.00000000000E+00  0.00000000000E+00  0.22475289916E+03  0.63533906926E+03  0.59425740824E+03 0.  0.
        5    1    3    3  502    0 -0.30560590691E+01  0.96734703103E+02 -0.18792653364E+03  0.21143654917E+03  0.46999998093E+01 0. -1.
       -5    1    3    3    0  502  0.30560590691E+01 -0.96734703103E+02  0.41267943280E+03  0.42390252008E+03  0.46999998093E+01 0.  1.
</event>
<event>
 5   0  0.5653633E-03  0.6003741E+03  0.7818609E-02  0.9904630E-01
       -1   -1    0    0    0  501  0.00000000000E+00  0.00000000000E+00  0.14914389630E+03  0.14914389639E+03  0.50400001928E-02 0. -1.
        1   -1    0    0  501    0  0.00000000000E+00  0.00000000000E+00 -0.60419681049E+03  0.60419681051E+03  0.50400001928E-02 0.  1.
    10030    2    1    2    0    0  0.00000000000E+00  0.00000000000E+00 -0.45505291419E+03  0.75334070690E+03  0.60037410500E+03 0.  0.
        2    1    3    3  502    0  0.15098352177E+03  0.18674941526E+03 -0.45353035023E+03  0.51318724315E+03  0.25500000920E-02 0.  1.
       -2    1    3    3    0  502 -0.15098352177E+03 -0.18674941526E+03 -0.15225639656E+01  0.24015346375E+03  0.25500000920E-02 0. -1.
</event>
<event>
 5   0  0.5785798E-03  0.5980242E+03  0.7818609E-02  0.9909514E-01
        1   -1    0    0  501    0  0.00000000000E+00  0.00000000000E+00  0.11683517401E+04  0.11683517401E+04  0.50400001928E-02 0. -1.
       -1   -1    0    0    0  501  0.00000000000E+00  0.00000000000E+00 -0.76525095066E+02  0.76525095232E+02  0.50400001928E-02 0.  1.
    10030    2    1    2    0    0  0.00000000000E+00  0.00000000000E+00  0.10918266450E+04  0.12448768353E+04  0.59802417373E+03 0.  0.
        1    1    3    3  502    0 -0.18284419036E+03  0.11139388424E+03  0.98041316883E+03  0.10035190965E+04  0.50400001928E-02 0. -1.
       -1    1    3    3    0  502  0.18284419036E+03 -0.11139388424E+03  0.11141347620E+03  0.24135773884E+03  0.50400001928E-02 0.  1.
</event>
<event>
 5   0  0.3794375E-03  0.6008907E+03  0.7818609E-02  0.9903560E-01
       -3   -1    0    0    0  501  0.00000000000E+00  0.00000000000E+00  0.10026101341E+03  0.10026106428E+03  0.10100000352E+00 0. -1.
        3   -1    0    0  501    0  0.00000000000E+00  0.00000000000E+00 -0.90032378817E+03  0.90032379383E+03  0.10100000352E+00 0.  1.
    10030    2    1    2    0    0  0.00000000000E+00  0.00000000000E+00 -0.80006277476E+03  0.10005848581E+04  0.60089068451E+03 0.  0.
        4    1    3    3  502    0  0.11727608865E+03  0.12099371402E+03 -0.81422914843E+03  0.83148293960E+03  0.12699999809E+01 0.  1.
       -4    1    3    3    0  502 -0.11727608865E+03 -0.12099371402E+03  0.14166373669E+02  0.16910191851E+03  0.12699999809E+01 0. -1.
</event>
<event>
 5   0  0.5503975E-03  0.6002451E+03  0.7818609E-02  0.9904898E-01
       -1   -1    0    0    0  501  0.00000000000E+00  0.00000000000E+00  0.25151181918E+03  0.25151181923E+03  0.50400001928E-02 0.  1.
        1   -1    0    0  501    0  0.00000000000E+00  0.00000000000E+00 -0.35812845773E+03  0.35812845777E+03  0.50400001928E-02 0. -1.
    10030    2    1    2    0    0  0.00000000000E+00  0.00000000000E+00 -0.10661663855E+03  0.60964027700E+03  0.60024508305E+03 0.  0.
        4    1    3    3  502    0 -0.22019521453E+02 -0.28690043101E+03 -0.13993822048E+03  0.31997036596E+03  0.12699999809E+01 0.  1.
       -4    1    3    3    0  502  0.22019521453E+02  0.28690043101E+03  0.33321581933E+02  0.28966991104E+03  0.12699999809E+01 0. -1.
</event>
<event>
 5   0  0.9571790E-03  0.5993831E+03  0.7818609E-02  0.9906687E-01
        2   -1    0    0  501    0  0.00000000000E+00  0.00000000000E+00  0.73950365389E+03  0.73950365390E+03  0.25500000920E-02 0. -1.
       -2   -1    0    0    0  501  0.00000000000E+00  0.00000000000E+00 -0.12145311912E+03  0.12145311915E+03  0.25500000920E-02 0.  1.
    10030    2    1    2    0    0  0.00000000000E+00  0.00000000000E+00  0.61805053477E+03  0.86095677304E+03  0.59938310079E+03 0.  0.
        5    1    3    3  502    0 -0.78262070660E+02 -0.99840345357E+02  0.69897647535E+03  0.71041062025E+03  0.46999998093E+01 0. -1.
       -5    1    3    3    0  502  0.78262070660E+02  0.99840345357E+02 -0.80925940578E+02  0.15054615280E+03  0.46999998093E+01 0.  1.
</event>
<event>
 5   0  0.3794375E-03  0.5996672E+03  0.7818609E-02  0.9906097E-01
       -3   -1    0    0    0  501  0.00000000000E+00  0.00000000000E+00  0.49883957923E+03  0.49883958946E+03  0.10100000352E+00 0. -1.
        3   -1    0    0  501    0  0.00000000000E+00  0.00000000000E+00 -0.18021861838E+03  0.18021864668E+03  0.10100000352E+00 0.  1.
    10030    2    1    2    0    0  0.00000000000E+00  0.00000000000E+00  0.31862096086E+03  0.67905823614E+03  0.59966721719E+03 0.  0.
        5    1    3    3  502    0 -0.14487665547E+03  0.61742983638E+02 -0.12956411237E+03  0.20398625087E+03  0.46999998093E+01 0.  1.
       -5    1    3    3    0  502  0.14487665547E+03 -0.61742983638E+02  0.44818507323E+03  0.47507198527E+03  0.46999998093E+01 0. -1.
</event>
<event>
 5   0  0.9571790E-03  0.5900161E+03  0.7818609E-02  0.9926339E-01
        2   -1    0    0  501    0  0.00000000000E+00  0.00000000000E+00  0.10973884007E+04  0.10973884007E+04  0.25500000920E-02 0. -1.
       -2   -1    0    0    0  501  0.00000000000E+00  0.00000000000E+00 -0.79306238015E+02  0.79306238056E+02  0.25500000920E-02 0.  1.
    10030    2    1    2    0    0  0.00000000000E+00  0.00000000000E+00  0.10180821627E+04  0.11766946388E+04  0.59001608700E+03 0.  0.
        5    1    3    3  502    0 -0.23255694916E+03  0.16779479256E+03  0.37130386119E+03  0.46917637872E+03  0.46999998093E+01 0.  1.
       -5    1    3    3    0  502  0.23255694916E+03 -0.16779479256E+03  0.64677830153E+03  0.70751826008E+03  0.46999998093E+01 0. -1.
</event>
<event>
 5   0  0.9571790E-03  0.6000731E+03  0.7818609E-02  0.9905255E-01
       -2   -1    0    0    0  501  0.00000000000E+00  0.00000000000E+00  0.21185353094E+03  0.21185353095E+03  0.25500000920E-02 0.  1.
        2   -1    0    0  501    0  0.00000000000E+00  0.00000000000E+00 -0.42492526075E+03  0.42492526076E+03  0.25500000920E-02 0. -1.
    10030    2    1    2    0    0  0.00000000000E+00  0.00000000000E+00 -0.21307172981E+03  0.63677879171E+03  0.60007305183E+03 0.  0.
        5    1    3    3  502    0 -0.99816576736E+02 -0.21932221415E+03  0.83096642794E+02  0.25493670715E+03  0.46999998093E+01 0.  1.
       -5    1    3    3    0  502  0.99816576736E+02  0.21932221415E+03 -0.29616837261E+03  0.38184208456E+03  0.46999998093E+01 0. -1.
</event>
<event>
 5   0  0.5785798E-03  0.5994630E+03  0.7818609E-02  0.9906521E-01
       -1   -1    0    0    0  501  0.00000000000E+00  0.00000000000E+00  0.43631810863E+02  0.43631811154E+02  0.50400001928E-02 0. -1.
        1   -1    0    0  501    0  0.00000000000E+00  0.00000000000E+00 -0.20590247877E+04  0.20590247878E+04  0.50400001928E-02 0.  1.
    10030    2    1    2    0    0  0.00000000000E+00  0.00000000000E+00 -0.20153929769E+04  0.21026565989E+04  0.59946302776E+03 0.  0.
        1    1    3    3  502    0  0.16081145162E+03 -0.32122593080E+02 -0.12767603984E+03  0.20783011123E+03  0.50400001928E-02 0. -1.
       -1    1    3    3    0  502 -0.16081145162E+03  0.32122593080E+02 -0.18877169370E+04  0.18948264877E+04  0.50400001928E-02 0.  1.
</event>
<event>
 5   0  0.9866317E-03  0.5957613E+03  0.7818609E-02  0.9914239E-01
        2   -1    0    0  501    0  0.00000000000E+00  0.00000000000E+00  0.35814179841E+03  0.35814179842E+03  0.25500000920E-02 0.  1.
       -2   -1    0    0    0  501  0.00000000000E+00  0.00000000000E+00 -0.24775911687E+03  0.24775911688E+03  0.25500000920E-02 0. -1.
    10030    2    1    2    0    0  0.00000000000E+00  0.00000000000E+00  0.11038268154E+03  0.60590091530E+03  0.59576134717E+03 0.  0.
        1    1    3    3  502    0 -0.26265168820E+02  0.17337761560E+03 -0.18970399941E+03  0.25833556492E+03  0.50400001928E-02 0. -1.
       -1    1    3    3    0  502  0.26265168820E+02 -0.17337761560E+03  0.30008668094E+03  0.34756535039E+03  0.50400001928E-02 0.  1.
</event>
<event>
 5   0  0.9866317E-03  0.5986267E+03  0.7818609E-02  0.9908259E-01
       -2   -1    0    0    0  501  0.00000000000E+00  0.00000000000E+00  0.26562895469E+03  0.26562895470E+03  0.25500000920E-02 0.  1.
        2   -1    0    0  501    0  0.00000000000E+00  0.00000000000E+00 -0.33726929591E+03  0.33726929592E+03  0.25500000920E-02 0. -1.
    10030    2    1    2    0    0  0.00000000000E+00  0.00000000000E+00 -0.71640341218E+02  0.60289825062E+03  0.59862673020E+03 0.  0.
        1    1    3    3  502    0 -0.32786463749E+02  0.22878725482E+02  0.26292770763E+03  0.26594993467E+03  0.50400001928E-02 0.  1.
       -1    1    3    3    0  502  0.32786463749E+02 -0.22878725482E+02 -0.33456804885E+03  0.33694831595E+03  0.50400001928E-02 0. -1.
</event>
<event>
 5   0  0.5785798E-03  0.5995100E+03  0.7818609E-02  0.9906423E-01
       -1   -1    0    0    0  501  0.00000000000E+00  0.00000000000E+00  0.21957582535E+03  0.21957582541E+03  0.50400001928E-02 0. -1.
        1   -1    0    0  501    0  0.00000000000E+00  0.00000000000E+00 -0.40921205492E+03  0.40921205495E+03  0.50400001928E-02 0.  1.
    10030    2    1    2    0    0  0.00000000000E+00  0.00000000000E+00 -0.18963622957E+03  0.62878788036E+03  0.59951004906E+03 0.  0.
        1    1    3    3  502    0  0.25756748677E+02 -0.13037463844E+03 -0.37662564099E+03  0.39938431357E+03  0.50400001928E-02 0.  1.
       -1    1    3    3    0  502 -0.25756748677E+02  0.13037463844E+03  0.18698941141E+03  0.22940356679E+03  0.50400001928E-02 0. -1.
</event>
<event>
 5   0  0.9681801E-03  0.5996833E+03  0.7818609E-02  0.9906063E-01
       -2   -1    0    0    0  501  0.00000000000E+00  0.00000000000E+00  0.51606232498E+03  0.51606232499E+03  0.25500000920E-02 0.  1.
        2   -1    0    0  501    0  0.00000000000E+00  0.00000000000E+00 -0.17421346729E+03  0.17421346731E+03  0.25500000920E-02 0. -1.
    10030    2    1    2    0    0  0.00000000000E+00  0.00000000000E+00  0.34184885769E+03  0.69027579230E+03  0.59968327301E+03 0.  0.
        4    1    3    3  502    0 -0.18048069074E+03  0.16073271870E+03  0.37520273841E+03  0.44630370199E+03  0.12699999809E+01 0. -1.
       -4    1    3    3    0  502  0.18048069074E+03 -0.16073271870E+03 -0.33353880723E+02  0.24397209032E+03  0.12699999809E+01 0.  1.
</event>
<event>
 5   0  0.5653633E-03  0.6001962E+03  0.7818609E-02  0.9904999E-01
       -1   -1    0    0    0  501  0.00000000000E+00  0.00000000000E+00  0.44765627079E+03  0.44765627082E+03  0.50400001928E-02 0.  1.
        1   -1    0    0  501    0  0.00000000000E+00  0.00000000000E+00 -0.20117860932E+03  0.20117860938E+03  0.50400001928E-02 0. -1.
    10030    2    1    2    0    0  0.00000000000E+00  0.00000000000E+00  0.24647766147E+03  0.64883488020E+03  0.60019618806E+03 0.  0.
        2    1    3    3  502    0 -0.23029947900E+03  0.16480015579E+03  0.23059371202E+03  0.36519912569E+03  0.25500000920E-02 0.  1.
       -2    1    3    3    0  502  0.23029947900E+03 -0.16480015579E+03  0.15883949456E+02  0.28363575451E+03  0.25500000920E-02 0. -1.
</event>
<event>
 5   0  0.9530666E-03  0.5997325E+03  0.7818609E-02  0.9905961E-01
       -2   -1    0    0    0  501  0.00000000000E+00  0.00000000000E+00  0.56434403871E+03  0.56434403871E+03  0.25500000920E-02 0. -1.
        2   -1    0    0  501    0  0.00000000000E+00  0.00000000000E+00 -0.15933499871E+03  0.15933499873E+03  0.25500000920E-02 0.  1.
    10030    2    1    2    0    0  0.00000000000E+00  0.00000000000E+00  0.40500904000E+03  0.72367903744E+03  0.59973246265E+03 0.  0.
        2    1    3    3  502    0  0.90693058486E-01 -0.10874462922E+03  0.53971281874E+03  0.55055910611E+03  0.25500000920E-02 0. -1.
       -2    1    3    3    0  502 -0.90693058486E-01  0.10874462922E+03 -0.13470377874E+03  0.17311993133E+03  0.25500000920E-02 0.  1.
</event>
<event>
 5   0  0.5785798E-03  0.5998919E+03  0.7818609E-02  0.9905630E-01
        1   -1    0    0  501    0  0.00000000000E+00  0.00000000000E+00  0.53206807451E+03  0.53206807454E+03  0.50400001928E-02 0. -1.
       -1   -1    0    0    0  501  0.00000000000E+00  0.00000000000E+00 -0.16909033069E+03  0.16909033076E+03  0.50400001928E-02 0.  1.
    10030    2    1    2    0    0  0.00000000000E+00  0.00000000000E+00  0.36297774382E+03  0.70115840530E+03  0.59989187927E+03 0.  0.
        1    1    3    3  502    0  0.53670004168E+01 -0.29976682969E+03  0.19185177673E+03  0.35594390167E+03  0.50400001928E-02 0.  1.
       -1    1    3    3    0  502 -0.53670004168E+01  0.29976682969E+03  0.17112596709E+03  0.34521450363E+03  0.50400001928E-02 0. -1.
</event>
<event>
 5   0  0.9530666E-03  0.6123596E+03  0.7818609E-02  0.9880090E-01
       -2   -1    0    0    0  501  0.00000000000E+00  0.00000000000E+00  0.32575507076E+03  0.32575507077E+03  0.25500000920E-02 0. -1.
        2   -1    0    0  501    0  0.00000000000E+00  0.00000000000E+00 -0.28778087308E+03  0.28778087309E+03  0.25500000920E-02 0.  1.
    10030    2    1    2    0    0  0.00000000000E+00  0.00000000000E+00  0.37974197681E+02  0.61353594386E+03  0.61235962858E+03 0.  0.
        2    1    3    3  502    0  0.16397333655E+03 -0.74447281453E+02  0.26708430622E+03  0.32212370209E+03  0.25500000920E-02 0. -1.
       -2    1    3    3    0  502 -0.16397333655E+03  0.74447281453E+02 -0.22911010853E+03  0.29141224177E+03  0.25500000920E-02 0.  1.
</event>
<event>
 5   0  0.9571790E-03  0.6000046E+03  0.7818609E-02  0.9905396E-01
        2   -1    0    0  501    0  0.00000000000E+00  0.00000000000E+00  0.16097035945E+03  0.16097035947E+03  0.25500000920E-02 0.  1.
       -2   -1    0    0    0  501  0.00000000000E+00  0.00000000000E+00 -0.55911778299E+03  0.55911778300E+03  0.25500000920E-02 0. -1.
    10030    2    1    2    0    0  0.00000000000E+00  0.00000000000E+00 -0.39814742354E+03  0.72008814247E+03  0.60000463503E+03 0.  0.
        5    1    3    3  502    0  0.17468427004E+03 -0.48264466789E+01 -0.49167458096E+03  0.52182743542E+03  0.46999998093E+01 0. -1.
       -5    1    3    3    0  502 -0.17468427004E+03  0.48264466789E+01  0.93527157425E+02  0.19826070706E+03  0.46999998093E+01 0.  1.
</event>
<event>
 5   0  0.9571790E-03  0.5995700E+03  0.7818609E-02  0.9906298E-01
       -2   -1    0    0    0  501  0.00000000000E+00  0.00000000000E+00  0.36680089193E+03  0.36680089194E+03  0.25500000920E-02 0.  1.
        2   -1    0    0  501    0  0.00000000000E+00  0.00000000000E+00 -0.24501319474E+03  0.24501319475E+03  0.25500000920E-02 0. -1.
    10030    2    1    2    0    0  0.00000000000E+00  0.00000000000E+00  0.12178769719E+03  0.61181408669E+03  0.59957004052E+03 0.  0.
        5    1    3    3  502    0  0.13248147619E+03  0.60286711838E+02 -0.20649382085E+03  0.25268086038E+03  0.46999998093E+01 0. -1.
       -5    1    3    3    0  502 -0.13248147619E+03 -0.60286711838E+02  0.32828151804E+03  0.35913322631E+03  0.46999998093E+01 0.  1.
</event>
<event>
 5   0  0.3794375E-03  0.6002608E+03  0.7818609E-02  0.9904865E-01
        4   -1    0    0  501    0  0.00000000000E+00  0.00000000000E+00  0.56344707025E+03  0.56344850153E+03  0.12699999809E+01 0.  1.
       -4   -1    0    0    0  501  0.00000000000E+00  0.00000000000E+00 -0.15986580995E+03  0.15987085442E+03  0.12699999809E+01 0. -1.
    10030    2    1    2    0    0  0.00000000000E+00  0.00000000000E+00  0.40358126030E+03  0.72331935595E+03  0.60026082416E+03 0.  0.
        4    1    3    3  502    0  0.29075414389E+03  0.68800298255E+02  0.23598396547E+03  0.38073809645E+03  0.12699999809E+01 0.  1.
       -4    1    3    3    0  502 -0.29075414389E+03 -0.68800298255E+02  0.16759729483E+03  0.34258125950E+03  0.12699999809E+01 0. -1.
</event>
<event>
 5   0  0.5785798E-03  0.6010099E+03  0.7818609E-02  0.9903313E-01
       -1   -1    0    0    0  501  0.00000000000E+00  0.00000000000E+00  0.88417009580E+03  0.88417009581E+03  0.50400001928E-02 0. -1.
        1   -1    0    0  501    0  0.00000000000E+00  0.00000000000E+00 -0.10213332897E+03  0.10213332910E+03  0.50400001928E-02 0.  1.
    10030    2    1    2    0    0  0.00000000000E+00  0.00000000000E+00  0.78203676683E+03  0.98630342491E+03  0.60100993447E+03 0.  0.
        1    1    3    3  502    0  0.18570787269E+03  0.19475303878E+03  0.61050020553E+03  0.66717813294E+03  0.50400001928E-02 0. -1.
       -1    1    3    3    0  502 -0.18570787269E+03 -0.19475303878E+03  0.17153656129E+03  0.31912529198E+03  0.50400001928E-02 0.  1.
</event>
<event>
 5   0  0.3794375E-03  0.5998475E+03  0.7818609E-02  0.9905722E-01
        3   -1    0    0  501    0  0.00000000000E+00  0.00000000000E+00  0.32069560062E+03  0.32069561652E+03  0.10100000352E+00 0.  1.
       -3   -1    0    0    0  501  0.00000000000E+00  0.00000000000E+00 -0.28049729350E+03  0.28049731168E+03  0.10100000352E+00 0. -1.
    10030    2    1    2    0    0  0.00000000000E+00  0.00000000000E+00  0.40198307123E+02  0.60119292821E+03  0.59984750815E+03 0.  0.
        3    1    3    3  502    0 -0.71394676062E+01 -0.28092412906E+03  0.12514315363E+03  0.30762015114E+03  0.10100000352E+00 0. -1.
       -3    1    3    3    0  502  0.71394676062E+01  0.28092412906E+03 -0.84944846511E+02  0.29357277707E+03  0.10100000352E+00 0.  1.
</event>
<event>
 5   0  0.5785798E-03  0.5999041E+03  0.7818609E-02  0.9905605E-01
        1   -1    0    0  501    0  0.00000000000E+00  0.00000000000E+00  0.81531721547E+03  0.81531721549E+03  0.50400001928E-02 0. -1.
       -1   -1    0    0    0  501  0.00000000000E+00  0.00000000000E+00 -0.11035118602E+03  0.11035118613E+03  0.50400001928E-02 0.  1.
    10030    2    1    2    0    0  0.00000000000E+00  0.00000000000E+00  0.70496602945E+03  0.92566840162E+03  0.59990406489E+03 0.  0.
        1    1    3    3  502    0  0.28601361787E+03 -0.86921859868E+02  0.31430992638E+03  0.43376252625E+03  0.50400001928E-02 0. -1.
       -1    1    3    3    0  502 -0.28601361787E+03  0.86921859868E+02  0.39065610307E+03  0.49190587537E+03  0.50400001928E-02 0.  1.
</event>
<event>
 5   0  0.5491236E-03  0.5999511E+03  0.7818609E-02  0.9905507E-01
        1   -1    0    0  501    0  0.00000000000E+00  0.00000000000E+00  0.53841344037E+03  0.53841344040E+03  0.50400001928E-02 0.  1.
       -1   -1    0    0    0  501  0.00000000000E+00  0.00000000000E+00 -0.16713054685E+03  0.16713054692E+03  0.50400001928E-02 0. -1.
    10030    2    1    2    0    0  0.00000000000E+00  0.00000000000E+00  0.37128289353E+03  0.70554398732E+03  0.59995110719E+03 0.  0.
        3    1    3    3  502    0  0.16388647996E+03  0.21507418372E+03  0.32898508758E+02  0.27239310728E+03  0.10100000352E+00 0. -1.
       -3    1    3    3    0  502 -0.16388647996E+03 -0.21507418372E+03  0.33838438477E+03  0.43315088003E+03  0.10100000352E+00 0.  1.
</event>
<event>
 5   0  0.9866317E-03  0.5986102E+03  0.7818609E-02  0.9908294E-01
       -2   -1    0    0    0  501  0.00000000000E+00  0.00000000000E+00  0.97084822051E+02  0.97084822084E+02  0.25500000920E-02 0. -1.
        2   -1    0    0  501    0  0.00000000000E+00  0.00000000000E+00 -0.92273472319E+03  0.92273472319E+03  0.25500000920E-02 0.  1.
    10030    2    1    2    0    0  0.00000000000E+00  0.00000000000E+00 -0.82564990114E+03  0.10198195453E+04  0.59861017839E+03 0.  0.
        1    1    3    3  502    0 -0.20803210542E+03 -0.20383867678E+02 -0.47868143368E+02  0.21443931104E+03  0.50400001928E-02 0. -1.
       -1    1    3    3    0  502  0.20803210542E+03  0.20383867678E+02 -0.77778175777E+03  0.80538023423E+03  0.50400001928E-02 0.  1.
</event>
<event>
 5   0  0.5491236E-03  0.5983109E+03  0.7818609E-02  0.9908917E-01
       -1   -1    0    0    0  501  0.00000000000E+00  0.00000000000E+00  0.32016816317E+03  0.32016816321E+03  0.50400001928E-02 0. -1.
        1   -1    0    0  501    0  0.00000000000E+00  0.00000000000E+00 -0.27952183733E+03  0.27952183738E+03  0.50400001928E-02 0.  1.
    10030    2    1    2    0    0  0.00000000000E+00  0.00000000000E+00  0.40646325843E+02  0.59969000059E+03  0.59831093338E+03 0.  0.
        3    1    3    3  502    0  0.71943283088E+02 -0.28962108942E+03  0.41294381913E+02  0.30126640635E+03  0.10100000352E+00 0. -1.
       -3    1    3    3    0  502 -0.71943283088E+02  0.28962108942E+03 -0.64805607020E+00  0.29842359424E+03  0.10100000352E+00 0.  1.
</event>
<event>
 5   0  0.9866317E-03  0.5995660E+03  0.7818609E-02  0.9906307E-01
        2   -1    0    0  501    0  0.00000000000E+00  0.00000000000E+00  0.31512641413E+03  0.31512641414E+03  0.25500000920E-02 0. -1.
       -2   -1    0    0    0  501  0.00000000000E+00  0.00000000000E+00 -0.28518666093E+03  0.28518666094E+03  0.25500000920E-02 0.  1.
    10030    2    1    2    0    0  0.00000000000E+00  0.00000000000E+00  0.29939753195E+02  0.60031307508E+03  0.59956600912E+03 0.  0.
        1    1    3    3  502    0  0.14573431111E+03 -0.23951927271E+03  0.12122410336E+03  0.30545581463E+03  0.50400001928E-02 0. -1.
       -1    1    3    3    0  502 -0.14573431111E+03  0.23951927271E+03 -0.91284350161E+02  0.29485726045E+03  0.50400001928E-02 0.  1.
</event>
<event>
 5   0  0.9428629E-03  0.6000492E+03  0.7818609E-02  0.9905304E-01
        2   -1    0    0  501    0  0.00000000000E+00  0.00000000000E+00  0.35494381316E+03  0.35494381317E+03  0.25500000920E-02 0.  1.
       -2   -1    0    0    0  501  0.00000000000E+00  0.00000000000E+00 -0.25360280749E+03  0.25360280750E+03  0.25500000920E-02 0. -1.
    10030    2    1    2    0    0  0.00000000000E+00  0.00000000000E+00  0.10134100567E+03  0.60854662067E+03  0.60004915640E+03 0.  0.
        3    1    3    3  502    0  0.15439327408E+03  0.11629595287E+03 -0.18204074334E+03  0.26552000711E+03  0.10100000352E+00 0. -1.
       -3    1    3    3    0  502 -0.15439327408E+03 -0.11629595287E+03  0.28338174902E+03  0.34302661356E+03  0.10100000352E+00 0.  1.
</event>
<event>
 5   0  0.9530666E-03  0.5997294E+03  0.7818609E-02  0.9905968E-01
       -2   -1    0    0    0  501  0.00000000000E+00  0.00000000000E+00  0.91371004600E+02  0.91371004635E+02  0.25500000920E-02 0. -1.
        2   -1    0    0  501    0  0.00000000000E+00  0.00000000000E+00 -0.98410694920E+03  0.98410694920E+03  0.25500000920E-02 0.  1.
    10030    2    1    2    0    0  0.00000000000E+00  0.00000000000E+00 -0.89273594460E+03  0.10754779538E+04  0.59972940766E+03 0.  0.
        2    1    3    3  502    0  0.19452618722E+03 -0.21478247669E+03 -0.58465809079E+03  0.65253125055E+03  0.25500000920E-02 0. -1.
       -2    1    3    3    0  502 -0.19452618722E+03  0.21478247669E+03 -0.30807785381E+03  0.42294670329E+03  0.25500000920E-02 0.  1.
</event>
<event>
 5   0  0.5653633E-03  0.5987619E+03  0.7818609E-02  0.9907978E-01
        1   -1    0    0  501    0  0.00000000000E+00  0.00000000000E+00  0.33856764007E+03  0.33856764011E+03  0.50400001928E-02 0. -1.
       -1   -1    0    0    0  501  0.00000000000E+00  0.00000000000E+00 -0.26472980808E+03  0.26472980813E+03  0.50400001928E-02 0.  1.
    10030    2    1    2    0    0  0.00000000000E+00  0.00000000000E+00  0.73837831989E+02  0.60329744824E+03  0.59876187722E+03 0.  0.
        2    1    3    3  502    0 -0.22503203821E+03  0.15076999197E+03 -0.91553554190E+02  0.28592492370E+03  0.25500000920E-02 0.  1.
       -2    1    3    3    0  502  0.22503203821E+03 -0.15076999197E+03  0.16539138618E+03  0.31737252454E+03  0.25500000920E-02 0. -1.
</event>
<event>
 5   0  0.9571790E-03  0.5991753E+03  0.7818609E-02  0.9907118E-01
        2   -1    0    0  501    0  0.00000000000E+00  0.00000000000E+00  0.61287936845E+03  0.61287936846E+03  0.25500000920E-02 0.  1.
       -2   -1    0    0    0  501  0.00000000000E+00  0.00000000000E+00 -0.14644443615E+03  0.14644443617E+03  0.25500000920E-02 0. -1.
    10030    2    1    2    0    0  0.00000000000E+00  0.00000000000E+00  0.46643493231E+03  0.75932380463E+03  0.59917534512E+03 0.  0.
        5    1    3    3  502    0  0.25322220706E+03 -0.12698624843E+03  0.35663070718E+03  0.45547178259E+03  0.46999998093E+01 0.  1.
       -5    1    3    3    0  502 -0.25322220706E+03  0.12698624843E+03  0.10980422513E+03  0.30385202203E+03  0.46999998093E+01 0. -1.
</event>
<event>
 5   0  0.5574736E-03  0.5985733E+03  0.7818609E-02  0.9908370E-01
       -1   -1    0    0    0  501  0.00000000000E+00  0.00000000000E+00  0.81077583926E+02  0.81077584083E+02  0.50400001928E-02 0. -1.
        1   -1    0    0  501    0  0.00000000000E+00  0.00000000000E+00 -0.11047751398E+04  0.11047751399E+04  0.50400001928E-02 0.  1.
    10030    2    1    2    0    0  0.00000000000E+00  0.00000000000E+00 -0.10236975559E+04  0.11858527239E+04  0.59857330117E+03 0.  0.
        5    1    3    3  502    0 -0.19794377225E+03 -0.22352800083E+03 -0.55166436103E+03  0.62729750625E+03  0.46999998093E+01 0.  1.
       -5    1    3    3    0  502  0.19794377225E+03  0.22352800083E+03 -0.47203319489E+03  0.55855521768E+03  0.46999998093E+01 0. -1.
</event>
<event>
 5   0  0.9571790E-03  0.5875191E+03  0.7818609E-02  0.9931644E-01
       -2   -1    0    0    0  501  0.00000000000E+00  0.00000000000E+00  0.49419454786E+03  0.49419454787E+03  0.25500000920E-02 0.  1.
        2   -1    0    0  501    0  0.00000000000E+00  0.00000000000E+00 -0.17461680691E+03  0.17461680693E+03  0.25500000920E-02 0. -1.
    10030    2    1    2    0    0  0.00000000000E+00  0.00000000000E+00  0.31957774096E+03  0.66881135480E+03  0.58751910249E+03 0.  0.
        5    1    3    3  502    0  0.37407118568E+02 -0.20436047155E+02  0.49061212105E+03  0.49248275895E+03  0.46999998093E+01 0.  1.
       -5    1    3    3    0  502 -0.37407118568E+02  0.20436047155E+02 -0.17103438009E+03  0.17632859585E+03  0.46999998093E+01 0. -1.
</event>
<event>
 5   0  0.9866317E-03  0.5976207E+03  0.7818609E-02  0.9910355E-01
       -2   -1    0    0    0  501  0.00000000000E+00  0.00000000000E+00  0.52929365288E+02  0.52929365349E+02  0.25500000920E-02 0.  1.
        2   -1    0    0  501    0  0.00000000000E+00  0.00000000000E+00 -0.16869205351E+04  0.16869205351E+04  0.25500000920E-02 0. -1.
    10030    2    1    2    0    0  0.00000000000E+00  0.00000000000E+00 -0.16339911698E+04  0.17398499004E+04  0.59762072677E+03 0.  0.
        1    1    3    3  502    0  0.17258702553E+03 -0.19742747668E+03 -0.12340708346E+04  0.12616238404E+04  0.50400001928E-02 0. -1.
       -1    1    3    3    0  502 -0.17258702553E+03  0.19742747668E+03 -0.39992033519E+03  0.47822605999E+03  0.50400001928E-02 0.  1.
</event>
<event>
 5   0  0.9681801E-03  0.6001383E+03  0.7818609E-02  0.9905119E-01
        2   -1    0    0  501    0  0.00000000000E+00  0.00000000000E+00  0.13091296471E+04  0.13091296471E+04  0.25500000920E-02 0.  1.
       -2   -1    0    0    0  501  0.00000000000E+00  0.00000000000E+00 -0.68779653075E+02  0.68779653122E+02  0.25500000920E-02 0. -1.
    10030    2    1    2    0    0  0.00000000000E+00  0.00000000000E+00  0.12403499940E+04  0.13779093002E+04  0.60013826071E+03 0.  0.
        4    1    3    3  502    0  0.91359455327E+02 -0.16379992440E+03  0.82389959181E+02  0.20485771546E+03  0.12699999809E+01 0. -1.
       -4    1    3    3    0  502 -0.91359455327E+02  0.16379992440E+03  0.11579600348E+04  0.11730515848E+04  0.12699999809E+01 0.  1.
</event>
<event>
 5   0  0.3794375E-03  0.5999042E+03  0.7818609E-02  0.9905605E-01
       -3   -1    0    0    0  501  0.00000000000E+00  0.00000000000E+00  0.28939943780E+03  0.28939945543E+03  0.10100000352E+00 0.  1.
        3   -1    0    0  501    0  0.00000000000E+00  0.00000000000E+00 -0.31088956391E+03  0.31088958032E+03  0.10100000352E+00 0. -1.
    10030    2    1    2    0    0  0.00000000000E+00  0.00000000000E+00 -0.21490126112E+02  0.60028903574E+03  0.59990424312E+03 0.  0.
        5    1    3    3  502    0 -0.23105217333E+02 -0.14483289665E+03 -0.27252090384E+03  0.30951599644E+03  0.46999998093E+01 0. -1.
       -5    1    3    3    0  502  0.23105217333E+02  0.14483289665E+03  0.25103077773E+03  0.29077303931E+03  0.46999998093E+01 0.  1.
</event>
<event>
 5   0  0.5653633E-03  0.5985197E+03  0.7818609E-02  0.9908482E-01
        1   -1    0    0  501    0  0.00000000000E+00  0.00000000000E+00  0.40794567363E+03  0.40794567366E+03  0.50400001928E-02 0. -1.
       -1   -1    0    0    0  501  0.00000000000E+00  0.00000000000E+00 -0.21953034627E+03  0.21953034633E+03  0.50400001928E-02 0.  1.
    10030    2    1    2    0    0  0.00000000000E+00  0.00000000000E+00  0.18841532735E+03  0.62747601999E+03  0.59851969064E+03 0.  0.
        2    1    3    3  502    0 -0.17680692342E+03  0.76200307736E+01 -0.15879250180E+03  0.23776839923E+03  0.25500000920E-02 0.  1.
       -2    1    3    3    0  502  0.17680692342E+03 -0.76200307736E+01  0.34720782916E+03  0.38970762075E+03  0.25500000920E-02 0. -1.
</event>
<event>
 5   0  0.5653633E-03  0.6020298E+03  0.7818609E-02  0.9901204E-01
        1   -1    0    0  501    0  0.00000000000E+00  0.00000000000E+00  0.12907896268E+04  0.12907896268E+04  0.50400001928E-02 0. -1.
       -1   -1    0    0    0  501  0.00000000000E+00  0.00000000000E+00 -0.70197309297E+02  0.70197309478E+02  0.50400001928E-02 0.  1.
    10030    2    1    2    0    0  0.00000000000E+00  0.00000000000E+00  0.12205923175E+04  0.13609869363E+04  0.60202976271E+03 0.  0.
        2    1    3    3  502    0  0.15237639866E+03 -0.23241671553E+03  0.34886074427E+03  0.44602681021E+03  0.25500000920E-02 0.  1.
       -2    1    3    3    0  502 -0.15237639866E+03  0.23241671553E+03  0.87173157321E+03  0.91496012605E+03  0.25500000920E-02 0. -1.
</event>
<event>
 5   0  0.9571790E-03  0.6029247E+03  0.7818609E-02  0.9899357E-01
       -2   -1    0    0    0  501  0.00000000000E+00  0.00000000000E+00  0.44599219020E+03  0.44599219021E+03  0.25500000920E-02 0. -1.
        2   -1    0    0  501    0  0.00000000000E+00  0.00000000000E+00 -0.20376938456E+03  0.20376938457E+03  0.25500000920E-02 0.  1.
    10030    2    1    2    0    0  0.00000000000E+00  0.00000000000E+00  0.24222280565E+03  0.64976157478E+03  0.60292471876E+03 0.  0.
        5    1    3    3  502    0  0.14196590114E+03 -0.11249505223E+02 -0.16518855774E+03  0.21815182342E+03  0.46999998093E+01 0.  1.
       -5    1    3    3    0  502 -0.14196590114E+03  0.11249505223E+02  0.40741136339E+03  0.43160975136E+03  0.46999998093E+01 0. -1.
</event>
<event>
 5   0  0.9428629E-03  0.6008678E+03  0.7818609E-02  0.9903607E-01
        2   -1    0    0  501    0  0.00000000000E+00  0.00000000000E+00  0.97117733177E+03  0.97117733178E+03  0.25500000920E-02 0. -1.
       -2   -1    0    0    0  501  0.00000000000E+00  0.00000000000E+00 -0.92939297399E+02  0.92939297434E+02  0.25500000920E-02 0.  1.
    10030    2    1    2    0    0  0.00000000000E+00  0.00000000000E+00  0.87823803438E+03  0.10641166292E+04  0.60086783533E+03 0.  0.
        3    1    3    3  502    0  0.74735123572E+02 -0.23031808872E+02  0.95283576330E+03  0.95603964611E+03  0.10100000352E+00 0. -1.
       -3    1    3    3    0  502 -0.74735123572E+02  0.23031808872E+02 -0.74597728921E+02  0.10807698310E+03  0.10100000352E+00 0.  1.
</event>
<event>
 5   0  0.5653633E-03  0.5978338E+03  0.7818609E-02  0.9909911E-01
        1   -1    0    0  501    0  0.00000000000E+00  0.00000000000E+00  0.27444018375E+03  0.27444018379E+03  0.50400001928E-02 0. -1.
       -1   -1    0    0    0  501  0.00000000000E+00  0.00000000000E+00 -0.32557659694E+03  0.32557659698E+03  0.50400001928E-02 0.  1.
    10030    2    1    2    0    0  0.00000000000E+00  0.00000000000E+00 -0.51136413196E+02  0.60001678078E+03  0.59783375988E+03 0.  0.
        2    1    3    3  502    0  0.20032778452E+03  0.81534217276E+02  0.18151566162E+03  0.28235967357E+03  0.25500000920E-02 0. -1.
       -2    1    3    3    0  502 -0.20032778452E+03 -0.81534217276E+02 -0.23265207482E+03  0.31765710721E+03  0.25500000920E-02 0.  1.
</event>
<event>
 5   0  0.9681801E-03  0.5986211E+03  0.7818609E-02  0.9908271E-01
        2   -1    0    0  501    0  0.00000000000E+00  0.00000000000E+00  0.66753575276E+03  0.66753575277E+03  0.25500000920E-02 0.  1.
       -2   -1    0    0    0  501  0.00000000000E+00  0.00000000000E+00 -0.13420523312E+03  0.13420523314E+03  0.25500000920E-02 0. -1.
    10030    2    1    2    0    0  0.00000000000E+00  0.00000000000E+00  0.53333051964E+03  0.80174098591E+03  0.59862105318E+03 0.  0.
        4    1    3    3  502    0  0.19055432896E+03 -0.10262527916E+02  0.57548920308E+03  0.60630496248E+03  0.12699999809E+01 0.  1.
       -4    1    3    3    0  502 -0.19055432896E+03  0.10262527916E+02 -0.42158683441E+02  0.19543602343E+03  0.12699999809E+01 0. -1.
</event>
<event>
 5   0  0.5653633E-03  0.5997731E+03  0.7818609E-02  0.9905877E-01
        1   -1    0    0  501    0  0.00000000000E+00  0.00000000000E+00  0.11568841077E+04  0.11568841077E+04  0.50400001928E-02 0. -1.
       -1   -1    0    0    0  501  0.00000000000E+00  0.00000000000E+00 -0.77736335889E+02  0.77736336052E+02  0.50400001928E-02 0.  1.
    10030    2    1    2    0    0  0.00000000000E+00  0.00000000000E+00  0.10791477718E+04  0.12346204438E+04  0.59977306272E+03 0.  0.
        2    1    3    3  502    0 -0.11883918081E+02 -0.11030945390E+03  0.11130831008E+04  0.11185988523E+04  0.25500000920E-02 0. -1.
       -2    1    3    3    0  502  0.11883918081E+02  0.11030945390E+03 -0.33935328955E+02  0.11602159147E+03  0.25500000920E-02 0.  1.
</event>
<event>
 5   0  0.3794375E-03  0.6040090E+03  0.7818609E-02  0.9897123E-01
        3   -1    0    0  501    0  0.00000000000E+00  0.00000000000E+00  0.10051831235E+03  0.10051836309E+03  0.10100000352E+00 0.  1.
       -3   -1    0    0    0  501  0.00000000000E+00  0.00000000000E+00 -0.90736403299E+03  0.90736403861E+03  0.10100000352E+00 0. -1.
    10030    2    1    2    0    0  0.00000000000E+00  0.00000000000E+00 -0.80684572064E+03  0.10078824017E+04  0.60400903863E+03 0.  0.
        1    1    3    3  502    0  0.10775139221E+03 -0.24747485240E+03 -0.62947821819E+03  0.68490655734E+03  0.50400001928E-02 0. -1.
       -1    1    3    3    0  502 -0.10775139221E+03  0.24747485240E+03 -0.17736750245E+03  0.32297584436E+03  0.50400001928E-02 0.  1.
</event>
<event>
 5   0  0.5491236E-03  0.5902623E+03  0.7818609E-02  0.9925817E-01
       -1   -1    0    0    0  501  0.00000000000E+00  0.00000000000E+00  0.11874625100E+03  0.11874625111E+03  0.50400001928E-02 0. -1.
        1   -1    0    0  501    0  0.00000000000E+00  0.00000000000E+00 -0.73351694286E+03  0.73351694287E+03  0.50400001928E-02 0.  1.
    10030    2    1    2    0    0  0.00000000000E+00  0.00000000000E+00 -0.61477069186E+03  0.85226319398E+03  0.59026227073E+03 0.  0.
        3    1    3    3  502    0 -0.61454492736E+02 -0.19807528944E+03 -0.61057063525E+03  0.64483097459E+03  0.10100000352E+00 0.  1.
       -3    1    3    3    0  502  0.61454492736E+02  0.19807528944E+03 -0.42000566027E+01  0.20743221939E+03  0.10100000352E+00 0. -1.
</event>
<event>
 5   0  0.9428629E-03  0.6011653E+03  0.7818609E-02  0.9902991E-01
       -2   -1    0    0    0  501  0.00000000000E+00  0.00000000000E+00  0.53268594809E+02  0.53268594870E+02  0.25500000920E-02 0.  1.
        2   -1    0    0  501    0  0.00000000000E+00  0.00000000000E+00 -0.16961199045E+04  0.16961199045E+04  0.25500000920E-02 0. -1.
    10030    2    1    2    0    0  0.00000000000E+00  0.00000000000E+00 -0.16428513097E+04  0.17493884994E+04  0.60116528175E+03 0.  0.
        3    1    3    3  502    0 -0.14363076098E+03  0.25162643608E+03 -0.58854860950E+03  0.65599934054E+03  0.10100000352E+00 0. -1.
       -3    1    3    3    0  502  0.14363076098E+03 -0.25162643608E+03 -0.10543027002E+04  0.10933891588E+04  0.10100000352E+00 0.  1.
</event>
<event>
 5   0  0.5653633E-03  0.5999881E+03  0.7818609E-02  0.9905431E-01
        1   -1    0    0  501    0  0.00000000000E+00  0.00000000000E+00  0.93866318599E+03  0.93866318601E+03  0.50400001928E-02 0.  1.
       -1   -1    0    0    0  501  0.00000000000E+00  0.00000000000E+00 -0.95877239956E+02  0.95877240088E+02  0.50400001928E-02 0. -1.
    10030    2    1    2    0    0  0.00000000000E+00  0.00000000000E+00  0.84278594604E+03  0.10345404261E+04  0.59998811854E+03 0.  0.
        2    1    3    3  502    0 -0.68604879136E+02  0.69516505051E+01 -0.82026845010E+02  0.10716043204E+03  0.25500000920E-02 0. -1.
       -2    1    3    3    0  502  0.68604879136E+02 -0.69516505051E+01  0.92481279105E+03  0.92737999406E+03  0.25500000920E-02 0.  1.
</event>
<event>
 5   0  0.9866317E-03  0.5992147E+03  0.7818609E-02  0.9907037E-01
        2   -1    0    0  501    0  0.00000000000E+00  0.00000000000E+00  0.42941931472E+03  0.42941931473E+03  0.25500000920E-02 0. -1.
       -2   -1    0    0    0  501  0.00000000000E+00  0.00000000000E+00 -0.20903710589E+03  0.20903710591E+03  0.25500000920E-02 0.  1.
    10030    2    1    2    0    0  0.00000000000E+00  0.00000000000E+00  0.22038220883E+03  0.63845642063E+03  0.59921472202E+03 0.  0.
        1    1    3    3  502    0 -0.19069415160E+03 -0.83815828640E+02  0.33964306170E+03  0.39843037280E+03  0.50400001928E-02 0. -1.
       -1    1    3    3    0  502  0.19069415160E+03  0.83815828640E+02 -0.11926085288E+03  0.24002604783E+03  0.50400001928E-02 0.  1.
</event>
<event>
 5   0  0.3794375E-03  0.6017061E+03  0.7818609E-02  0.9901873E-01
        3   -1    0    0  501    0  0.00000000000E+00  0.00000000000E+00  0.14788989652E+03  0.14788993101E+03  0.10100000352E+00 0.  1.
       -3   -1    0    0    0  501  0.00000000000E+00  0.00000000000E+00 -0.61202660853E+03  0.61202661687E+03  0.10100000352E+00 0. -1.
    10030    2    1    2    0    0  0.00000000000E+00  0.00000000000E+00 -0.46413671201E+03  0.75991654787E+03  0.60170613450E+03 0.  0.
        3    1    3    3  502    0  0.27144062045E+03 -0.92703302478E+02 -0.11743543438E+03  0.30994354997E+03  0.10100000352E+00 0. -1.
       -3    1    3    3    0  502 -0.27144062045E+03  0.92703302478E+02 -0.34670127764E+03  0.44997299790E+03  0.10100000352E+00 0.  1.
</event>
<event>
 5   0  0.9428629E-03  0.5993006E+03  0.7818609E-02  0.9906858E-01
        2   -1    0    0  501    0  0.00000000000E+00  0.00000000000E+00  0.93794907488E+03  0.93794907488E+03  0.25500000920E-02 0. -1.
       -2   -1    0    0    0  501  0.00000000000E+00  0.00000000000E+00 -0.95730450401E+02  0.95730450435E+02  0.25500000920E-02 0.  1.
    10030    2    1    2    0    0  0.00000000000E+00  0.00000000000E+00  0.84221862447E+03  0.10336795253E+04  0.59930055034E+03 0.  0.
        3    1    3    3  502    0 -0.84574343073E+02 -0.21867380422E+03  0.99261331993E+02  0.25460533064E+03  0.10100000352E+00 0.  1.
       -3    1    3    3    0  502  0.84574343073E+02  0.21867380422E+03  0.74295729248E+03  0.77907419468E+03  0.10100000352E+00 0. -1.
</event>
<event>
 5   0  0.5785798E-03  0.6016829E+03  0.7818609E-02  0.9901921E-01
        1   -1    0    0  501    0  0.00000000000E+00  0.00000000000E+00  0.46471796627E+03  0.46471796630E+03  0.50400001928E-02 0.  1.
       -1   -1    0    0    0  501  0.00000000000E+00  0.00000000000E+00 -0.19475376983E+03  0.19475376989E+03  0.50400001928E-02 0. -1.
    10030    2    1    2    0    0  0.00000000000E+00  0.00000000000E+00  0.26996419644E+03  0.65947173619E+03  0.60168289279E+03 0.  0.
        1    1    3    3  502    0 -0.16984791063E+02  0.30009322512E+03  0.12106840987E+03  0.32404010058E+03  0.50400001928E-02 0. -1.
       -1    1    3    3    0  502  0.16984791063E+02 -0.30009322512E+03  0.14889578657E+03  0.33543163561E+03  0.50400001928E-02 0.  1.
</event>
<event>
 5   0  0.5785798E-03  0.6015676E+03  0.7818609E-02  0.9902159E-01
        1   -1    0    0  501    0  0.00000000000E+00  0.00000000000E+00  0.73422904913E+03  0.73422904915E+03  0.50400001928E-02 0.  1.
       -1   -1    0    0    0  501  0.00000000000E+00  0.00000000000E+00 -0.12321889027E+03  0.12321889037E+03  0.50400001928E-02 0. -1.
    10030    2    1    2    0    0  0.00000000000E+00  0.00000000000E+00  0.61101015886E+03  0.85744793952E+03  0.60156758120E+03 0.  0.
        1    1    3    3  502    0 -0.13032283709E+03 -0.25589198108E+03  0.17796844580E+03  0.33784244194E+03  0.50400001928E-02 0. -1.
       -1    1    3    3    0  502  0.13032283709E+03  0.25589198108E+03  0.43304171305E+03  0.51960549758E+03  0.50400001928E-02 0.  1.
</event>
<event>
 5   0  0.9866317E-03  0.5993058E+03  0.7818609E-02  0.9906847E-01
       -2   -1    0    0    0  501  0.00000000000E+00  0.00000000000E+00  0.42931061772E+02  0.42931061848E+02  0.25500000920E-02 0.  1.
        2   -1    0    0  501    0  0.00000000000E+00  0.00000000000E+00 -0.20915357544E+04  0.20915357544E+04  0.25500000920E-02 0. -1.
    10030    2    1    2    0    0  0.00000000000E+00  0.00000000000E+00 -0.20486046926E+04  0.21344668162E+04  0.59930576754E+03 0.  0.
        1    1    3    3  502    0  0.18612689155E+03  0.23360723835E+03 -0.11098013738E+04  0.11492931093E+04  0.50400001928E-02 0. -1.
       -1    1    3    3    0  502 -0.18612689155E+03 -0.23360723835E+03 -0.93880331876E+03  0.98517370697E+03  0.50400001928E-02 0.  1.
</event>
<event>
 5   0  0.5653633E-03  0.6013134E+03  0.7818609E-02  0.9902685E-01
        1   -1    0    0  501    0  0.00000000000E+00  0.00000000000E+00  0.26424589819E+03  0.26424589824E+03  0.50400001928E-02 0. -1.
       -1   -1    0    0    0  501  0.00000000000E+00  0.00000000000E+00 -0.34208458971E+03  0.34208458975E+03  0.50400001928E-02 0.  1.
    10030    2    1    2    0    0  0.00000000000E+00  0.00000000000E+00 -0.77838691522E+02  0.60633048799E+03  0.60131339480E+03 0.  0.
        2    1    3    3  502    0  0.27556938495E+03  0.10266055304E+03  0.24186968920E+02  0.29506386519E+03  0.25500000920E-02 0. -1.
       -2    1    3    3    0  502 -0.27556938495E+03 -0.10266055304E+03 -0.10202566044E+03  0.31126662279E+03  0.25500000920E-02 0.  1.
</event>
<event>
 5   0  0.5785798E-03  0.5998157E+03  0.7818609E-02  0.9905789E-01
        1   -1    0    0  501    0  0.00000000000E+00  0.00000000000E+00  0.65921435822E+03  0.65921435824E+03  0.50400001928E-02 0. -1.
       -1   -1    0    0    0  501  0.00000000000E+00  0.00000000000E+00 -0.13644228445E+03  0.13644228454E+03  0.50400001928E-02 0.  1.
    10030    2    1    2    0    0  0.00000000000E+00  0.00000000000E+00  0.52277207377E+03  0.79565664277E+03  0.59981568175E+03 0.  0.
        1    1    3    3  502    0 -0.10670016605E+03 -0.27123993712E+03  0.16769438899E+03  0.33626988722E+03  0.50400001928E-02 0. -1.
       -1    1    3    3    0  502  0.10670016605E+03  0.27123993712E+03  0.35507768478E+03  0.45938675555E+03  0.50400001928E-02 0.  1.
</event>
<event>
 5   0  0.9428629E-03  0.6000743E+03  0.7818609E-02  0.9905252E-01
        2   -1    0    0  501    0  0.00000000000E+00  0.00000000000E+00  0.30918634934E+04  0.30918634934E+04  0.25500000920E-02 0.  1.
       -2   -1    0    0    0  501  0.00000000000E+00  0.00000000000E+00 -0.29115869727E+02  0.29115869838E+02  0.25500000920E-02 0. -1.
    10030    2    1    2    0    0  0.00000000000E+00  0.00000000000E+00  0.30627476237E+04  0.31209793633E+04  0.60007431161E+03 0.  0.
        3    1    3    3  502    0 -0.17178218584E+03  0.24596697876E+03  0.15123275033E+04  0.15417987422E+04  0.10100000352E+00 0. -1.
       -3    1    3    3    0  502  0.17178218584E+03 -0.24596697876E+03  0.15504201204E+04  0.15791806211E+04  0.10100000352E+00 0.  1.
</event>
<event>
 5   0  0.5503975E-03  0.5998748E+03  0.7818609E-02  0.9905666E-01
       -1   -1    0    0    0  501  0.00000000000E+00  0.00000000000E+00  0.88800003398E+02  0.88800003541E+02  0.50400001928E-02 0. -1.
        1   -1    0    0  501    0  0.00000000000E+00  0.00000000000E+00 -0.10130904127E+04  0.10130904127E+04  0.50400001928E-02 0.  1.
    10030    2    1    2    0    0  0.00000000000E+00  0.00000000000E+00 -0.92429040926E+03  0.11018904162E+04  0.59987476084E+03 0.  0.
        4    1    3    3  502    0  0.35188565562E+02 -0.27522177022E+03 -0.67138336511E+03  0.72645887275E+03  0.12699999809E+01 0.  1.
       -4    1    3    3    0  502 -0.35188565562E+02  0.27522177022E+03 -0.25290704415E+03  0.37543154346E+03  0.12699999809E+01 0. -1.
</event>
<event>
 5   0  0.5503975E-03  0.6001588E+03  0.7818609E-02  0.9905077E-01
        1   -1    0    0  501    0  0.00000000000E+00  0.00000000000E+00  0.82166175366E+03  0.82166175367E+03  0.50400001928E-02 0. -1.
       -1   -1    0    0    0  501  0.00000000000E+00  0.00000000000E+00 -0.10959212838E+03  0.10959212850E+03  0.50400001928E-02 0.  1.
    10030    2    1    2    0    0  0.00000000000E+00  0.00000000000E+00  0.71206962528E+03  0.93125388217E+03  0.60015884715E+03 0.  0.
        4    1    3    3  502    0  0.77766158377E+02  0.14573830425E+03 -0.32687316041E+02  0.16839626553E+03  0.12699999809E+01 0.  1.
       -4    1    3    3    0  502 -0.77766158377E+02 -0.14573830425E+03  0.74475694132E+03  0.76285761664E+03  0.12699999809E+01 0. -1.
</event>
<event>
 5   0  0.5503975E-03  0.6001788E+03  0.7818609E-02  0.9905035E-01
       -1   -1    0    0    0  501  0.00000000000E+00  0.00000000000E+00  0.38528461501E+03  0.38528461504E+03  0.50400001928E-02 0.  1.
        1   -1    0    0  501    0  0.00000000000E+00  0.00000000000E+00 -0.23373277676E+03  0.23373277682E+03  0.50400001928E-02 0. -1.
    10030    2    1    2    0    0  0.00000000000E+00  0.00000000000E+00  0.15155183825E+03  0.61901739186E+03  0.60017878315E+03 0.  0.
        4    1    3    3  502    0 -0.17511966440E+03 -0.15881495175E+03  0.26640969882E+03  0.35618088984E+03  0.12699999809E+01 0.  1.
       -4    1    3    3    0  502  0.17511966440E+03  0.15881495175E+03 -0.11485786057E+03  0.26283650202E+03  0.12699999809E+01 0. -1.
</event>
<event>
 5   0  0.9530666E-03  0.6001304E+03  0.7818609E-02  0.9905136E-01
       -2   -1    0    0    0  501  0.00000000000E+00  0.00000000000E+00  0.73575275188E+03  0.73575275189E+03  0.25500000920E-02 0.  1.
        2   -1    0    0  501    0  0.00000000000E+00  0.00000000000E+00 -0.12237686462E+03  0.12237686465E+03  0.25500000920E-02 0. -1.
    10030    2    1    2    0    0  0.00000000000E+00  0.00000000000E+00  0.61337588726E+03  0.85812961653E+03  0.60013036892E+03 0.  0.
        2    1    3    3  502    0 -0.18806169962E+03 -0.16913191645E+03  0.53754706515E+03  0.59407882918E+03  0.25500000920E-02 0.  1.
       -2    1    3    3    0  502  0.18806169962E+03  0.16913191645E+03  0.75828822115E+02  0.26405078735E+03  0.25500000920E-02 0. -1.
</event>
<event>
 5   0  0.9681801E-03  0.5992608E+03  0.7818609E-02  0.9906941E-01
        2   -1    0    0  501    0  0.00000000000E+00  0.00000000000E+00  0.59806737207E+03  0.59806737207E+03  0.25500000920E-02 0. -1.
       -2   -1    0    0    0  501  0.00000000000E+00  0.00000000000E+00 -0.15011415630E+03  0.15011415632E+03  0.25500000920E-02 0.  1.
    10030    2    1    2    0    0  0.00000000000E+00  0.00000000000E+00  0.44795321577E+03  0.74818152839E+03  0.59926080791E+03 0.  0.
        4    1    3    3  502    0  0.24579579380E+03  0.46300611208E+02  0.42995174524E+03  0.49741274107E+03  0.12699999809E+01 0. -1.
       -4    1    3    3    0  502 -0.24579579380E+03 -0.46300611208E+02  0.18001470535E+02  0.25076878732E+03  0.12699999809E+01 0.  1.
</event>
<event>
 5   0  0.9428629E-03  0.6008448E+03  0.7818609E-02  0.9903655E-01
       -2   -1    0    0    0  501  0.00000000000E+00  0.00000000000E+00  0.31656959319E+03  0.31656959320E+03  0.25500000920E-02 0. -1.
        2   -1    0    0  501    0  0.00000000000E+00  0.00000000000E+00 -0.28509883694E+03  0.28509883695E+03  0.25500000920E-02 0.  1.
    10030    2    1    2    0    0  0.00000000000E+00  0.00000000000E+00  0.31470756252E+02  0.60166843015E+03  0.60084481469E+03 0.  0.
        3    1    3    3  502    0 -0.24107980140E+03  0.38846918280E+02  0.19097543014E+03  0.31000028842E+03  0.10100000352E+00 0.  1.
       -3    1    3    3    0  502  0.24107980140E+03 -0.38846918280E+02 -0.15950467389E+03  0.29166814173E+03  0.10100000352E+00 0. -1.
</event>
<event>
 5   0  0.5491236E-03  0.5996682E+03  0.7818609E-02  0.9906095E-01
       -1   -1    0    0    0  501  0.00000000000E+00  0.00000000000E+00  0.14604373161E+03  0.14604373170E+03  0.50400001928E-02 0.  1.
        1   -1    0    0  501    0  0.00000000000E+00  0.00000000000E+00 -0.61557230382E+03  0.61557230384E+03  0.50400001928E-02 0. -1.
    10030    2    1    2    0    0  0.00000000000E+00  0.00000000000E+00 -0.46952857221E+03  0.76161603554E+03  0.59966816280E+03 0.  0.
        3    1    3    3  502    0  0.84840820899E+02  0.11959348141E+03  0.97399913058E+02  0.17603215317E+03  0.10100000352E+00 0.  1.
       -3    1    3    3    0  502 -0.84840820899E+02 -0.11959348141E+03 -0.56692848526E+03  0.58558388237E+03  0.10100000352E+00 0. -1.
</event>
<event>
 5   0  0.9571790E-03  0.6006650E+03  0.7818609E-02  0.9904027E-01
       -2   -1    0    0    0  501  0.00000000000E+00  0.00000000000E+00  0.76197008019E+02  0.76197008062E+02  0.25500000920E-02 0. -1.
        2   -1    0    0  501    0  0.00000000000E+00  0.00000000000E+00 -0.11837682321E+04  0.11837682321E+04  0.25500000920E-02 0.  1.
    10030    2    1    2    0    0  0.00000000000E+00  0.00000000000E+00 -0.11075712241E+04  0.12599652402E+04  0.60066495653E+03 0.  0.
        5    1    3    3  502    0 -0.29082363499E+03  0.60983596919E+02 -0.46283214585E+03  0.55003006371E+03  0.46999998093E+01 0.  1.
       -5    1    3    3    0  502  0.29082363499E+03 -0.60983596919E+02 -0.64473907822E+03  0.70993517644E+03  0.46999998093E+01 0. -1.
</event>
<event>
 5   0  0.3794375E-03  0.5998086E+03  0.7818609E-02  0.9905803E-01
        3   -1    0    0  501    0  0.00000000000E+00  0.00000000000E+00  0.15270219246E+03  0.15270222586E+03  0.10100000352E+00 0. -1.
       -3   -1    0    0    0  501  0.00000000000E+00  0.00000000000E+00 -0.58900644804E+03  0.58900645670E+03  0.10100000352E+00 0.  1.
    10030    2    1    2    0    0  0.00000000000E+00  0.00000000000E+00 -0.43630425558E+03  0.74170868256E+03  0.59980860810E+03 0.  0.
        4    1    3    3  502    0  0.14075775261E+02 -0.29937453223E+03 -0.23157000936E+03  0.37874730380E+03  0.12699999809E+01 0. -1.
       -4    1    3    3    0  502 -0.14075775261E+02  0.29937453223E+03 -0.20473424622E+03  0.36296137876E+03  0.12699999809E+01 0.  1.
</event>
<event>
 5   0  0.9530666E-03  0.5999972E+03  0.7818609E-02  0.9905412E-01
        2   -1    0    0  501    0  0.00000000000E+00  0.00000000000E+00  0.12455463338E+03  0.12455463340E+03  0.25500000920E-02 0.  1.
       -2   -1    0    0    0  501  0.00000000000E+00  0.00000000000E+00 -0.72256775285E+03  0.72256775286E+03  0.25500000920E-02 0. -1.
    10030    2    1    2    0    0  0.00000000000E+00  0.00000000000E+00 -0.59801311948E+03  0.84712238626E+03  0.59999720519E+03 0.  0.
        2    1    3    3  502    0 -0.26142397866E+03 -0.37824820799E+02 -0.49980085639E+03  0.56530886225E+03  0.25500000920E-02 0. -1.
       -2    1    3    3    0  502  0.26142397866E+03  0.37824820799E+02 -0.98212263089E+02  0.28181352401E+03  0.25500000920E-02 0.  1.
</event>
<event>
 5   0  0.5491236E-03  0.5999644E+03  0.7818609E-02  0.9905480E-01
        1   -1    0    0  501    0  0.00000000000E+00  0.00000000000E+00  0.59319420097E+03  0.59319420099E+03  0.50400001928E-02 0. -1.
       -1   -1    0    0    0  501  0.00000000000E+00  0.00000000000E+00 -0.15170299162E+03  0.15170299170E+03  0.50400001928E-02 0.  1.
    10030    2    1    2    0    0  0.00000000000E+00  0.00000000000E+00  0.44149120935E+03  0.74489719270E+03  0.59996444874E+03 0.  0.
        3    1    3    3  502    0  0.18654192525E+03 -0.63794533853E+02 -0.59974444853E+02  0.20606934916E+03  0.10100000352E+00 0.  1.
       -3    1    3    3    0  502 -0.18654192525E+03  0.63794533853E+02  0.50146565420E+03  0.53882784354E+03  0.10100000352E+00 0. -1.
</event>
<event>
 5   0  0.9571790E-03  0.6025510E+03  0.7818609E-02  0.9900128E-01
        2   -1    0    0  501    0  0.00000000000E+00  0.00000000000E+00  0.16179267559E+04  0.16179267559E+04  0.25500000920E-02 0.  1.
       -2   -1    0    0    0  501  0.00000000000E+00  0.00000000000E+00 -0.56100766847E+02  0.56100766905E+02  0.25500000920E-02 0. -1.
    10030    2    1    2    0    0  0.00000000000E+00  0.00000000000E+00  0.15618259891E+04  0.16740275228E+04  0.60255101613E+03 0.  0.
        5    1    3    3  502    0  0.63551352395E+02  0.29443244897E+03  0.76993972253E+03  0.82677597190E+03  0.46999998093E+01 0.  1.
       -5    1    3    3    0  502 -0.63551352395E+02 -0.29443244897E+03  0.79188626653E+03  0.84725155090E+03  0.46999998093E+01 0. -1.
</event>
<event>
 5   0  0.5574736E-03  0.6000445E+03  0.7818609E-02  0.9905314E-01
        1   -1    0    0  501    0  0.00000000000E+00  0.00000000000E+00  0.97184868561E+03  0.97184868563E+03  0.50400001928E-02 0. -1.
       -1   -1    0    0    0  501  0.00000000000E+00  0.00000000000E+00 -0.92620750613E+02  0.92620750750E+02  0.50400001928E-02 0.  1.
    10030    2    1    2    0    0  0.00000000000E+00  0.00000000000E+00  0.87922793500E+03  0.10644694364E+04  0.60004451443E+03 0.  0.
        5    1    3    3  502    0  0.95815798400E+02  0.27572666203E+03  0.31689573364E+03  0.43087220306E+03  0.46999998093E+01 0. -1.
       -5    1    3    3    0  502 -0.95815798400E+02 -0.27572666203E+03  0.56233220136E+03  0.63359723331E+03  0.46999998093E+01 0.  1.
</event>
<event>
 5   0  0.9571790E-03  0.5842704E+03  0.7818609E-02  0.9938588E-01
        2   -1    0    0  501    0  0.00000000000E+00  0.00000000000E+00  0.34496373351E+03  0.34496373352E+03  0.25500000920E-02 0. -1.
       -2   -1    0    0    0  501  0.00000000000E+00  0.00000000000E+00 -0.24739695134E+03  0.24739695135E+03  0.25500000920E-02 0.  1.
    10030    2    1    2    0    0  0.00000000000E+00  0.00000000000E+00  0.97566782173E+02  0.59236068488E+03  0.58427040316E+03 0.  0.
        5    1    3    3  502    0  0.11387231385E+03 -0.14682654189E+03  0.27728374521E+03  0.33381627076E+03  0.46999998093E+01 0. -1.
       -5    1    3    3    0  502 -0.11387231385E+03  0.14682654189E+03 -0.17971696304E+03  0.25854441411E+03  0.46999998093E+01 0.  1.
</event>
<event>
 5   0  0.9866317E-03  0.5996670E+03  0.7818609E-02  0.9906097E-01
        2   -1    0    0  501    0  0.00000000000E+00  0.00000000000E+00  0.13844915478E+04  0.13844915478E+04  0.25500000920E-02 0.  1.
       -2   -1    0    0    0  501  0.00000000000E+00  0.00000000000E+00 -0.64933688136E+02  0.64933688186E+02  0.25500000920E-02 0. -1.
    10030    2    1    2    0    0  0.00000000000E+00  0.00000000000E+00  0.13195578596E+04  0.14494252359E+04  0.59966704904E+03 0.  0.
        1    1    3    3  502    0  0.22971861255E+03  0.19237487018E+03  0.68641157122E+03  0.74895899538E+03  0.50400001928E-02 0.  1.
       -1    1    3    3    0  502 -0.22971861255E+03 -0.19237487018E+03  0.63314628841E+03  0.70046624057E+03  0.50400001928E-02 0. -1.
</event>
<event>
 5   0  0.9681801E-03  0.6120851E+03  0.7818609E-02  0.9880646E-01
        2   -1    0    0  501    0  0.00000000000E+00  0.00000000000E+00  0.13839465011E+03  0.13839465014E+03  0.25500000920E-02 0. -1.
       -2   -1    0    0    0  501  0.00000000000E+00  0.00000000000E+00 -0.67677492156E+03  0.67677492157E+03  0.25500000920E-02 0.  1.
    10030    2    1    2    0    0  0.00000000000E+00  0.00000000000E+00 -0.53838027145E+03  0.81516957171E+03  0.61208505451E+03 0.  0.
        4    1    3    3  502    0 -0.10153961351E+03 -0.19386111844E+02 -0.65281609415E+03  0.66095126910E+03  0.12699999809E+01 0.  1.
       -4    1    3    3    0  502  0.10153961351E+03  0.19386111844E+02  0.11443582270E+03  0.15421830261E+03  0.12699999809E+01 0. -1.
</event>
<event>
 5   0  0.5491236E-03  0.5980353E+03  0.7818609E-02  0.9909491E-01
       -1   -1    0    0    0  501  0.00000000000E+00  0.00000000000E+00  0.70502758298E+02  0.70502758479E+02  0.50400001928E-02 0.  1.
        1   -1    0    0  501    0  0.00000000000E+00  0.00000000000E+00 -0.12681993737E+04  0.12681993737E+04  0.50400001928E-02 0. -1.
    10030    2    1    2    0    0  0.00000000000E+00  0.00000000000E+00 -0.11976966154E+04  0.13387021322E+04  0.59803529677E+03 0.  0.
        3    1    3    3  502    0 -0.58453344969E+02  0.22166409591E+03 -0.16908087641E+03  0.28485104515E+03  0.10100000352E+00 0. -1.
       -3    1    3    3    0  502  0.58453344969E+02 -0.22166409591E+03 -0.10286157390E+04  0.10538510870E+04  0.10100000352E+00 0.  1.
</event>
<event>
 5   0  0.5503975E-03  0.5995385E+03  0.7818609E-02  0.9906364E-01
       -1   -1    0    0    0  501  0.00000000000E+00  0.00000000000E+00  0.58279362434E+02  0.58279362652E+02  0.50400001928E-02 0. -1.
        1   -1    0    0  501    0  0.00000000000E+00  0.00000000000E+00 -0.15419113354E+04  0.15419113354E+04  0.50400001928E-02 0.  1.
    10030    2    1    2    0    0  0.00000000000E+00  0.00000000000E+00 -0.14836319729E+04  0.16001906980E+04  0.59953852165E+03 0.  0.
        4    1    3    3  502    0 -0.68122893450E+01 -0.85617108067E+02  0.24729028590E+02  0.89385872680E+02  0.12699999809E+01 0. -1.
       -4    1    3    3    0  502  0.68122893450E+01  0.85617108067E+02 -0.15083610015E+04  0.15108048253E+04  0.12699999809E+01 0.  1.
</event>
<event>
 5   0  0.9866317E-03  0.6012641E+03  0.7818609E-02  0.9902787E-01
        2   -1    0    0  501    0  0.00000000000E+00  0.00000000000E+00  0.13253975804E+04  0.13253975804E+04  0.25500000920E-02 0. -1.
       -2   -1    0    0    0  501  0.00000000000E+00  0.00000000000E+00 -0.68190572565E+02  0.68190572612E+02  0.25500000920E-02 0.  1.
    10030    2    1    2    0    0  0.00000000000E+00  0.00000000000E+00  0.12572070078E+04  0.13935881530E+04  0.60126406816E+03 0.  0.
        1    1    3    3  502    0 -0.17379602486E+02  0.54381210946E+02 -0.55510938924E+02  0.79629335374E+02  0.50400001928E-02 0.  1.
       -1    1    3    3    0  502  0.17379602486E+02 -0.54381210946E+02  0.13127179467E+04  0.13139588176E+04  0.50400001928E-02 0. -1.
</event>
<event>
 5   0  0.5503975E-03  0.6004205E+03  0.7818609E-02  0.9904534E-01
        1   -1    0    0  501    0  0.00000000000E+00  0.00000000000E+00  0.63389416808E+03  0.63389416810E+03  0.50400001928E-02 0.  1.
       -1   -1    0    0    0  501  0.00000000000E+00  0.00000000000E+00 -0.14217863611E+03  0.14217863620E+03  0.50400001928E-02 0. -1.
    10030    2    1    2    0    0  0.00000000000E+00  0.00000000000E+00  0.49171553196E+03  0.77607280430E+03  0.60042054695E+03 0.  0.
        4    1    3    3  502    0 -0.28477167445E+03  0.79804702939E+02  0.31253246294E+03  0.43028112958E+03  0.12699999809E+01 0. -1.
       -4    1    3    3    0  502  0.28477167445E+03 -0.79804702939E+02  0.17918306903E+03  0.34579167472E+03  0.12699999809E+01 0.  1.
</event>
<event>
 5   0  0.9681801E-03  0.6006227E+03  0.7818609E-02  0.9904115E-01
        2   -1    0    0  501    0  0.00000000000E+00  0.00000000000E+00  0.76652864303E+03  0.76652864304E+03  0.25500000920E-02 0.  1.
       -2   -1    0    0    0  501  0.00000000000E+00  0.00000000000E+00 -0.11765628076E+03  0.11765628079E+03  0.25500000920E-02 0. -1.
    10030    2    1    2    0    0  0.00000000000E+00  0.00000000000E+00  0.64887236227E+03  0.88418492383E+03  0.60062270770E+03 0.  0.
        4    1    3    3  502    0  0.15582255540E+03  0.20009012023E+03  0.87665687074E+02  0.26833488513E+03  0.12699999809E+01 0.  1.
       -4    1    3    3    0  502 -0.15582255540E+03 -0.20009012023E+03  0.56120667519E+03  0.61585003870E+03  0.12699999809E+01 0. -1.
</event>
<event>
 5   0  0.9571790E-03  0.6001997E+03  0.7818609E-02  0.9904992E-01
       -2   -1    0    0    0  501  0.00000000000E+00  0.00000000000E+00  0.14507880994E+03  0.14507880996E+03  0.25500000920E-02 0. -1.
        2   -1    0    0  501    0  0.00000000000E+00  0.00000000000E+00 -0.62076544478E+03  0.62076544478E+03  0.25500000920E-02 0.  1.
    10030    2    1    2    0    0  0.00000000000E+00  0.00000000000E+00 -0.47568663484E+03  0.76584425474E+03  0.60019967340E+03 0.  0.
        5    1    3    3  502    0  0.19903189510E+03  0.19676559128E+03 -0.37590573271E+03  0.46867643749E+03  0.46999998093E+01 0.  1.
       -5    1    3    3    0  502 -0.19903189510E+03 -0.19676559128E+03 -0.99780902133E+02  0.29716781725E+03  0.46999998093E+01 0. -1.
</event>
<event>
 5   0  0.9571790E-03  0.6004852E+03  0.7818609E-02  0.9904400E-01
       -2   -1    0    0    0  501  0.00000000000E+00  0.00000000000E+00  0.20744706865E+03  0.20744706867E+03  0.25500000920E-02 0. -1.
        2   -1    0    0  501    0  0.00000000000E+00  0.00000000000E+00 -0.43454757639E+03  0.43454757639E+03  0.25500000920E-02 0.  1.
    10030    2    1    2    0    0  0.00000000000E+00  0.00000000000E+00 -0.22710050773E+03  0.64199464506E+03  0.60048520688E+03 0.  0.
        5    1    3    3  502    0 -0.20423773691E+03 -0.14701925015E+03  0.61459639821E+02  0.25908896236E+03  0.46999998093E+01 0. -1.
       -5    1    3    3    0  502  0.20423773691E+03  0.14701925015E+03 -0.28856014755E+03  0.38290568270E+03  0.46999998093E+01 0.  1.
</event>
<event>
 5   0  0.5653633E-03  0.5992916E+03  0.7818609E-02  0.9906877E-01
       -1   -1    0    0    0  501  0.00000000000E+00  0.00000000000E+00  0.36860316561E+03  0.36860316565E+03  0.50400001928E-02 0.  1.
        1   -1    0    0  501    0  0.00000000000E+00  0.00000000000E+00 -0.24358878498E+03  0.24358878504E+03  0.50400001928E-02 0. -1.
    10030    2    1    2    0    0  0.00000000000E+00  0.00000000000E+00  0.12501438063E+03  0.61219195068E+03  0.59929157271E+03 0.  0.
        2    1    3    3  502    0  0.18295942775E+02 -0.23746282269E+03  0.24825721137E+03  0.34402758128E+03  0.25500000920E-02 0.  1.
       -2    1    3    3    0  502 -0.18295942775E+02  0.23746282269E+03 -0.12324283074E+03  0.26816436940E+03  0.25500000920E-02 0. -1.
</event>
<event>
 5   0  0.5503975E-03  0.5984250E+03  0.7818609E-02  0.9908679E-01
       -1   -1    0    0    0  501  0.00000000000E+00  0.00000000000E+00  0.13054375756E+03  0.13054375766E+03  0.50400001928E-02 0.  1.
        1   -1    0    0  501    0  0.00000000000E+00  0.00000000000E+00 -0.68580923567E+03  0.68580923568E+03  0.50400001928E-02 0. -1.
    10030    2    1    2    0    0  0.00000000000E+00  0.00000000000E+00 -0.55526547810E+03  0.81635299334E+03  0.59842498157E+03 0.  0.
        4    1    3    3  502    0 -0.64044614608E+01  0.17893287048E+03  0.49393991405E+02  0.18574005640E+03  0.12699999809E+01 0.  1.
       -4    1    3    3    0  502  0.64044614608E+01 -0.17893287048E+03 -0.60465946951E+03  0.63061293694E+03  0.12699999809E+01 0. -1.
</event>
<event>
 5   0  0.3794375E-03  0.6000947E+03  0.7818609E-02  0.9905210E-01
       -3   -1    0    0    0  501  0.00000000000E+00  0.00000000000E+00  0.78465338037E+03  0.78465338687E+03  0.10100000352E+00 0. -1.
        3   -1    0    0  501    0  0.00000000000E+00  0.00000000000E+00 -0.11473652245E+03  0.11473656690E+03  0.10100000352E+00 0.  1.
    10030    2    1    2    0    0  0.00000000000E+00  0.00000000000E+00  0.66991685792E+03  0.89938995377E+03  0.60009473620E+03 0.  0.
        2    1    3    3  502    0 -0.13669989084E+03 -0.12187371833E+02 -0.64937475340E+02  0.15182973325E+03  0.25500000920E-02 0.  1.
       -2    1    3    3    0  502  0.13669989084E+03  0.12187371833E+02  0.73485433326E+03  0.74756022052E+03  0.25500000920E-02 0. -1.
</event>
<event>
 5   0  0.5785798E-03  0.5987619E+03  0.7818609E-02  0.9907978E-01
       -1   -1    0    0    0  501  0.00000000000E+00  0.00000000000E+00  0.36844857903E+02  0.36844858248E+02  0.50400001928E-02 0. -1.
        1   -1    0    0  501    0  0.00000000000E+00  0.00000000000E+00 -0.24326043373E+04  0.24326043373E+04  0.50400001928E-02 0.  1.
    10030    2    1    2    0    0  0.00000000000E+00  0.00000000000E+00 -0.23957594794E+04  0.24694491956E+04  0.59876192790E+03 0.  0.
        1    1    3    3  502    0  0.20142974159E+03  0.16816897270E+03 -0.60343942762E+03  0.65802271010E+03  0.50400001928E-02 0. -1.
       -1    1    3    3    0  502 -0.20142974159E+03 -0.16816897270E+03 -0.17923200518E+04  0.18114264855E+04  0.50400001928E-02 0.  1.
</event>
<event>
 5   0  0.9571790E-03  0.6008921E+03  0.7818609E-02  0.9903557E-01
        2   -1    0    0  501    0  0.00000000000E+00  0.00000000000E+00  0.12167020383E+04  0.12167020383E+04  0.25500000920E-02 0.  1.
       -2   -1    0    0    0  501  0.00000000000E+00  0.00000000000E+00 -0.74190583880E+02  0.74190583923E+02  0.25500000920E-02 0. -1.
    10030    2    1    2    0    0  0.00000000000E+00  0.00000000000E+00  0.11425114544E+04  0.12908926222E+04  0.60089211896E+03 0.  0.
        5    1    3    3  502    0  0.62955132924E+02 -0.21744237036E+03  0.14699516865E+03  0.26995222317E+03  0.46999998093E+01 0. -1.
       -5    1    3    3    0  502 -0.62955132924E+02  0.21744237036E+03  0.99551628574E+03  0.10209403990E+04  0.46999998093E+01 0.  1.
</event>
<event>
 5   0  0.9866317E-03  0.5998567E+03  0.7818609E-02  0.9905703E-01
        2   -1    0    0  501    0  0.00000000000E+00  0.00000000000E+00  0.21340598581E+04  0.21340598581E+04  0.25500000920E-02 0. -1.
       -2   -1    0    0    0  501  0.00000000000E+00  0.00000000000E+00 -0.42153000465E+02  0.42153000542E+02  0.25500000920E-02 0.  1.
    10030    2    1    2    0    0  0.00000000000E+00  0.00000000000E+00  0.20919068577E+04  0.21762128587E+04  0.59985673715E+03 0.  0.
        1    1    3    3  502    0  0.35957229566E+00 -0.70310344595E+02  0.21037384245E+04  0.21049130701E+04  0.50400001928E-02 0. -1.
       -1    1    3    3    0  502 -0.35957229566E+00  0.70310344595E+02 -0.11831566866E+02  0.71299788563E+02  0.50400001928E-02 0.  1.
</event>
<event>
 5   0  0.9866317E-03  0.6015590E+03  0.7818609E-02  0.9902177E-01
        2   -1    0    0  501    0  0.00000000000E+00  0.00000000000E+00  0.16001995728E+04  0.16001995728E+04  0.25500000920E-02 0.  1.
       -2   -1    0    0    0  501  0.00000000000E+00  0.00000000000E+00 -0.56535635427E+02  0.56535635485E+02  0.25500000920E-02 0. -1.
    10030    2    1    2    0    0  0.00000000000E+00  0.00000000000E+00  0.15436639373E+04  0.16567352082E+04  0.60155897369E+03 0.  0.
        1    1    3    3  502    0 -0.98410315338E+02 -0.83095079190E+02  0.23257254308E+02  0.13088270418E+03  0.50400001928E-02 0. -1.
       -1    1    3    3    0  502  0.98410315338E+02  0.83095079190E+02  0.15204066830E+04  0.15258525041E+04  0.50400001928E-02 0.  1.
</event>
<event>
 5   0  0.9866317E-03  0.6008783E+03  0.7818609E-02  0.9903585E-01
       -2   -1    0    0    0  501  0.00000000000E+00  0.00000000000E+00  0.14388933428E+03  0.14388933431E+03  0.25500000920E-02 0.  1.
        2   -1    0    0  501    0  0.00000000000E+00  0.00000000000E+00 -0.62731331703E+03  0.62731331703E+03  0.25500000920E-02 0. -1.
    10030    2    1    2    0    0  0.00000000000E+00  0.00000000000E+00 -0.48342398274E+03  0.77120265134E+03  0.60087834238E+03 0.  0.
        1    1    3    3  502    0 -0.88323165287E+02 -0.55273988322E+02  0.11995820785E+03  0.15889042440E+03  0.50400001928E-02 0.  1.
       -1    1    3    3    0  502  0.88323165287E+02  0.55273988322E+02 -0.60338219059E+03  0.61231222694E+03  0.50400001928E-02 0. -1.
</event>
<event>
 5   0  0.5653633E-03  0.5991033E+03  0.7818609E-02  0.9907268E-01
        1   -1    0    0  501    0  0.00000000000E+00  0.00000000000E+00  0.40140191515E+03  0.40140191518E+03  0.50400001928E-02 0. -1.
       -1   -1    0    0    0  501  0.00000000000E+00  0.00000000000E+00 -0.22354448958E+03  0.22354448963E+03  0.50400001928E-02 0.  1.
    10030    2    1    2    0    0  0.00000000000E+00  0.00000000000E+00  0.17785742557E+03  0.62494640481E+03  0.59910328413E+03 0.  0.
        2    1    3    3  502    0 -0.16075466306E+03  0.19178327613E+03 -0.82819494182E+02  0.26359430063E+03  0.25500000920E-02 0.  1.
       -2    1    3    3    0  502  0.16075466306E+03 -0.19178327613E+03  0.26067691975E+03  0.36135210418E+03  0.25500000920E-02 0. -1.
</event>
<event>
 5   0  0.5574736E-03  0.6013594E+03  0.7818609E-02  0.9902590E-01
       -1   -1    0    0    0  501  0.00000000000E+00  0.00000000000E+00  0.12593948336E+03  0.12593948346E+03  0.50400001928E-02 0.  1.
        1   -1    0    0  501    0  0.00000000000E+00  0.00000000000E+00 -0.71787084729E+03  0.71787084730E+03  0.50400001928E-02 0. -1.
    10030    2    1    2    0    0  0.00000000000E+00  0.00000000000E+00 -0.59193136393E+03  0.84381033076E+03  0.60135940560E+03 0.  0.
        5    1    3    3  502    0  0.18859113244E+03 -0.59172137830E+01 -0.62439342745E+03  0.65229661266E+03  0.46999998093E+01 0. -1.
       -5    1    3    3    0  502 -0.18859113244E+03  0.59172137830E+01  0.32462063518E+02  0.19151371810E+03  0.46999998093E+01 0.  1.
</event>
<event>
 5   0  0.9571790E-03  0.5978464E+03  0.7818609E-02  0.9909884E-01
        2   -1    0    0  501    0  0.00000000000E+00  0.00000000000E+00  0.25470498880E+04  0.25470498880E+04  0.25500000920E-02 0.  1.
       -2   -1    0    0    0  501  0.00000000000E+00  0.00000000000E+00 -0.35081789565E+02  0.35081789658E+02  0.25500000920E-02 0. -1.
    10030    2    1    2    0    0  0.00000000000E+00  0.00000000000E+00  0.25119680984E+04  0.25821316777E+04  0.59784636255E+03 0.  0.
        5    1    3    3  502    0 -0.10436271419E+03  0.26667001860E+03  0.88624404622E+03  0.93137268287E+03  0.46999998093E+01 0. -1.
       -5    1    3    3    0  502  0.10436271419E+03 -0.26667001860E+03  0.16257240522E+04  0.16507589948E+04  0.46999998093E+01 0.  1.
</event>
<event>
 5   0  0.5503975E-03  0.5987356E+03  0.7818609E-02  0.9908033E-01
        1   -1    0    0  501    0  0.00000000000E+00  0.00000000000E+00  0.26136472449E+03  0.26136472454E+03  0.50400001928E-02 0. -1.
       -1   -1    0    0    0  501  0.00000000000E+00  0.00000000000E+00 -0.34289664167E+03  0.34289664171E+03  0.50400001928E-02 0.  1.
    10030    2    1    2    0    0  0.00000000000E+00  0.00000000000E+00 -0.81531917180E+02  0.60426136625E+03  0.59873562214E+03 0.  0.
        4    1    3    3  502    0 -0.26947549666E+03  0.45300085317E+02 -0.16416595719E+03  0.31878082663E+03  0.12699999809E+01 0. -1.
       -4    1    3    3    0  502  0.26947549666E+03 -0.45300085317E+02  0.82634040009E+02  0.28548053961E+03  0.12699999809E+01 0.  1.
</event>
<event>
 5   0  0.9530666E-03  0.5999049E+03  0.7818609E-02  0.9905603E-01
       -2   -1    0    0    0  501  0.00000000000E+00  0.00000000000E+00  0.44617068003E+03  0.44617068004E+03  0.25500000920E-02 0. -1.
        2   -1    0    0  501    0  0.00000000000E+00  0.00000000000E+00 -0.20165260311E+03  0.20165260313E+03  0.25500000920E-02 0.  1.
    10030    2    1    2    0    0  0.00000000000E+00  0.00000000000E+00  0.24451807692E+03  0.64782328317E+03  0.59990492269E+03 0.  0.
        2    1    3    3  502    0  0.22744023086E+03  0.32683996705E+02 -0.85947712541E+02  0.24532491017E+03  0.25500000920E-02 0. -1.
       -2    1    3    3    0  502 -0.22744023086E+03 -0.32683996705E+02  0.33046578946E+03  0.40249837300E+03  0.25500000920E-02 0.  1.
</event>
<event>
 5   0  0.5785798E-03  0.6011221E+03  0.7818609E-02  0.9903081E-01
       -1   -1    0    0    0  501  0.00000000000E+00  0.00000000000E+00  0.49556828698E+02  0.49556828955E+02  0.50400001928E-02 0. -1.
        1   -1    0    0  501    0  0.00000000000E+00  0.00000000000E+00 -0.18228959780E+04  0.18228959780E+04  0.50400001928E-02 0.  1.
    10030    2    1    2    0    0  0.00000000000E+00  0.00000000000E+00 -0.17733391493E+04  0.18724528070E+04  0.60112209730E+03 0.  0.
        1    1    3    3  502    0  0.14599552621E+03 -0.25237958145E+03 -0.65932674232E+03  0.72091740163E+03  0.50400001928E-02 0. -1.
       -1    1    3    3    0  502 -0.14599552621E+03  0.25237958145E+03 -0.11140124070E+04  0.11515354054E+04  0.50400001928E-02 0.  1.
</event>
<event>
 5   0  0.9428629E-03  0.6018296E+03  0.7818609E-02  0.9901618E-01
       -2   -1    0    0    0  501  0.00000000000E+00  0.00000000000E+00  0.30094385630E+03  0.30094385631E+03  0.25500000920E-02 0. -1.
        2   -1    0    0  501    0  0.00000000000E+00  0.00000000000E+00 -0.30088571646E+03  0.30088571647E+03  0.25500000920E-02 0.  1.
    10030    2    1    2    0    0  0.00000000000E+00  0.00000000000E+00  0.58139837434E-01  0.60182957278E+03  0.60182956997E+03 0.  0.
        3    1    3    3  502    0 -0.78108755812E+02 -0.17044661801E+03 -0.23533590371E+03  0.30089204892E+03  0.10100000352E+00 0.  1.
       -3    1    3    3    0  502  0.78108755812E+02  0.17044661801E+03  0.23539404355E+03  0.30093752386E+03  0.10100000352E+00 0. -1.
</event>
<event>
 5   0  0.3794375E-03  0.5982634E+03  0.7818609E-02  0.9909016E-01
       -4   -1    0    0    0  501  0.00000000000E+00  0.00000000000E+00  0.17516858523E+03  0.17517318902E+03  0.12699999809E+01 0. -1.
        4   -1    0    0  501    0  0.00000000000E+00  0.00000000000E+00 -0.51080875784E+03  0.51081033661E+03  0.12699999809E+01 0.  1.
    10030    2    1    2    0    0  0.00000000000E+00  0.00000000000E+00 -0.33564017262E+03  0.68598352563E+03  0.59826338009E+03 0.  0.
        2    1    3    3  502    0 -0.13578445358E+03  0.20919681878E+03 -0.35720082934E+03  0.43565256720E+03  0.25500000920E-02 0.  1.
       -2    1    3    3    0  502  0.13578445358E+03 -0.20919681878E+03  0.21560656721E+02  0.25033095843E+03  0.25500000920E-02 0. -1.
</event>
<event>
 5   0  0.5785798E-03  0.5997625E+03  0.7818609E-02  0.9905899E-01
        1   -1    0    0  501    0  0.00000000000E+00  0.00000000000E+00  0.77648700281E+03  0.77648700283E+03  0.50400001928E-02 0. -1.
       -1   -1    0    0    0  501  0.00000000000E+00  0.00000000000E+00 -0.11581488576E+03  0.11581488587E+03  0.50400001928E-02 0.  1.
    10030    2    1    2    0    0  0.00000000000E+00  0.00000000000E+00  0.66067211705E+03  0.89230188870E+03  0.59976246492E+03 0.  0.
        1    1    3    3  502    0 -0.24405552902E+03 -0.16882558081E+03  0.26611077433E+03  0.39859769470E+03  0.50400001928E-02 0.  1.
       -1    1    3    3    0  502  0.24405552902E+03  0.16882558081E+03  0.39456134272E+03  0.49370419400E+03  0.50400001928E-02 0. -1.
</event>
<event>
 5   0  0.5503975E-03  0.6012386E+03  0.7818609E-02  0.9902840E-01
       -1   -1    0    0    0  501  0.00000000000E+00  0.00000000000E+00  0.11366952921E+03  0.11366952932E+03  0.50400001928E-02 0.  1.
        1   -1    0    0  501    0  0.00000000000E+00  0.00000000000E+00 -0.79504120773E+03  0.79504120775E+03  0.50400001928E-02 0. -1.
    10030    2    1    2    0    0  0.00000000000E+00  0.00000000000E+00 -0.68137167852E+03  0.90871073707E+03  0.60123858773E+03 0.  0.
        4    1    3    3  502    0  0.26328717410E+03 -0.26801628242E+02 -0.12517574287E+03  0.29276106781E+03  0.12699999809E+01 0. -1.
       -4    1    3    3    0  502 -0.26328717410E+03  0.26801628242E+02 -0.55619593565E+03  0.61594966926E+03  0.12699999809E+01 0.  1.
</event>
<event>
 5   0  0.5574736E-03  0.5997931E+03  0.7818609E-02  0.9905835E-01
        1   -1    0    0  501    0  0.00000000000E+00  0.00000000000E+00  0.22536599644E+04  0.22536599644E+04  0.50400001928E-02 0. -1.
       -1   -1    0    0    0  501  0.00000000000E+00  0.00000000000E+00 -0.39907497618E+02  0.39907497936E+02  0.50400001928E-02 0.  1.
    10030    2    1    2    0    0  0.00000000000E+00  0.00000000000E+00  0.22137524667E+04  0.22935674623E+04  0.59979306442E+03 0.  0.
        5    1    3    3  502    0 -0.65148842930E+02  0.20209608048E+03  0.19165086220E+04  0.19282413194E+04  0.46999998093E+01 0. -1.
       -5    1    3    3    0  502  0.65148842930E+02 -0.20209608048E+03  0.29724384471E+03  0.36532614292E+03  0.46999998093E+01 0.  1.
</event>
<event>
 5   0  0.5574736E-03  0.5999141E+03  0.7818609E-02  0.9905584E-01
        1   -1    0    0  501    0  0.00000000000E+00  0.00000000000E+00  0.10604606815E+03  0.10604606827E+03  0.50400001928E-02 0.  1.
       -1   -1    0    0    0  501  0.00000000000E+00  0.00000000000E+00 -0.84844489094E+03  0.84844489095E+03  0.50400001928E-02 0. -1.
    10030    2    1    2    0    0  0.00000000000E+00  0.00000000000E+00 -0.74239882279E+03  0.95449095922E+03  0.59991414315E+03 0.  0.
        5    1    3    3  502    0  0.12510754818E+03 -0.21987209706E+03 -0.11486558092E+03  0.27787016636E+03  0.46999998093E+01 0.  1.
       -5    1    3    3    0  502 -0.12510754818E+03  0.21987209706E+03 -0.62753324187E+03  0.67662079286E+03  0.46999998093E+01 0. -1.
</event>
<event>
 5   0  0.9571790E-03  0.5962701E+03  0.7818609E-02  0.9913175E-01
        2   -1    0    0  501    0  0.00000000000E+00  0.00000000000E+00  0.96592539227E+03  0.96592539228E+03  0.25500000920E-02 0.  1.
       -2   -1    0    0    0  501  0.00000000000E+00  0.00000000000E+00 -0.92020054113E+02  0.92020054148E+02  0.25500000920E-02 0. -1.
    10030    2    1    2    0    0  0.00000000000E+00  0.00000000000E+00  0.87390533816E+03  0.10579454464E+04  0.59627009614E+03 0.  0.
        5    1    3    3  502    0 -0.24000467790E+02  0.58436116531E+00  0.96414161426E+03  0.96445192015E+03  0.46999998093E+01 0.  1.
       -5    1    3    3    0  502  0.24000467790E+02 -0.58436116531E+00 -0.90236276102E+02  0.93493526273E+02  0.46999998093E+01 0. -1.
</event>
<event>
 5   0  0.9571790E-03  0.5998221E+03  0.7818609E-02  0.9905775E-01
       -2   -1    0    0    0  501  0.00000000000E+00  0.00000000000E+00  0.20917260202E+03  0.20917260204E+03  0.25500000920E-02 0.  1.
        2   -1    0    0  501    0  0.00000000000E+00  0.00000000000E+00 -0.43001153903E+03  0.43001153904E+03  0.25500000920E-02 0. -1.
    10030    2    1    2    0    0  0.00000000000E+00  0.00000000000E+00 -0.22083893701E+03  0.63918414108E+03  0.59982208204E+03 0.  0.
        5    1    3    3  502    0  0.13492586922E+03  0.18860449629E+03 -0.31302208751E+03  0.38959153414E+03  0.46999998093E+01 0. -1.
       -5    1    3    3    0  502 -0.13492586922E+03 -0.18860449629E+03  0.92183150496E+02  0.24959260694E+03  0.46999998093E+01 0.  1.
</event>
<event>
 5   0  0.9571790E-03  0.6008365E+03  0.7818609E-02  0.9903672E-01
        2   -1    0    0  501    0  0.00000000000E+00  0.00000000000E+00  0.56473620308E+03  0.56473620308E+03  0.25500000920E-02 0.  1.
       -2   -1    0    0    0  501  0.00000000000E+00  0.00000000000E+00 -0.15981109352E+03  0.15981109354E+03  0.25500000920E-02 0. -1.
    10030    2    1    2    0    0  0.00000000000E+00  0.00000000000E+00  0.40492510956E+03  0.72454729662E+03  0.60083645087E+03 0.  0.
        5    1    3    3  502    0 -0.17998845057E+03 -0.58289050880E+02 -0.78890628565E+02  0.20503481915E+03  0.46999998093E+01 0. -1.
       -5    1    3    3    0  502  0.17998845057E+03  0.58289050880E+02  0.48381573812E+03  0.51951247747E+03  0.46999998093E+01 0.  1.
</event>
<event>
 5   0  0.9571790E-03  0.6008459E+03  0.7818609E-02  0.9903653E-01
       -2   -1    0    0    0  501  0.00000000000E+00  0.00000000000E+00  0.10998369236E+03  0.10998369239E+03  0.25500000920E-02 0. -1.
        2   -1    0    0  501    0  0.00000000000E+00  0.00000000000E+00 -0.82061217912E+03  0.82061217912E+03  0.25500000920E-02 0.  1.
    10030    2    1    2    0    0  0.00000000000E+00  0.00000000000E+00 -0.71062848676E+03  0.93059587151E+03  0.60084592858E+03 0.  0.
        5    1    3    3  502    0  0.24324211025E+03 -0.17252937587E+03 -0.41113067554E+03  0.50792089158E+03  0.46999998093E+01 0.  1.
       -5    1    3    3    0  502 -0.24324211025E+03  0.17252937587E+03 -0.29949781122E+03  0.42267497993E+03  0.46999998093E+01 0. -1.
</event>
<event>
 5   0  0.5653633E-03  0.6004844E+03  0.7818609E-02  0.9904402E-01
       -1   -1    0    0    0  501  0.00000000000E+00  0.00000000000E+00  0.13600631656E+03  0.13600631665E+03  0.50400001928E-02 0.  1.
        1   -1    0    0  501    0  0.00000000000E+00  0.00000000000E+00 -0.66280277497E+03  0.66280277499E+03  0.50400001928E-02 0. -1.
    10030    2    1    2    0    0  0.00000000000E+00  0.00000000000E+00 -0.52679645841E+03  0.79880909164E+03  0.60048435142E+03 0.  0.
        2    1    3    3  502    0  0.18776221605E+03  0.13194287032E+03 -0.58542002456E+01  0.22956010644E+03  0.25500000920E-02 0.  1.
       -2    1    3    3    0  502 -0.18776221605E+03 -0.13194287032E+03 -0.52094225817E+03  0.56924898520E+03  0.25500000920E-02 0. -1.
</event>
<event>
 5   0  0.9428629E-03  0.5998729E+03  0.7818609E-02  0.9905670E-01
        2   -1    0    0  501    0  0.00000000000E+00  0.00000000000E+00  0.22533201844E+03  0.22533201845E+03  0.25500000920E-02 0. -1.
       -2   -1    0    0    0  501  0.00000000000E+00  0.00000000000E+00 -0.39924146820E+03  0.39924146821E+03  0.25500000920E-02 0.  1.
    10030    2    1    2    0    0  0.00000000000E+00  0.00000000000E+00 -0.17390944976E+03  0.62457348666E+03  0.59987293948E+03 0.  0.
        3    1    3    3  502    0  0.74306551117E+02 -0.19504688583E+03  0.13731456393E+03  0.24984005059E+03  0.10100000352E+00 0. -1.
       -3    1    3    3    0  502 -0.74306551117E+02  0.19504688583E+03 -0.31122401369E+03  0.37473343607E+03  0.10100000352E+00 0.  1.
</event>
<event>
 5   0  0.9681801E-03  0.6003118E+03  0.7818609E-02  0.9904759E-01
       -2   -1    0    0    0  501  0.00000000000E+00  0.00000000000E+00  0.11322802895E+03  0.11322802898E+03  0.25500000920E-02 0. -1.
        2   -1    0    0  501    0  0.00000000000E+00  0.00000000000E+00 -0.79568248962E+03  0.79568248963E+03  0.25500000920E-02 0.  1.
    10030    2    1    2    0    0  0.00000000000E+00  0.00000000000E+00 -0.68245446068E+03  0.90891051860E+03  0.60031178560E+03 0.  0.
        4    1    3    3  502    0  0.21725209977E+03  0.17665220708E+03 -0.50491058360E+03  0.57735672461E+03  0.12699999809E+01 0.  1.
       -4    1    3    3    0  502 -0.21725209977E+03 -0.17665220708E+03 -0.17754387708E+03  0.33155379399E+03  0.12699999809E+01 0. -1.
</event>
<event>
 5   0  0.9428629E-03  0.5999328E+03  0.7818609E-02  0.9905546E-01
       -2   -1    0    0    0  501  0.00000000000E+00  0.00000000000E+00  0.51001155119E+03  0.51001155119E+03  0.25500000920E-02 0. -1.
        2   -1    0    0  501    0  0.00000000000E+00  0.00000000000E+00 -0.17642705232E+03  0.17642705233E+03  0.25500000920E-02 0.  1.
    10030    2    1    2    0    0  0.00000000000E+00  0.00000000000E+00  0.33358449887E+03  0.68643860353E+03  0.59993277834E+03 0.  0.
        3    1    3    3  502    0 -0.65475862674E+02  0.94206871420E+02  0.48391693100E+03  0.49733050331E+03  0.10100000352E+00 0. -1.
       -3    1    3    3    0  502  0.65475862674E+02 -0.94206871420E+02 -0.15033243213E+03  0.18910810021E+03  0.10100000352E+00 0.  1.
</event>
<event>
 5   0  0.3794375E-03  0.5995371E+03  0.7818609E-02  0.9906367E-01
       -4   -1    0    0    0  501  0.00000000000E+00  0.00000000000E+00  0.12375771481E+04  0.12375777997E+04  0.12699999809E+01 0. -1.
        4   -1    0    0  501    0  0.00000000000E+00  0.00000000000E+00 -0.72604351835E+02  0.72615458446E+02  0.12699999809E+01 0.  1.
    10030    2    1    2    0    0  0.00000000000E+00  0.00000000000E+00  0.11649727963E+04  0.13101932582E+04  0.59953711957E+03 0.  0.
        5    1    3    3  502    0 -0.23762404978E+03  0.17007039555E+03  0.43670642302E+03  0.52547475523E+03  0.46999998093E+01 0.  1.
       -5    1    3    3    0  502  0.23762404978E+03 -0.17007039555E+03  0.72826637323E+03  0.78471850294E+03  0.46999998093E+01 0. -1.
</event>
<event>
 5   0  0.9530666E-03  0.5997258E+03  0.7818609E-02  0.9905975E-01
        2   -1    0    0  501    0  0.00000000000E+00  0.00000000000E+00  0.11570021964E+04  0.11570021964E+04  0.25500000920E-02 0.  1.
       -2   -1    0    0    0  501  0.00000000000E+00  0.00000000000E+00 -0.77716143156E+02  0.77716143198E+02  0.25500000920E-02 0. -1.
    10030    2    1    2    0    0  0.00000000000E+00  0.00000000000E+00  0.10792860533E+04  0.12347183396E+04  0.59972576519E+03 0.  0.
        2    1    3    3  502    0 -0.26131561033E+03 -0.11073964094E+03  0.34036781301E+03  0.44316967904E+03  0.25500000920E-02 0.  1.
       -2    1    3    3    0  502  0.26131561033E+03  0.11073964094E+03  0.73891824027E+03  0.79154866060E+03  0.25500000920E-02 0. -1.
</event>
<event>
 5   0  0.5503975E-03  0.6001464E+03  0.7818609E-02  0.9905102E-01
        1   -1    0    0  501    0  0.00000000000E+00  0.00000000000E+00  0.46129644614E+03  0.46129644617E+03  0.50400001928E-02 0. -1.
       -1   -1    0    0    0  501  0.00000000000E+00  0.00000000000E+00 -0.19519754555E+03  0.19519754561E+03  0.50400001928E-02 0.  1.
    10030    2    1    2    0    0  0.00000000000E+00  0.00000000000E+00  0.26609890059E+03  0.65649399178E+03  0.60014642909E+03 0.  0.
        4    1    3    3  502    0 -0.23706170012E+03 -0.12689660659E+02 -0.67711478379E+02  0.24687189867E+03  0.12699999809E+01 0.  1.
       -4    1    3    3    0  502  0.23706170012E+03  0.12689660659E+02  0.33381037897E+03  0.40962209311E+03  0.12699999809E+01 0. -1.
</event>
<event>
 5   0  0.5653633E-03  0.5998929E+03  0.7818609E-02  0.9905628E-01
        1   -1    0    0  501    0  0.00000000000E+00  0.00000000000E+00  0.25176551078E+03  0.25176551083E+03  0.50400001928E-02 0. -1.
       -1   -1    0    0    0  501  0.00000000000E+00  0.00000000000E+00 -0.35734789735E+03  0.35734789738E+03  0.50400001928E-02 0.  1.
    10030    2    1    2    0    0  0.00000000000E+00  0.00000000000E+00 -0.10558238656E+03  0.60911340822E+03  0.59989291021E+03 0.  0.
        2    1    3    3  502    0  0.25149851912E+03  0.11521241420E+03 -0.17051491273E+03  0.32496267628E+03  0.25500000920E-02 0.  1.
       -2    1    3    3    0  502 -0.25149851912E+03 -0.11521241420E+03  0.64932526164E+02  0.28415073194E+03  0.25500000920E-02 0. -1.
</event>
<event>
 5   0  0.3794375E-03  0.6001828E+03  0.7818609E-02  0.9905027E-01
       -3   -1    0    0    0  501  0.00000000000E+00  0.00000000000E+00  0.12983940595E+04  0.12983940634E+04  0.10100000352E+00 0. -1.
        3   -1    0    0  501    0  0.00000000000E+00  0.00000000000E+00 -0.69358595001E+02  0.69358668539E+02  0.10100000352E+00 0.  1.
    10030    2    1    2    0    0  0.00000000000E+00  0.00000000000E+00  0.12290354645E+04  0.13677527320E+04  0.60018277450E+03 0.  0.
        5    1    3    3  502    0 -0.22155545247E+03 -0.17138360536E+03  0.36935291389E+03  0.46357612503E+03  0.46999998093E+01 0.  1.
       -5    1    3    3    0  502  0.22155545247E+03  0.17138360536E+03  0.85968255063E+03  0.90417660695E+03  0.46999998093E+01 0. -1.
</event>
<event>
 5   0  0.9681801E-03  0.5986678E+03  0.7818609E-02  0.9908174E-01
        2   -1    0    0  501    0  0.00000000000E+00  0.00000000000E+00  0.24772007224E+03  0.24772007225E+03  0.25500000920E-02 0.  1.
       -2   -1    0    0    0  501  0.00000000000E+00  0.00000000000E+00 -0.36170172909E+03  0.36170172910E+03  0.25500000920E-02 0. -1.
    10030    2    1    2    0    0  0.00000000000E+00  0.00000000000E+00 -0.11398165686E+03  0.60942180136E+03  0.59866778255E+03 0.  0.
        4    1    3    3  502    0 -0.66424062392E+02  0.32634419034E+02 -0.35223878805E+03  0.35993185199E+03  0.12699999809E+01 0. -1.
       -4    1    3    3    0  502  0.66424062392E+02 -0.32634419034E+02  0.23825713119E+03  0.24948994937E+03  0.12699999809E+01 0.  1.
</event>
<event>
 5   0  0.3794375E-03  0.5997889E+03  0.7818609E-02  0.9905844E-01
        3   -1    0    0  501    0  0.00000000000E+00  0.00000000000E+00  0.75373121826E+03  0.75373122503E+03  0.10100000352E+00 0.  1.
       -3   -1    0    0    0  501  0.00000000000E+00  0.00000000000E+00 -0.11932194359E+03  0.11932198634E+03  0.10100000352E+00 0. -1.
    10030    2    1    2    0    0  0.00000000000E+00  0.00000000000E+00  0.63440927467E+03  0.87305321137E+03  0.59978894796E+03 0.  0.
        3    1    3    3  502    0 -0.88452863824E+02  0.19649129760E+03  0.62080800295E+03  0.65714178522E+03  0.10100000352E+00 0.  1.
       -3    1    3    3    0  502  0.88452863824E+02 -0.19649129760E+03  0.13601271723E+02  0.21591142615E+03  0.10100000352E+00 0. -1.
</event>
<event>
 5   0  0.5491236E-03  0.6001288E+03  0.7818609E-02  0.9905139E-01
        1   -1    0    0  501    0  0.00000000000E+00  0.00000000000E+00  0.67285421819E+03  0.67285421821E+03  0.50400001928E-02 0. -1.
       -1   -1    0    0    0  501  0.00000000000E+00  0.00000000000E+00 -0.13381598009E+03  0.13381598019E+03  0.50400001928E-02 0.  1.
    10030    2    1    2    0    0  0.00000000000E+00  0.00000000000E+00  0.53903823810E+03  0.80667019839E+03  0.60012880854E+03 0.  0.
        3    1    3    3  502    0 -0.19171821594E+03  0.10338854669E+03  0.54693004484E+03  0.58870837438E+03  0.10100000352E+00 0. -1.
       -3    1    3    3    0  502  0.19171821594E+03 -0.10338854669E+03 -0.78918067450E+01  0.21796182401E+03  0.10100000352E+00 0.  1.
</event>
<event>
 5   0  0.3794375E-03  0.5981484E+03  0.7818609E-02  0.9909255E-01
        4   -1    0    0  501    0  0.00000000000E+00  0.00000000000E+00  0.24503015389E+03  0.24503344510E+03  0.12699999809E+01 0.  1.
       -4   -1    0    0    0  501  0.00000000000E+00  0.00000000000E+00 -0.36503138459E+03  0.36503359385E+03  0.12699999809E+01 0. -1.
    10030    2    1    2    0    0  0.00000000000E+00  0.00000000000E+00 -0.12000123070E+03  0.61006703895E+03  0.59814839015E+03 0.  0.
        3    1    3    3  502    0  0.15556016858E+03 -0.22391474916E+03 -0.18536682363E+03  0.32969326721E+03  0.10100000352E+00 0. -1.
       -3    1    3    3    0  502 -0.15556016858E+03  0.22391474916E+03  0.65365592929E+02  0.28037377174E+03  0.10100000352E+00 0.  1.
</event>
<event>
 5   0  0.9428629E-03  0.5992540E+03  0.7818609E-02  0.9906955E-01
        2   -1    0    0  501    0  0.00000000000E+00  0.00000000000E+00  0.63472765557E+03  0.63472765557E+03  0.25500000920E-02 0. -1.
       -2   -1    0    0    0  501  0.00000000000E+00  0.00000000000E+00 -0.14144071092E+03  0.14144071095E+03  0.25500000920E-02 0.  1.
    10030    2    1    2    0    0  0.00000000000E+00  0.00000000000E+00  0.49328694465E+03  0.77616836652E+03  0.59925397239E+03 0.  0.
        3    1    3    3  502    0 -0.99834681190E+02  0.19127556698E+03  0.51592250820E+03  0.55922209430E+03  0.10100000352E+00 0. -1.
       -3    1    3    3    0  502  0.99834681190E+02 -0.19127556698E+03 -0.22635563551E+02  0.21694627222E+03  0.10100000352E+00 0.  1.
</event>
<event>
 5   0  0.9428629E-03  0.6007534E+03  0.7818609E-02  0.9903844E-01
        2   -1    0    0  501    0  0.00000000000E+00  0.00000000000E+00  0.52947454851E+03  0.52947454852E+03  0.25500000920E-02 0. -1.
       -2   -1    0    0    0  501  0.00000000000E+00  0.00000000000E+00 -0.17040698825E+03  0.17040698827E+03  0.25500000920E-02 0.  1.
    10030    2    1    2    0    0  0.00000000000E+00  0.00000000000E+00  0.35906756026E+03  0.69988153679E+03  0.60075340424E+03 0.  0.
        3    1    3    3  502    0 -0.35460254762E+02  0.13475678331E+03  0.48954224106E+03  0.50898765829E+03  0.10100000352E+00 0. -1.
       -3    1    3    3    0  502  0.35460254762E+02 -0.13475678331E+03 -0.13047468080E+03  0.19089387850E+03  0.10100000352E+00 0.  1.
</event>
<event>
 5   0  0.9681801E-03  0.6011010E+03  0.7818609E-02  0.9903124E-01
       -2   -1    0    0    0  501  0.00000000000E+00  0.00000000000E+00  0.73794869049E+02  0.73794869093E+02  0.25500000920E-02 0. -1.
        2   -1    0    0  501    0  0.00000000000E+00  0.00000000000E+00 -0.12240771134E+04  0.12240771134E+04  0.25500000920E-02 0.  1.
    10030    2    1    2    0    0  0.00000000000E+00  0.00000000000E+00 -0.11502822444E+04  0.12978719825E+04  0.60110102419E+03 0.  0.
        4    1    3    3  502    0  0.17552040321E+02  0.29032713645E+03 -0.41168450132E+03  0.50406712034E+03  0.12699999809E+01 0. -1.
       -4    1    3    3    0  502 -0.17552040321E+02 -0.29032713645E+03 -0.73859774305E+03  0.79380486217E+03  0.12699999809E+01 0.  1.
</event>
<event>
 5   0  0.5785798E-03  0.6082687E+03  0.7818609E-02  0.9888398E-01
        1   -1    0    0  501    0  0.00000000000E+00  0.00000000000E+00  0.77030907770E+03  0.77030907772E+03  0.50400001928E-02 0. -1.
       -1   -1    0    0    0  501  0.00000000000E+00  0.00000000000E+00 -0.12007870400E+03  0.12007870411E+03  0.50400001928E-02 0.  1.
    10030    2    1    2    0    0  0.00000000000E+00  0.00000000000E+00  0.65023037370E+03  0.89038778182E+03  0.60826874253E+03 0.  0.
        1    1    3    3  502    0 -0.20265317714E+03  0.22244687397E+02 -0.52467886467E+01  0.20393789530E+03  0.50400001928E-02 0.  1.
       -1    1    3    3    0  502  0.20265317714E+03 -0.22244687397E+02  0.65547716235E+03  0.68644988652E+03  0.50400001928E-02 0. -1.
</event>
<event>
 5   0  0.9681801E-03  0.6009243E+03  0.7818609E-02  0.9903490E-01
        2   -1    0    0  501    0  0.00000000000E+00  0.00000000000E+00  0.13271205840E+03  0.13271205843E+03  0.25500000920E-02 0. -1.
       -2   -1    0    0    0  501  0.00000000000E+00  0.00000000000E+00 -0.68025098716E+03  0.68025098717E+03  0.25500000920E-02 0.  1.
    10030    2    1    2    0    0  0.00000000000E+00  0.00000000000E+00 -0.54753892876E+03  0.81296304559E+03  0.60092431719E+03 0.  0.
        4    1    3    3  502    0  0.27609282082E+03  0.10295213938E+03 -0.35322598613E+03  0.45999630313E+03  0.12699999809E+01 0.  1.
       -4    1    3    3    0  502 -0.27609282082E+03 -0.10295213938E+03 -0.19431294262E+03  0.35296674246E+03  0.12699999809E+01 0. -1.
</event>
<event>
 5   0  0.5785798E-03  0.5999623E+03  0.7818609E-02  0.9905484E-01
        1   -1    0    0  501    0  0.00000000000E+00  0.00000000000E+00  0.12960675828E+03  0.12960675838E+03  0.50400001928E-02 0. -1.
       -1   -1    0    0    0  501  0.00000000000E+00  0.00000000000E+00 -0.69432101116E+03  0.69432101118E+03  0.50400001928E-02 0.  1.
    10030    2    1    2    0    0  0.00000000000E+00  0.00000000000E+00 -0.56471425288E+03  0.82392776956E+03  0.59996231720E+03 0.  0.
        1    1    3    3  502    0 -0.21826124207E+03  0.19842940886E+03 -0.35728057767E+03  0.46331588716E+03  0.50400001928E-02 0.  1.
       -1    1    3    3    0  502  0.21826124207E+03 -0.19842940886E+03 -0.20743367521E+03  0.36061188240E+03  0.50400001928E-02 0. -1.
</event>
<event>
 5   0  0.9428629E-03  0.6012197E+03  0.7818609E-02  0.9902879E-01
       -2   -1    0    0    0  501  0.00000000000E+00  0.00000000000E+00  0.17703615381E+03  0.17703615383E+03  0.25500000920E-02 0.  1.
        2   -1    0    0  501    0  0.00000000000E+00  0.00000000000E+00 -0.51043963637E+03  0.51043963638E+03  0.25500000920E-02 0. -1.
    10030    2    1    2    0    0  0.00000000000E+00  0.00000000000E+00 -0.33340348257E+03  0.68747579021E+03  0.60121966030E+03 0.  0.
        3    1    3    3  502    0  0.23759811839E+03  0.14303831231E+02  0.43238573801E+02  0.24192364480E+03  0.10100000352E+00 0.  1.
       -3    1    3    3    0  502 -0.23759811839E+03 -0.14303831231E+02 -0.37664205637E+03  0.44555214541E+03  0.10100000352E+00 0. -1.
</event>
<event>
 5   0  0.9571790E-03  0.5996741E+03  0.7818609E-02  0.9906082E-01
        2   -1    0    0  501    0  0.00000000000E+00  0.00000000000E+00  0.34652409720E+03  0.34652409721E+03  0.25500000920E-02 0. -1.
       -2   -1    0    0    0  501  0.00000000000E+00  0.00000000000E+00 -0.25944016085E+03  0.25944016086E+03  0.25500000920E-02 0.  1.
    10030    2    1    2    0    0  0.00000000000E+00  0.00000000000E+00  0.87083936347E+02  0.60596425807E+03  0.59967413658E+03 0.  0.
        5    1    3    3  502    0  0.21138746952E+03  0.13855170093E+02 -0.17082362230E+03  0.27217536249E+03  0.46999998093E+01 0.  1.
       -5    1    3    3    0  502 -0.21138746952E+03 -0.13855170093E+02  0.25790755865E+03  0.33378889558E+03  0.46999998093E+01 0. -1.
</event>
<event>
 5   0  0.5503975E-03  0.5987722E+03  0.7818609E-02  0.9907957E-01
        1   -1    0    0  501    0  0.00000000000E+00  0.00000000000E+00  0.77333500743E+03  0.77333500745E+03  0.50400001928E-02 0. -1.
       -1   -1    0    0    0  501  0.00000000000E+00  0.00000000000E+00 -0.11590325264E+03  0.11590325275E+03  0.50400001928E-02 0.  1.
    10030    2    1    2    0    0  0.00000000000E+00  0.00000000000E+00  0.65743175478E+03  0.88923826020E+03  0.59877221980E+03 0.  0.
        4    1    3    3  502    0  0.19959313662E+03  0.51681890157E+02  0.65109604572E+03  0.68296128120E+03  0.12699999809E+01 0. -1.
       -4    1    3    3    0  502 -0.19959313662E+03 -0.51681890157E+02  0.63357090599E+01  0.20627697900E+03  0.12699999809E+01 0.  1.
</event>
<event>
 5   0  0.5785798E-03  0.6038351E+03  0.7818609E-02  0.9897481E-01
        1   -1    0    0  501    0  0.00000000000E+00  0.00000000000E+00  0.62096370234E+03  0.62096370236E+03  0.50400001928E-02 0. -1.
       -1   -1    0    0    0  501  0.00000000000E+00  0.00000000000E+00 -0.14679473172E+03  0.14679473181E+03  0.50400001928E-02 0.  1.
    10030    2    1    2    0    0  0.00000000000E+00  0.00000000000E+00  0.47416897061E+03  0.76775843417E+03  0.60383507727E+03 0.  0.
        1    1    3    3  502    0 -0.28336210049E+02 -0.17407453204E+03  0.54865782738E+03  0.57630746574E+03  0.50400001928E-02 0. -1.
       -1    1    3    3    0  502  0.28336210049E+02  0.17407453204E+03 -0.74488856765E+02  0.19145096843E+03  0.50400001928E-02 0.  1.
</event>
<event>
 5   0  0.9866317E-03  0.6077631E+03  0.7818609E-02  0.9889430E-01
        2   -1    0    0  501    0  0.00000000000E+00  0.00000000000E+00  0.61635963633E+02  0.61635963685E+02  0.25500000920E-02 0. -1.
       -2   -1    0    0    0  501  0.00000000000E+00  0.00000000000E+00 -0.14982159552E+04  0.14982159552E+04  0.25500000920E-02 0.  1.
    10030    2    1    2    0    0  0.00000000000E+00  0.00000000000E+00 -0.14365799916E+04  0.15598519189E+04  0.60776305967E+03 0.  0.
        1    1    3    3  502    0  0.21040763854E+03 -0.89151751983E+02 -0.12323979153E+04  0.12534049748E+04  0.50400001928E-02 0.  1.
       -1    1    3    3    0  502 -0.21040763854E+03  0.89151751983E+02 -0.20418207627E+03  0.30644694408E+03  0.50400001928E-02 0. -1.
</event>
<event>
 5   0  0.5653633E-03  0.5989287E+03  0.7818609E-02  0.9907631E-01
        1   -1    0    0  501    0  0.00000000000E+00  0.00000000000E+00  0.17893481982E+03  0.17893481989E+03  0.50400001928E-02 0.  1.
       -1   -1    0    0    0  501  0.00000000000E+00  0.00000000000E+00 -0.50118200079E+03  0.50118200082E+03  0.50400001928E-02 0. -1.
    10030    2    1    2    0    0  0.00000000000E+00  0.00000000000E+00 -0.32224718098E+03  0.68011682071E+03  0.59892874715E+03 0.  0.
        2    1    3    3  502    0 -0.65937687007E+02 -0.92387470106E+02 -0.47580912131E+03  0.48916003836E+03  0.25500000920E-02 0. -1.
       -2    1    3    3    0  502  0.65937687007E+02  0.92387470106E+02  0.15356194033E+03  0.19095678235E+03  0.25500000920E-02 0.  1.
</event>
<event>
 5   0  0.9571790E-03  0.5995256E+03  0.7818609E-02  0.9906391E-01
       -2   -1    0    0    0  501  0.00000000000E+00  0.00000000000E+00  0.33373313501E+03  0.33373313502E+03  0.25500000920E-02 0. -1.
        2   -1    0    0  501    0  0.00000000000E+00  0.00000000000E+00 -0.26925023231E+03  0.26925023232E+03  0.25500000920E-02 0.  1.
    10030    2    1    2    0    0  0.00000000000E+00  0.00000000000E+00  0.64482902703E+02  0.60298336734E+03  0.59952555954E+03 0.  0.
        5    1    3    3  502    0  0.14074707029E+03  0.72396122538E+02  0.28823784560E+03  0.32886787923E+03  0.46999998093E+01 0. -1.
       -5    1    3    3    0  502 -0.14074707029E+03 -0.72396122538E+02 -0.22375494290E+03  0.27411548811E+03  0.46999998093E+01 0.  1.
</event>
<event>
 5   0  0.5653633E-03  0.6004081E+03  0.7818609E-02  0.9904560E-01
       -1   -1    0    0    0  501  0.00000000000E+00  0.00000000000E+00  0.81444279619E+03  0.81444279621E+03  0.50400001928E-02 0.  1.
        1   -1    0    0  501    0  0.00000000000E+00  0.00000000000E+00 -0.11065537399E+03  0.11065537411E+03  0.50400001928E-02 0. -1.
    10030    2    1    2    0    0  0.00000000000E+00  0.00000000000E+00  0.70378742220E+03  0.92509817032E+03  0.60040810211E+03 0.  0.
        2    1    3    3  502    0 -0.27467126302E+03  0.25709451870E+02  0.16947397882E+03  0.32376952937E+03  0.25500000920E-02 0. -1.
       -2    1    3    3    0  502  0.27467126302E+03 -0.25709451870E+02  0.53431344337E+03  0.60132864095E+03  0.25500000920E-02 0.  1.
</event>
<event>
 5   0  0.5574736E-03  0.6007344E+03  0.7818609E-02  0.9903884E-01
       -1   -1    0    0    0  501  0.00000000000E+00  0.00000000000E+00  0.59925891349E+03  0.59925891351E+03  0.50400001928E-02 0.  1.
        1   -1    0    0  501    0  0.00000000000E+00  0.00000000000E+00 -0.15055335892E+03  0.15055335901E+03  0.50400001928E-02 0. -1.
    10030    2    1    2    0    0  0.00000000000E+00  0.00000000000E+00  0.44870555457E+03  0.74981227252E+03  0.60073435837E+03 0.  0.
        5    1    3    3  502    0  0.95956961563E+02 -0.25398938501E+03  0.64120960243E+02  0.27901959378E+03  0.46999998093E+01 0. -1.
       -5    1    3    3    0  502 -0.95956961563E+02  0.25398938501E+03  0.38458459432E+03  0.47079267874E+03  0.46999998093E+01 0.  1.
</event>
<event>
 5   0  0.5785798E-03  0.5996441E+03  0.7818609E-02  0.9906145E-01
        1   -1    0    0  501    0  0.00000000000E+00  0.00000000000E+00  0.15256431290E+03  0.15256431298E+03  0.50400001928E-02 0.  1.
       -1   -1    0    0    0  501  0.00000000000E+00  0.00000000000E+00 -0.58921546430E+03  0.58921546432E+03  0.50400001928E-02 0. -1.
    10030    2    1    2    0    0  0.00000000000E+00  0.00000000000E+00 -0.43665115140E+03  0.74177977730E+03  0.59964406943E+03 0.  0.
        1    1    3    3  502    0 -0.28185162141E+03 -0.99999421100E+02 -0.19199588415E+03  0.35539082750E+03  0.50400001928E-02 0.  1.
       -1    1    3    3    0  502  0.28185162141E+03  0.99999421100E+02 -0.24465526725E+03  0.38638894981E+03  0.50400001928E-02 0. -1.
</event>
<event>
 5   0  0.9571790E-03  0.6006339E+03  0.7818609E-02  0.9904092E-01
        2   -1    0    0  501    0  0.00000000000E+00  0.00000000000E+00  0.83484728535E+03  0.83484728535E+03  0.25500000920E-02 0. -1.
       -2   -1    0    0    0  501  0.00000000000E+00  0.00000000000E+00 -0.10803205416E+03  0.10803205419E+03  0.25500000920E-02 0.  1.
    10030    2    1    2    0    0  0.00000000000E+00  0.00000000000E+00  0.72681523118E+03  0.94287933954E+03  0.60063388904E+03 0.  0.
        5    1    3    3  502    0 -0.25719653246E+03 -0.11789269803E+03  0.20549225789E+03  0.34971117027E+03  0.46999998093E+01 0.  1.
       -5    1    3    3    0  502  0.25719653246E+03  0.11789269803E+03  0.52132297329E+03  0.59316816927E+03  0.46999998093E+01 0. -1.
</event>
<event>
 5   0  0.5653633E-03  0.6006978E+03  0.7818609E-02  0.9903959E-01
        1   -1    0    0  501    0  0.00000000000E+00  0.00000000000E+00  0.50367726323E+03  0.50367726326E+03  0.50400001928E-02 0.  1.
       -1   -1    0    0    0  501  0.00000000000E+00  0.00000000000E+00 -0.17910173230E+03  0.17910173237E+03  0.50400001928E-02 0. -1.
    10030    2    1    2    0    0  0.00000000000E+00  0.00000000000E+00  0.32457553093E+03  0.68277899563E+03  0.60069782886E+03 0.  0.
        2    1    3    3  502    0 -0.31553629567E+02 -0.11328187756E+03  0.47642319209E+03  0.49072138051E+03  0.25500000920E-02 0.  1.
       -2    1    3    3    0  502  0.31553629567E+02  0.11328187756E+03 -0.15184766116E+03  0.19205761512E+03  0.25500000920E-02 0. -1.
</event>
<event>
 5   0  0.5491236E-03  0.5997082E+03  0.7818609E-02  0.9906012E-01
        1   -1    0    0  501    0  0.00000000000E+00  0.00000000000E+00  0.74719943226E+03  0.74719943227E+03  0.50400001928E-02 0.  1.
       -1   -1    0    0    0  501  0.00000000000E+00  0.00000000000E+00 -0.12033262794E+03  0.12033262804E+03  0.50400001928E-02 0. -1.
    10030    2    1    2    0    0  0.00000000000E+00  0.00000000000E+00  0.62686680432E+03  0.86753206032E+03  0.59970816679E+03 0.  0.
        3    1    3    3  502    0 -0.19377254758E+03 -0.14061166988E+03  0.52272676430E+02  0.24505486081E+03  0.10100000352E+00 0. -1.
       -3    1    3    3    0  502  0.19377254758E+03  0.14061166988E+03  0.57459412789E+03  0.62247719951E+03  0.10100000352E+00 0.  1.
</event>
<event>
 5   0  0.9428629E-03  0.6045147E+03  0.7818609E-02  0.9896084E-01
       -2   -1    0    0    0  501  0.00000000000E+00  0.00000000000E+00  0.69771551775E+02  0.69771551822E+02  0.25500000920E-02 0. -1.
        2   -1    0    0  501    0  0.00000000000E+00  0.00000000000E+00 -0.13094091037E+04  0.13094091037E+04  0.25500000920E-02 0.  1.
    10030    2    1    2    0    0  0.00000000000E+00  0.00000000000E+00 -0.12396375519E+04  0.13791806555E+04  0.60451469827E+03 0.  0.
        3    1    3    3  502    0  0.20133778452E+03 -0.26892367693E+02 -0.11304772226E+04  0.11485812396E+04  0.10100000352E+00 0.  1.
       -3    1    3    3    0  502 -0.20133778452E+03  0.26892367693E+02 -0.10916032925E+03  0.23059941587E+03  0.10100000352E+00 0. -1.
</event>
<event>
 5   0  0.9571790E-03  0.6000170E+03  0.7818609E-02  0.9905371E-01
        2   -1    0    0  501    0  0.00000000000E+00  0.00000000000E+00  0.18611503590E+04  0.18611503590E+04  0.25500000920E-02 0. -1.
       -2   -1    0    0    0  501  0.00000000000E+00  0.00000000000E+00 -0.48359935184E+02  0.48359935251E+02  0.25500000920E-02 0.  1.
    10030    2    1    2    0    0  0.00000000000E+00  0.00000000000E+00  0.18127904238E+04  0.19095102943E+04  0.60001703574E+03 0.  0.
        5    1    3    3  502    0 -0.23028826810E+03 -0.10077499352E+03  0.38546066872E+03  0.46020680446E+03  0.46999998093E+01 0.  1.
       -5    1    3    3    0  502  0.23028826810E+03  0.10077499352E+03  0.14273297551E+04  0.14493034898E+04  0.46999998093E+01 0. -1.
</event>
<event>
 5   0  0.9866317E-03  0.6013450E+03  0.7818609E-02  0.9902620E-01
       -2   -1    0    0    0  501  0.00000000000E+00  0.00000000000E+00  0.14900147906E+03  0.14900147908E+03  0.25500000920E-02 0.  1.
        2   -1    0    0  501    0  0.00000000000E+00  0.00000000000E+00 -0.60673194429E+03  0.60673194430E+03  0.25500000920E-02 0. -1.
    10030    2    1    2    0    0  0.00000000000E+00  0.00000000000E+00 -0.45773046523E+03  0.75573342337E+03  0.60134501611E+03 0.  0.
        1    1    3    3  502    0 -0.19261009786E+03 -0.12717905545E+03  0.13300137510E+02  0.23119268074E+03  0.50400001928E-02 0.  1.
       -1    1    3    3    0  502  0.19261009786E+03  0.12717905545E+03 -0.47103060274E+03  0.52454074264E+03  0.50400001928E-02 0. -1.
</event>
<event>
 5   0  0.5503975E-03  0.6005979E+03  0.7818609E-02  0.9904166E-01
       -1   -1    0    0    0  501  0.00000000000E+00  0.00000000000E+00  0.45517755808E+03  0.45517755811E+03  0.50400001928E-02 0.  1.
        1   -1    0    0  501    0  0.00000000000E+00  0.00000000000E+00 -0.19811932231E+03  0.19811932237E+03  0.50400001928E-02 0. -1.
    10030    2    1    2    0    0  0.00000000000E+00  0.00000000000E+00  0.25705823578E+03  0.65329688048E+03  0.60059793329E+03 0.  0.
        4    1    3    3  502    0 -0.23873428489E+03 -0.95520644843E+02 -0.40192600274E+02  0.26026008220E+03  0.12699999809E+01 0. -1.
       -4    1    3    3    0  502  0.23873428489E+03  0.95520644843E+02  0.29725083605E+03  0.39303679828E+03  0.12699999809E+01 0.  1.
</event>
<event>
 5   0  0.5491236E-03  0.5998599E+03  0.7818609E-02  0.9905697E-01
        1   -1    0    0  501    0  0.00000000000E+00  0.00000000000E+00  0.14867854704E+04  0.14867854704E+04  0.50400001928E-02 0.  1.
       -1   -1    0    0    0  501  0.00000000000E+00  0.00000000000E+00 -0.60505015399E+02  0.60505015609E+02  0.50400001928E-02 0. -1.
    10030    2    1    2    0    0  0.00000000000E+00  0.00000000000E+00  0.14262804550E+04  0.15472904860E+04  0.59985991015E+03 0.  0.
        3    1    3    3  502    0  0.88835553929E+02 -0.25034644171E+03  0.10723458070E+04  0.11047581801E+04  0.10100000352E+00 0.  1.
       -3    1    3    3    0  502 -0.88835553929E+02  0.25034644171E+03  0.35393464798E+03  0.44253230589E+03  0.10100000352E+00 0. -1.
</event>
<event>
 5   0  0.5785798E-03  0.5999951E+03  0.7818609E-02  0.9905416E-01
       -1   -1    0    0    0  501  0.00000000000E+00  0.00000000000E+00  0.80107481975E+03  0.80107481977E+03  0.50400001928E-02 0. -1.
        1   -1    0    0  501    0  0.00000000000E+00  0.00000000000E+00 -0.11234720780E+03  0.11234720792E+03  0.50400001928E-02 0.  1.
    10030    2    1    2    0    0  0.00000000000E+00  0.00000000000E+00  0.68872761195E+03  0.91342202768E+03  0.59999506431E+03 0.  0.
        1    1    3    3  502    0 -0.29639714013E+03 -0.14720469634E+02  0.41125450297E+03  0.50714714151E+03  0.50400001928E-02 0.  1.
       -1    1    3    3    0  502  0.29639714013E+03  0.14720469634E+02  0.27747310897E+03  0.40627488617E+03  0.50400001928E-02 0. -1.
</event>
<event>
 5   0  0.9530666E-03  0.6003277E+03  0.7818609E-02  0.9904726E-01
        2   -1    0    0  501    0  0.00000000000E+00  0.00000000000E+00  0.11997870384E+03  0.11997870386E+03  0.25500000920E-02 0. -1.
       -2   -1    0    0    0  501  0.00000000000E+00  0.00000000000E+00 -0.75095271181E+03  0.75095271181E+03  0.25500000920E-02 0.  1.
    10030    2    1    2    0    0  0.00000000000E+00  0.00000000000E+00 -0.63097400797E+03  0.87093141568E+03  0.60032768725E+03 0.  0.
        2    1    3    3  502    0 -0.13320540244E+03 -0.91038563513E+02  0.51720489821E+02  0.16943054140E+03  0.25500000920E-02 0. -1.
       -2    1    3    3    0  502  0.13320540244E+03  0.91038563513E+02 -0.68269449779E+03  0.70150087427E+03  0.25500000920E-02 0.  1.
</event>
<event>
 5   0  0.5785798E-03  0.6001780E+03  0.7818609E-02  0.9905037E-01
       -1   -1    0    0    0  501  0.00000000000E+00  0.00000000000E+00  0.31142367541E+03  0.31142367546E+03  0.50400001928E-02 0.  1.
        1   -1    0    0  501    0  0.00000000000E+00  0.00000000000E+00 -0.28916683852E+03  0.28916683856E+03  0.50400001928E-02 0. -1.
    10030    2    1    2    0    0  0.00000000000E+00  0.00000000000E+00  0.22256836895E+02  0.60059051402E+03  0.60017797256E+03 0.  0.
        1    1    3    3  502    0  0.26692237213E+03  0.95346109409E+02 -0.87503860185E+02  0.29664011680E+03  0.50400001928E-02 0. -1.
       -1    1    3    3    0  502 -0.26692237213E+03 -0.95346109409E+02  0.10976069708E+03  0.30395039722E+03  0.50400001928E-02 0.  1.
</event>
<event>
 5   0  0.3794375E-03  0.6007213E+03  0.7818609E-02  0.9903911E-01
        4   -1    0    0  501    0  0.00000000000E+00  0.00000000000E+00  0.49531705354E+03  0.49531868169E+03  0.12699999809E+01 0.  1.
       -4   -1    0    0    0  501  0.00000000000E+00  0.00000000000E+00 -0.18213481344E+03  0.18213924115E+03  0.12699999809E+01 0. -1.
    10030    2    1    2    0    0  0.00000000000E+00  0.00000000000E+00  0.31318224010E+03  0.67745792284E+03  0.60072133448E+03 0.  0.
        1    1    3    3  502    0  0.14424479963E+03 -0.25534627006E+03  0.83433416524E+02  0.30490886323E+03  0.50400001928E-02 0.  1.
       -1    1    3    3    0  502 -0.14424479963E+03  0.25534627006E+03  0.22974882358E+03  0.37254905961E+03  0.50400001928E-02 0. -1.
</event>
<event>
 5   0  0.5503975E-03  0.5965898E+03  0.7818609E-02  0.9912507E-01
       -1   -1    0    0    0  501  0.00000000000E+00  0.00000000000E+00  0.23935520398E+03  0.23935520403E+03  0.50400001928E-02 0.  1.
        1   -1    0    0  501    0  0.00000000000E+00  0.00000000000E+00 -0.37174809621E+03  0.37174809624E+03  0.50400001928E-02 0. -1.
    10030    2    1    2    0    0  0.00000000000E+00  0.00000000000E+00 -0.13239289223E+03  0.61110330028E+03  0.59658978008E+03 0.  0.
        4    1    3    3  502    0 -0.28626028034E+03 -0.11811372785E+02  0.18852174516E+02  0.28712623358E+03  0.12699999809E+01 0.  1.
       -4    1    3    3    0  502  0.28626028034E+03  0.11811372785E+02 -0.15124506674E+03  0.32397706669E+03  0.12699999809E+01 0. -1.
</event>
<event>
 5   0  0.9428629E-03  0.5984299E+03  0.7818609E-02  0.9908669E-01
        2   -1    0    0  501    0  0.00000000000E+00  0.00000000000E+00  0.25525375452E+03  0.25525375453E+03  0.25500000920E-02 0.  1.
       -2   -1    0    0    0  501  0.00000000000E+00  0.00000000000E+00 -0.35074743836E+03  0.35074743837E+03  0.25500000920E-02 0. -1.
    10030    2    1    2    0    0  0.00000000000E+00  0.00000000000E+00 -0.95493683837E+02  0.60600119290E+03  0.59842994756E+03 0.  0.
        3    1    3    3  502    0 -0.10219572264E+03 -0.14014999890E+03 -0.29464208382E+03  0.34190635513E+03  0.10100000352E+00 0. -1.
       -3    1    3    3    0  502  0.10219572264E+03  0.14014999890E+03  0.19914839999E+03  0.26409483777E+03  0.10100000352E+00 0.  1.
</event>
<event>
 5   0  0.9428629E-03  0.5988010E+03  0.7818609E-02  0.9907897E-01
       -2   -1    0    0    0  501  0.00000000000E+00  0.00000000000E+00  0.21449672252E+03  0.21449672254E+03  0.25500000920E-02 0.  1.
        2   -1    0    0  501    0  0.00000000000E+00  0.00000000000E+00 -0.41791160868E+03  0.41791160869E+03  0.25500000920E-02 0. -1.
    10030    2    1    2    0    0  0.00000000000E+00  0.00000000000E+00 -0.20341488616E+03  0.63240833122E+03  0.59880103665E+03 0.  0.
        3    1    3    3  502    0  0.12842478921E+03  0.24379823777E+03 -0.22536942111E+03  0.35598018680E+03  0.10100000352E+00 0. -1.
       -3    1    3    3    0  502 -0.12842478921E+03 -0.24379823777E+03  0.21954534951E+02  0.27642814442E+03  0.10100000352E+00 0.  1.
</event>
<event>
 5   0  0.5653633E-03  0.5994639E+03  0.7818609E-02  0.9906519E-01
       -1   -1    0    0    0  501  0.00000000000E+00  0.00000000000E+00  0.28468889441E+03  0.28468889445E+03  0.50400001928E-02 0. -1.
        1   -1    0    0  501    0  0.00000000000E+00  0.00000000000E+00 -0.31556987334E+03  0.31556987338E+03  0.50400001928E-02 0.  1.
    10030    2    1    2    0    0  0.00000000000E+00  0.00000000000E+00 -0.30880978927E+02  0.60025876783E+03  0.59946388840E+03 0.  0.
        2    1    3    3  502    0  0.18977724050E+03 -0.47169307625E+02 -0.24289559073E+03  0.31183106420E+03  0.25500000920E-02 0.  1.
       -2    1    3    3    0  502 -0.18977724050E+03  0.47169307625E+02  0.21201461181E+03  0.28842770363E+03  0.25500000920E-02 0. -1.
</event>
<event>
 5   0  0.5574736E-03  0.6009315E+03  0.7818609E-02  0.9903475E-01
        1   -1    0    0  501    0  0.00000000000E+00  0.00000000000E+00  0.25384830544E+03  0.25384830549E+03  0.50400001928E-02 0. -1.
       -1   -1    0    0    0  501  0.00000000000E+00  0.00000000000E+00 -0.35564420504E+03  0.35564420508E+03  0.50400001928E-02 0.  1.
    10030    2    1    2    0    0  0.00000000000E+00  0.00000000000E+00 -0.10179589960E+03  0.60949251057E+03  0.60093153958E+03 0.  0.
        5    1    3    3  502    0 -0.49440023028E+02 -0.19305522193E+03 -0.27891834100E+03  0.34282964507E+03  0.46999998093E+01 0.  1.
       -5    1    3    3    0  502  0.49440023028E+02  0.19305522193E+03  0.17712244140E+03  0.26666286550E+03  0.46999998093E+01 0. -1.
</event>
<event>
 5   0  0.5574736E-03  0.6002482E+03  0.7818609E-02  0.9904891E-01
       -1   -1    0    0    0  501  0.00000000000E+00  0.00000000000E+00  0.70793474020E+03  0.70793474021E+03  0.50400001928E-02 0. -1.
        1   -1    0    0  501    0  0.00000000000E+00  0.00000000000E+00 -0.12723556422E+03  0.12723556432E+03  0.50400001928E-02 0.  1.
    10030    2    1    2    0    0  0.00000000000E+00  0.00000000000E+00  0.58069917598E+03  0.83517030453E+03  0.60024820248E+03 0.  0.
        5    1    3    3  502    0  0.16263028496E+03 -0.66252749124E+02  0.62892674841E+03  0.65299998562E+03  0.46999998093E+01 0. -1.
       -5    1    3    3    0  502 -0.16263028496E+03  0.66252749124E+02 -0.48227572431E+02  0.18217031891E+03  0.46999998093E+01 0.  1.
</event>
<event>
 5   0  0.9571790E-03  0.6008379E+03  0.7818609E-02  0.9903669E-01
        2   -1    0    0  501    0  0.00000000000E+00  0.00000000000E+00  0.97284418291E+03  0.97284418292E+03  0.25500000920E-02 0.  1.
       -2   -1    0    0    0  501  0.00000000000E+00  0.00000000000E+00 -0.92770808780E+02  0.92770808815E+02  0.25500000920E-02 0. -1.
    10030    2    1    2    0    0  0.00000000000E+00  0.00000000000E+00  0.88007337413E+03  0.10656149917E+04  0.60083788724E+03 0.  0.
        5    1    3    3  502    0 -0.17824005927E+03  0.68578639717E+02  0.85124333979E+03  0.87241610604E+03  0.46999998093E+01 0.  1.
       -5    1    3    3    0  502  0.17824005927E+03 -0.68578639717E+02  0.28830034347E+02  0.19319888569E+03  0.46999998093E+01 0. -1.
</event>
<event>
 5   0  0.9866317E-03  0.5996321E+03  0.7818609E-02  0.9906170E-01
       -2   -1    0    0    0  501  0.00000000000E+00  0.00000000000E+00  0.17509494814E+03  0.17509494816E+03  0.25500000920E-02 0. -1.
        2   -1    0    0  501    0  0.00000000000E+00  0.00000000000E+00 -0.51337662027E+03  0.51337662027E+03  0.25500000920E-02 0.  1.
    10030    2    1    2    0    0  0.00000000000E+00  0.00000000000E+00 -0.33828167212E+03  0.68847156843E+03  0.59963206289E+03 0.  0.
        1    1    3    3  502    0  0.17289775055E+03 -0.93633599625E+02  0.90730348209E+02  0.21654763734E+03  0.50400001928E-02 0. -1.
       -1    1    3    3    0  502 -0.17289775055E+03  0.93633599625E+02 -0.42901202033E+03  0.47192393109E+03  0.50400001928E-02 0.  1.
</event>
<event>
 5   0  0.5574736E-03  0.5980036E+03  0.7818609E-02  0.9909557E-01
        1   -1    0    0  501    0  0.00000000000E+00  0.00000000000E+00  0.67958700870E+03  0.67958700871E+03  0.50400001928E-02 0. -1.
       -1   -1    0    0    0  501  0.00000000000E+00  0.00000000000E+00 -0.13155354161E+03  0.13155354170E+03  0.50400001928E-02 0.  1.
    10030    2    1    2    0    0  0.00000000000E+00  0.00000000000E+00  0.54803346709E+03  0.81114055042E+03  0.59800360490E+03 0.  0.
        5    1    3    3  502    0 -0.87110527559E+02  0.18336171347E+03  0.57171866518E+03  0.60670757708E+03  0.46999998093E+01 0. -1.
       -5    1    3    3    0  502  0.87110527559E+02 -0.18336171347E+03 -0.23685198087E+02  0.20443297333E+03  0.46999998093E+01 0.  1.
</event>
<event>
 5   0  0.5653633E-03  0.5997659E+03  0.7818609E-02  0.9905892E-01
       -1   -1    0    0    0  501  0.00000000000E+00  0.00000000000E+00  0.25966359383E+03  0.25966359388E+03  0.50400001928E-02 0. -1.
        1   -1    0    0  501    0  0.00000000000E+00  0.00000000000E+00 -0.34633185147E+03  0.34633185150E+03  0.50400001928E-02 0.  1.
    10030    2    1    2    0    0  0.00000000000E+00  0.00000000000E+00 -0.86668257637E+02  0.60599544538E+03  0.59976586510E+03 0.  0.
        2    1    3    3  502    0  0.25031559368E+03 -0.45472410296E+02  0.11707294943E+03  0.28005662290E+03  0.25500000920E-02 0. -1.
       -2    1    3    3    0  502 -0.25031559368E+03  0.45472410296E+02 -0.20374120706E+03  0.32593882248E+03  0.25500000920E-02 0.  1.
</event>
<event>
 5   0  0.9681801E-03  0.5999062E+03  0.7818609E-02  0.9905601E-01
        2   -1    0    0  501    0  0.00000000000E+00  0.00000000000E+00  0.13061096627E+04  0.13061096627E+04  0.25500000920E-02 0.  1.
       -2   -1    0    0    0  501  0.00000000000E+00  0.00000000000E+00 -0.68885382475E+02  0.68885382522E+02  0.25500000920E-02 0. -1.
    10030    2    1    2    0    0  0.00000000000E+00  0.00000000000E+00  0.12372242802E+04  0.13749950452E+04  0.59990620501E+03 0.  0.
        4    1    3    3  502    0 -0.53582377215E+02  0.40982593881E+02 -0.51267167572E+02  0.84738300195E+02  0.12699999809E+01 0. -1.
       -4    1    3    3    0  502  0.53582377215E+02 -0.40982593881E+02  0.12884914478E+04  0.12902567450E+04  0.12699999809E+01 0.  1.
</event>
<event>
 5   0  0.9428629E-03  0.5997081E+03  0.7818609E-02  0.9906012E-01
       -2   -1    0    0    0  501  0.00000000000E+00  0.00000000000E+00  0.16393555573E+03  0.16393555575E+03  0.25500000920E-02 0.  1.
        2   -1    0    0  501    0  0.00000000000E+00  0.00000000000E+00 -0.54846209407E+03  0.54846209407E+03  0.25500000920E-02 0. -1.
    10030    2    1    2    0    0  0.00000000000E+00  0.00000000000E+00 -0.38452653834E+03  0.71239764982E+03  0.59970805630E+03 0.  0.
        3    1    3    3  502    0  0.26001025909E+03  0.24894739304E+02 -0.36720192705E+03  0.45062439826E+03  0.10100000352E+00 0. -1.
       -3    1    3    3    0  502 -0.26001025909E+03 -0.24894739304E+02 -0.17324611290E+02  0.26177325156E+03  0.10100000352E+00 0.  1.
</event>
<event>
 5   0  0.9571790E-03  0.6002560E+03  0.7818609E-02  0.9904875E-01
        2   -1    0    0  501    0  0.00000000000E+00  0.00000000000E+00  0.18672449605E+03  0.18672449606E+03  0.25500000920E-02 0. -1.
       -2   -1    0    0    0  501  0.00000000000E+00  0.00000000000E+00 -0.48240496256E+03  0.48240496256E+03  0.25500000920E-02 0.  1.
    10030    2    1    2    0    0  0.00000000000E+00  0.00000000000E+00 -0.29568046651E+03  0.66912945863E+03  0.60025602381E+03 0.  0.
        5    1    3    3  502    0  0.26418248473E+03  0.10344395743E+03 -0.25684389523E+03  0.38273217017E+03  0.46999998093E+01 0.  1.
       -5    1    3    3    0  502 -0.26418248473E+03 -0.10344395743E+03 -0.38836571277E+02  0.28639728845E+03  0.46999998093E+01 0. -1.
</event>
<event>
 5   0  0.9571790E-03  0.5981065E+03  0.7818609E-02  0.9909342E-01
       -2   -1    0    0    0  501  0.00000000000E+00  0.00000000000E+00  0.25203170139E+03  0.25203170140E+03  0.25500000920E-02 0.  1.
        2   -1    0    0  501    0  0.00000000000E+00  0.00000000000E+00 -0.35484755577E+03  0.35484755578E+03  0.25500000920E-02 0. -1.
    10030    2    1    2    0    0  0.00000000000E+00  0.00000000000E+00 -0.10281585438E+03  0.60687925718E+03  0.59810645615E+03 0.  0.
        5    1    3    3  502    0  0.16135302659E+01  0.10183340547E+03 -0.33666869170E+03  0.35176774144E+03  0.46999998093E+01 0. -1.
       -5    1    3    3    0  502 -0.16135302659E+01 -0.10183340547E+03  0.23385283731E+03  0.25511151575E+03  0.46999998093E+01 0.  1.
</event>
<event>
 5   0  0.9571790E-03  0.5999778E+03  0.7818609E-02  0.9905452E-01
       -2   -1    0    0    0  501  0.00000000000E+00  0.00000000000E+00  0.12986961402E+03  0.12986961404E+03  0.25500000920E-02 0.  1.
        2   -1    0    0  501    0  0.00000000000E+00  0.00000000000E+00 -0.69295141643E+03  0.69295141643E+03  0.25500000920E-02 0. -1.
    10030    2    1    2    0    0  0.00000000000E+00  0.00000000000E+00 -0.56308180241E+03  0.82282103048E+03  0.59997777625E+03 0.  0.
        5    1    3    3  502    0 -0.14160927112E+03 -0.17275528487E+03 -0.55607719850E+03  0.59928416866E+03  0.46999998093E+01 0. -1.
       -5    1    3    3    0  502  0.14160927112E+03  0.17275528487E+03 -0.70046039070E+01  0.22353686182E+03  0.46999998093E+01 0.  1.
</event>
<event>
 5   0  0.5574736E-03  0.6006951E+03  0.7818609E-02  0.9903965E-01
       -1   -1    0    0    0  501  0.00000000000E+00  0.00000000000E+00  0.19831771997E+03  0.19831772003E+03  0.50400001928E-02 0. -1.
        1   -1    0    0  501    0  0.00000000000E+00  0.00000000000E+00 -0.45486939855E+03  0.45486939858E+03  0.50400001928E-02 0.  1.
    10030    2    1    2    0    0  0.00000000000E+00  0.00000000000E+00 -0.25655167858E+03  0.65318711861E+03  0.60069513743E+03 0.  0.
        5    1    3    3  502    0  0.25263825960E+03  0.16193451202E+03 -0.11551604754E+03  0.32158190813E+03  0.46999998093E+01 0.  1.
       -5    1    3    3    0  502 -0.25263825960E+03 -0.16193451202E+03 -0.14103563104E+03  0.33160521048E+03  0.46999998093E+01 0. -1.
</event>
<event>
 5   0  0.9866317E-03  0.6006105E+03  0.7818609E-02  0.9904140E-01
       -2   -1    0    0    0  501  0.00000000000E+00  0.00000000000E+00  0.67931051364E+02  0.67931051412E+02  0.25500000920E-02 0. -1.
        2   -1    0    0  501    0  0.00000000000E+00  0.00000000000E+00 -0.13275703073E+04  0.13275703073E+04  0.25500000920E-02 0.  1.
    10030    2    1    2    0    0  0.00000000000E+00  0.00000000000E+00 -0.12596392560E+04  0.13955013588E+04  0.60061051197E+03 0.  0.
        1    1    3    3  502    0 -0.67943822355E+02  0.15976880949E+03 -0.60494161656E+02  0.18385314548E+03  0.50400001928E-02 0. -1.
       -1    1    3    3    0  502  0.67943822355E+02 -0.15976880949E+03 -0.11991450943E+04  0.12116482133E+04  0.50400001928E-02 0.  1.
</event>
<event>
 5   0  0.5653633E-03  0.5998416E+03  0.7818609E-02  0.9905735E-01
       -1   -1    0    0    0  501  0.00000000000E+00  0.00000000000E+00  0.78987967314E+03  0.78987967315E+03  0.50400001928E-02 0. -1.
        1   -1    0    0  501    0  0.00000000000E+00  0.00000000000E+00 -0.11388125247E+03  0.11388125258E+03  0.50400001928E-02 0.  1.
    10030    2    1    2    0    0  0.00000000000E+00  0.00000000000E+00  0.67599842067E+03  0.90376092573E+03  0.59984160087E+03 0.  0.
        2    1    3    3  502    0 -0.11991850501E+03  0.94302675700E+02 -0.51056380733E+02  0.16087323117E+03  0.25500000920E-02 0.  1.
       -2    1    3    3    0  502  0.11991850501E+03 -0.94302675700E+02  0.72705480140E+03  0.74288769456E+03  0.25500000920E-02 0. -1.
</event>
<event>
 5   0  0.5653633E-03  0.6004213E+03  0.7818609E-02  0.9904532E-01
       -1   -1    0    0    0  501  0.00000000000E+00  0.00000000000E+00  0.74786355852E+02  0.74786356021E+02  0.50400001928E-02 0. -1.
        1   -1    0    0  501    0  0.00000000000E+00  0.00000000000E+00 -0.12051186811E+04  0.12051186811E+04  0.50400001928E-02 0.  1.
    10030    2    1    2    0    0  0.00000000000E+00  0.00000000000E+00 -0.11303323252E+04  0.12799050371E+04  0.60042130090E+03 0.  0.
        2    1    3    3  502    0 -0.83475581400E+02 -0.11385471356E+03 -0.39062327726E+00  0.14117797662E+03  0.25500000920E-02 0. -1.
       -2    1    3    3    0  502  0.83475581400E+02  0.11385471356E+03 -0.11299417020E+04  0.11387270605E+04  0.25500000920E-02 0.  1.
</event>
<event>
 5   0  0.5491236E-03  0.5999406E+03  0.7818609E-02  0.9905529E-01
        1   -1    0    0  501    0  0.00000000000E+00  0.00000000000E+00  0.45755169831E+03  0.45755169834E+03  0.50400001928E-02 0. -1.
       -1   -1    0    0    0  501  0.00000000000E+00  0.00000000000E+00 -0.19666011879E+03  0.19666011886E+03  0.50400001928E-02 0.  1.
    10030    2    1    2    0    0  0.00000000000E+00  0.00000000000E+00  0.26089157952E+03  0.65421181720E+03  0.59994056831E+03 0.  0.
        3    1    3    3  502    0 -0.64133106316E+02 -0.27003170149E+03  0.25454766336E+03  0.37659620054E+03  0.10100000352E+00 0.  1.
       -3    1    3    3    0  502  0.64133106316E+02  0.27003170149E+03  0.63439161510E+01  0.27761561666E+03  0.10100000352E+00 0. -1.
</event>
<event>
 5   0  0.9866317E-03  0.5977035E+03  0.7818609E-02  0.9910182E-01
        2   -1    0    0  501    0  0.00000000000E+00  0.00000000000E+00  0.62468276882E+03  0.62468276883E+03  0.25500000920E-02 0.  1.
       -2   -1    0    0    0  501  0.00000000000E+00  0.00000000000E+00 -0.14297237487E+03  0.14297237489E+03  0.25500000920E-02 0. -1.
    10030    2    1    2    0    0  0.00000000000E+00  0.00000000000E+00  0.48171039396E+03  0.76765514372E+03  0.59770353523E+03 0.  0.
        1    1    3    3  502    0 -0.14835072059E+02  0.96943278546E+02  0.60342695376E+03  0.61134455683E+03  0.50400001928E-02 0.  1.
       -1    1    3    3    0  502  0.14835072059E+02 -0.96943278546E+02 -0.12171655980E+03  0.15631058689E+03  0.50400001928E-02 0. -1.
</event>
<event>
 5   0  0.5503975E-03  0.6008097E+03  0.7818609E-02  0.9903728E-01
       -1   -1    0    0    0  501  0.00000000000E+00  0.00000000000E+00  0.49558210266E+02  0.49558210522E+02  0.50400001928E-02 0. -1.
        1   -1    0    0  501    0  0.00000000000E+00  0.00000000000E+00 -0.18209513134E+04  0.18209513134E+04  0.50400001928E-02 0.  1.
    10030    2    1    2    0    0  0.00000000000E+00  0.00000000000E+00 -0.17713931032E+04  0.18705095240E+04  0.60080974799E+03 0.  0.
        4    1    3    3  502    0  0.24761824407E+03  0.52030390727E+02 -0.38157494214E+03  0.45784605024E+03  0.12699999809E+01 0. -1.
       -4    1    3    3    0  502 -0.24761824407E+03 -0.52030390727E+02 -0.13898181610E+04  0.14126634737E+04  0.12699999809E+01 0.  1.
</event>
<event>
 5   0  0.5503975E-03  0.5965095E+03  0.7818609E-02  0.9912674E-01
        1   -1    0    0  501    0  0.00000000000E+00  0.00000000000E+00  0.55374737169E+03  0.55374737171E+03  0.50400001928E-02 0. -1.
       -1   -1    0    0    0  501  0.00000000000E+00  0.00000000000E+00 -0.16064344403E+03  0.16064344411E+03  0.50400001928E-02 0.  1.
    10030    2    1    2    0    0  0.00000000000E+00  0.00000000000E+00  0.39310392766E+03  0.71439081582E+03  0.59650946328E+03 0.  0.
        4    1    3    3  502    0 -0.11288988348E+03  0.25809991123E+03  0.79242903520E+02  0.29264439278E+03  0.12699999809E+01 0.  1.
       -4    1    3    3    0  502  0.11288988348E+03 -0.25809991123E+03  0.31386102414E+03  0.42174642303E+03  0.12699999809E+01 0. -1.
</event>
<event>
 5   0  0.5491236E-03  0.6030787E+03  0.7818609E-02  0.9899039E-01
        1   -1    0    0  501    0  0.00000000000E+00  0.00000000000E+00  0.20331818484E+04  0.20331818484E+04  0.50400001928E-02 0. -1.
       -1   -1    0    0    0  501  0.00000000000E+00  0.00000000000E+00 -0.44721031065E+02  0.44721031349E+02  0.50400001928E-02 0.  1.
    10030    2    1    2    0    0  0.00000000000E+00  0.00000000000E+00  0.19884608173E+04  0.20779028798E+04  0.60307873086E+03 0.  0.
        3    1    3    3  502    0  0.19829826948E+03  0.22683901567E+03  0.10361233956E+04  0.10790411687E+04  0.10100000352E+00 0. -1.
       -3    1    3    3    0  502 -0.19829826948E+03 -0.22683901567E+03  0.95233742174E+03  0.99886171103E+03  0.10100000352E+00 0.  1.
</event>
<event>
 5   0  0.9530666E-03  0.6004040E+03  0.7818609E-02  0.9904568E-01
        2   -1    0    0  501    0  0.00000000000E+00  0.00000000000E+00  0.10244677571E+04  0.10244677571E+04  0.25500000920E-02 0. -1.
       -2   -1    0    0    0  501  0.00000000000E+00  0.00000000000E+00 -0.87968846953E+02  0.87968846990E+02  0.25500000920E-02 0.  1.
    10030    2    1    2    0    0  0.00000000000E+00  0.00000000000E+00  0.93649891018E+03  0.11124366041E+04  0.60040402183E+03 0.  0.
        2    1    3    3  502    0  0.79441668203E+02 -0.22978554521E+03  0.79451759088E+03  0.83088541789E+03  0.25500000920E-02 0. -1.
       -2    1    3    3    0  502 -0.79441668203E+02  0.22978554521E+03  0.14198131930E+03  0.28155118624E+03  0.25500000920E-02 0.  1.
</event>
<event>
 5   0  0.9681801E-03  0.6001241E+03  0.7818609E-02  0.9905149E-01
       -2   -1    0    0    0  501  0.00000000000E+00  0.00000000000E+00  0.30030523327E+03  0.30030523328E+03  0.25500000920E-02 0.  1.
        2   -1    0    0  501    0  0.00000000000E+00  0.00000000000E+00 -0.29981908517E+03  0.29981908518E+03  0.25500000920E-02 0. -1.
    10030    2    1    2    0    0  0.00000000000E+00  0.00000000000E+00  0.48614810569E+00  0.60012431846E+03  0.60012412155E+03 0.  0.
        4    1    3    3  502    0 -0.24112890904E+03 -0.37947653538E+02  0.17474944132E+03  0.30020352317E+03  0.12699999809E+01 0.  1.
       -4    1    3    3    0  502  0.24112890904E+03  0.37947653538E+02 -0.17426329321E+03  0.29992079529E+03  0.12699999809E+01 0. -1.
</event>
<event>
 5   0  0.9571790E-03  0.5985207E+03  0.7818609E-02  0.9908480E-01
        2   -1    0    0  501    0  0.00000000000E+00  0.00000000000E+00  0.13424746329E+03  0.13424746331E+03  0.25500000920E-02 0. -1.
       -2   -1    0    0    0  501  0.00000000000E+00  0.00000000000E+00 -0.66710202297E+03  0.66710202298E+03  0.25500000920E-02 0.  1.
    10030    2    1    2    0    0  0.00000000000E+00  0.00000000000E+00 -0.53285455968E+03  0.80134948629E+03  0.59852069087E+03 0.  0.
        5    1    3    3  502    0 -0.18386833824E+03 -0.22884621715E+03 -0.34399599567E+03  0.45225379152E+03  0.46999998093E+01 0.  1.
       -5    1    3    3    0  502  0.18386833824E+03  0.22884621715E+03 -0.18885856401E+03  0.34909569477E+03  0.46999998093E+01 0. -1.
</event>
<event>
 5   0  0.9428629E-03  0.6002271E+03  0.7818609E-02  0.9904935E-01
       -2   -1    0    0    0  501  0.00000000000E+00  0.00000000000E+00  0.94787449698E+02  0.94787449732E+02  0.25500000920E-02 0. -1.
        2   -1    0    0  501    0  0.00000000000E+00  0.00000000000E+00 -0.95021161563E+03  0.95021161563E+03  0.25500000920E-02 0.  1.
    10030    2    1    2    0    0  0.00000000000E+00  0.00000000000E+00 -0.85542416593E+03  0.10449990654E+04  0.60022707616E+03 0.  0.
        3    1    3    3  502    0 -0.15917107066E+03  0.19010184102E+03 -0.13331217599E+03  0.28150716893E+03  0.10100000352E+00 0. -1.
       -3    1    3    3    0  502  0.15917107066E+03 -0.19010184102E+03 -0.72211198994E+03  0.76349189643E+03  0.10100000352E+00 0.  1.
</event>
<event>
 5   0  0.9571790E-03  0.5961142E+03  0.7818609E-02  0.9913501E-01
        2   -1    0    0  501    0  0.00000000000E+00  0.00000000000E+00  0.34849399000E+03  0.34849399001E+03  0.25500000920E-02 0. -1.
       -2   -1    0    0    0  501  0.00000000000E+00  0.00000000000E+00 -0.25491984909E+03  0.25491984910E+03  0.25500000920E-02 0.  1.
    10030    2    1    2    0    0  0.00000000000E+00  0.00000000000E+00  0.93574140916E+02  0.60341383911E+03  0.59611420163E+03 0.  0.
        5    1    3    3  502    0  0.16803924848E+03 -0.22531357468E+03  0.14705838894E+03  0.31725645103E+03  0.46999998093E+01 0.  1.
       -5    1    3    3    0  502 -0.16803924848E+03  0.22531357468E+03 -0.53484248025E+02  0.28615738808E+03  0.46999998093E+01 0. -1.
</event>
<event>
 5   0  0.9530666E-03  0.5983755E+03  0.7818609E-02  0.9908782E-01
        2   -1    0    0  501    0  0.00000000000E+00  0.00000000000E+00  0.16506229637E+04  0.16506229638E+04  0.25500000920E-02 0.  1.
       -2   -1    0    0    0  501  0.00000000000E+00  0.00000000000E+00 -0.54230009013E+02  0.54230009073E+02  0.25500000920E-02 0. -1.
    10030    2    1    2    0    0  0.00000000000E+00  0.00000000000E+00  0.15963929547E+04  0.17048529728E+04  0.59837546158E+03 0.  0.
        2    1    3    3  502    0 -0.18664392233E+03 -0.11239489456E+03  0.13824064294E+04  0.13994699362E+04  0.25500000920E-02 0.  1.
       -2    1    3    3    0  502  0.18664392233E+03  0.11239489456E+03  0.21398652529E+03  0.30538303666E+03  0.25500000920E-02 0. -1.
</event>
<event>
 5   0  0.5785798E-03  0.6000827E+03  0.7818609E-02  0.9905235E-01
        1   -1    0    0  501    0  0.00000000000E+00  0.00000000000E+00  0.50509538613E+03  0.50509538616E+03  0.50400001928E-02 0.  1.
       -1   -1    0    0    0  501  0.00000000000E+00  0.00000000000E+00 -0.17823328187E+03  0.17823328194E+03  0.50400001928E-02 0. -1.
    10030    2    1    2    0    0  0.00000000000E+00  0.00000000000E+00  0.32686210426E+03  0.68332866810E+03  0.60008268884E+03 0.  0.
        1    1    3    3  502    0  0.87571214829E+01  0.21658874808E+03  0.39966468821E+03  0.45466387145E+03  0.50400001928E-02 0.  1.
       -1    1    3    3    0  502 -0.87571214829E+01 -0.21658874808E+03 -0.72802583954E+02  0.22866479665E+03  0.50400001928E-02 0. -1.
</event>
<event>
 5   0  0.5503975E-03  0.6004651E+03  0.7818609E-02  0.9904442E-01
        1   -1    0    0  501    0  0.00000000000E+00  0.00000000000E+00  0.40483547206E+03  0.40483547209E+03  0.50400001928E-02 0. -1.
       -1   -1    0    0    0  501  0.00000000000E+00  0.00000000000E+00 -0.22265731256E+03  0.22265731262E+03  0.50400001928E-02 0.  1.
    10030    2    1    2    0    0  0.00000000000E+00  0.00000000000E+00  0.18217815950E+03  0.62749278472E+03  0.60046508064E+03 0.  0.
        4    1    3    3  502    0  0.20209459522E+03  0.26973325725E+02 -0.13921248726E+03  0.24688360663E+03  0.12699999809E+01 0.  1.
       -4    1    3    3    0  502 -0.20209459522E+03 -0.26973325725E+02  0.32139064676E+03  0.38060917808E+03  0.12699999809E+01 0. -1.
</event>
<event>
 5   0  0.9681801E-03  0.5975052E+03  0.7818609E-02  0.9910596E-01
        2   -1    0    0  501    0  0.00000000000E+00  0.00000000000E+00  0.42002805545E+03  0.42002805546E+03  0.25500000920E-02 0. -1.
       -2   -1    0    0    0  501  0.00000000000E+00  0.00000000000E+00 -0.21249321613E+03  0.21249321615E+03  0.25500000920E-02 0.  1.
    10030    2    1    2    0    0  0.00000000000E+00  0.00000000000E+00  0.20753483932E+03  0.63252127161E+03  0.59750518785E+03 0.  0.
        4    1    3    3  502    0  0.17680734116E+03  0.74483164014E+02 -0.13865729617E+03  0.23671931964E+03  0.12699999809E+01 0.  1.
       -4    1    3    3    0  502 -0.17680734116E+03 -0.74483164014E+02  0.34619213549E+03  0.39580195197E+03  0.12699999809E+01 0. -1.
</event>
<event>
 5   0  0.9681801E-03  0.6017144E+03  0.7818609E-02  0.9901856E-01
       -2   -1    0    0    0  501  0.00000000000E+00  0.00000000000E+00  0.32986760692E+03  0.32986760693E+03  0.25500000920E-02 0.  1.
        2   -1    0    0  501    0  0.00000000000E+00  0.00000000000E+00 -0.27439812040E+03  0.27439812041E+03  0.25500000920E-02 0. -1.
    10030    2    1    2    0    0  0.00000000000E+00  0.00000000000E+00  0.55469486521E+02  0.60426572733E+03  0.60171438847E+03 0.  0.
        4    1    3    3  502    0 -0.60910364652E+02 -0.36276194498E+02 -0.26588728178E+03  0.27517938571E+03  0.12699999809E+01 0. -1.
       -4    1    3    3    0  502  0.60910364652E+02  0.36276194498E+02  0.32135676830E+03  0.32908634162E+03  0.12699999809E+01 0.  1.
</event>
<event>
 5   0  0.5653633E-03  0.6001617E+03  0.7818609E-02  0.9905071E-01
        1   -1    0    0  501    0  0.00000000000E+00  0.00000000000E+00  0.58508287245E+03  0.58508287247E+03  0.50400001928E-02 0.  1.
       -1   -1    0    0    0  501  0.00000000000E+00  0.00000000000E+00 -0.15390728573E+03  0.15390728581E+03  0.50400001928E-02 0. -1.
    10030    2    1    2    0    0  0.00000000000E+00  0.00000000000E+00  0.43117558672E+03  0.73899015829E+03  0.60016170109E+03 0.  0.
        2    1    3    3  502    0  0.19847978727E+03 -0.22492620386E+03  0.20585385551E+03  0.36381565795E+03  0.25500000920E-02 0.  1.
       -2    1    3    3    0  502 -0.19847978727E+03  0.22492620386E+03  0.22532173121E+03  0.37517450033E+03  0.25500000920E-02 0. -1.
</event>
<event>
 5   0  0.3794375E-03  0.6029492E+03  0.7818609E-02  0.9899306E-01
       -4   -1    0    0    0  501  0.00000000000E+00  0.00000000000E+00  0.43037186099E+03  0.43037373483E+03  0.12699999809E+01 0.  1.
        4   -1    0    0  501    0  0.00000000000E+00  0.00000000000E+00 -0.21117811243E+03  0.21118193121E+03  0.12699999809E+01 0. -1.
    10030    2    1    2    0    0  0.00000000000E+00  0.00000000000E+00  0.21919374856E+03  0.64155566604E+03  0.60294922939E+03 0.  0.
        5    1    3    3  502    0  0.13601552254E+02 -0.25398167960E+03  0.28173681928E+03  0.37959112362E+03  0.46999998093E+01 0.  1.
       -5    1    3    3    0  502 -0.13601552254E+02  0.25398167960E+03 -0.62543070712E+02  0.26196454242E+03  0.46999998093E+01 0. -1.
</event>
<event>
 5   0  0.9530666E-03  0.5999464E+03  0.7818609E-02  0.9905517E-01
       -2   -1    0    0    0  501  0.00000000000E+00  0.00000000000E+00  0.65791810831E+02  0.65791810881E+02  0.25500000920E-02 0.  1.
        2   -1    0    0  501    0  0.00000000000E+00  0.00000000000E+00 -0.13677072327E+04  0.13677072327E+04  0.25500000920E-02 0. -1.
    10030    2    1    2    0    0  0.00000000000E+00  0.00000000000E+00 -0.13019154219E+04  0.14334990436E+04  0.59994644949E+03 0.  0.
        2    1    3    3  502    0 -0.16401521760E+03  0.17932272914E+03 -0.23076460601E+03  0.33512674645E+03  0.25500000920E-02 0.  1.
       -2    1    3    3    0  502  0.16401521760E+03 -0.17932272914E+03 -0.10711508159E+04  0.10983722971E+04  0.25500000920E-02 0. -1.
</event>
<event>
 5   0  0.9428629E-03  0.5978693E+03  0.7818609E-02  0.9909837E-01
        2   -1    0    0  501    0  0.00000000000E+00  0.00000000000E+00  0.38172221031E+03  0.38172221031E+03  0.25500000920E-02 0.  1.
       -2   -1    0    0    0  501  0.00000000000E+00  0.00000000000E+00 -0.23410194283E+03  0.23410194284E+03  0.25500000920E-02 0. -1.
    10030    2    1    2    0    0  0.00000000000E+00  0.00000000000E+00  0.14762026748E+03  0.61582415315E+03  0.59786925346E+03 0.  0.
        3    1    3    3  502    0  0.14720913719E+03 -0.14019359773E+03 -0.15194571292E+03  0.25379575409E+03  0.10100000352E+00 0. -1.
       -3    1    3    3    0  502 -0.14720913719E+03  0.14019359773E+03  0.29956598040E+03  0.36202839907E+03  0.10100000352E+00 0.  1.
</event>
<event>
 5   0  0.3794375E-03  0.6023344E+03  0.7818609E-02  0.9900575E-01
       -3   -1    0    0    0  501  0.00000000000E+00  0.00000000000E+00  0.20166899537E+03  0.20166902066E+03  0.10100000352E+00 0. -1.
        3   -1    0    0  501    0  0.00000000000E+00  0.00000000000E+00 -0.44975517043E+03  0.44975518177E+03  0.10100000352E+00 0.  1.
    10030    2    1    2    0    0  0.00000000000E+00  0.00000000000E+00 -0.24808617506E+03  0.65142420243E+03  0.60233440982E+03 0.  0.
        3    1    3    3  502    0  0.21822400243E+03 -0.18247236034E+03 -0.23101750877E+03  0.36645187553E+03  0.10100000352E+00 0.  1.
       -3    1    3    3    0  502 -0.21822400243E+03  0.18247236034E+03 -0.17068666292E+02  0.28497232689E+03  0.10100000352E+00 0. -1.
</event>
<event>
 5   0  0.3794375E-03  0.6003548E+03  0.7818609E-02  0.9904670E-01
        3   -1    0    0  501    0  0.00000000000E+00  0.00000000000E+00  0.55356002405E+03  0.55356003326E+03  0.10100000352E+00 0. -1.
       -3   -1    0    0    0  501  0.00000000000E+00  0.00000000000E+00 -0.16277633114E+03  0.16277636248E+03  0.10100000352E+00 0.  1.
    10030    2    1    2    0    0  0.00000000000E+00  0.00000000000E+00  0.39078369290E+03  0.71633639574E+03  0.60035484276E+03 0.  0.
        4    1    3    3  502    0  0.10380494248E+03 -0.16526812692E+03  0.46752211832E+03  0.50662369060E+03  0.12699999809E+01 0. -1.
       -4    1    3    3    0  502 -0.10380494248E+03  0.16526812692E+03 -0.76738425420E+02  0.20971270513E+03  0.12699999809E+01 0.  1.
</event>
<event>
 5   0  0.9530666E-03  0.6006526E+03  0.7818609E-02  0.9904053E-01
       -2   -1    0    0    0  501  0.00000000000E+00  0.00000000000E+00  0.99620989566E+02  0.99620989599E+02  0.25500000920E-02 0.  1.
        2   -1    0    0  501    0  0.00000000000E+00  0.00000000000E+00 -0.90539046396E+03  0.90539046396E+03  0.25500000920E-02 0. -1.
    10030    2    1    2    0    0  0.00000000000E+00  0.00000000000E+00 -0.80576947439E+03  0.10050114536E+04  0.60065262501E+03 0.  0.
        2    1    3    3  502    0  0.29020256090E+02 -0.23248530394E+03 -0.88500004426E+02  0.25044728507E+03  0.25500000920E-02 0.  1.
       -2    1    3    3    0  502 -0.29020256090E+02  0.23248530394E+03 -0.71726946996E+03  0.75456416848E+03  0.25500000920E-02 0. -1.
</event>
<event>
 5   0  0.9866317E-03  0.6028227E+03  0.7818609E-02  0.9899567E-01
       -2   -1    0    0    0  501  0.00000000000E+00  0.00000000000E+00  0.51958045384E+02  0.51958045446E+02  0.25500000920E-02 0. -1.
        2   -1    0    0  501    0  0.00000000000E+00  0.00000000000E+00 -0.17485028078E+04  0.17485028078E+04  0.25500000920E-02 0.  1.
    10030    2    1    2    0    0  0.00000000000E+00  0.00000000000E+00 -0.16965447624E+04  0.18004608532E+04  0.60282265485E+03 0.  0.
        1    1    3    3  502    0 -0.30030846577E+03 -0.39295699903E+01 -0.92431188911E+03  0.97188120905E+03  0.50400001928E-02 0.  1.
       -1    1    3    3    0  502  0.30030846577E+03  0.39295699903E+01 -0.77223287329E+03  0.82857964418E+03  0.50400001928E-02 0. -1.
</event>
<event>
 5   0  0.5491236E-03  0.6007784E+03  0.7818609E-02  0.9903792E-01
       -1   -1    0    0    0  501  0.00000000000E+00  0.00000000000E+00  0.33453063936E+03  0.33453063940E+03  0.50400001928E-02 0. -1.
        1   -1    0    0  501    0  0.00000000000E+00  0.00000000000E+00 -0.26973217166E+03  0.26973217171E+03  0.50400001928E-02 0.  1.
    10030    2    1    2    0    0  0.00000000000E+00  0.00000000000E+00  0.64798467695E+02  0.60426281111E+03  0.60077841462E+03 0.  0.
        3    1    3    3  502    0  0.19472423224E+03 -0.90660590284E+02  0.24360952053E+03  0.32478066129E+03  0.10100000352E+00 0. -1.
       -3    1    3    3    0  502 -0.19472423224E+03  0.90660590284E+02 -0.17881105284E+03  0.27948214982E+03  0.10100000352E+00 0.  1.
</event>
<event>
 5   0  0.9571790E-03  0.5998027E+03  0.7818609E-02  0.9905816E-01
       -2   -1    0    0    0  501  0.00000000000E+00  0.00000000000E+00  0.18485675809E+03  0.18485675811E+03  0.25500000920E-02 0.  1.
        2   -1    0    0  501    0  0.00000000000E+00  0.00000000000E+00 -0.48654324496E+03  0.48654324496E+03  0.25500000920E-02 0. -1.
    10030    2    1    2    0    0  0.00000000000E+00  0.00000000000E+00 -0.30168648686E+03  0.67140000307E+03  0.59980265736E+03 0.  0.
        5    1    3    3  502    0  0.15510606094E+02  0.14371684087E+03 -0.44492750351E+03  0.46784365191E+03  0.46999998093E+01 0. -1.
       -5    1    3    3    0  502 -0.15510606094E+02 -0.14371684087E+03  0.14324101665E+03  0.20355635117E+03  0.46999998093E+01 0.  1.
</event>
<event>
 5   0  0.9681801E-03  0.6003071E+03  0.7818609E-02  0.9904769E-01
       -2   -1    0    0    0  501  0.00000000000E+00  0.00000000000E+00  0.54521324906E+03  0.54521324906E+03  0.25500000920E-02 0.  1.
        2   -1    0    0  501    0  0.00000000000E+00  0.00000000000E+00 -0.16524203778E+03  0.16524203780E+03  0.25500000920E-02 0. -1.
    10030    2    1    2    0    0  0.00000000000E+00  0.00000000000E+00  0.37997121127E+03  0.71045528687E+03  0.60030708245E+03 0.  0.
        4    1    3    3  502    0 -0.34302007249E+02 -0.16974641370E+03 -0.10014981089E+03  0.20005516786E+03  0.12699999809E+01 0. -1.
       -4    1    3    3    0  502  0.34302007249E+02  0.16974641370E+03  0.48012102216E+03  0.51040011901E+03  0.12699999809E+01 0.  1.
</event>
<event>
 5   0  0.9530666E-03  0.5995024E+03  0.7818609E-02  0.9906439E-01
        2   -1    0    0  501    0  0.00000000000E+00  0.00000000000E+00  0.13784803025E+04  0.13784803025E+04  0.25500000920E-02 0. -1.
       -2   -1    0    0    0  501  0.00000000000E+00  0.00000000000E+00 -0.65181051564E+02  0.65181051614E+02  0.25500000920E-02 0.  1.
    10030    2    1    2    0    0  0.00000000000E+00  0.00000000000E+00  0.13132992510E+04  0.14436613541E+04  0.59950244609E+03 0.  0.
        2    1    3    3  502    0  0.29947300560E+03 -0.31651584669E+01  0.68679383362E+03  0.74925287401E+03  0.25500000920E-02 0. -1.
       -2    1    3    3    0  502 -0.29947300560E+03  0.31651584669E+01  0.62650541733E+03  0.69440848012E+03  0.25500000920E-02 0.  1.
</event>
<event>
 5   0  0.5491236E-03  0.5997514E+03  0.7818609E-02  0.9905922E-01
       -1   -1    0    0    0  501  0.00000000000E+00  0.00000000000E+00  0.41886994945E+03  0.41886994948E+03  0.50400001928E-02 0.  1.
        1   -1    0    0  501    0  0.00000000000E+00  0.00000000000E+00 -0.21468583638E+03  0.21468583644E+03  0.50400001928E-02 0. -1.
    10030    2    1    2    0    0  0.00000000000E+00  0.00000000000E+00  0.20418411306E+03  0.63355578592E+03  0.59975143338E+03 0.  0.
        3    1    3    3  502    0  0.12917114632E+03 -0.70287232061E+02  0.37816495592E+03  0.40575143145E+03  0.10100000352E+00 0.  1.
       -3    1    3    3    0  502 -0.12917114632E+03  0.70287232061E+02 -0.17398084286E+03  0.22780435447E+03  0.10100000352E+00 0. -1.
</event>
<event>
 5   0  0.5574736E-03  0.6001009E+03  0.7818609E-02  0.9905197E-01
       -1   -1    0    0    0  501  0.00000000000E+00  0.00000000000E+00  0.28314443037E+03  0.28314443042E+03  0.50400001928E-02 0. -1.
        1   -1    0    0  501    0  0.00000000000E+00  0.00000000000E+00 -0.31796588022E+03  0.31796588026E+03  0.50400001928E-02 0.  1.
    10030    2    1    2    0    0  0.00000000000E+00  0.00000000000E+00 -0.34821449853E+02  0.60111031068E+03  0.60010088505E+03 0.  0.
        5    1    3    3  502    0 -0.29767790127E+03  0.29250990798E+02  0.58754150302E+01  0.29920622297E+03  0.46999998093E+01 0. -1.
       -5    1    3    3    0  502  0.29767790127E+03 -0.29250990798E+02 -0.40696864883E+02  0.30190408771E+03  0.46999998093E+01 0.  1.
</event>
<event>
 5   0  0.9866317E-03  0.6009139E+03  0.7818609E-02  0.9903512E-01
       -2   -1    0    0    0  501  0.00000000000E+00  0.00000000000E+00  0.15564942696E+03  0.15564942698E+03  0.25500000920E-02 0.  1.
        2   -1    0    0  501    0  0.00000000000E+00  0.00000000000E+00 -0.57998535019E+03  0.57998535020E+03  0.25500000920E-02 0. -1.
    10030    2    1    2    0    0  0.00000000000E+00  0.00000000000E+00 -0.42433592323E+03  0.73563477717E+03  0.60091392865E+03 0.  0.
        1    1    3    3  502    0  0.22746115396E+03  0.11482918334E+03 -0.40708040181E+03  0.48024865587E+03  0.50400001928E-02 0. -1.
       -1    1    3    3    0  502 -0.22746115396E+03 -0.11482918334E+03 -0.17255521427E+02  0.25538612130E+03  0.50400001928E-02 0.  1.
</event>
<event>
 5   0  0.9571790E-03  0.6005434E+03  0.7818609E-02  0.9904279E-01
        2   -1    0    0  501    0  0.00000000000E+00  0.00000000000E+00  0.10637489037E+04  0.10637489037E+04  0.25500000920E-02 0. -1.
       -2   -1    0    0    0  501  0.00000000000E+00  0.00000000000E+00 -0.84759750972E+02  0.84759751011E+02  0.25500000920E-02 0.  1.
    10030    2    1    2    0    0  0.00000000000E+00  0.00000000000E+00  0.97898915269E+03  0.11485086547E+04  0.60054339459E+03 0.  0.
        5    1    3    3  502    0 -0.15500901155E+03 -0.24585827801E+03  0.63346167503E+03  0.69697192932E+03  0.46999998093E+01 0.  1.
       -5    1    3    3    0  502  0.15500901155E+03  0.24585827801E+03  0.34552747766E+03  0.45153672536E+03  0.46999998093E+01 0. -1.
</event>
<event>
 5   0  0.9571790E-03  0.6004284E+03  0.7818609E-02  0.9904518E-01
       -2   -1    0    0    0  501  0.00000000000E+00  0.00000000000E+00  0.37688197199E+03  0.37688197200E+03  0.25500000920E-02 0.  1.
        2   -1    0    0  501    0  0.00000000000E+00  0.00000000000E+00 -0.23914268109E+03  0.23914268110E+03  0.25500000920E-02 0. -1.
    10030    2    1    2    0    0  0.00000000000E+00  0.00000000000E+00  0.13773929090E+03  0.61602465311E+03  0.60042839788E+03 0.  0.
        5    1    3    3  502    0  0.10943494346E+03 -0.27452905214E+03  0.14927658952E+02  0.29595123300E+03  0.46999998093E+01 0. -1.
       -5    1    3    3    0  502 -0.10943494346E+03  0.27452905214E+03  0.12281163195E+03  0.32007342010E+03  0.46999998093E+01 0.  1.
</event>
<event>
 5   0  0.5503975E-03  0.5816396E+03  0.7818609E-02  0.9944248E-01
       -1   -1    0    0    0  501  0.00000000000E+00  0.00000000000E+00  0.17725267703E+03  0.17725267710E+03  0.50400001928E-02 0. -1.
        1   -1    0    0  501    0  0.00000000000E+00  0.00000000000E+00 -0.47715018408E+03  0.47715018411E+03  0.50400001928E-02 0.  1.
    10030    2    1    2    0    0  0.00000000000E+00  0.00000000000E+00 -0.29989750705E+03  0.65440286121E+03  0.58163957055E+03 0.  0.
        4    1    3    3  502    0 -0.28329137737E+02 -0.12735355340E+03  0.14247576268E+03  0.19319012257E+03  0.12699999809E+01 0. -1.
       -4    1    3    3    0  502  0.28329137737E+02  0.12735355340E+03 -0.44237326973E+03  0.46121273863E+03  0.12699999809E+01 0.  1.
</event>
<event>
 5   0  0.5503975E-03  0.5984507E+03  0.7818609E-02  0.9908626E-01
       -1   -1    0    0    0  501  0.00000000000E+00  0.00000000000E+00  0.13146142351E+03  0.13146142361E+03  0.50400001928E-02 0. -1.
        1   -1    0    0  501    0  0.00000000000E+00  0.00000000000E+00 -0.68108052401E+03  0.68108052402E+03  0.50400001928E-02 0.  1.
    10030    2    1    2    0    0  0.00000000000E+00  0.00000000000E+00 -0.54961910050E+03  0.81254194763E+03  0.59845071730E+03 0.  0.
        4    1    3    3  502    0 -0.29251037311E+03 -0.50889555134E+02 -0.32528648452E+03  0.44041454916E+03  0.12699999809E+01 0. -1.
       -4    1    3    3    0  502  0.29251037311E+03  0.50889555134E+02 -0.22433261597E+03  0.37212739847E+03  0.12699999809E+01 0.  1.
</event>
<event>
 5   0  0.5653633E-03  0.6018269E+03  0.7818609E-02  0.9901623E-01
       -1   -1    0    0    0  501  0.00000000000E+00  0.00000000000E+00  0.36557701983E+03  0.36557701986E+03  0.50400001928E-02 0. -1.
        1   -1    0    0  501    0  0.00000000000E+00  0.00000000000E+00 -0.24768765837E+03  0.24768765842E+03  0.50400001928E-02 0.  1.
    10030    2    1    2    0    0  0.00000000000E+00  0.00000000000E+00  0.11788936145E+03  0.61326467828E+03  0.60182693865E+03 0.  0.
        2    1    3    3  502    0  0.71246090030E+02  0.11018639258E+03  0.33488979356E+03  0.35967793968E+03  0.25500000920E-02 0. -1.
       -2    1    3    3    0  502 -0.71246090030E+02 -0.11018639258E+03 -0.21700043211E+03  0.25358673860E+03  0.25500000920E-02 0.  1.
</event>
<event>
 5   0  0.9866317E-03  0.6000127E+03  0.7818609E-02  0.9905380E-01
        2   -1    0    0  501    0  0.00000000000E+00  0.00000000000E+00  0.60818367989E+03  0.60818367990E+03  0.25500000920E-02 0.  1.
       -2   -1    0    0    0  501  0.00000000000E+00  0.00000000000E+00 -0.14798785583E+03  0.14798785585E+03  0.25500000920E-02 0. -1.
    10030    2    1    2    0    0  0.00000000000E+00  0.00000000000E+00  0.46019582407E+03  0.75617153575E+03  0.60001266236E+03 0.  0.
        1    1    3    3  502    0 -0.16976864148E+02  0.84540862740E+02  0.59222992282E+03  0.59847443797E+03  0.50400001928E-02 0.  1.
       -1    1    3    3    0  502  0.16976864148E+02 -0.84540862740E+02 -0.13203409876E+03  0.15769709778E+03  0.50400001928E-02 0. -1.
</event>
<event>
 5   0  0.9571790E-03  0.5988337E+03  0.7818609E-02  0.9907829E-01
       -2   -1    0    0    0  501  0.00000000000E+00  0.00000000000E+00  0.18664984916E+03  0.18664984917E+03  0.25500000920E-02 0.  1.
        2   -1    0    0  501    0  0.00000000000E+00  0.00000000000E+00 -0.48031349676E+03  0.48031349677E+03  0.25500000920E-02 0. -1.
    10030    2    1    2    0    0  0.00000000000E+00  0.00000000000E+00 -0.29366364760E+03  0.66696334594E+03  0.59883367215E+03 0.  0.
        5    1    3    3  502    0  0.26011337110E+03 -0.11061980041E+03 -0.25670994144E+03  0.38186095650E+03  0.46999998093E+01 0. -1.
       -5    1    3    3    0  502 -0.26011337110E+03  0.11061980041E+03 -0.36953706164E+02  0.28510238944E+03  0.46999998093E+01 0.  1.
</event>
<event>
 5   0  0.9428629E-03  0.5997999E+03  0.7818609E-02  0.9905821E-01
       -2   -1    0    0    0  501  0.00000000000E+00  0.00000000000E+00  0.11042380820E+03  0.11042380823E+03  0.25500000920E-02 0. -1.
        2   -1    0    0  501    0  0.00000000000E+00  0.00000000000E+00 -0.81449811318E+03  0.81449811318E+03  0.25500000920E-02 0.  1.
    10030    2    1    2    0    0  0.00000000000E+00  0.00000000000E+00 -0.70407430498E+03  0.92492192141E+03  0.59979991145E+03 0.  0.
        3    1    3    3  502    0 -0.17170615156E+03 -0.12265669238E+03 -0.23423610940E+02  0.21231189891E+03  0.10100000352E+00 0. -1.
       -3    1    3    3    0  502  0.17170615156E+03  0.12265669238E+03 -0.68065069404E+03  0.71261002250E+03  0.10100000352E+00 0.  1.
</event>
<event>
 5   0  0.5503975E-03  0.6004024E+03  0.7818609E-02  0.9904572E-01
        1   -1    0    0  501    0  0.00000000000E+00  0.00000000000E+00  0.69115131731E+03  0.69115131733E+03  0.50400001928E-02 0. -1.
       -1   -1    0    0    0  501  0.00000000000E+00  0.00000000000E+00 -0.13039221594E+03  0.13039221603E+03  0.50400001928E-02 0.  1.
    10030    2    1    2    0    0  0.00000000000E+00  0.00000000000E+00  0.56075910137E+03  0.82154353336E+03  0.60040237128E+03 0.  0.
        4    1    3    3  502    0  0.72601917435E+02  0.26747048240E+03  0.12253167902E+03  0.30302990386E+03  0.12699999809E+01 0.  1.
       -4    1    3    3    0  502 -0.72601917435E+02 -0.26747048240E+03  0.43822742235E+03  0.51851362950E+03  0.12699999809E+01 0. -1.
</event>
<event>
 5   0  0.9866317E-03  0.5985594E+03  0.7818609E-02  0.9908399E-01
        2   -1    0    0  501    0  0.00000000000E+00  0.00000000000E+00  0.72715200231E+03  0.72715200231E+03  0.25500000920E-02 0. -1.
       -2   -1    0    0    0  501  0.00000000000E+00  0.00000000000E+00 -0.12317692378E+03  0.12317692381E+03  0.25500000920E-02 0.  1.
    10030    2    1    2    0    0  0.00000000000E+00  0.00000000000E+00  0.60397507852E+03  0.85032892612E+03  0.59855942656E+03 0.  0.
        1    1    3    3  502    0  0.14114458180E+03 -0.18989136529E+03  0.56234534772E+03  0.61009246325E+03  0.50400001928E-02 0. -1.
       -1    1    3    3    0  502 -0.14114458180E+03  0.18989136529E+03  0.41629730803E+02  0.24023646287E+03  0.50400001928E-02 0.  1.
</event>
<event>
 5   0  0.5503975E-03  0.6007829E+03  0.7818609E-02  0.9903783E-01
       -1   -1    0    0    0  501  0.00000000000E+00  0.00000000000E+00  0.82423107767E+03  0.82423107769E+03  0.50400001928E-02 0.  1.
        1   -1    0    0  501    0  0.00000000000E+00  0.00000000000E+00 -0.10947783733E+03  0.10947783745E+03  0.50400001928E-02 0. -1.
    10030    2    1    2    0    0  0.00000000000E+00  0.00000000000E+00  0.71475324034E+03  0.93370891513E+03  0.60078294219E+03 0.  0.
        4    1    3    3  502    0  0.80554980645E+02 -0.20504345524E+03  0.40003787414E+02  0.22390587163E+03  0.12699999809E+01 0. -1.
       -4    1    3    3    0  502 -0.80554980645E+02  0.20504345524E+03  0.67474945293E+03  0.70980304350E+03  0.12699999809E+01 0.  1.
</event>
<event>
 5   0  0.9428629E-03  0.5977416E+03  0.7818609E-02  0.9910103E-01
        2   -1    0    0  501    0  0.00000000000E+00  0.00000000000E+00  0.13687480910E+04  0.13687480910E+04  0.25500000920E-02 0.  1.
       -2   -1    0    0    0  501  0.00000000000E+00  0.00000000000E+00 -0.65259446645E+02  0.65259446694E+02  0.25500000920E-02 0. -1.
    10030    2    1    2    0    0  0.00000000000E+00  0.00000000000E+00  0.13034886444E+04  0.14340075377E+04  0.59774155972E+03 0.  0.
        3    1    3    3  502    0  0.96391208122E+02 -0.11174088868E+03  0.12752482868E+04  0.12837583474E+04  0.10100000352E+00 0.  1.
       -3    1    3    3    0  502 -0.96391208122E+02  0.11174088868E+03  0.28240357569E+02  0.15024919036E+03  0.10100000352E+00 0. -1.
</event>
<event>
 5   0  0.9681801E-03  0.6056679E+03  0.7818609E-02  0.9893716E-01
       -2   -1    0    0    0  501  0.00000000000E+00  0.00000000000E+00  0.54743576840E+02  0.54743576900E+02  0.25500000920E-02 0.  1.
        2   -1    0    0  501    0  0.00000000000E+00  0.00000000000E+00 -0.16752359743E+04  0.16752359743E+04  0.25500000920E-02 0. -1.
    10030    2    1    2    0    0  0.00000000000E+00  0.00000000000E+00 -0.16204923975E+04  0.17299795512E+04  0.60566792663E+03 0.  0.
        4    1    3    3  502    0 -0.26316799120E+03  0.14027947671E+03 -0.65988686341E+03  0.72414639996E+03  0.12699999809E+01 0. -1.
       -4    1    3    3    0  502  0.26316799120E+03 -0.14027947671E+03 -0.96060553406E+03  0.10058331513E+04  0.12699999809E+01 0.  1.
</event>
<event>
 5   0  0.5785798E-03  0.5994656E+03  0.7818609E-02  0.9906515E-01
        1   -1    0    0  501    0  0.00000000000E+00  0.00000000000E+00  0.19399726362E+04  0.19399726362E+04  0.50400001928E-02 0. -1.
       -1   -1    0    0    0  501  0.00000000000E+00  0.00000000000E+00 -0.46309802887E+02  0.46309803161E+02  0.50400001928E-02 0.  1.
    10030    2    1    2    0    0  0.00000000000E+00  0.00000000000E+00  0.18936628333E+04  0.19862824394E+04  0.59946559758E+03 0.  0.
        1    1    3    3  502    0  0.28470166079E+03 -0.68446245863E+02  0.73467338722E+03  0.79087603968E+03  0.50400001928E-02 0.  1.
       -1    1    3    3    0  502 -0.28470166079E+03  0.68446245863E+02  0.11589894461E+04  0.11954063997E+04  0.50400001928E-02 0. -1.
</event>
<event>
 5   0  0.9428629E-03  0.6001909E+03  0.7818609E-02  0.9905010E-01
       -2   -1    0    0    0  501  0.00000000000E+00  0.00000000000E+00  0.10955917999E+03  0.10955918002E+03  0.25500000920E-02 0.  1.
        2   -1    0    0  501    0  0.00000000000E+00  0.00000000000E+00 -0.82199656218E+03  0.82199656219E+03  0.25500000920E-02 0. -1.
    10030    2    1    2    0    0  0.00000000000E+00  0.00000000000E+00 -0.71243738219E+03  0.93155574221E+03  0.60019086739E+03 0.  0.
        3    1    3    3  502    0  0.12615185103E+03  0.15269878344E+03 -0.63036194507E+01  0.19816900313E+03  0.10100000352E+00 0.  1.
       -3    1    3    3    0  502 -0.12615185103E+03 -0.15269878344E+03 -0.70613376274E+03  0.73338673908E+03  0.10100000352E+00 0. -1.
</event>
<event>
 5   0  0.5491236E-03  0.5986400E+03  0.7818609E-02  0.9908232E-01
       -1   -1    0    0    0  501  0.00000000000E+00  0.00000000000E+00  0.14226996494E+03  0.14226996503E+03  0.50400001928E-02 0. -1.
        1   -1    0    0  501    0  0.00000000000E+00  0.00000000000E+00 -0.62973562840E+03  0.62973562842E+03  0.50400001928E-02 0.  1.
    10030    2    1    2    0    0  0.00000000000E+00  0.00000000000E+00 -0.48746566346E+03  0.77200559345E+03  0.59864001141E+03 0.  0.
        3    1    3    3  502    0  0.90486827760E+01  0.10336289585E+03  0.11833617300E+03  0.15738242259E+03  0.10100000352E+00 0. -1.
       -3    1    3    3    0  502 -0.90486827760E+01 -0.10336289585E+03 -0.60580183646E+03  0.61462317086E+03  0.10100000352E+00 0.  1.
</event>
<event>
 5   0  0.5574736E-03  0.5992780E+03  0.7818609E-02  0.9906905E-01
        1   -1    0    0  501    0  0.00000000000E+00  0.00000000000E+00  0.93959920912E+03  0.93959920913E+03  0.50400001928E-02 0.  1.
       -1   -1    0    0    0  501  0.00000000000E+00  0.00000000000E+00 -0.95555131519E+02  0.95555131652E+02  0.50400001928E-02 0. -1.
    10030    2    1    2    0    0  0.00000000000E+00  0.00000000000E+00  0.84404407760E+03  0.10351543408E+04  0.59927798584E+03 0.  0.
        5    1    3    3  502    0 -0.17721637470E+03  0.19704869741E+03  0.66340202438E+03  0.71439356700E+03  0.46999998093E+01 0.  1.
       -5    1    3    3    0  502  0.17721637470E+03 -0.19704869741E+03  0.18064205322E+03  0.32076077379E+03  0.46999998093E+01 0. -1.
</event>
<event>
 5   0  0.5503975E-03  0.6005413E+03  0.7818609E-02  0.9904284E-01
        1   -1    0    0  501    0  0.00000000000E+00  0.00000000000E+00  0.14694464715E+03  0.14694464723E+03  0.50400001928E-02 0. -1.
       -1   -1    0    0    0  501  0.00000000000E+00  0.00000000000E+00 -0.61358113651E+03  0.61358113653E+03  0.50400001928E-02 0.  1.
    10030    2    1    2    0    0  0.00000000000E+00  0.00000000000E+00 -0.46663648936E+03  0.76052578376E+03  0.60054130130E+03 0.  0.
        4    1    3    3  502    0 -0.43511707013E+02  0.28514452827E+03 -0.33897111496E+03  0.44508841855E+03  0.12699999809E+01 0.  1.
       -4    1    3    3    0  502  0.43511707013E+02 -0.28514452827E+03 -0.12766537440E+03  0.31543736521E+03  0.12699999809E+01 0. -1.
</event>
<event>
 5   0  0.5491236E-03  0.5980103E+03  0.7818609E-02  0.9909543E-01
       -1   -1    0    0    0  501  0.00000000000E+00  0.00000000000E+00  0.62557866107E+02  0.62557866310E+02  0.50400001928E-02 0. -1.
        1   -1    0    0  501    0  0.00000000000E+00  0.00000000000E+00 -0.14291419949E+04  0.14291419949E+04  0.50400001928E-02 0.  1.
    10030    2    1    2    0    0  0.00000000000E+00  0.00000000000E+00 -0.13665841288E+04  0.14916998612E+04  0.59801027992E+03 0.  0.
        3    1    3    3  502    0  0.13061366019E+02  0.11294538681E+03 -0.13731150547E+04  0.13778142920E+04  0.10100000352E+00 0.  1.
       -3    1    3    3    0  502 -0.13061366019E+02 -0.11294538681E+03  0.65309258706E+01  0.11388556922E+03  0.10100000352E+00 0. -1.
</event>
<event>
 5   0  0.5491236E-03  0.6007176E+03  0.7818609E-02  0.9903918E-01
       -1   -1    0    0    0  501  0.00000000000E+00  0.00000000000E+00  0.27335563895E+03  0.27335563899E+03  0.50400001928E-02 0. -1.
        1   -1    0    0  501    0  0.00000000000E+00  0.00000000000E+00 -0.33002945755E+03  0.33002945759E+03  0.50400001928E-02 0.  1.
    10030    2    1    2    0    0  0.00000000000E+00  0.00000000000E+00 -0.56673818600E+02  0.60338509658E+03  0.60071761507E+03 0.  0.
        3    1    3    3  502    0 -0.27047885493E+03 -0.53060473411E+02 -0.14820322955E+03  0.31295116593E+03  0.10100000352E+00 0.  1.
       -3    1    3    3    0  502  0.27047885493E+03  0.53060473411E+02  0.91529410950E+02  0.29043393065E+03  0.10100000352E+00 0. -1.
</event>
<event>
 5   0  0.5503975E-03  0.6026187E+03  0.7818609E-02  0.9899988E-01
        1   -1    0    0  501    0  0.00000000000E+00  0.00000000000E+00  0.14498987427E+04  0.14498987427E+04  0.50400001928E-02 0.  1.
       -1   -1    0    0    0  501  0.00000000000E+00  0.00000000000E+00 -0.62616319354E+02  0.62616319557E+02  0.50400001928E-02 0. -1.
    10030    2    1    2    0    0  0.00000000000E+00  0.00000000000E+00  0.13872824233E+04  0.15125150622E+04  0.60261869491E+03 0.  0.
        4    1    3    3  502    0 -0.20346308608E+03 -0.21014824629E+03  0.51219412395E+03  0.58983382942E+03  0.12699999809E+01 0. -1.
       -4    1    3    3    0  502  0.20346308608E+03  0.21014824629E+03  0.87508829937E+03  0.92268123282E+03  0.12699999809E+01 0.  1.
</event>
<event>
 5   0  0.5491236E-03  0.6002081E+03  0.7818609E-02  0.9904974E-01
       -1   -1    0    0    0  501  0.00000000000E+00  0.00000000000E+00  0.51491314215E+03  0.51491314217E+03  0.50400001928E-02 0.  1.
        1   -1    0    0  501    0  0.00000000000E+00  0.00000000000E+00 -0.17490800626E+03  0.17490800633E+03  0.50400001928E-02 0. -1.
    10030    2    1    2    0    0  0.00000000000E+00  0.00000000000E+00  0.34000513589E+03  0.68982114850E+03  0.60020806766E+03 0.  0.
        3    1    3    3  502    0  0.18639308131E+03  0.11372083443E+03 -0.66618903750E+02  0.22828249491E+03  0.10100000352E+00 0. -1.
       -3    1    3    3    0  502 -0.18639308131E+03 -0.11372083443E+03  0.40662403964E+03  0.46153865359E+03  0.10100000352E+00 0.  1.
</event>
<event>
 5   0  0.5785798E-03  0.6006985E+03  0.7818609E-02  0.9903958E-01
       -1   -1    0    0    0  501  0.00000000000E+00  0.00000000000E+00  0.46375884326E+03  0.46375884329E+03  0.50400001928E-02 0.  1.
        1   -1    0    0  501    0  0.00000000000E+00  0.00000000000E+00 -0.19451850845E+03  0.19451850852E+03  0.50400001928E-02 0. -1.
    10030    2    1    2    0    0  0.00000000000E+00  0.00000000000E+00  0.26924033481E+03  0.65827735180E+03  0.60069852173E+03 0.  0.
        1    1    3    3  502    0  0.53659740860E+02  0.20666584797E+03 -0.96860584615E+02  0.23446132599E+03  0.50400001928E-02 0. -1.
       -1    1    3    3    0  502 -0.53659740860E+02 -0.20666584797E+03  0.36610091943E+03  0.42381602582E+03  0.50400001928E-02 0.  1.
</event>
<event>
 5   0  0.5491236E-03  0.5998112E+03  0.7818609E-02  0.9905798E-01
       -1   -1    0    0    0  501  0.00000000000E+00  0.00000000000E+00  0.21311969648E+03  0.21311969654E+03  0.50400001928E-02 0.  1.
        1   -1    0    0  501    0  0.00000000000E+00  0.00000000000E+00 -0.42203215224E+03  0.42203215227E+03  0.50400001928E-02 0. -1.
    10030    2    1    2    0    0  0.00000000000E+00  0.00000000000E+00 -0.20891245576E+03  0.63515184881E+03  0.59981118435E+03 0.  0.
        3    1    3    3  502    0  0.13193321497E+03  0.26821466583E+03 -0.78564097663E+02  0.30905955384E+03  0.10100000352E+00 0.  1.
       -3    1    3    3    0  502 -0.13193321497E+03 -0.26821466583E+03 -0.13034835810E+03  0.32609229497E+03  0.10100000352E+00 0. -1.
</event>
<event>
 5   0  0.9428629E-03  0.5977888E+03  0.7818609E-02  0.9910004E-01
        2   -1    0    0  501    0  0.00000000000E+00  0.00000000000E+00  0.48747082466E+03  0.48747082467E+03  0.25500000920E-02 0.  1.
       -2   -1    0    0    0  501  0.00000000000E+00  0.00000000000E+00 -0.18326811375E+03  0.18326811376E+03  0.25500000920E-02 0. -1.
    10030    2    1    2    0    0  0.00000000000E+00  0.00000000000E+00  0.30420271092E+03  0.67073893843E+03  0.59778878728E+03 0.  0.
        3    1    3    3  502    0 -0.32718078016E+01  0.29113467120E+03  0.76268612037E+02  0.30097676469E+03  0.10100000352E+00 0. -1.
       -3    1    3    3    0  502  0.32718078016E+01 -0.29113467120E+03  0.22793409888E+03  0.36976217374E+03  0.10100000352E+00 0.  1.
</event>
<event>
 5   0  0.9530666E-03  0.5991802E+03  0.7818609E-02  0.9907108E-01
        2   -1    0    0  501    0  0.00000000000E+00  0.00000000000E+00  0.36075139538E+03  0.36075139539E+03  0.25500000920E-02 0.  1.
       -2   -1    0    0    0  501  0.00000000000E+00  0.00000000000E+00 -0.24879800190E+03  0.24879800192E+03  0.25500000920E-02 0. -1.
    10030    2    1    2    0    0  0.00000000000E+00  0.00000000000E+00  0.11195339348E+03  0.60954939730E+03  0.59918019447E+03 0.  0.
        2    1    3    3  502    0  0.88164906005E+02  0.24266072420E+03 -0.98630163588E+02  0.27637870196E+03  0.25500000920E-02 0. -1.
       -2    1    3    3    0  502 -0.88164906005E+02 -0.24266072420E+03  0.21058355706E+03  0.33317069534E+03  0.25500000920E-02 0.  1.
</event>
<event>
 5   0  0.5574736E-03  0.5990047E+03  0.7818609E-02  0.9907473E-01
       -1   -1    0    0    0  501  0.00000000000E+00  0.00000000000E+00  0.35360534089E+03  0.35360534092E+03  0.50400001928E-02 0.  1.
        1   -1    0    0  501    0  0.00000000000E+00  0.00000000000E+00 -0.25367728452E+03  0.25367728457E+03  0.50400001928E-02 0. -1.
    10030    2    1    2    0    0  0.00000000000E+00  0.00000000000E+00  0.99928056362E+02  0.60728262550E+03  0.59900465005E+03 0.  0.
        5    1    3    3  502    0  0.45397528507E+01 -0.28973334622E+03 -0.26668468043E+02  0.29103147331E+03  0.46999998093E+01 0. -1.
       -5    1    3    3    0  502 -0.45397528507E+01  0.28973334622E+03  0.12659652440E+03  0.31625115219E+03  0.46999998093E+01 0.  1.
</event>
<event>
 5   0  0.9428629E-03  0.5908100E+03  0.7818609E-02  0.9924658E-01
       -2   -1    0    0    0  501  0.00000000000E+00  0.00000000000E+00  0.60046952678E+03  0.60046952678E+03  0.25500000920E-02 0.  1.
        2   -1    0    0  501    0  0.00000000000E+00  0.00000000000E+00 -0.14532645430E+03  0.14532645433E+03  0.25500000920E-02 0. -1.
    10030    2    1    2    0    0  0.00000000000E+00  0.00000000000E+00  0.45514307247E+03  0.74579598111E+03  0.59080997708E+03 0.  0.
        3    1    3    3  502    0  0.14410187758E+03  0.11225745477E+03  0.52063019226E+03  0.55174531676E+03  0.10100000352E+00 0.  1.
       -3    1    3    3    0  502 -0.14410187758E+03 -0.11225745477E+03 -0.65487119787E+02  0.19405066435E+03  0.10100000352E+00 0. -1.
</event>
<event>
 5   0  0.9866317E-03  0.6000033E+03  0.7818609E-02  0.9905399E-01
        2   -1    0    0  501    0  0.00000000000E+00  0.00000000000E+00  0.84940446202E+03  0.84940446202E+03  0.25500000920E-02 0.  1.
       -2   -1    0    0    0  501  0.00000000000E+00  0.00000000000E+00 -0.10595776225E+03  0.10595776228E+03  0.25500000920E-02 0. -1.
    10030    2    1    2    0    0  0.00000000000E+00  0.00000000000E+00  0.74344669976E+03  0.95536222431E+03  0.60000332019E+03 0.  0.
        1    1    3    3  502    0  0.25146587428E+02 -0.28947665142E+03  0.25286858628E+03  0.38519034844E+03  0.50400001928E-02 0. -1.
       -1    1    3    3    0  502 -0.25146587428E+02  0.28947665142E+03  0.49057811348E+03  0.57017187587E+03  0.50400001928E-02 0.  1.
</event>
<event>
 5   0  0.9681801E-03  0.6008526E+03  0.7818609E-02  0.9903639E-01
       -2   -1    0    0    0  501  0.00000000000E+00  0.00000000000E+00  0.18444946226E+03  0.18444946228E+03  0.25500000920E-02 0. -1.
        2   -1    0    0  501    0  0.00000000000E+00  0.00000000000E+00 -0.48932618403E+03  0.48932618403E+03  0.25500000920E-02 0.  1.
    10030    2    1    2    0    0  0.00000000000E+00  0.00000000000E+00 -0.30487672176E+03  0.67377564632E+03  0.60085256602E+03 0.  0.
        4    1    3    3  502    0 -0.92673404716E+02  0.26502885741E+03 -0.27230228247E+03  0.39112504540E+03  0.12699999809E+01 0.  1.
       -4    1    3    3    0  502  0.92673404716E+02 -0.26502885741E+03 -0.32574439292E+02  0.28265060091E+03  0.12699999809E+01 0. -1.
</event>
<event>
 5   0  0.9530666E-03  0.6000180E+03  0.7818609E-02  0.9905369E-01
        2   -1    0    0  501    0  0.00000000000E+00  0.00000000000E+00  0.64685160360E+03  0.64685160360E+03  0.25500000920E-02 0. -1.
       -2   -1    0    0    0  501  0.00000000000E+00  0.00000000000E+00 -0.13914379328E+03  0.13914379330E+03  0.25500000920E-02 0.  1.
    10030    2    1    2    0    0  0.00000000000E+00  0.00000000000E+00  0.50770781032E+03  0.78599539690E+03  0.60001795248E+03 0.  0.
        2    1    3    3  502    0  0.14331514806E+03 -0.23272665253E+03  0.41590977049E+03  0.49767646484E+03  0.25500000920E-02 0. -1.
       -2    1    3    3    0  502 -0.14331514806E+03  0.23272665253E+03  0.91798039825E+02  0.28831893206E+03  0.25500000920E-02 0.  1.
</event>
<event>
 5   0  0.5574736E-03  0.6010323E+03  0.7818609E-02  0.9903267E-01
       -1   -1    0    0    0  501  0.00000000000E+00  0.00000000000E+00  0.30970188538E+03  0.30970188542E+03  0.50400001928E-02 0.  1.
        1   -1    0    0  501    0  0.00000000000E+00  0.00000000000E+00 -0.29160288787E+03  0.29160288791E+03  0.50400001928E-02 0. -1.
    10030    2    1    2    0    0  0.00000000000E+00  0.00000000000E+00  0.18098997510E+02  0.60130477334E+03  0.60103232586E+03 0.  0.
        5    1    3    3  502    0  0.21633884616E+03  0.29147153834E+02 -0.19752853390E+03  0.29443448276E+03  0.46999998093E+01 0. -1.
       -5    1    3    3    0  502 -0.21633884616E+03 -0.29147153834E+02  0.21562753141E+03  0.30687029057E+03  0.46999998093E+01 0.  1.
</event>
<event>
 5   0  0.9530666E-03  0.5992112E+03  0.7818609E-02  0.9907044E-01
        2   -1    0    0  501    0  0.00000000000E+00  0.00000000000E+00  0.24467741988E+03  0.24467741990E+03  0.25500000920E-02 0. -1.
       -2   -1    0    0    0  501  0.00000000000E+00  0.00000000000E+00 -0.36686475251E+03  0.36686475252E+03  0.25500000920E-02 0.  1.
    10030    2    1    2    0    0  0.00000000000E+00  0.00000000000E+00 -0.12218733263E+03  0.61154217242E+03  0.59921121851E+03 0.  0.
        2    1    3    3  502    0 -0.11776943837E+03 -0.22873290350E+03  0.95607998353E+02  0.27446178443E+03  0.25500000920E-02 0. -1.
       -2    1    3    3    0  502  0.11776943837E+03  0.22873290350E+03 -0.21779533098E+03  0.33708038798E+03  0.25500000920E-02 0.  1.
</event>
<event>
 5   0  0.5574736E-03  0.5987768E+03  0.7818609E-02  0.9907947E-01
        1   -1    0    0  501    0  0.00000000000E+00  0.00000000000E+00  0.14306825123E+03  0.14306825132E+03  0.50400001928E-02 0.  1.
       -1   -1    0    0    0  501  0.00000000000E+00  0.00000000000E+00 -0.62650798579E+03  0.62650798581E+03  0.50400001928E-02 0. -1.
    10030    2    1    2    0    0  0.00000000000E+00  0.00000000000E+00 -0.48343973457E+03  0.76957623713E+03  0.59877675957E+03 0.  0.
        5    1    3    3  502    0 -0.10198595086E+03 -0.18055372222E+03 -0.51919798487E+03  0.55909696679E+03  0.46999998093E+01 0. -1.
       -5    1    3    3    0  502  0.10198595086E+03  0.18055372222E+03  0.35758250307E+02  0.21047927034E+03  0.46999998093E+01 0.  1.
</event>
<event>
 5   0  0.5653633E-03  0.5989818E+03  0.7818609E-02  0.9907521E-01
       -1   -1    0    0    0  501  0.00000000000E+00  0.00000000000E+00  0.17221802664E+03  0.17221802672E+03  0.50400001928E-02 0.  1.
        1   -1    0    0  501    0  0.00000000000E+00  0.00000000000E+00 -0.52082127893E+03  0.52082127895E+03  0.50400001928E-02 0. -1.
    10030    2    1    2    0    0  0.00000000000E+00  0.00000000000E+00 -0.34860325229E+03  0.69303930567E+03  0.59898184589E+03 0.  0.
        2    1    3    3  502    0 -0.25682809920E+03 -0.31343916732E+02 -0.34882400563E+03  0.43430553827E+03  0.25500000920E-02 0. -1.
       -2    1    3    3    0  502  0.25682809920E+03  0.31343916732E+02  0.22075334437E+00  0.25873376741E+03  0.25500000920E-02 0.  1.
</event>
<event>
 5   0  0.5653633E-03  0.5999683E+03  0.7818609E-02  0.9905472E-01
       -1   -1    0    0    0  501  0.00000000000E+00  0.00000000000E+00  0.13147724647E+03  0.13147724657E+03  0.50400001928E-02 0. -1.
        1   -1    0    0  501    0  0.00000000000E+00  0.00000000000E+00 -0.68445684935E+03  0.68445684937E+03  0.50400001928E-02 0.  1.
    10030    2    1    2    0    0  0.00000000000E+00  0.00000000000E+00 -0.55297960288E+03  0.81593409594E+03  0.59996833893E+03 0.  0.
        2    1    3    3  502    0  0.42680391235E+02  0.29174630118E+03 -0.20134674400E+03  0.35704065788E+03  0.25500000920E-02 0. -1.
       -2    1    3    3    0  502 -0.42680391235E+02 -0.29174630118E+03 -0.35163285887E+03  0.45889343806E+03  0.25500000920E-02 0.  1.
</event>
<event>
 5   0  0.5653633E-03  0.5994855E+03  0.7818609E-02  0.9906474E-01
        1   -1    0    0  501    0  0.00000000000E+00  0.00000000000E+00  0.78611192699E+03  0.78611192700E+03  0.50400001928E-02 0. -1.
       -1   -1    0    0    0  501  0.00000000000E+00  0.00000000000E+00 -0.11429126417E+03  0.11429126428E+03  0.50400001928E-02 0.  1.
    10030    2    1    2    0    0  0.00000000000E+00  0.00000000000E+00  0.67182066282E+03  0.90040319128E+03  0.59948553267E+03 0.  0.
        2    1    3    3  502    0  0.12017884525E+03  0.10007632294E+02  0.74806797433E+03  0.75772607304E+03  0.25500000920E-02 0. -1.
       -2    1    3    3    0  502 -0.12017884525E+03 -0.10007632294E+02 -0.76247311508E+02  0.14267711824E+03  0.25500000920E-02 0.  1.
</event>
<event>
 5   0  0.9866317E-03  0.6000527E+03  0.7818609E-02  0.9905297E-01
       -2   -1    0    0    0  501  0.00000000000E+00  0.00000000000E+00  0.22985580138E+03  0.22985580139E+03  0.25500000920E-02 0. -1.
        2   -1    0    0  501    0  0.00000000000E+00  0.00000000000E+00 -0.39161855591E+03  0.39161855592E+03  0.25500000920E-02 0.  1.
    10030    2    1    2    0    0  0.00000000000E+00  0.00000000000E+00 -0.16176275453E+03  0.62147435731E+03  0.60005265439E+03 0.  0.
        1    1    3    3  502    0  0.55138083519E+02  0.23143467541E+03 -0.27020088027E+03  0.36001490658E+03  0.50400001928E-02 0.  1.
       -1    1    3    3    0  502 -0.55138083519E+02 -0.23143467541E+03  0.10843812574E+03  0.26145945073E+03  0.50400001928E-02 0. -1.
</event>
<event>
 5   0  0.9681801E-03  0.6000075E+03  0.7818609E-02  0.9905390E-01
        2   -1    0    0  501    0  0.00000000000E+00  0.00000000000E+00  0.53002029255E+03  0.53002029256E+03  0.25500000920E-02 0.  1.
       -2   -1    0    0    0  501  0.00000000000E+00  0.00000000000E+00 -0.16980906732E+03  0.16980906734E+03  0.25500000920E-02 0. -1.
    10030    2    1    2    0    0  0.00000000000E+00  0.00000000000E+00  0.36021122523E+03  0.69982935990E+03  0.60000750511E+03 0.  0.
        4    1    3    3  502    0 -0.21365707217E+03  0.20316657866E+03  0.11543122985E+03  0.31662593845E+03  0.12699999809E+01 0. -1.
       -4    1    3    3    0  502  0.21365707217E+03 -0.20316657866E+03  0.24477999538E+03  0.38320342145E+03  0.12699999809E+01 0.  1.
</event>
<event>
 5   0  0.3794375E-03  0.6002285E+03  0.7818609E-02  0.9904932E-01
       -3   -1    0    0    0  501  0.00000000000E+00  0.00000000000E+00  0.68847760741E+02  0.68847834824E+02  0.10100000352E+00 0.  1.
        3   -1    0    0  501    0  0.00000000000E+00  0.00000000000E+00 -0.13082273458E+04  0.13082273497E+04  0.10100000352E+00 0. -1.
    10030    2    1    2    0    0  0.00000000000E+00  0.00000000000E+00 -0.12393795851E+04  0.13770751845E+04  0.60022854645E+03 0.  0.
        3    1    3    3  502    0  0.25076687810E+03 -0.10694533542E+03 -0.33178880242E+03  0.42942420929E+03  0.10100000352E+00 0.  1.
       -3    1    3    3    0  502 -0.25076687810E+03  0.10694533542E+03 -0.90759078265E+03  0.94765097524E+03  0.10100000352E+00 0. -1.
</event>
<event>
 5   0  0.5491236E-03  0.5996840E+03  0.7818609E-02  0.9906062E-01
       -1   -1    0    0    0  501  0.00000000000E+00  0.00000000000E+00  0.60577419170E+03  0.60577419172E+03  0.50400001928E-02 0.  1.
        1   -1    0    0  501    0  0.00000000000E+00  0.00000000000E+00 -0.14841374740E+03  0.14841374749E+03  0.50400001928E-02 0. -1.
    10030    2    1    2    0    0  0.00000000000E+00  0.00000000000E+00  0.45736044430E+03  0.75418793921E+03  0.59968397647E+03 0.  0.
        3    1    3    3  502    0  0.27929371211E+03 -0.76373232070E+02  0.32664207771E+03  0.43650075067E+03  0.10100000352E+00 0. -1.
       -3    1    3    3    0  502 -0.27929371211E+03  0.76373232070E+02  0.13071836659E+03  0.31768718854E+03  0.10100000352E+00 0.  1.
</event>
<event>
 5   0  0.9428629E-03  0.6002408E+03  0.7818609E-02  0.9904907E-01
       -2   -1    0    0    0  501  0.00000000000E+00  0.00000000000E+00  0.12343991335E+03  0.12343991338E+03  0.25500000920E-02 0. -1.
        2   -1    0    0  501    0  0.00000000000E+00  0.00000000000E+00 -0.72968498166E+03  0.72968498166E+03  0.25500000920E-02 0.  1.
    10030    2    1    2    0    0  0.00000000000E+00  0.00000000000E+00 -0.60624506831E+03  0.85312489504E+03  0.60024078810E+03 0.  0.
        3    1    3    3  502    0  0.26630163716E+03  0.80728771069E+02 -0.46290739876E+03  0.54010829142E+03  0.10100000352E+00 0.  1.
       -3    1    3    3    0  502 -0.26630163716E+03 -0.80728771069E+02 -0.14333766954E+03  0.31301660362E+03  0.10100000352E+00 0. -1.
</event>
<event>
 5   0  0.5491236E-03  0.6014800E+03  0.7818609E-02  0.9902340E-01
        1   -1    0    0  501    0  0.00000000000E+00  0.00000000000E+00  0.73213877417E+03  0.73213877418E+03  0.50400001928E-02 0. -1.
       -1   -1    0    0    0  501  0.00000000000E+00  0.00000000000E+00 -0.12353469224E+03  0.12353469234E+03  0.50400001928E-02 0.  1.
    10030    2    1    2    0    0  0.00000000000E+00  0.00000000000E+00  0.60860408193E+03  0.85567346652E+03  0.60147996872E+03 0.  0.
        3    1    3    3  502    0 -0.18456212718E+03 -0.14695047520E+01 -0.33487588312E+02  0.18758136102E+03  0.10100000352E+00 0.  1.
       -3    1    3    3    0  502  0.18456212718E+03  0.14695047520E+01  0.64209167024E+03  0.66809210550E+03  0.10100000352E+00 0. -1.
</event>
<event>
 5   0  0.5653633E-03  0.5995864E+03  0.7818609E-02  0.9906264E-01
       -1   -1    0    0    0  501  0.00000000000E+00  0.00000000000E+00  0.14781321052E+03  0.14781321060E+03  0.50400001928E-02 0. -1.
        1   -1    0    0  501    0  0.00000000000E+00  0.00000000000E+00 -0.60803749365E+03  0.60803749367E+03  0.50400001928E-02 0.  1.
    10030    2    1    2    0    0  0.00000000000E+00  0.00000000000E+00 -0.46022428313E+03  0.75585070427E+03  0.59958643777E+03 0.  0.
        2    1    3    3  502    0  0.96531025235E+02 -0.40024552690E+02  0.12411037082E+03  0.16224545542E+03  0.25500000920E-02 0. -1.
       -2    1    3    3    0  502 -0.96531025235E+02  0.40024552690E+02 -0.58433465395E+03  0.59360524885E+03  0.25500000920E-02 0.  1.
</event>
<event>
 5   0  0.9530666E-03  0.5996279E+03  0.7818609E-02  0.9906178E-01
        2   -1    0    0  501    0  0.00000000000E+00  0.00000000000E+00  0.11861617756E+04  0.11861617756E+04  0.25500000920E-02 0. -1.
       -2   -1    0    0    0  501  0.00000000000E+00  0.00000000000E+00 -0.75780898705E+02  0.75780898748E+02  0.25500000920E-02 0.  1.
    10030    2    1    2    0    0  0.00000000000E+00  0.00000000000E+00  0.11103808769E+04  0.12619426744E+04  0.59962790261E+03 0.  0.
        2    1    3    3  502    0  0.22410590744E+03  0.11158442744E+03  0.20801188307E+03  0.32548960921E+03  0.25500000920E-02 0.  1.
       -2    1    3    3    0  502 -0.22410590744E+03 -0.11158442744E+03  0.90236899386E+03  0.93645306518E+03  0.25500000920E-02 0. -1.
</event>
<event>
 5   0  0.5574736E-03  0.5994240E+03  0.7818609E-02  0.9906602E-01
       -1   -1    0    0    0  501  0.00000000000E+00  0.00000000000E+00  0.83519660558E+02  0.83519660710E+02  0.50400001928E-02 0. -1.
        1   -1    0    0  501    0  0.00000000000E+00  0.00000000000E+00 -0.10755225614E+04  0.10755225614E+04  0.50400001928E-02 0.  1.
    10030    2    1    2    0    0  0.00000000000E+00  0.00000000000E+00 -0.99200290080E+03  0.11590422221E+04  0.59942398798E+03 0.  0.
        5    1    3    3  502    0 -0.21202493316E+03 -0.12262392240E+03 -0.82986975683E+03  0.86527284825E+03  0.46999998093E+01 0.  1.
       -5    1    3    3    0  502  0.21202493316E+03  0.12262392240E+03 -0.16213314398E+03  0.29376937383E+03  0.46999998093E+01 0. -1.
</event>
<event>
 5   0  0.5503975E-03  0.5999273E+03  0.7818609E-02  0.9905557E-01
        1   -1    0    0  501    0  0.00000000000E+00  0.00000000000E+00  0.14906369609E+03  0.14906369618E+03  0.50400001928E-02 0.  1.
       -1   -1    0    0    0  501  0.00000000000E+00  0.00000000000E+00 -0.60362253032E+03  0.60362253034E+03  0.50400001928E-02 0. -1.
    10030    2    1    2    0    0  0.00000000000E+00  0.00000000000E+00 -0.45455883423E+03  0.75268622652E+03  0.59992734711E+03 0.  0.
        4    1    3    3  502    0  0.38062007630E+02  0.29706164213E+03 -0.24835781487E+03  0.38907268313E+03  0.12699999809E+01 0.  1.
       -4    1    3    3    0  502 -0.38062007630E+02 -0.29706164213E+03 -0.20620101936E+03  0.36361354339E+03  0.12699999809E+01 0. -1.
</event>
<event>
 5   0  0.9681801E-03  0.5991282E+03  0.7818609E-02  0.9907216E-01
        2   -1    0    0  501    0  0.00000000000E+00  0.00000000000E+00  0.96472010171E+03  0.96472010171E+03  0.25500000920E-02 0. -1.
       -2   -1    0    0    0  501  0.00000000000E+00  0.00000000000E+00 -0.93020411979E+02  0.93020412014E+02  0.25500000920E-02 0.  1.
    10030    2    1    2    0    0  0.00000000000E+00  0.00000000000E+00  0.87169968973E+03  0.10577405137E+04  0.59912823778E+03 0.  0.
        4    1    3    3  502    0  0.28867007670E+03  0.40588088716E+01  0.57697851883E+03  0.64517649616E+03  0.12699999809E+01 0. -1.
       -4    1    3    3    0  502 -0.28867007670E+03 -0.40588088716E+01  0.29472117090E+03  0.41256401756E+03  0.12699999809E+01 0.  1.
</event>
<event>
 5   0  0.5785798E-03  0.6001796E+03  0.7818609E-02  0.9905033E-01
       -1   -1    0    0    0  501  0.00000000000E+00  0.00000000000E+00  0.34812857893E+03  0.34812857897E+03  0.50400001928E-02 0. -1.
        1   -1    0    0  501    0  0.00000000000E+00  0.00000000000E+00 -0.25867997282E+03  0.25867997287E+03  0.50400001928E-02 0.  1.
    10030    2    1    2    0    0  0.00000000000E+00  0.00000000000E+00  0.89448606114E+02  0.60680855184E+03  0.60017961099E+03 0.  0.
        1    1    3    3  502    0  0.26512802070E+03 -0.55541712220E+02 -0.85838134503E+02  0.28415829131E+03  0.50400001928E-02 0. -1.
       -1    1    3    3    0  502 -0.26512802070E+03  0.55541712220E+02  0.17528674062E+03  0.32265026053E+03  0.50400001928E-02 0.  1.
</event>
<event>
 5   0  0.9681801E-03  0.6020948E+03  0.7818609E-02  0.9901070E-01
       -2   -1    0    0    0  501  0.00000000000E+00  0.00000000000E+00  0.53534002556E+02  0.53534002617E+02  0.25500000920E-02 0. -1.
        2   -1    0    0  501    0  0.00000000000E+00  0.00000000000E+00 -0.16929338839E+04  0.16929338839E+04  0.25500000920E-02 0.  1.
    10030    2    1    2    0    0  0.00000000000E+00  0.00000000000E+00 -0.16393998814E+04  0.17464678865E+04  0.60209476637E+03 0.  0.
        4    1    3    3  502    0 -0.25093717003E+03 -0.15176262283E+03 -0.10169988626E+04  0.10584373654E+04  0.12699999809E+01 0.  1.
       -4    1    3    3    0  502  0.25093717003E+03  0.15176262283E+03 -0.62240101872E+03  0.68803052112E+03  0.12699999809E+01 0. -1.
</event>
<event>
 5   0  0.9571790E-03  0.5960854E+03  0.7818609E-02  0.9913561E-01
        2   -1    0    0  501    0  0.00000000000E+00  0.00000000000E+00  0.96673638482E+03  0.96673638482E+03  0.25500000920E-02 0. -1.
       -2   -1    0    0    0  501  0.00000000000E+00  0.00000000000E+00 -0.91885912983E+02  0.91885913019E+02  0.25500000920E-02 0.  1.
    10030    2    1    2    0    0  0.00000000000E+00  0.00000000000E+00  0.87485047184E+03  0.10586222978E+04  0.59608541453E+03 0.  0.
        5    1    3    3  502    0  0.20125204875E+03  0.11222838767E+03  0.77302840383E+03  0.80665519353E+03  0.46999998093E+01 0. -1.
       -5    1    3    3    0  502 -0.20125204875E+03 -0.11222838767E+03  0.10182206801E+03  0.25196710431E+03  0.46999998093E+01 0.  1.
</event>
<event>
 5   0  0.5503975E-03  0.6001409E+03  0.7818609E-02  0.9905114E-01
        1   -1    0    0  501    0  0.00000000000E+00  0.00000000000E+00  0.46246390212E+03  0.46246390215E+03  0.50400001928E-02 0.  1.
       -1   -1    0    0    0  501  0.00000000000E+00  0.00000000000E+00 -0.19470116496E+03  0.19470116502E+03  0.50400001928E-02 0. -1.
    10030    2    1    2    0    0  0.00000000000E+00  0.00000000000E+00  0.26776273717E+03  0.65716506717E+03  0.60014085188E+03 0.  0.
        4    1    3    3  502    0 -0.39118015903E+02 -0.23923268614E+03  0.32754220828E+03  0.40748988748E+03  0.12699999809E+01 0.  1.
       -4    1    3    3    0  502  0.39118015903E+02  0.23923268614E+03 -0.59779471118E+02  0.24967517969E+03  0.12699999809E+01 0. -1.
</event>
<event>
 5   0  0.9571790E-03  0.5998788E+03  0.7818609E-02  0.9905658E-01
        2   -1    0    0  501    0  0.00000000000E+00  0.00000000000E+00  0.40899026975E+03  0.40899026976E+03  0.25500000920E-02 0. -1.
       -2   -1    0    0    0  501  0.00000000000E+00  0.00000000000E+00 -0.21996522075E+03  0.21996522076E+03  0.25500000920E-02 0.  1.
    10030    2    1    2    0    0  0.00000000000E+00  0.00000000000E+00  0.18902504900E+03  0.62895549052E+03  0.59987877101E+03 0.  0.
        5    1    3    3  502    0  0.16654424480E+03  0.62042652087E+02 -0.15876488561E+03  0.23835824940E+03  0.46999998093E+01 0.  1.
       -5    1    3    3    0  502 -0.16654424480E+03 -0.62042652087E+02  0.34778993461E+03  0.39059724112E+03  0.46999998093E+01 0. -1.
</event>
<event>
 5   0  0.3794375E-03  0.6155888E+03  0.7818609E-02  0.9873582E-01
       -4   -1    0    0    0  501  0.00000000000E+00  0.00000000000E+00  0.47507401048E+03  0.47507570801E+03  0.12699999809E+01 0. -1.
        4   -1    0    0  501    0  0.00000000000E+00  0.00000000000E+00 -0.19941200846E+03  0.19941605256E+03  0.12699999809E+01 0.  1.
    10030    2    1    2    0    0  0.00000000000E+00  0.00000000000E+00  0.27566200202E+03  0.67449176057E+03  0.61558882033E+03 0.  0.
        3    1    3    3  502    0 -0.65136363161E+02  0.22290484753E+03  0.35917052033E+03  0.42770642938E+03  0.10100000352E+00 0. -1.
       -3    1    3    3    0  502  0.65136363161E+02 -0.22290484753E+03 -0.83508518309E+02  0.24678533119E+03  0.10100000352E+00 0.  1.
</event>
<event>
 5   0  0.3794375E-03  0.6011720E+03  0.7818609E-02  0.9902978E-01
       -3   -1    0    0    0  501  0.00000000000E+00  0.00000000000E+00  0.18597294926E+03  0.18597297669E+03  0.10100000352E+00 0.  1.
        3   -1    0    0  501    0  0.00000000000E+00  0.00000000000E+00 -0.48583369089E+03  0.48583370138E+03  0.10100000352E+00 0. -1.
    10030    2    1    2    0    0  0.00000000000E+00  0.00000000000E+00 -0.29986074162E+03  0.67180667807E+03  0.60117197900E+03 0.  0.
        3    1    3    3  502    0 -0.22568039019E+03 -0.10363053583E+02  0.71640723624E+02  0.23700513682E+03  0.10100000352E+00 0.  1.
       -3    1    3    3    0  502  0.22568039019E+03  0.10363053583E+02 -0.37150146525E+03  0.43480154125E+03  0.10100000352E+00 0. -1.
</event>
<event>
 5   0  0.9530666E-03  0.5985151E+03  0.7818609E-02  0.9908491E-01
       -2   -1    0    0    0  501  0.00000000000E+00  0.00000000000E+00  0.29649647349E+03  0.29649647350E+03  0.25500000920E-02 0. -1.
        2   -1    0    0  501    0  0.00000000000E+00  0.00000000000E+00 -0.30204437028E+03  0.30204437029E+03  0.25500000920E-02 0.  1.
    10030    2    1    2    0    0  0.00000000000E+00  0.00000000000E+00 -0.55478967923E+01  0.59854084379E+03  0.59851513141E+03 0.  0.
        2    1    3    3  502    0 -0.29278680205E+03 -0.52841514988E+02 -0.35005031528E+02  0.29956917298E+03  0.25500000920E-02 0.  1.
       -2    1    3    3    0  502  0.29278680205E+03  0.52841514988E+02  0.29457134736E+02  0.29897167082E+03  0.25500000920E-02 0. -1.
</event>
<event>
 5   0  0.5491236E-03  0.6004300E+03  0.7818609E-02  0.9904514E-01
       -1   -1    0    0    0  501  0.00000000000E+00  0.00000000000E+00  0.13723643866E+03  0.13723643876E+03  0.50400001928E-02 0. -1.
        1   -1    0    0  501    0  0.00000000000E+00  0.00000000000E+00 -0.65674276972E+03  0.65674276974E+03  0.50400001928E-02 0.  1.
    10030    2    1    2    0    0  0.00000000000E+00  0.00000000000E+00 -0.51950633105E+03  0.79397920849E+03  0.60042997553E+03 0.  0.
        3    1    3    3  502    0 -0.13663758879E+03  0.33737372116E+02  0.90909270472E+02  0.16754863952E+03  0.10100000352E+00 0. -1.
       -3    1    3    3    0  502  0.13663758879E+03 -0.33737372116E+02 -0.61041560153E+03  0.62643056897E+03  0.10100000352E+00 0.  1.
</event>
</LesHouchesEvents>
