<LesHouchesEvents version="3.0">
<header>
<!--
#*********************************************************************
#                                                                    *
#                        MadGraph5_aMC@NLO                           *
#                                                                    *
#                           Going Beyond                             *
#                                                                    *
#                   http://madgraph.hep.uiuc.edu                     *
#                   http://madgraph.phys.ucl.ac.be                   *
#                   http://amcatnlo.cern.ch                          *
#                                                                    *
#                     The MadGraph5_aMC@NLO team                     *
#                                                                    *
#....................................................................*
#                                                                    *
# This file contains all the information necessary to reproduce      *
# the events generated:                                              *
#                                                                    *
# 1. software version                                                *
# 2. proc_card          : code generation info including model       *
# 3. param_card         : model primary parameters in the LH format  *
# 4. run_card           : running parameters (collider and cuts)     *
# 5. pythia_card        : present only if pythia has been run        *
# 6. pgs_card           : present only if pgs has been run           *
# 7. delphes_cards      : present only if delphes has been run       *
#                                                                    *
#                                                                    *
#*********************************************************************
-->
<MGVersion>
#5.2.2.3
</MGVersion>
<MG5ProcCard>
#************************************************************
#*                     MadGraph5_aMC@NLO                    *
#*                                                          *
#*                *                       *                 *
#*                  *        * *        *                   *
#*                    * * * * 5 * * * *                     *
#*                  *        * *        *                   *
#*                *                       *                 *
#*                                                          *
#*                                                          *
#*         VERSION 2.2.3                 2015-02-10         *
#*                                                          *
#*    The MadGraph5_aMC@NLO Development Team - Find us at   *
#*    https://server06.fynu.ucl.ac.be/projects/madgraph     *
#*                                                          *
#************************************************************
#*                                                          *
#*               Command File for MadGraph5_aMC@NLO         *
#*                                                          *
#*     run as ./bin/mg5_aMC  filename                       *
#*                                                          *
#************************************************************
set group_subprocesses Auto
set ignore_six_quark_processes False
set loop_optimized_output True
set gauge unitary
set complex_mass_scheme False
import model sm
define p = g u c d s u~ c~ d~ s~
define j = g u c d s u~ c~ d~ s~
define l+ = e+ mu+
define l- = e- mu-
define vl = ve vm vt
define vl~ = ve~ vm~ vt~
import model Zprime_UFO
generate p p > zph, zph > j j
add process p p > zph, zph > b b~
output Dijet_signal
</MG5ProcCard>
<MGProcCard>
#*********************************************************************
#                        MadGraph/MadEvent                           *
#                   http://madgraph.hep.uiuc.edu                     *
#                                                                    *
#                          proc_card.dat                             *
#*********************************************************************
#                                                                    *
#            This Files is generated by MADGRAPH 5                   *
#                                                                    *
# WARNING: This Files is generated for MADEVENT (compatibility issue)*
#          This files is NOT a valid MG4 proc_card.dat               *
#          Running this in MG4 will NEVER reproduce the result of MG5*
#                                                                    *
#*********************************************************************
#*********************************************************************
# Process(es) requested : mg2 input                                  *
#*********************************************************************
# Begin PROCESS # This is TAG. Do not modify this line
p p > zph , zph > j j           #Process
# Be carefull the coupling are here in MG5 convention
          
end_coup           # End the couplings input

done               # this tells MG there are no more procs
# End PROCESS  # This is TAG. Do not modify this line
#*********************************************************************
# Model information                                                  *
#*********************************************************************
# Begin MODEL  # This is TAG. Do not modify this line
Zprime_UFO
# End   MODEL  # This is TAG. Do not modify this line
#*********************************************************************
# Start multiparticle definitions                                    *
#*********************************************************************
# Begin MULTIPARTICLES # This is TAG. Do not modify this line

# End  MULTIPARTICLES # This is TAG. Do not modify this line
</MGProcCard>
<MGRunCard>
#*********************************************************************
#                       MadGraph5_aMC@NLO                            *
#                                                                    *
#                     run_card.dat MadEvent                          *
#                                                                    *
#  This file is used to set the parameters of the run.               *
#                                                                    *
#  Some notation/conventions:                                        *
#                                                                    *
#   Lines starting with a '# ' are info or comments                  *
#                                                                    *
#   mind the format:   value    = variable     ! comment             *
#*********************************************************************
#
#*******************                                                 
# Running parameters
#*******************                                                 
#                                                                    
#*********************************************************************
# Tag name for the run (one word)                                    *
#*********************************************************************
  tag_1     = run_tag ! name of the run 
#*********************************************************************
# Run to generate the grid pack                                      *
#*********************************************************************
  .false.     = gridpack  !True = setting up the grid pack
#*********************************************************************
# Number of events and rnd seed                                      *
# Warning: Do not generate more than 1M events in a single run       *
# If you want to run Pythia, avoid more than 50k events in a run.    *
#*********************************************************************
  2000 = nevents ! Number of unweighted events requested 
 1083 = iseed   ! rnd seed (0=assigned automatically=default))
#*********************************************************************
# Collider type and energy                                           *
# lpp: 0=No PDF, 1=proton, -1=antiproton, 2=photon from proton,      *
#                                         3=photon from electron     *
#*********************************************************************
        1     = lpp1    ! beam 1 type 
        1     = lpp2    ! beam 2 type
     4000     = ebeam1  ! beam 1 total energy in GeV
     4000     = ebeam2  ! beam 2 total energy in GeV
#*********************************************************************
# Beam polarization from -100 (left-handed) to 100 (right-handed)    *
#*********************************************************************
        0     = polbeam1 ! beam polarization for beam 1
        0     = polbeam2 ! beam polarization for beam 2
#*********************************************************************
# PDF CHOICE: this automatically fixes also alpha_s and its evol.    *
#*********************************************************************
 'nn23lo1'    = pdlabel     ! PDF set                                     
 230000    = lhaid     ! if pdlabel=lhapdf, this is the lhapdf number
#*********************************************************************
# Renormalization and factorization scales                           *
#*********************************************************************
 F        = fixed_ren_scale  ! if .true. use fixed ren scale
 F        = fixed_fac_scale  ! if .true. use fixed fac scale
 91.1880  = scale            ! fixed ren scale
 91.1880  = dsqrt_q2fact1    ! fixed fact scale for pdf1
 91.1880  = dsqrt_q2fact2    ! fixed fact scale for pdf2
 1        = scalefact        ! scale factor for event-by-event scales
#*********************************************************************
# Matching - Warning! ickkw > 1 is still beta
#*********************************************************************
 0        = ickkw            ! 0 no matching, 1 MLM, 2 CKKW matching
 1        = highestmult      ! for ickkw=2, highest mult group
 1        = ktscheme         ! for ickkw=1, 1 Durham kT, 2 Pythia pTE
 1        = alpsfact         ! scale factor for QCD emission vx
 F        = chcluster        ! cluster only according to channel diag
 T        = pdfwgt           ! for ickkw=1, perform pdf reweighting
 5        = asrwgtflavor     ! highest quark flavor for a_s reweight
 T        = clusinfo         ! include clustering tag in output
 3.0      = lhe_version       ! Change the way clustering information pass to shower.        
#*********************************************************************
#**********************************************************
#
#**********************************************************
# Automatic ptj and mjj cuts if xqcut > 0
# (turn off for VBF and single top processes)
#**********************************************************
   T  = auto_ptj_mjj  ! Automatic setting of ptj and mjj
#**********************************************************
#                                                                    
#**********************************
# BW cutoff (M+/-bwcutoff*Gamma)
#**********************************
  15  = bwcutoff      ! (M+/-bwcutoff*Gamma)
#**********************************************************
# Apply pt/E/eta/dr/mij cuts on decay products or not
# (note that etmiss/ptll/ptheavy/ht/sorted cuts always apply)
#**********************************************************
   T  = cut_decays    ! Cut decay products 
#*************************************************************
# Number of helicities to sum per event (0 = all helicities)
# 0 gives more stable result, but longer run time (needed for
# long decay chains e.g.).
# Use >=2 if most helicities contribute, e.g. pure QCD.
#*************************************************************
   0  = nhel          ! Number of helicities used per event
#*******************                                                 
# Standard Cuts
#*******************                                                 
#                                                                    
#*********************************************************************
# Minimum and maximum pt's (for max, -1 means no cut)                *
#*********************************************************************
 20  = ptj       ! minimum pt for the jets 
  0  = ptb       ! minimum pt for the b 
 10  = pta       ! minimum pt for the photons 
 10  = ptl       ! minimum pt for the charged leptons 
  0  = misset    ! minimum missing Et (sum of neutrino's momenta)
  0  = ptheavy   ! minimum pt for one heavy final state
 1.0 = ptonium   ! minimum pt for the quarkonium states
 -1  = ptjmax    ! maximum pt for the jets
 -1  = ptbmax    ! maximum pt for the b
 -1  = ptamax    ! maximum pt for the photons
 -1  = ptlmax    ! maximum pt for the charged leptons
 -1  = missetmax ! maximum missing Et (sum of neutrino's momenta)
#*********************************************************************
# Minimum and maximum E's (in the center of mass frame)              *
#*********************************************************************
  0  = ej     ! minimum E for the jets 
  0  = eb     ! minimum E for the b 
  0  = ea     ! minimum E for the photons 
  0  = el     ! minimum E for the charged leptons 
 -1   = ejmax ! maximum E for the jets
 -1   = ebmax ! maximum E for the b
 -1   = eamax ! maximum E for the photons
 -1   = elmax ! maximum E for the charged leptons
#*********************************************************************
# Maximum and minimum absolute rapidity (for max, -1 means no cut)   *
#*********************************************************************
   5  = etaj    ! max rap for the jets 
  -1  = etab    ! max rap for the b
 2.5  = etaa    ! max rap for the photons 
 2.5  = etal    ! max rap for the charged leptons 
 0.6  = etaonium ! max rap for the quarkonium states
   0  = etajmin ! min rap for the jets
   0  = etabmin ! min rap for the b
   0  = etaamin ! min rap for the photons
   0  = etalmin ! main rap for the charged leptons
#*********************************************************************
# Minimum and maximum DeltaR distance                                *
#*********************************************************************
 0.4 = drjj    ! min distance between jets 
 0   = drbb    ! min distance between b's 
 0.4 = drll    ! min distance between leptons 
 0.4 = draa    ! min distance between gammas 
 0   = drbj    ! min distance between b and jet 
 0.4 = draj    ! min distance between gamma and jet 
 0.4 = drjl    ! min distance between jet and lepton 
 0   = drab    ! min distance between gamma and b 
 0   = drbl    ! min distance between b and lepton 
 0.4 = dral    ! min distance between gamma and lepton 
 -1  = drjjmax ! max distance between jets
 -1  = drbbmax ! max distance between b's
 -1  = drllmax ! max distance between leptons
 -1  = draamax ! max distance between gammas
 -1  = drbjmax ! max distance between b and jet
 -1  = drajmax ! max distance between gamma and jet
 -1  = drjlmax ! max distance between jet and lepton
 -1  = drabmax ! max distance between gamma and b
 -1  = drblmax ! max distance between b and lepton
 -1  = dralmax ! maxdistance between gamma and lepton
#*********************************************************************
# Minimum and maximum invariant mass for pairs                       *
# WARNING: for four lepton final state mmll cut require to have      *
#          different lepton masses for each flavor!                  *           
#*********************************************************************
 0   = mmjj    ! min invariant mass of a jet pair 
 0   = mmbb    ! min invariant mass of a b pair 
 0   = mmaa    ! min invariant mass of gamma gamma pair
 0   = mmll    ! min invariant mass of l+l- (same flavour) lepton pair
 -1  = mmjjmax ! max invariant mass of a jet pair
 -1  = mmbbmax ! max invariant mass of a b pair
 -1  = mmaamax ! max invariant mass of gamma gamma pair
 -1  = mmllmax ! max invariant mass of l+l- (same flavour) lepton pair
#*********************************************************************
# Minimum and maximum invariant mass for all letpons                 *
#*********************************************************************
 0   = mmnl    ! min invariant mass for all letpons (l+- and vl) 
 -1  = mmnlmax ! max invariant mass for all letpons (l+- and vl) 
#*********************************************************************
# Minimum and maximum pt for 4-momenta sum of leptons                *
#*********************************************************************
 0   = ptllmin  ! Minimum pt for 4-momenta sum of leptons(l and vl)
 -1  = ptllmax  ! Maximum pt for 4-momenta sum of leptons(l and vl)
#*********************************************************************
# Inclusive cuts                                                     *
#*********************************************************************
 0  = xptj ! minimum pt for at least one jet  
 0  = xptb ! minimum pt for at least one b 
 0  = xpta ! minimum pt for at least one photon 
 0  = xptl ! minimum pt for at least one charged lepton 
#*********************************************************************
# Control the pt's of the jets sorted by pt                          *
#*********************************************************************
 0   = ptj1min ! minimum pt for the leading jet in pt
 0   = ptj2min ! minimum pt for the second jet in pt
 0   = ptj3min ! minimum pt for the third jet in pt
 0   = ptj4min ! minimum pt for the fourth jet in pt
 -1  = ptj1max ! maximum pt for the leading jet in pt 
 -1  = ptj2max ! maximum pt for the second jet in pt
 -1  = ptj3max ! maximum pt for the third jet in pt
 -1  = ptj4max ! maximum pt for the fourth jet in pt
 0   = cutuse  ! reject event if fails any (0) / all (1) jet pt cuts
#*********************************************************************
# Control the pt's of leptons sorted by pt                           *
#*********************************************************************
 0   = ptl1min ! minimum pt for the leading lepton in pt
 0   = ptl2min ! minimum pt for the second lepton in pt
 0   = ptl3min ! minimum pt for the third lepton in pt
 0   = ptl4min ! minimum pt for the fourth lepton in pt
 -1  = ptl1max ! maximum pt for the leading lepton in pt 
 -1  = ptl2max ! maximum pt for the second lepton in pt
 -1  = ptl3max ! maximum pt for the third lepton in pt
 -1  = ptl4max ! maximum pt for the fourth lepton in pt
#*********************************************************************
# Control the Ht(k)=Sum of k leading jets                            *
#*********************************************************************
 0   = htjmin ! minimum jet HT=Sum(jet pt)
 -1  = htjmax ! maximum jet HT=Sum(jet pt)
 0   = ihtmin  !inclusive Ht for all partons (including b)
 -1  = ihtmax  !inclusive Ht for all partons (including b)
 0   = ht2min ! minimum Ht for the two leading jets
 0   = ht3min ! minimum Ht for the three leading jets
 0   = ht4min ! minimum Ht for the four leading jets
 -1  = ht2max ! maximum Ht for the two leading jets
 -1  = ht3max ! maximum Ht for the three leading jets
 -1  = ht4max ! maximum Ht for the four leading jets
#***********************************************************************
# Photon-isolation cuts, according to hep-ph/9801442                   *
# When ptgmin=0, all the other parameters are ignored                  *
# When ptgmin>0, pta and draj are not going to be used                 *
#***********************************************************************
   0 = ptgmin ! Min photon transverse momentum
 0.4 = R0gamma ! Radius of isolation code
 1.0 = xn ! n parameter of eq.(3.4) in hep-ph/9801442
 1.0 = epsgamma ! epsilon_gamma parameter of eq.(3.4) in hep-ph/9801442
 .true. = isoEM ! isolate photons from EM energy (photons and leptons)
#*********************************************************************
# WBF cuts                                                           *
#*********************************************************************
 0   = xetamin ! minimum rapidity for two jets in the WBF case  
 0   = deltaeta ! minimum rapidity for two jets in the WBF case 
#*********************************************************************
# KT DURHAM CUT                                                      *
#*********************************************************************
 -1    =  ktdurham        
 0.4  =  dparameter 
#*********************************************************************
# maximal pdg code for quark to be considered as a light jet         *
# (otherwise b cuts are applied)                                     *
#*********************************************************************
 4 = maxjetflavor    ! Maximum jet pdg code
#*********************************************************************
# Jet measure cuts                                                   *
#*********************************************************************
 0   = xqcut   ! minimum kt jet measure between partons
#*********************************************************************
#
#*********************************************************************
# Store info for systematics studies                                 *
# WARNING: If use_syst is T, matched Pythia output is                *
#          meaningful ONLY if plotted taking matchscale              *
#          reweighting into account!                                 *
#*********************************************************************
   F  = use_syst      ! Enable systematics studies
#
#**************************************
# Parameter of the systematics study
#  will be used by SysCalc (if installed)
#**************************************                                  
#
0.5 1 2 = sys_scalefact  # factorization/renormalization scale factor
0.5 1 2 = sys_alpsfact  # \alpha_s emission scale factors
30 50 = sys_matchscale # variation of merging scale
# PDF sets and number of members (0 or none for all members).
CT10nlo.LHgrid = sys_pdf # matching scales
# MSTW2008nlo68cl.LHgrid 1  = sys_pdf
</MGRunCard>
<slha>
######################################################################
## PARAM_CARD AUTOMATICALY GENERATED BY MG5 FOLLOWING UFO MODEL   ####
######################################################################
##                                                                  ##
##  Width set on Auto will be computed following the information    ##
##        present in the decay.py files of the model.               ##
##        See  arXiv:1402.1178 for more details.                    ##
##                                                                  ##
######################################################################

###################################
## INFORMATION FOR CKMBLOCK
###################################
Block ckmblock 
    1 2.277360e-01 # cabi 

###################################
## INFORMATION FOR FRBLOCK
###################################
Block frblock 
    1 4.000000e-01 # gz 

###################################
## INFORMATION FOR MASS
###################################
Block mass 
    1 5.040000e-03 # MD 
    2 2.550000e-03 # MU 
    3 1.010000e-01 # MS 
    4 1.270000e+00 # MC 
    5 4.700000e+00 # MB 
    6 1.720000e+02 # MT 
   11 5.110000e-04 # Me 
   13 1.056600e-01 # MM 
   15 1.777000e+00 # MTA 
   23 9.118760e+01 # MZ 
   25 1.200000e+02 # MH 
  10030 3.400000e+03 # MZph 
  10031 3.000000e+02 # MZpl 
## Dependent parameters, given by model restrictions.
## Those values should be edited following the 
## analytical expression. MG5 ignores those values 
## but they are important for interfacing the output of MG5
## to external program such as Pythia.
  12 0.000000 # ve : 0.0 
  14 0.000000 # vm : 0.0 
  16 0.000000 # vt : 0.0 
  21 0.000000 # g : 0.0 
  22 0.000000 # a : 0.0 
  24 79.824360 # w+ : cmath.sqrt(MZ__exp__2/2. + cmath.sqrt(MZ__exp__4/4. - (aEW*cmath.pi*MZ__exp__2)/(Gf*sqrt__2))) 

###################################
## INFORMATION FOR SMINPUTS
###################################
Block sminputs 
    1 1.279000e+02 # aEWM1 
    2 1.166370e-05 # Gf 
    3 1.184000e-01 # aS 

###################################
## INFORMATION FOR YUKAWA
###################################
Block yukawa 
    1 5.040000e-03 # ymdo 
    2 2.550000e-03 # ymup 
    3 1.010000e-01 # yms 
    4 1.270000e+00 # ymc 
    5 4.700000e+00 # ymb 
    6 1.720000e+02 # ymt 
   11 5.110000e-04 # yme 
   13 1.056600e-01 # ymm 
   15 1.777000e+00 # ymtau 

###################################
## INFORMATION FOR DECAY
###################################
DECAY   6 1.508336e+00 # WT 
DECAY  23 2.495200e+00 # WZ 
DECAY  24 2.085000e+00 # WW 
DECAY  25 5.753088e-03 # WH 
## Dependent parameters, given by model restrictions.
## Those values should be edited following the 
## analytical expression. MG5 ignores those values 
## but they are important for interfacing the output of MG5
## to external program such as Pythia.
DECAY  1 0.000000 # d : 0.0 
DECAY  2 0.000000 # u : 0.0 
DECAY  3 0.000000 # s : 0.0 
DECAY  4 0.000000 # c : 0.0 
DECAY  5 0.000000 # b : 0.0 
DECAY  11 0.000000 # e- : 0.0 
DECAY  12 0.000000 # ve : 0.0 
DECAY  13 0.000000 # mu- : 0.0 
DECAY  14 0.000000 # vm : 0.0 
DECAY  15 0.000000 # ta- : 0.0 
DECAY  16 0.000000 # vt : 0.0 
DECAY  21 0.000000 # g : 0.0 
DECAY  22 0.000000 # a : 0.0 
DECAY  10030 0.308725 # zph : (gz__exp__2*MZph*(5 + cmath.sqrt(1 - (4*MT__exp__2)/MZph__exp__2)))/(144.*cmath.pi) 
DECAY  10031 0.132629 # zpl : (5*gz__exp__2*MZpl)/(144.*cmath.pi) 
#===========================================================
# QUANTUM NUMBERS OF NEW STATE(S) (NON SM PDG CODE)
#===========================================================

Block QNUMBERS 10030  # zph 
        1 0  # 3 times electric charge
        2 3  # number of spin states (2S+1)
        3 1  # colour rep (1: singlet, 3: triplet, 8: octet)
        4 0  # Particle/Antiparticle distinction (0=own anti)
Block QNUMBERS 10031  # zpl 
        1 0  # 3 times electric charge
        2 3  # number of spin states (2S+1)
        3 1  # colour rep (1: singlet, 3: triplet, 8: octet)
        4 0  # Particle/Antiparticle distinction (0=own anti)
</slha>
## END BANNER##
<MGGenerationInfo>
#  Number of Events        :         3924
#  Integrated weight (pb)  :  0.50494E-04
#  Max wgt                 :  0.19866E-07
#  Average wgt             :  0.12868E-07
</MGGenerationInfo>
</header>
<init>
     2212     2212  0.40000000000E+04  0.40000000000E+04 0 0  247000  247000 2   1
  0.50506680543E-04  0.10857726013E-06  0.19866130000E-07   0
</init>
<event>
 5   0  0.1970449E-07  0.3399717E+04  0.7818609E-02  0.8137976E-01
       -2   -1    0    0    0  501  0.00000000000E+00  0.00000000000E+00  0.19647453740E+04  0.19647453740E+04  0.25500000920E-02 0.  1.
        2   -1    0    0  501    0  0.00000000000E+00  0.00000000000E+00 -0.14706835107E+04  0.14706835107E+04  0.25500000920E-02 0. -1.
    10030    2    1    2    0    0  0.00000000000E+00  0.00000000000E+00  0.49406186328E+03  0.34354288847E+04  0.33997168260E+04 0.  0.
        1    1    3    3  502    0  0.16054199068E+04  0.55292623012E+03  0.32798571552E+03  0.17293568523E+04  0.50400001928E-02 0.  1.
       -1    1    3    3    0  502 -0.16054199068E+04 -0.55292623012E+03  0.16607614776E+03  0.17060720324E+04  0.50400001928E-02 0. -1.
</event>
<event>
 5   0  0.1970449E-07  0.3393983E+04  0.7818609E-02  0.8139385E-01
       -2   -1    0    0    0  501  0.00000000000E+00  0.00000000000E+00  0.12139370001E+04  0.12139370001E+04  0.25500000920E-02 0.  1.
        2   -1    0    0  501    0  0.00000000000E+00  0.00000000000E+00 -0.23722652061E+04  0.23722652061E+04  0.25500000920E-02 0. -1.
    10030    2    1    2    0    0  0.00000000000E+00  0.00000000000E+00 -0.11583282060E+04  0.35862022062E+04  0.33939832102E+04 0.  0.
        1    1    3    3  502    0 -0.16473187506E+04 -0.23625163326E+03 -0.93009842721E+03  0.19064514115E+04  0.50400001928E-02 0.  1.
       -1    1    3    3    0  502  0.16473187506E+04  0.23625163326E+03 -0.22822977878E+03  0.16797507947E+04  0.50400001928E-02 0. -1.
</event>
<event>
 5   0  0.1897313E-07  0.3407379E+04  0.7818609E-02  0.8136098E-01
        2   -1    0    0  501    0  0.00000000000E+00  0.00000000000E+00  0.23607472103E+04  0.23607472103E+04  0.25500000920E-02 0. -1.
       -2   -1    0    0    0  501  0.00000000000E+00  0.00000000000E+00 -0.12295083970E+04  0.12295083970E+04  0.25500000920E-02 0.  1.
    10030    2    1    2    0    0  0.00000000000E+00  0.00000000000E+00  0.11312388133E+04  0.35902556074E+04  0.34073793557E+04 0.  0.
        3    1    3    3  502    0  0.72344446637E+02 -0.10734249753E+04 -0.82629651094E+03  0.13565547651E+04  0.10100000352E+00 0.  1.
       -3    1    3    3    0  502 -0.72344446637E+02  0.10734249753E+04  0.19575353242E+04  0.22337008422E+04  0.10100000352E+00 0. -1.
</event>
<event>
 5   0  0.1970449E-07  0.3402192E+04  0.7818609E-02  0.8137369E-01
        2   -1    0    0  501    0  0.00000000000E+00  0.00000000000E+00  0.28106304404E+04  0.28106304404E+04  0.25500000920E-02 0. -1.
       -2   -1    0    0    0  501  0.00000000000E+00  0.00000000000E+00 -0.10295652571E+04  0.10295652571E+04  0.25500000920E-02 0.  1.
    10030    2    1    2    0    0  0.00000000000E+00  0.00000000000E+00  0.17810651834E+04  0.38401956975E+04  0.34021919122E+04 0.  0.
        1    1    3    3  502    0  0.10184753721E+03 -0.11249470981E+04 -0.54516668607E+03  0.12542270966E+04  0.50400001928E-02 0.  1.
       -1    1    3    3    0  502 -0.10184753721E+03  0.11249470981E+04  0.23262318694E+04  0.25859686009E+04  0.50400001928E-02 0. -1.
</event>
<event>
 5   0  0.1897313E-07  0.3389905E+04  0.7818609E-02  0.8140388E-01
       -2   -1    0    0    0  501  0.00000000000E+00  0.00000000000E+00  0.13233273582E+04  0.13233273582E+04  0.25500000920E-02 0.  1.
        2   -1    0    0  501    0  0.00000000000E+00  0.00000000000E+00 -0.21709402915E+04  0.21709402915E+04  0.25500000920E-02 0. -1.
    10030    2    1    2    0    0  0.00000000000E+00  0.00000000000E+00 -0.84761293338E+03  0.34942676497E+04  0.33899054150E+04 0.  0.
        3    1    3    3  502    0  0.84748910212E+03  0.10275624158E+04  0.65667301408E+03  0.14850393106E+04  0.10100000352E+00 0.  1.
       -3    1    3    3    0  502 -0.84748910212E+03 -0.10275624158E+04 -0.15042859475E+04  0.20092283390E+04  0.10100000352E+00 0. -1.
</event>
<event>
 5   0  0.6584420E-08  0.3395063E+04  0.7818609E-02  0.8139119E-01
       -1   -1    0    0    0  501  0.00000000000E+00  0.00000000000E+00  0.15108244507E+04  0.15108244507E+04  0.50400001928E-02 0.  1.
        1   -1    0    0  501    0  0.00000000000E+00  0.00000000000E+00 -0.19073122805E+04  0.19073122805E+04  0.50400001928E-02 0. -1.
    10030    2    1    2    0    0  0.00000000000E+00  0.00000000000E+00 -0.39648782978E+03  0.34181367311E+04  0.33950634918E+04 0.  0.
        1    1    3    3  502    0 -0.99809311629E+03 -0.13730779572E+04 -0.20730972241E+03  0.17101199567E+04  0.50400001928E-02 0. -1.
       -1    1    3    3    0  502  0.99809311629E+03  0.13730779572E+04 -0.18917810737E+03  0.17080167744E+04  0.50400001928E-02 0.  1.
</event>
<event>
 5   0  0.6367111E-08  0.3405304E+04  0.7818609E-02  0.8136606E-01
        1   -1    0    0  501    0  0.00000000000E+00  0.00000000000E+00  0.15290528029E+04  0.15290528029E+04  0.50400001928E-02 0.  1.
       -1   -1    0    0    0  501  0.00000000000E+00  0.00000000000E+00 -0.18959602711E+04  0.18959602711E+04  0.50400001928E-02 0. -1.
    10030    2    1    2    0    0  0.00000000000E+00  0.00000000000E+00 -0.36690746814E+03  0.34250130740E+04  0.34053037261E+04 0.  0.
        3    1    3    3  502    0  0.10917439817E+04  0.95533260393E+03  0.71302886707E+03  0.16164700682E+04  0.10100000352E+00 0.  1.
       -3    1    3    3    0  502 -0.10917439817E+04 -0.95533260393E+03 -0.10799363352E+04  0.18085430059E+04  0.10100000352E+00 0. -1.
</event>
<event>
 5   0  0.1970449E-07  0.3400516E+04  0.7818609E-02  0.8137780E-01
        2   -1    0    0  501    0  0.00000000000E+00  0.00000000000E+00  0.27298061173E+04  0.27298061173E+04  0.25500000920E-02 0. -1.
       -2   -1    0    0    0  501  0.00000000000E+00  0.00000000000E+00 -0.10590048522E+04  0.10590048522E+04  0.25500000920E-02 0.  1.
    10030    2    1    2    0    0  0.00000000000E+00  0.00000000000E+00  0.16708012652E+04  0.37888109695E+04  0.34005163865E+04 0.  0.
        1    1    3    3  502    0 -0.40326040711E+03 -0.47385601920E+03  0.25983948868E+04  0.26718559973E+04  0.50400001928E-02 0. -1.
       -1    1    3    3    0  502  0.40326040711E+03  0.47385601920E+03 -0.92759362163E+03  0.11169549721E+04  0.50400001928E-02 0.  1.
</event>
<event>
 5   0  0.6788600E-08  0.3405568E+04  0.7818609E-02  0.8136541E-01
       -1   -1    0    0    0  501  0.00000000000E+00  0.00000000000E+00  0.30691806198E+04  0.30691806198E+04  0.50400001928E-02 0. -1.
        1   -1    0    0  501    0  0.00000000000E+00  0.00000000000E+00 -0.94470624357E+03  0.94470624358E+03  0.50400001928E-02 0.  1.
    10030    2    1    2    0    0  0.00000000000E+00  0.00000000000E+00  0.21244743762E+04  0.40138868634E+04  0.34055684367E+04 0.  0.
        2    1    3    3  502    0 -0.43119552656E+03 -0.46765682857E+03  0.29238827694E+04  0.29922772165E+04  0.25500000920E-02 0. -1.
       -2    1    3    3    0  502  0.43119552656E+03  0.46765682857E+03 -0.79940839317E+03  0.10216096468E+04  0.25500000920E-02 0.  1.
</event>
<event>
 5   0  0.1970449E-07  0.3387991E+04  0.7818609E-02  0.8140860E-01
        2   -1    0    0  501    0  0.00000000000E+00  0.00000000000E+00  0.16634810300E+04  0.16634810300E+04  0.25500000920E-02 0.  1.
       -2   -1    0    0    0  501  0.00000000000E+00  0.00000000000E+00 -0.17250697754E+04  0.17250697754E+04  0.25500000920E-02 0. -1.
    10030    2    1    2    0    0  0.00000000000E+00  0.00000000000E+00 -0.61588745405E+02  0.33885508054E+04  0.33879910548E+04 0.  0.
        1    1    3    3  502    0  0.97874281375E+03  0.40786195996E+03  0.12905340250E+04  0.16702595437E+04  0.50400001928E-02 0.  1.
       -1    1    3    3    0  502 -0.97874281375E+03 -0.40786195996E+03 -0.13521227704E+04  0.17182912617E+04  0.50400001928E-02 0. -1.
</event>
<event>
 5   0  0.1986613E-07  0.3354138E+04  0.7818609E-02  0.8149255E-01
        2   -1    0    0  501    0  0.00000000000E+00  0.00000000000E+00  0.12828661208E+04  0.12828661208E+04  0.25500000920E-02 0. -1.
       -2   -1    0    0    0  501  0.00000000000E+00  0.00000000000E+00 -0.21924041987E+04  0.21924041987E+04  0.25500000920E-02 0.  1.
    10030    2    1    2    0    0  0.00000000000E+00  0.00000000000E+00 -0.90953807787E+03  0.34752703195E+04  0.33541383810E+04 0.  0.
        5    1    3    3  502    0  0.46001079933E+03  0.89007704220E+03  0.93867621999E+03  0.13729465439E+04  0.46999998093E+01 0. -1.
       -5    1    3    3    0  502 -0.46001079933E+03 -0.89007704220E+03 -0.18482142979E+04  0.21023237756E+04  0.46999998093E+01 0.  1.
</event>
<event>
 5   0  0.1986613E-07  0.3402145E+04  0.7818609E-02  0.8137380E-01
        2   -1    0    0  501    0  0.00000000000E+00  0.00000000000E+00  0.17473434752E+04  0.17473434752E+04  0.25500000920E-02 0. -1.
       -2   -1    0    0    0  501  0.00000000000E+00  0.00000000000E+00 -0.16560267931E+04  0.16560267931E+04  0.25500000920E-02 0.  1.
    10030    2    1    2    0    0  0.00000000000E+00  0.00000000000E+00  0.91316682086E+02  0.34033702684E+04  0.34021449774E+04 0.  0.
        5    1    3    3  502    0 -0.14205619375E+04  0.25606671431E+03 -0.85469866377E+03  0.16775274294E+04  0.46999998093E+01 0.  1.
       -5    1    3    3    0  502  0.14205619375E+04 -0.25606671431E+03  0.94601534586E+03  0.17258428390E+04  0.46999998093E+01 0. -1.
</event>
<event>
 5   0  0.6341535E-08  0.3401536E+04  0.7818609E-02  0.8137529E-01
       -1   -1    0    0    0  501  0.00000000000E+00  0.00000000000E+00  0.15388792225E+04  0.15388792225E+04  0.50400001928E-02 0. -1.
        1   -1    0    0  501    0  0.00000000000E+00  0.00000000000E+00 -0.18796870975E+04  0.18796870975E+04  0.50400001928E-02 0.  1.
    10030    2    1    2    0    0  0.00000000000E+00  0.00000000000E+00 -0.34080787503E+03  0.34185663200E+04  0.34015357820E+04 0.  0.
        5    1    3    3  502    0 -0.75736145938E+03 -0.74778389208E+03  0.11628170074E+04  0.15763700746E+04  0.46999998093E+01 0. -1.
       -5    1    3    3    0  502  0.75736145938E+03  0.74778389208E+03 -0.15036248824E+04  0.18421962454E+04  0.46999998093E+01 0.  1.
</event>
<event>
 5   0  0.6584420E-08  0.3386740E+04  0.7818609E-02  0.8141168E-01
        1   -1    0    0  501    0  0.00000000000E+00  0.00000000000E+00  0.23081227617E+04  0.23081227617E+04  0.50400001928E-02 0. -1.
       -1   -1    0    0    0  501  0.00000000000E+00  0.00000000000E+00 -0.12423523527E+04  0.12423523527E+04  0.50400001928E-02 0.  1.
    10030    2    1    2    0    0  0.00000000000E+00  0.00000000000E+00  0.10657704090E+04  0.35504751144E+04  0.33867398739E+04 0.  0.
        1    1    3    3  502    0 -0.82138661457E+03  0.12152799946E+04 -0.35414206789E+03  0.15089725114E+04  0.50400001928E-02 0.  1.
       -1    1    3    3    0  502  0.82138661457E+03 -0.12152799946E+04  0.14199124769E+04  0.20415026030E+04  0.50400001928E-02 0. -1.
</event>
<event>
 5   0  0.6367111E-08  0.3435727E+04  0.7818609E-02  0.8129193E-01
        1   -1    0    0  501    0  0.00000000000E+00  0.00000000000E+00  0.24275881449E+04  0.24275881449E+04  0.50400001928E-02 0. -1.
       -1   -1    0    0    0  501  0.00000000000E+00  0.00000000000E+00 -0.12156321317E+04  0.12156321317E+04  0.50400001928E-02 0.  1.
    10030    2    1    2    0    0  0.00000000000E+00  0.00000000000E+00  0.12119560133E+04  0.36432202766E+04  0.34357265033E+04 0.  0.
        3    1    3    3  502    0 -0.99771234377E+02 -0.98523103604E+02  0.24215098538E+04  0.24255661367E+04  0.10100000352E+00 0. -1.
       -3    1    3    3    0  502  0.99771234377E+02  0.98523103604E+02 -0.12095538405E+04  0.12176541399E+04  0.10100000352E+00 0.  1.
</event>
<event>
 5   0  0.6367111E-08  0.3400716E+04  0.7818609E-02  0.8137731E-01
        1   -1    0    0  501    0  0.00000000000E+00  0.00000000000E+00  0.23238726414E+04  0.23238726414E+04  0.50400001928E-02 0. -1.
       -1   -1    0    0    0  501  0.00000000000E+00  0.00000000000E+00 -0.12441373245E+04  0.12441373245E+04  0.50400001928E-02 0.  1.
    10030    2    1    2    0    0  0.00000000000E+00  0.00000000000E+00  0.10797353169E+04  0.35680099659E+04  0.34007156250E+04 0.  0.
        3    1    3    3  502    0  0.56263063015E+03  0.18129887959E+03  0.22125979884E+04  0.22901992005E+04  0.10100000352E+00 0. -1.
       -3    1    3    3    0  502 -0.56263063015E+03 -0.18129887959E+03 -0.11328626714E+04  0.12778107654E+04  0.10100000352E+00 0.  1.
</event>
<event>
 5   0  0.1970449E-07  0.3448095E+04  0.7818609E-02  0.8126202E-01
        2   -1    0    0  501    0  0.00000000000E+00  0.00000000000E+00  0.19815944982E+04  0.19815944982E+04  0.25500000920E-02 0. -1.
       -2   -1    0    0    0  501  0.00000000000E+00  0.00000000000E+00 -0.14999735862E+04  0.14999735862E+04  0.25500000920E-02 0.  1.
    10030    2    1    2    0    0  0.00000000000E+00  0.00000000000E+00  0.48162091197E+03  0.34815680844E+04  0.34480947817E+04 0.  0.
        1    1    3    3  502    0 -0.21217714119E+01 -0.14579071950E+04  0.11699838536E+04  0.18693207614E+04  0.50400001928E-02 0. -1.
       -1    1    3    3    0  502  0.21217714119E+01  0.14579071950E+04 -0.68836294162E+03  0.16122473231E+04  0.50400001928E-02 0.  1.
</event>
<event>
 5   0  0.6311750E-08  0.3401619E+04  0.7818609E-02  0.8137509E-01
       -1   -1    0    0    0  501  0.00000000000E+00  0.00000000000E+00  0.20742417327E+04  0.20742417327E+04  0.50400001928E-02 0.  1.
        1   -1    0    0  501    0  0.00000000000E+00  0.00000000000E+00 -0.13946072480E+04  0.13946072480E+04  0.50400001928E-02 0. -1.
    10030    2    1    2    0    0  0.00000000000E+00  0.00000000000E+00  0.67963448477E+03  0.34688489807E+04  0.34016187644E+04 0.  0.
        4    1    3    3  502    0  0.46655706221E+03  0.37375454544E+03  0.19635761270E+04  0.20525595660E+04  0.12699999809E+01 0.  1.
       -4    1    3    3    0  502 -0.46655706221E+03 -0.37375454544E+03 -0.12839416423E+04  0.14162894147E+04  0.12699999809E+01 0. -1.
</event>
<event>
 5   0  0.6584420E-08  0.3409005E+04  0.7818609E-02  0.8135700E-01
        1   -1    0    0  501    0  0.00000000000E+00  0.00000000000E+00  0.15422135845E+04  0.15422135845E+04  0.50400001928E-02 0. -1.
       -1   -1    0    0    0  501  0.00000000000E+00  0.00000000000E+00 -0.18838696530E+04  0.18838696530E+04  0.50400001928E-02 0.  1.
    10030    2    1    2    0    0  0.00000000000E+00  0.00000000000E+00 -0.34165606850E+03  0.34260832374E+04  0.34090053506E+04 0.  0.
        1    1    3    3  502    0  0.94218175011E+03 -0.13280818351E+04  0.33550292291E+03  0.16625492541E+04  0.50400001928E-02 0.  1.
       -1    1    3    3    0  502 -0.94218175011E+03  0.13280818351E+04 -0.67715899142E+03  0.17635339834E+04  0.50400001928E-02 0. -1.
</event>
<event>
 5   0  0.1928004E-07  0.3396685E+04  0.7818609E-02  0.8138720E-01
        2   -1    0    0  501    0  0.00000000000E+00  0.00000000000E+00  0.19279881497E+04  0.19279881497E+04  0.25500000920E-02 0.  1.
       -2   -1    0    0    0  501  0.00000000000E+00  0.00000000000E+00 -0.14960504097E+04  0.14960504097E+04  0.25500000920E-02 0. -1.
    10030    2    1    2    0    0  0.00000000000E+00  0.00000000000E+00  0.43193774001E+03  0.34240385594E+04  0.33966851260E+04 0.  0.
        2    1    3    3  502    0  0.19603992555E+03 -0.16593981760E+04 -0.90342425604E+02  0.16733785324E+04  0.25500000920E-02 0. -1.
       -2    1    3    3    0  502 -0.19603992555E+03  0.16593981760E+04  0.52228016562E+03  0.17506600270E+04  0.25500000920E-02 0.  1.
</event>
<event>
 5   0  0.6367111E-08  0.3343229E+04  0.7818609E-02  0.8151982E-01
       -1   -1    0    0    0  501  0.00000000000E+00  0.00000000000E+00  0.20934012829E+04  0.20934012829E+04  0.50400001928E-02 0. -1.
        1   -1    0    0  501    0  0.00000000000E+00  0.00000000000E+00 -0.13348110993E+04  0.13348110993E+04  0.50400001928E-02 0.  1.
    10030    2    1    2    0    0  0.00000000000E+00  0.00000000000E+00  0.75859018357E+03  0.34282123822E+04  0.33432291382E+04 0.  0.
        3    1    3    3  502    0  0.89965781768E+03  0.13878723411E+04  0.62777993315E+03  0.17690905796E+04  0.10100000352E+00 0. -1.
       -3    1    3    3    0  502 -0.89965781768E+03 -0.13878723411E+04  0.13081025043E+03  0.16591218026E+04  0.10100000352E+00 0.  1.
</event>
<event>
 5   0  0.1897313E-07  0.3400372E+04  0.7818609E-02  0.8137815E-01
       -2   -1    0    0    0  501  0.00000000000E+00  0.00000000000E+00  0.17781331656E+04  0.17781331656E+04  0.25500000920E-02 0. -1.
        2   -1    0    0  501    0  0.00000000000E+00  0.00000000000E+00 -0.16256560193E+04  0.16256560194E+04  0.25500000920E-02 0.  1.
    10030    2    1    2    0    0  0.00000000000E+00  0.00000000000E+00  0.15247714626E+03  0.34037891850E+04  0.34003722643E+04 0.  0.
        3    1    3    3  502    0 -0.26653712404E+03 -0.16538183104E+04  0.36717789761E+03  0.17149275964E+04  0.10100000352E+00 0.  1.
       -3    1    3    3    0  502  0.26653712404E+03  0.16538183104E+04 -0.21470075135E+03  0.16888615885E+04  0.10100000352E+00 0. -1.
</event>
<event>
 5   0  0.6584420E-08  0.3389632E+04  0.7818609E-02  0.8140456E-01
       -1   -1    0    0    0  501  0.00000000000E+00  0.00000000000E+00  0.17839628450E+04  0.17839628450E+04  0.50400001928E-02 0.  1.
        1   -1    0    0  501    0  0.00000000000E+00  0.00000000000E+00 -0.16101243141E+04  0.16101243141E+04  0.50400001928E-02 0. -1.
    10030    2    1    2    0    0  0.00000000000E+00  0.00000000000E+00  0.17383853091E+03  0.33940871591E+04  0.33896324002E+04 0.  0.
        1    1    3    3  502    0  0.85865303273E+03  0.95091695867E+03 -0.10239863514E+04  0.16401451585E+04  0.50400001928E-02 0. -1.
       -1    1    3    3    0  502 -0.85865303273E+03 -0.95091695867E+03  0.11978248823E+04  0.17539420007E+04  0.50400001928E-02 0.  1.
</event>
<event>
 5   0  0.1928004E-07  0.3400351E+04  0.7818609E-02  0.8137820E-01
        2   -1    0    0  501    0  0.00000000000E+00  0.00000000000E+00  0.24451233052E+04  0.24451233052E+04  0.25500000920E-02 0.  1.
       -2   -1    0    0    0  501  0.00000000000E+00  0.00000000000E+00 -0.11821885683E+04  0.11821885683E+04  0.25500000920E-02 0. -1.
    10030    2    1    2    0    0  0.00000000000E+00  0.00000000000E+00  0.12629347369E+04  0.36273118735E+04  0.34003510522E+04 0.  0.
        2    1    3    3  502    0 -0.58832516679E+02  0.15173144645E+04 -0.18436159524E+03  0.15296057162E+04  0.25500000920E-02 0. -1.
       -2    1    3    3    0  502  0.58832516679E+02 -0.15173144645E+04  0.14472963321E+04  0.20977061573E+04  0.25500000920E-02 0.  1.
</event>
<event>
 5   0  0.6788600E-08  0.3402354E+04  0.7818609E-02  0.8137329E-01
        1   -1    0    0  501    0  0.00000000000E+00  0.00000000000E+00  0.21913484444E+04  0.21913484444E+04  0.50400001928E-02 0. -1.
       -1   -1    0    0    0  501  0.00000000000E+00  0.00000000000E+00 -0.13206496656E+04  0.13206496657E+04  0.50400001928E-02 0.  1.
    10030    2    1    2    0    0  0.00000000000E+00  0.00000000000E+00  0.87069877877E+03  0.35119981101E+04  0.34023542381E+04 0.  0.
        2    1    3    3  502    0 -0.79027862876E+02 -0.94638495171E+03 -0.10215575346E+04  0.13948009451E+04  0.25500000920E-02 0.  1.
       -2    1    3    3    0  502  0.79027862876E+02  0.94638495171E+03  0.18922563134E+04  0.21171971650E+04  0.25500000920E-02 0. -1.
</event>
<event>
 5   0  0.1897313E-07  0.3421323E+04  0.7818609E-02  0.8132693E-01
       -2   -1    0    0    0  501  0.00000000000E+00  0.00000000000E+00  0.12502898978E+04  0.12502898978E+04  0.25500000920E-02 0.  1.
        2   -1    0    0  501    0  0.00000000000E+00  0.00000000000E+00 -0.23405479361E+04  0.23405479361E+04  0.25500000920E-02 0. -1.
    10030    2    1    2    0    0  0.00000000000E+00  0.00000000000E+00 -0.10902580383E+04  0.35908378339E+04  0.34213233930E+04 0.  0.
        3    1    3    3  502    0 -0.11495638541E+03  0.10622025389E+04 -0.19473145283E+04  0.22211535486E+04  0.10100000352E+00 0. -1.
       -3    1    3    3    0  502  0.11495638541E+03 -0.10622025389E+04  0.85705648999E+03  0.13696842853E+04  0.10100000352E+00 0.  1.
</event>
<event>
 5   0  0.1986613E-07  0.3401977E+04  0.7818609E-02  0.8137421E-01
        2   -1    0    0  501    0  0.00000000000E+00  0.00000000000E+00  0.25101385984E+04  0.25101385984E+04  0.25500000920E-02 0.  1.
       -2   -1    0    0    0  501  0.00000000000E+00  0.00000000000E+00 -0.11526704049E+04  0.11526704049E+04  0.25500000920E-02 0. -1.
    10030    2    1    2    0    0  0.00000000000E+00  0.00000000000E+00  0.13574681935E+04  0.36628090032E+04  0.34019773511E+04 0.  0.
        5    1    3    3  502    0 -0.13468664070E+04 -0.21173286642E+02  0.17970434845E+04  0.22458594795E+04  0.46999998093E+01 0.  1.
       -5    1    3    3    0  502  0.13468664070E+04  0.21173286642E+02 -0.43957529102E+03  0.14169495237E+04  0.46999998093E+01 0. -1.
</event>
<event>
 5   0  0.6788600E-08  0.3393114E+04  0.7818609E-02  0.8139598E-01
        1   -1    0    0  501    0  0.00000000000E+00  0.00000000000E+00  0.19148437785E+04  0.19148437785E+04  0.50400001928E-02 0.  1.
       -1   -1    0    0    0  501  0.00000000000E+00  0.00000000000E+00 -0.15031544127E+04  0.15031544127E+04  0.50400001928E-02 0. -1.
    10030    2    1    2    0    0  0.00000000000E+00  0.00000000000E+00  0.41168936578E+03  0.34179981912E+04  0.33931141303E+04 0.  0.
        2    1    3    3  502    0  0.58343106686E+03  0.51282621869E+03  0.17251908813E+04  0.18920005596E+04  0.25500000920E-02 0.  1.
       -2    1    3    3    0  502 -0.58343106686E+03 -0.51282621869E+03 -0.13135015156E+04  0.15259976316E+04  0.25500000920E-02 0. -1.
</event>
<event>
 5   0  0.1897313E-07  0.3393833E+04  0.7818609E-02  0.8139421E-01
       -2   -1    0    0    0  501  0.00000000000E+00  0.00000000000E+00  0.15828724652E+04  0.15828724652E+04  0.25500000920E-02 0. -1.
        2   -1    0    0  501    0  0.00000000000E+00  0.00000000000E+00 -0.18191775242E+04  0.18191775242E+04  0.25500000920E-02 0.  1.
    10030    2    1    2    0    0  0.00000000000E+00  0.00000000000E+00 -0.23630505905E+03  0.34020499894E+04  0.33938332383E+04 0.  0.
        3    1    3    3  502    0 -0.97366777138E+03  0.44601140466E+03  0.12013058634E+04  0.16093759318E+04  0.10100000352E+00 0. -1.
       -3    1    3    3    0  502  0.97366777138E+03 -0.44601140466E+03 -0.14376109225E+04  0.17926740576E+04  0.10100000352E+00 0.  1.
</event>
<event>
 5   0  0.1970449E-07  0.3397999E+04  0.7818609E-02  0.8138398E-01
       -2   -1    0    0    0  501  0.00000000000E+00  0.00000000000E+00  0.12794180211E+04  0.12794180211E+04  0.25500000920E-02 0. -1.
        2   -1    0    0  501    0  0.00000000000E+00  0.00000000000E+00 -0.22561815784E+04  0.22561815784E+04  0.25500000920E-02 0.  1.
    10030    2    1    2    0    0  0.00000000000E+00  0.00000000000E+00 -0.97676355735E+03  0.35355995995E+04  0.33979990408E+04 0.  0.
        1    1    3    3  502    0  0.62025473845E+03  0.10693224838E+04  0.72433367704E+03  0.14327685754E+04  0.50400001928E-02 0. -1.
       -1    1    3    3    0  502 -0.62025473845E+03 -0.10693224838E+04 -0.17010972344E+04  0.21028310241E+04  0.50400001928E-02 0.  1.
</event>
<event>
 5   0  0.6341535E-08  0.3395906E+04  0.7818609E-02  0.8138912E-01
        1   -1    0    0  501    0  0.00000000000E+00  0.00000000000E+00  0.22434375565E+04  0.22434375565E+04  0.50400001928E-02 0. -1.
       -1   -1    0    0    0  501  0.00000000000E+00  0.00000000000E+00 -0.12851013855E+04  0.12851013856E+04  0.50400001928E-02 0.  1.
    10030    2    1    2    0    0  0.00000000000E+00  0.00000000000E+00  0.95833617093E+03  0.35285389420E+04  0.33959061897E+04 0.  0.
        5    1    3    3  502    0  0.65559902411E+03  0.69990010471E+03 -0.97675474881E+03  0.13688470208E+04  0.46999998093E+01 0.  1.
       -5    1    3    3    0  502 -0.65559902411E+03 -0.69990010471E+03  0.19350909197E+04  0.21596919212E+04  0.46999998093E+01 0. -1.
</event>
<event>
 5   0  0.1897313E-07  0.3404331E+04  0.7818609E-02  0.8136844E-01
        2   -1    0    0  501    0  0.00000000000E+00  0.00000000000E+00  0.17212655336E+04  0.17212655336E+04  0.25500000920E-02 0.  1.
       -2   -1    0    0    0  501  0.00000000000E+00  0.00000000000E+00 -0.16832769383E+04  0.16832769383E+04  0.25500000920E-02 0. -1.
    10030    2    1    2    0    0  0.00000000000E+00  0.00000000000E+00  0.37988595305E+02  0.34045424719E+04  0.34043305229E+04 0.  0.
        3    1    3    3  502    0  0.12758078870E+04  0.72843335526E+03  0.87873709580E+03  0.17118644255E+04  0.10100000352E+00 0.  1.
       -3    1    3    3    0  502 -0.12758078870E+04 -0.72843335526E+03 -0.84074850049E+03  0.16926780464E+04  0.10100000352E+00 0. -1.
</event>
<event>
 5   0  0.6311750E-08  0.3398007E+04  0.7818609E-02  0.8138396E-01
        1   -1    0    0  501    0  0.00000000000E+00  0.00000000000E+00  0.23841679332E+04  0.23841679332E+04  0.50400001928E-02 0. -1.
       -1   -1    0    0    0  501  0.00000000000E+00  0.00000000000E+00 -0.12107421608E+04  0.12107421608E+04  0.50400001928E-02 0.  1.
    10030    2    1    2    0    0  0.00000000000E+00  0.00000000000E+00  0.11734257724E+04  0.35949100940E+04  0.33980068483E+04 0.  0.
        4    1    3    3  502    0 -0.10311138133E+04 -0.13144319068E+04  0.25945987894E+03  0.16906353762E+04  0.12699999809E+01 0.  1.
       -4    1    3    3    0  502  0.10311138133E+04  0.13144319068E+04  0.91396589351E+03  0.19042747178E+04  0.12699999809E+01 0. -1.
</event>
<event>
 5   0  0.6584420E-08  0.3398304E+04  0.7818609E-02  0.8138323E-01
        1   -1    0    0  501    0  0.00000000000E+00  0.00000000000E+00  0.11099179092E+04  0.11099179092E+04  0.50400001928E-02 0. -1.
       -1   -1    0    0    0  501  0.00000000000E+00  0.00000000000E+00 -0.26011988870E+04  0.26011988870E+04  0.50400001928E-02 0.  1.
    10030    2    1    2    0    0  0.00000000000E+00  0.00000000000E+00 -0.14912809778E+04  0.37111167962E+04  0.33983038298E+04 0.  0.
        1    1    3    3  502    0  0.61961609693E+03 -0.11692165677E+04 -0.19096475569E+04  0.23233048189E+04  0.50400001928E-02 0.  1.
       -1    1    3    3    0  502 -0.61961609693E+03  0.11692165677E+04  0.41836657902E+03  0.13878119773E+04  0.50400001928E-02 0. -1.
</event>
<event>
 5   0  0.6367111E-08  0.3410201E+04  0.7818609E-02  0.8135407E-01
       -1   -1    0    0    0  501  0.00000000000E+00  0.00000000000E+00  0.14133783026E+04  0.14133783026E+04  0.50400001928E-02 0. -1.
        1   -1    0    0  501    0  0.00000000000E+00  0.00000000000E+00 -0.20570344252E+04  0.20570344252E+04  0.50400001928E-02 0.  1.
    10030    2    1    2    0    0  0.00000000000E+00  0.00000000000E+00 -0.64365612258E+03  0.34704127278E+04  0.34102010640E+04 0.  0.
        3    1    3    3  502    0  0.78656146727E+03 -0.19011548434E+03  0.12055195055E+04  0.14519297943E+04  0.10100000352E+00 0. -1.
       -3    1    3    3    0  502 -0.78656146727E+03  0.19011548434E+03 -0.18491756281E+04  0.20184829335E+04  0.10100000352E+00 0.  1.
</event>
<event>
 5   0  0.1963852E-07  0.3420250E+04  0.7818609E-02  0.8132954E-01
        2   -1    0    0  501    0  0.00000000000E+00  0.00000000000E+00  0.20088583056E+04  0.20088583056E+04  0.25500000920E-02 0. -1.
       -2   -1    0    0    0  501  0.00000000000E+00  0.00000000000E+00 -0.14558160568E+04  0.14558160568E+04  0.25500000920E-02 0.  1.
    10030    2    1    2    0    0  0.00000000000E+00  0.00000000000E+00  0.55304224877E+03  0.34646743624E+04  0.34202503869E+04 0.  0.
        4    1    3    3  502    0 -0.13170402030E+04 -0.18526080194E+03  0.13654767599E+04  0.19061597142E+04  0.12699999809E+01 0. -1.
       -4    1    3    3    0  502  0.13170402030E+04  0.18526080194E+03 -0.81243451115E+03  0.15585146483E+04  0.12699999809E+01 0.  1.
</event>
<event>
 5   0  0.1963852E-07  0.3397817E+04  0.7818609E-02  0.8138442E-01
        2   -1    0    0  501    0  0.00000000000E+00  0.00000000000E+00  0.91735018452E+03  0.91735018452E+03  0.25500000920E-02 0. -1.
       -2   -1    0    0    0  501  0.00000000000E+00  0.00000000000E+00 -0.31463341517E+04  0.31463341517E+04  0.25500000920E-02 0.  1.
    10030    2    1    2    0    0  0.00000000000E+00  0.00000000000E+00 -0.22289839672E+04  0.40636843363E+04  0.33978170726E+04 0.  0.
        4    1    3    3  502    0 -0.11075087952E+04 -0.30748944045E+03 -0.26107268577E+04  0.28525465510E+04  0.12699999809E+01 0.  1.
       -4    1    3    3    0  502  0.11075087952E+04  0.30748944045E+03  0.38174289049E+03  0.12111377852E+04  0.12699999809E+01 0. -1.
</event>
<event>
 5   0  0.6788600E-08  0.3405664E+04  0.7818609E-02  0.8136518E-01
        1   -1    0    0  501    0  0.00000000000E+00  0.00000000000E+00  0.18809571592E+04  0.18809571592E+04  0.50400001928E-02 0. -1.
       -1   -1    0    0    0  501  0.00000000000E+00  0.00000000000E+00 -0.15415749388E+04  0.15415749388E+04  0.50400001928E-02 0.  1.
    10030    2    1    2    0    0  0.00000000000E+00  0.00000000000E+00  0.33938222043E+03  0.34225320981E+04  0.34056637636E+04 0.  0.
        2    1    3    3  502    0 -0.43672149765E+03  0.12858418428E+02  0.18236695945E+04  0.18752764584E+04  0.25500000920E-02 0. -1.
       -2    1    3    3    0  502  0.43672149765E+03 -0.12858418428E+02 -0.14842873741E+04  0.15472556396E+04  0.25500000920E-02 0.  1.
</event>
<event>
 5   0  0.6341535E-08  0.3399474E+04  0.7818609E-02  0.8138036E-01
       -1   -1    0    0    0  501  0.00000000000E+00  0.00000000000E+00  0.13598138227E+04  0.13598138227E+04  0.50400001928E-02 0.  1.
        1   -1    0    0  501    0  0.00000000000E+00  0.00000000000E+00 -0.21246328232E+04  0.21246328232E+04  0.50400001928E-02 0. -1.
    10030    2    1    2    0    0  0.00000000000E+00  0.00000000000E+00 -0.76481900058E+03  0.34844466459E+04  0.33994735364E+04 0.  0.
        5    1    3    3  502    0 -0.90241791189E+03 -0.14337029812E+04 -0.52451351887E+03  0.17734144602E+04  0.46999998093E+01 0.  1.
       -5    1    3    3    0  502  0.90241791189E+03  0.14337029812E+04 -0.24030548171E+03  0.17110321857E+04  0.46999998093E+01 0. -1.
</event>
<event>
 5   0  0.6341535E-08  0.3403481E+04  0.7818609E-02  0.8137052E-01
        1   -1    0    0  501    0  0.00000000000E+00  0.00000000000E+00  0.13388604409E+04  0.13388604409E+04  0.50400001928E-02 0.  1.
       -1   -1    0    0    0  501  0.00000000000E+00  0.00000000000E+00 -0.21629742986E+04  0.21629742986E+04  0.50400001928E-02 0. -1.
    10030    2    1    2    0    0  0.00000000000E+00  0.00000000000E+00 -0.82411385768E+03  0.35018347395E+04  0.34034809963E+04 0.  0.
        5    1    3    3  502    0  0.12156473175E+04 -0.90271605756E+03 -0.12111629551E+04  0.19389771724E+04  0.46999998093E+01 0. -1.
       -5    1    3    3    0  502 -0.12156473175E+04  0.90271605756E+03  0.38704909747E+03  0.15628575671E+04  0.46999998093E+01 0.  1.
</event>
<event>
 5   0  0.1928004E-07  0.3402093E+04  0.7818609E-02  0.8137393E-01
        2   -1    0    0  501    0  0.00000000000E+00  0.00000000000E+00  0.19103772740E+04  0.19103772740E+04  0.25500000920E-02 0.  1.
       -2   -1    0    0    0  501  0.00000000000E+00  0.00000000000E+00 -0.15146535667E+04  0.15146535668E+04  0.25500000920E-02 0. -1.
    10030    2    1    2    0    0  0.00000000000E+00  0.00000000000E+00  0.39572370728E+03  0.34250308408E+04  0.34020933273E+04 0.  0.
        2    1    3    3  502    0  0.11702843253E+04  0.98615330739E+03  0.94549655078E+03  0.17988961824E+04  0.25500000920E-02 0.  1.
       -2    1    3    3    0  502 -0.11702843253E+04 -0.98615330739E+03 -0.54977284351E+03  0.16261346583E+04  0.25500000920E-02 0. -1.
</event>
<event>
 5   0  0.1897313E-07  0.3401168E+04  0.7818609E-02  0.8137620E-01
        2   -1    0    0  501    0  0.00000000000E+00  0.00000000000E+00  0.26290970560E+04  0.26290970561E+04  0.25500000920E-02 0.  1.
       -2   -1    0    0    0  501  0.00000000000E+00  0.00000000000E+00 -0.10999917796E+04  0.10999917796E+04  0.25500000920E-02 0. -1.
    10030    2    1    2    0    0  0.00000000000E+00  0.00000000000E+00  0.15291052765E+04  0.37290888356E+04  0.34011675345E+04 0.  0.
        3    1    3    3  502    0  0.20424504438E+03 -0.21967134664E+03 -0.10707590227E+04  0.11119786120E+04  0.10100000352E+00 0. -1.
       -3    1    3    3    0  502 -0.20424504438E+03  0.21967134664E+03  0.25998642991E+04  0.26171102237E+04  0.10100000352E+00 0.  1.
</event>
<event>
 5   0  0.1970449E-07  0.3406358E+04  0.7818609E-02  0.8136348E-01
       -2   -1    0    0    0  501  0.00000000000E+00  0.00000000000E+00  0.19032659784E+04  0.19032659784E+04  0.25500000920E-02 0.  1.
        2   -1    0    0  501    0  0.00000000000E+00  0.00000000000E+00 -0.15241265188E+04  0.15241265188E+04  0.25500000920E-02 0. -1.
    10030    2    1    2    0    0  0.00000000000E+00  0.00000000000E+00  0.37913945960E+03  0.34273924972E+04  0.34063576736E+04 0.  0.
        1    1    3    3  502    0  0.14555690483E+03 -0.94780070692E+03 -0.12267107812E+04  0.15570267607E+04  0.50400001928E-02 0. -1.
       -1    1    3    3    0  502 -0.14555690483E+03  0.94780070692E+03  0.16058502408E+04  0.18703657366E+04  0.50400001928E-02 0.  1.
</event>
<event>
 5   0  0.1928004E-07  0.3398938E+04  0.7818609E-02  0.8138167E-01
        2   -1    0    0  501    0  0.00000000000E+00  0.00000000000E+00  0.25465873173E+04  0.25465873173E+04  0.25500000920E-02 0. -1.
       -2   -1    0    0    0  501  0.00000000000E+00  0.00000000000E+00 -0.11341429905E+04  0.11341429905E+04  0.25500000920E-02 0.  1.
    10030    2    1    2    0    0  0.00000000000E+00  0.00000000000E+00  0.14124443268E+04  0.36807303079E+04  0.33989375727E+04 0.  0.
        2    1    3    3  502    0  0.77475747352E+03 -0.85438928018E+02 -0.92916156783E+03  0.12128026106E+04  0.25500000920E-02 0.  1.
       -2    1    3    3    0  502 -0.77475747352E+03  0.85438928018E+02  0.23416058946E+04  0.24679276973E+04  0.25500000920E-02 0. -1.
</event>
<event>
 5   0  0.1897313E-07  0.3401447E+04  0.7818609E-02  0.8137551E-01
       -2   -1    0    0    0  501  0.00000000000E+00  0.00000000000E+00  0.14871053650E+04  0.14871053650E+04  0.25500000920E-02 0.  1.
        2   -1    0    0  501    0  0.00000000000E+00  0.00000000000E+00 -0.19450276295E+04  0.19450276295E+04  0.25500000920E-02 0. -1.
    10030    2    1    2    0    0  0.00000000000E+00  0.00000000000E+00 -0.45792226449E+03  0.34321329945E+04  0.34014473525E+04 0.  0.
        3    1    3    3  502    0  0.14001292256E+04 -0.73422463188E+03 -0.86152445751E+03  0.18004644011E+04  0.10100000352E+00 0. -1.
       -3    1    3    3    0  502 -0.14001292256E+04  0.73422463188E+03  0.40360219302E+03  0.16316685935E+04  0.10100000352E+00 0.  1.
</event>
<event>
 5   0  0.6367111E-08  0.3406821E+04  0.7818609E-02  0.8136234E-01
       -1   -1    0    0    0  501  0.00000000000E+00  0.00000000000E+00  0.15543767185E+04  0.15543767185E+04  0.50400001928E-02 0. -1.
        1   -1    0    0  501    0  0.00000000000E+00  0.00000000000E+00 -0.18667332898E+04  0.18667332898E+04  0.50400001928E-02 0.  1.
    10030    2    1    2    0    0  0.00000000000E+00  0.00000000000E+00 -0.31235657129E+03  0.34211100084E+04  0.34068206677E+04 0.  0.
        3    1    3    3  502    0  0.60851636439E+03  0.15909775683E+04 -0.14588999463E+03  0.17096156555E+04  0.10100000352E+00 0.  1.
       -3    1    3    3    0  502 -0.60851636439E+03 -0.15909775683E+04 -0.16646657666E+03  0.17114943529E+04  0.10100000352E+00 0. -1.
</event>
<event>
 5   0  0.1986613E-07  0.3405614E+04  0.7818609E-02  0.8136530E-01
        2   -1    0    0  501    0  0.00000000000E+00  0.00000000000E+00  0.17854157295E+04  0.17854157295E+04  0.25500000920E-02 0. -1.
       -2   -1    0    0    0  501  0.00000000000E+00  0.00000000000E+00 -0.16240208970E+04  0.16240208970E+04  0.25500000920E-02 0.  1.
    10030    2    1    2    0    0  0.00000000000E+00  0.00000000000E+00  0.16139483255E+03  0.34094366265E+04  0.34056144553E+04 0.  0.
        5    1    3    3  502    0  0.11860666227E+04 -0.11527888116E+04 -0.32454607277E+03  0.16855350252E+04  0.46999998093E+01 0.  1.
       -5    1    3    3    0  502 -0.11860666227E+04  0.11527888116E+04  0.48594090532E+03  0.17239016014E+04  0.46999998093E+01 0. -1.
</event>
<event>
 5   0  0.6341535E-08  0.3333286E+04  0.7818609E-02  0.8154477E-01
        1   -1    0    0  501    0  0.00000000000E+00  0.00000000000E+00  0.17324360435E+04  0.17324360435E+04  0.50400001928E-02 0. -1.
       -1   -1    0    0    0  501  0.00000000000E+00  0.00000000000E+00 -0.16033488854E+04  0.16033488854E+04  0.50400001928E-02 0.  1.
    10030    2    1    2    0    0  0.00000000000E+00  0.00000000000E+00  0.12908715807E+03  0.33357849289E+04  0.33332863060E+04 0.  0.
        5    1    3    3  502    0  0.13578280431E+03 -0.93915986823E+03  0.14356870629E+04  0.17209525446E+04  0.46999998093E+01 0.  1.
       -5    1    3    3    0  502 -0.13578280431E+03  0.93915986823E+03 -0.13065999049E+04  0.16148323843E+04  0.46999998093E+01 0. -1.
</event>
<event>
 5   0  0.6367111E-08  0.3398667E+04  0.7818609E-02  0.8138234E-01
       -1   -1    0    0    0  501  0.00000000000E+00  0.00000000000E+00  0.16004893160E+04  0.16004893160E+04  0.50400001928E-02 0.  1.
        1   -1    0    0  501    0  0.00000000000E+00  0.00000000000E+00 -0.18042822784E+04  0.18042822784E+04  0.50400001928E-02 0. -1.
    10030    2    1    2    0    0  0.00000000000E+00  0.00000000000E+00 -0.20379296237E+03  0.34047715944E+04  0.33986670973E+04 0.  0.
        3    1    3    3  502    0 -0.31539783719E+03  0.12673060340E+04  0.98734394989E+03  0.16371891965E+04  0.10100000352E+00 0.  1.
       -3    1    3    3    0  502  0.31539783719E+03 -0.12673060340E+04 -0.11911369123E+04  0.17675823979E+04  0.10100000352E+00 0. -1.
</event>
<event>
 5   0  0.1897313E-07  0.3402028E+04  0.7818609E-02  0.8137409E-01
       -2   -1    0    0    0  501  0.00000000000E+00  0.00000000000E+00  0.11098330603E+04  0.11098330603E+04  0.25500000920E-02 0.  1.
        2   -1    0    0  501    0  0.00000000000E+00  0.00000000000E+00 -0.26071019012E+04  0.26071019012E+04  0.25500000920E-02 0. -1.
    10030    2    1    2    0    0  0.00000000000E+00  0.00000000000E+00 -0.14972688409E+04  0.37169349615E+04  0.34020275610E+04 0.  0.
        3    1    3    3  502    0  0.15400701387E+03 -0.16731148230E+04 -0.45871029755E+03  0.17416792238E+04  0.10100000352E+00 0.  1.
       -3    1    3    3    0  502 -0.15400701387E+03  0.16731148230E+04 -0.10385585434E+04  0.19752557377E+04  0.10100000352E+00 0. -1.
</event>
<event>
 5   0  0.6584420E-08  0.3401392E+04  0.7818609E-02  0.8137565E-01
        1   -1    0    0  501    0  0.00000000000E+00  0.00000000000E+00  0.14479952024E+04  0.14479952024E+04  0.50400001928E-02 0.  1.
       -1   -1    0    0    0  501  0.00000000000E+00  0.00000000000E+00 -0.19974980552E+04  0.19974980552E+04  0.50400001928E-02 0. -1.
    10030    2    1    2    0    0  0.00000000000E+00  0.00000000000E+00 -0.54950285282E+03  0.34454932577E+04  0.34013924212E+04 0.  0.
        1    1    3    3  502    0  0.16167506695E+04  0.36365169026E+03  0.11262322730E+03  0.16609663665E+04  0.50400001928E-02 0.  1.
       -1    1    3    3    0  502 -0.16167506695E+04 -0.36365169026E+03 -0.66212608012E+03  0.17845268912E+04  0.50400001928E-02 0. -1.
</event>
<event>
 5   0  0.6367111E-08  0.3397739E+04  0.7818609E-02  0.8138462E-01
       -1   -1    0    0    0  501  0.00000000000E+00  0.00000000000E+00  0.10710929577E+04  0.10710929577E+04  0.50400001928E-02 0.  1.
        1   -1    0    0  501    0  0.00000000000E+00  0.00000000000E+00 -0.26945906571E+04  0.26945906571E+04  0.50400001928E-02 0. -1.
    10030    2    1    2    0    0  0.00000000000E+00  0.00000000000E+00 -0.16234976994E+04  0.37656836148E+04  0.33977387049E+04 0.  0.
        3    1    3    3  502    0  0.17135232895E+03 -0.12241458727E+03 -0.26800693497E+04  0.26883300916E+04  0.10100000352E+00 0. -1.
       -3    1    3    3    0  502 -0.17135232895E+03  0.12241458727E+03  0.10565716503E+04  0.10773535233E+04  0.10100000352E+00 0.  1.
</event>
<event>
 5   0  0.6311750E-08  0.3385880E+04  0.7818609E-02  0.8141380E-01
        1   -1    0    0  501    0  0.00000000000E+00  0.00000000000E+00  0.30222591032E+04  0.30222591032E+04  0.50400001928E-02 0. -1.
       -1   -1    0    0    0  501  0.00000000000E+00  0.00000000000E+00 -0.94831256792E+03  0.94831256793E+03  0.50400001928E-02 0.  1.
    10030    2    1    2    0    0  0.00000000000E+00  0.00000000000E+00  0.20739465353E+04  0.39705716711E+04  0.33858802643E+04 0.  0.
        4    1    3    3  502    0  0.84411189313E+03 -0.12314986376E+04  0.19728692902E+04  0.24741318945E+04  0.12699999809E+01 0.  1.
       -4    1    3    3    0  502 -0.84411189313E+03  0.12314986376E+04  0.10107724514E+03  0.14964397766E+04  0.12699999809E+01 0. -1.
</event>
<event>
 5   0  0.6341535E-08  0.3402287E+04  0.7818609E-02  0.8137345E-01
        1   -1    0    0  501    0  0.00000000000E+00  0.00000000000E+00  0.16778119936E+04  0.16778119936E+04  0.50400001928E-02 0.  1.
       -1   -1    0    0    0  501  0.00000000000E+00  0.00000000000E+00 -0.17247993130E+04  0.17247993131E+04  0.50400001928E-02 0. -1.
    10030    2    1    2    0    0  0.00000000000E+00  0.00000000000E+00 -0.46987319456E+02  0.34026113066E+04  0.34022868627E+04 0.  0.
        5    1    3    3  502    0  0.10389908843E+04  0.80344924532E+03  0.10577357648E+04  0.16863747465E+04  0.46999998093E+01 0.  1.
       -5    1    3    3    0  502 -0.10389908843E+04 -0.80344924532E+03 -0.11047230843E+04  0.17162365601E+04  0.46999998093E+01 0. -1.
</event>
<event>
 5   0  0.1963852E-07  0.3404616E+04  0.7818609E-02  0.8136774E-01
       -2   -1    0    0    0  501  0.00000000000E+00  0.00000000000E+00  0.17385657624E+04  0.17385657624E+04  0.25500000920E-02 0. -1.
        2   -1    0    0  501    0  0.00000000000E+00  0.00000000000E+00 -0.16668064313E+04  0.16668064313E+04  0.25500000920E-02 0.  1.
    10030    2    1    2    0    0  0.00000000000E+00  0.00000000000E+00  0.71759331117E+02  0.34053721937E+04  0.34046160394E+04 0.  0.
        4    1    3    3  502    0 -0.80419697345E+03 -0.11757108385E+04  0.96819302561E+03  0.17223321676E+04  0.12699999809E+01 0. -1.
       -4    1    3    3    0  502  0.80419697345E+03  0.11757108385E+04 -0.89643369449E+03  0.16830400261E+04  0.12699999809E+01 0.  1.
</event>
<event>
 5   0  0.1970449E-07  0.3426129E+04  0.7818609E-02  0.8131523E-01
       -2   -1    0    0    0  501  0.00000000000E+00  0.00000000000E+00  0.16480401991E+04  0.16480401991E+04  0.25500000920E-02 0.  1.
        2   -1    0    0  501    0  0.00000000000E+00  0.00000000000E+00 -0.17806541095E+04  0.17806541095E+04  0.25500000920E-02 0. -1.
    10030    2    1    2    0    0  0.00000000000E+00  0.00000000000E+00 -0.13261391038E+03  0.34286943086E+04  0.34261287502E+04 0.  0.
        1    1    3    3  502    0  0.96891148642E+03 -0.91481343528E+03  0.10110289980E+04  0.16726783088E+04  0.50400001928E-02 0.  1.
       -1    1    3    3    0  502 -0.96891148642E+03  0.91481343528E+03 -0.11436429083E+04  0.17560159998E+04  0.50400001928E-02 0. -1.
</event>
<event>
 5   0  0.6311750E-08  0.3398380E+04  0.7818609E-02  0.8138304E-01
        1   -1    0    0  501    0  0.00000000000E+00  0.00000000000E+00  0.22762436266E+04  0.22762436267E+04  0.50400001928E-02 0.  1.
       -1   -1    0    0    0  501  0.00000000000E+00  0.00000000000E+00 -0.12684257018E+04  0.12684257018E+04  0.50400001928E-02 0. -1.
    10030    2    1    2    0    0  0.00000000000E+00  0.00000000000E+00  0.10078179249E+04  0.35446693285E+04  0.33983795666E+04 0.  0.
        4    1    3    3  502    0 -0.36849409579E+03  0.82301420501E+03  0.20060790541E+04  0.21994306228E+04  0.12699999809E+01 0.  1.
       -4    1    3    3    0  502  0.36849409579E+03 -0.82301420501E+03 -0.99826112921E+03  0.13452387057E+04  0.12699999809E+01 0. -1.
</event>
<event>
 5   0  0.1928004E-07  0.3402168E+04  0.7818609E-02  0.8137374E-01
       -2   -1    0    0    0  501  0.00000000000E+00  0.00000000000E+00  0.13094245168E+04  0.13094245168E+04  0.25500000920E-02 0. -1.
        2   -1    0    0  501    0  0.00000000000E+00  0.00000000000E+00 -0.22098926560E+04  0.22098926560E+04  0.25500000920E-02 0.  1.
    10030    2    1    2    0    0  0.00000000000E+00  0.00000000000E+00 -0.90046813919E+03  0.35193171727E+04  0.34021684986E+04 0.  0.
        2    1    3    3  502    0  0.56687594728E+02  0.44277060419E+03  0.12477589787E+04  0.13252025355E+04  0.25500000920E-02 0. -1.
       -2    1    3    3    0  502 -0.56687594728E+02 -0.44277060419E+03 -0.21482271179E+04  0.21941146372E+04  0.25500000920E-02 0.  1.
</event>
<event>
 5   0  0.6341535E-08  0.3402996E+04  0.7818609E-02  0.8137171E-01
        1   -1    0    0  501    0  0.00000000000E+00  0.00000000000E+00  0.23737669474E+04  0.23737669474E+04  0.50400001928E-02 0. -1.
       -1   -1    0    0    0  501  0.00000000000E+00  0.00000000000E+00 -0.12196208972E+04  0.12196208972E+04  0.50400001928E-02 0.  1.
    10030    2    1    2    0    0  0.00000000000E+00  0.00000000000E+00  0.11541460502E+04  0.35933878446E+04  0.34029961940E+04 0.  0.
        5    1    3    3  502    0  0.76857055716E+03  0.13288761477E+04 -0.19778087798E+03  0.15478216573E+04  0.46999998093E+01 0.  1.
       -5    1    3    3    0  502 -0.76857055716E+03 -0.13288761477E+04  0.13519269282E+04  0.20455661872E+04  0.46999998093E+01 0. -1.
</event>
<event>
 5   0  0.1928004E-07  0.3354569E+04  0.7818609E-02  0.8149147E-01
       -2   -1    0    0    0  501  0.00000000000E+00  0.00000000000E+00  0.14707689043E+04  0.14707689043E+04  0.25500000920E-02 0. -1.
        2   -1    0    0  501    0  0.00000000000E+00  0.00000000000E+00 -0.19127980297E+04  0.19127980297E+04  0.25500000920E-02 0.  1.
    10030    2    1    2    0    0  0.00000000000E+00  0.00000000000E+00 -0.44202912541E+03  0.33835669340E+04  0.33545693388E+04 0.  0.
        2    1    3    3  502    0 -0.12072716361E+04 -0.87369044879E+03 -0.99737192037E+03  0.17932067787E+04  0.25500000920E-02 0.  1.
       -2    1    3    3    0  502  0.12072716361E+04  0.87369044879E+03  0.55534279495E+03  0.15903601553E+04  0.25500000920E-02 0. -1.
</event>
<event>
 5   0  0.6311750E-08  0.3400512E+04  0.7818609E-02  0.8137781E-01
        1   -1    0    0  501    0  0.00000000000E+00  0.00000000000E+00  0.18159413186E+04  0.18159413186E+04  0.50400001928E-02 0.  1.
       -1   -1    0    0    0  501  0.00000000000E+00  0.00000000000E+00 -0.15919405585E+04  0.15919405585E+04  0.50400001928E-02 0. -1.
    10030    2    1    2    0    0  0.00000000000E+00  0.00000000000E+00  0.22400076013E+03  0.34078818771E+04  0.34005121009E+04 0.  0.
        4    1    3    3  502    0 -0.40159028801E+03  0.85622838846E+03 -0.13040258539E+04  0.16108652499E+04  0.12699999809E+01 0. -1.
       -4    1    3    3    0  502  0.40159028801E+03 -0.85622838846E+03  0.15280266140E+04  0.17970166273E+04  0.12699999809E+01 0.  1.
</event>
<event>
 5   0  0.6311750E-08  0.3398772E+04  0.7818609E-02  0.8138208E-01
        1   -1    0    0  501    0  0.00000000000E+00  0.00000000000E+00  0.16003501389E+04  0.16003501389E+04  0.50400001928E-02 0. -1.
       -1   -1    0    0    0  501  0.00000000000E+00  0.00000000000E+00 -0.18045506226E+04  0.18045506226E+04  0.50400001928E-02 0.  1.
    10030    2    1    2    0    0  0.00000000000E+00  0.00000000000E+00 -0.20420048371E+03  0.34049007614E+04  0.33987720367E+04 0.  0.
        4    1    3    3  502    0  0.13706683001E+04 -0.11308152754E+03  0.89789419263E+03  0.16424781931E+04  0.12699999809E+01 0. -1.
       -4    1    3    3    0  502 -0.13706683001E+04  0.11308152754E+03 -0.11020946763E+04  0.17624225683E+04  0.12699999809E+01 0.  1.
</event>
<event>
 5   0  0.6788600E-08  0.3399657E+04  0.7818609E-02  0.8137990E-01
        1   -1    0    0  501    0  0.00000000000E+00  0.00000000000E+00  0.11789941949E+04  0.11789941949E+04  0.50400001928E-02 0.  1.
       -1   -1    0    0    0  501  0.00000000000E+00  0.00000000000E+00 -0.24507474390E+04  0.24507474390E+04  0.50400001928E-02 0. -1.
    10030    2    1    2    0    0  0.00000000000E+00  0.00000000000E+00 -0.12717532441E+04  0.36297416339E+04  0.33996570437E+04 0.  0.
        2    1    3    3  502    0 -0.35965240370E+03 -0.81754906304E+03  0.90826915424E+03  0.12738481772E+04  0.25500000920E-02 0.  1.
       -2    1    3    3    0  502  0.35965240370E+03  0.81754906304E+03 -0.21800223984E+04  0.23558934567E+04  0.25500000920E-02 0. -1.
</event>
<event>
 5   0  0.1928004E-07  0.3403280E+04  0.7818609E-02  0.8137102E-01
        2   -1    0    0  501    0  0.00000000000E+00  0.00000000000E+00  0.19160367610E+04  0.19160367610E+04  0.25500000920E-02 0.  1.
       -2   -1    0    0    0  501  0.00000000000E+00  0.00000000000E+00 -0.15112333915E+04  0.15112333915E+04  0.25500000920E-02 0. -1.
    10030    2    1    2    0    0  0.00000000000E+00  0.00000000000E+00  0.40480336953E+03  0.34272701525E+04  0.34032800252E+04 0.  0.
        2    1    3    3  502    0 -0.16078247740E+04  0.29831638217E+03  0.67634168818E+03  0.17696133043E+04  0.25500000920E-02 0. -1.
       -2    1    3    3    0  502  0.16078247740E+04 -0.29831638217E+03 -0.27153831865E+03  0.16576568481E+04  0.25500000920E-02 0.  1.
</event>
<event>
 5   0  0.6311750E-08  0.3397928E+04  0.7818609E-02  0.8138415E-01
       -3   -1    0    0    0  501  0.00000000000E+00  0.00000000000E+00  0.15551417229E+04  0.15551417262E+04  0.10100000352E+00 0. -1.
        3   -1    0    0  501    0  0.00000000000E+00  0.00000000000E+00 -0.18560877073E+04  0.18560877100E+04  0.10100000352E+00 0.  1.
    10030    2    1    2    0    0  0.00000000000E+00  0.00000000000E+00 -0.30094598438E+03  0.34112294362E+04  0.33979284544E+04 0.  0.
        2    1    3    3  502    0 -0.65084411971E+03 -0.64927284275E+03 -0.15848156022E+04  0.18321555025E+04  0.25500000920E-02 0.  1.
       -2    1    3    3    0  502  0.65084411971E+03  0.64927284275E+03  0.12838696178E+04  0.15790739337E+04  0.25500000920E-02 0. -1.
</event>
<event>
 5   0  0.1986613E-07  0.3399806E+04  0.7818609E-02  0.8137954E-01
        2   -1    0    0  501    0  0.00000000000E+00  0.00000000000E+00  0.15534124849E+04  0.15534124849E+04  0.25500000920E-02 0. -1.
       -2   -1    0    0    0  501  0.00000000000E+00  0.00000000000E+00 -0.18602081291E+04  0.18602081291E+04  0.25500000920E-02 0.  1.
    10030    2    1    2    0    0  0.00000000000E+00  0.00000000000E+00 -0.30679564428E+03  0.34136206140E+04  0.33998061899E+04 0.  0.
        5    1    3    3  502    0  0.65179499088E+03 -0.11315612151E+04 -0.12461125551E+04  0.18050169206E+04  0.46999998093E+01 0.  1.
       -5    1    3    3    0  502 -0.65179499088E+03  0.11315612151E+04  0.93931691080E+03  0.16086036934E+04  0.46999998093E+01 0. -1.
</event>
<event>
 5   0  0.1986613E-07  0.3397460E+04  0.7818609E-02  0.8138530E-01
       -2   -1    0    0    0  501  0.00000000000E+00  0.00000000000E+00  0.83992135909E+03  0.83992135909E+03  0.25500000920E-02 0.  1.
        2   -1    0    0  501    0  0.00000000000E+00  0.00000000000E+00 -0.34356585308E+04  0.34356585308E+04  0.25500000920E-02 0. -1.
    10030    2    1    2    0    0  0.00000000000E+00  0.00000000000E+00 -0.25957371717E+04  0.42755798898E+04  0.33974596289E+04 0.  0.
        5    1    3    3  502    0  0.13291101739E+04  0.47963882975E+03 -0.24844829077E+04  0.28581925530E+04  0.46999998093E+01 0. -1.
       -5    1    3    3    0  502 -0.13291101739E+04 -0.47963882975E+03 -0.11125426394E+03  0.14173873368E+04  0.46999998093E+01 0.  1.
</event>
<event>
 5   0  0.1963852E-07  0.3356719E+04  0.7818609E-02  0.8148611E-01
       -2   -1    0    0    0  501  0.00000000000E+00  0.00000000000E+00  0.20859809555E+04  0.20859809555E+04  0.25500000920E-02 0.  1.
        2   -1    0    0  501    0  0.00000000000E+00  0.00000000000E+00 -0.13503916856E+04  0.13503916856E+04  0.25500000920E-02 0. -1.
    10030    2    1    2    0    0  0.00000000000E+00  0.00000000000E+00  0.73558926991E+03  0.34363726411E+04  0.33567194334E+04 0.  0.
        4    1    3    3  502    0 -0.10492970568E+04 -0.11312026820E+04  0.10439568394E+04  0.18629254726E+04  0.12699999809E+01 0. -1.
       -4    1    3    3    0  502  0.10492970568E+04  0.11312026820E+04 -0.30836756944E+03  0.15734471685E+04  0.12699999809E+01 0.  1.
</event>
<event>
 5   0  0.6311750E-08  0.3403388E+04  0.7818609E-02  0.8137075E-01
       -1   -1    0    0    0  501  0.00000000000E+00  0.00000000000E+00  0.17541433966E+04  0.17541433967E+04  0.50400001928E-02 0.  1.
        1   -1    0    0  501    0  0.00000000000E+00  0.00000000000E+00 -0.16508125957E+04  0.16508125957E+04  0.50400001928E-02 0. -1.
    10030    2    1    2    0    0  0.00000000000E+00  0.00000000000E+00  0.10333080097E+03  0.34049559923E+04  0.34033877321E+04 0.  0.
        4    1    3    3  502    0  0.58541630974E+03 -0.27990506943E+03 -0.15221778182E+04  0.16547162980E+04  0.12699999809E+01 0. -1.
       -4    1    3    3    0  502 -0.58541630974E+03  0.27990506943E+03  0.16255086192E+04  0.17502396943E+04  0.12699999809E+01 0.  1.
</event>
<event>
 5   0  0.6788600E-08  0.3413684E+04  0.7818609E-02  0.8134556E-01
        1   -1    0    0  501    0  0.00000000000E+00  0.00000000000E+00  0.27550785198E+04  0.27550785198E+04  0.50400001928E-02 0. -1.
       -1   -1    0    0    0  501  0.00000000000E+00  0.00000000000E+00 -0.10574327699E+04  0.10574327699E+04  0.50400001928E-02 0.  1.
    10030    2    1    2    0    0  0.00000000000E+00  0.00000000000E+00  0.16976457500E+04  0.38125112897E+04  0.34136844086E+04 0.  0.
        2    1    3    3  502    0  0.11923631350E+04 -0.11660916602E+04  0.12542969678E+04  0.20868062893E+04  0.25500000920E-02 0. -1.
       -2    1    3    3    0  502 -0.11923631350E+04  0.11660916602E+04  0.44334878220E+03  0.17257050004E+04  0.25500000920E-02 0.  1.
</event>
<event>
 5   0  0.1928004E-07  0.3401370E+04  0.7818609E-02  0.8137570E-01
        2   -1    0    0  501    0  0.00000000000E+00  0.00000000000E+00  0.15115191300E+04  0.15115191300E+04  0.25500000920E-02 0. -1.
       -2   -1    0    0    0  501  0.00000000000E+00  0.00000000000E+00 -0.19135251337E+04  0.19135251337E+04  0.25500000920E-02 0.  1.
    10030    2    1    2    0    0  0.00000000000E+00  0.00000000000E+00 -0.40200600373E+03  0.34250442637E+04  0.34013702212E+04 0.  0.
        2    1    3    3  502    0 -0.10306759224E+04 -0.52242317511E+03 -0.14575307155E+04  0.18600039294E+04  0.25500000920E-02 0.  1.
       -2    1    3    3    0  502  0.10306759224E+04  0.52242317511E+03  0.10555247117E+04  0.15650403343E+04  0.25500000920E-02 0. -1.
</event>
<event>
 5   0  0.6788600E-08  0.3410829E+04  0.7818609E-02  0.8135254E-01
        1   -1    0    0  501    0  0.00000000000E+00  0.00000000000E+00  0.23131643852E+04  0.23131643852E+04  0.50400001928E-02 0. -1.
       -1   -1    0    0    0  501  0.00000000000E+00  0.00000000000E+00 -0.12573416591E+04  0.12573416591E+04  0.50400001928E-02 0.  1.
    10030    2    1    2    0    0  0.00000000000E+00  0.00000000000E+00  0.10558227261E+04  0.35705060443E+04  0.34108286066E+04 0.  0.
        2    1    3    3  502    0 -0.12580727071E+04  0.78295579048E+03 -0.35580824716E+03  0.15239311713E+04  0.25500000920E-02 0.  1.
       -2    1    3    3    0  502  0.12580727071E+04 -0.78295579048E+03  0.14116309732E+04  0.20465748730E+04  0.25500000920E-02 0. -1.
</event>
<event>
 5   0  0.1897313E-07  0.3391009E+04  0.7818609E-02  0.8140117E-01
       -2   -1    0    0    0  501  0.00000000000E+00  0.00000000000E+00  0.13060580501E+04  0.13060580501E+04  0.25500000920E-02 0. -1.
        2   -1    0    0  501    0  0.00000000000E+00  0.00000000000E+00 -0.22010779776E+04  0.22010779776E+04  0.25500000920E-02 0.  1.
    10030    2    1    2    0    0  0.00000000000E+00  0.00000000000E+00 -0.89501992754E+03  0.35071360277E+04  0.33910090601E+04 0.  0.
        3    1    3    3  502    0  0.13374030354E+04 -0.10403753537E+04 -0.51048732718E+03  0.17696398157E+04  0.10100000352E+00 0. -1.
       -3    1    3    3    0  502 -0.13374030354E+04  0.10403753537E+04 -0.38453260037E+03  0.17374962120E+04  0.10100000352E+00 0.  1.
</event>
<event>
 5   0  0.1986613E-07  0.3408227E+04  0.7818609E-02  0.8135890E-01
        2   -1    0    0  501    0  0.00000000000E+00  0.00000000000E+00  0.13506853871E+04  0.13506853871E+04  0.25500000920E-02 0.  1.
       -2   -1    0    0    0  501  0.00000000000E+00  0.00000000000E+00 -0.21500214449E+04  0.21500214449E+04  0.25500000920E-02 0. -1.
    10030    2    1    2    0    0  0.00000000000E+00  0.00000000000E+00 -0.79933605771E+03  0.35007068320E+04  0.34082268396E+04 0.  0.
        5    1    3    3  502    0  0.13436205321E+04  0.75533338463E+02  0.67414629506E+03  0.15051633588E+04  0.46999998093E+01 0.  1.
       -5    1    3    3    0  502 -0.13436205321E+04 -0.75533338463E+02 -0.14734823528E+04  0.19955434732E+04  0.46999998093E+01 0. -1.
</event>
<event>
 5   0  0.6341535E-08  0.3344026E+04  0.7818609E-02  0.8151782E-01
        1   -1    0    0  501    0  0.00000000000E+00  0.00000000000E+00  0.21434176368E+04  0.21434176368E+04  0.50400001928E-02 0. -1.
       -1   -1    0    0    0  501  0.00000000000E+00  0.00000000000E+00 -0.13042851187E+04  0.13042851188E+04  0.50400001928E-02 0.  1.
    10030    2    1    2    0    0  0.00000000000E+00  0.00000000000E+00  0.83913251806E+03  0.34477027556E+04  0.33440261524E+04 0.  0.
        5    1    3    3  502    0 -0.46580612171E+03 -0.41843963566E+03  0.20179670955E+04  0.21128843699E+04  0.46999998093E+01 0. -1.
       -5    1    3    3    0  502  0.46580612171E+03  0.41843963566E+03 -0.11788345775E+04  0.13348183857E+04  0.46999998093E+01 0.  1.
</event>
<event>
 5   0  0.6367111E-08  0.3400897E+04  0.7818609E-02  0.8137686E-01
       -1   -1    0    0    0  501  0.00000000000E+00  0.00000000000E+00  0.15999431431E+04  0.15999431431E+04  0.50400001928E-02 0.  1.
        1   -1    0    0  501    0  0.00000000000E+00  0.00000000000E+00 -0.18072673997E+04  0.18072673997E+04  0.50400001928E-02 0. -1.
    10030    2    1    2    0    0  0.00000000000E+00  0.00000000000E+00 -0.20732425653E+03  0.34072105428E+04  0.34008969899E+04 0.  0.
        3    1    3    3  502    0  0.28004755374E+02 -0.15555843940E+04  0.58383187831E+03  0.16617721701E+04  0.10100000352E+00 0.  1.
       -3    1    3    3    0  502 -0.28004755374E+02  0.15555843940E+04 -0.79115613484E+03  0.17454383727E+04  0.10100000352E+00 0. -1.
</event>
<event>
 5   0  0.1897313E-07  0.3393566E+04  0.7818609E-02  0.8139487E-01
       -2   -1    0    0    0  501  0.00000000000E+00  0.00000000000E+00  0.15647534969E+04  0.15647534969E+04  0.25500000920E-02 0. -1.
        2   -1    0    0  501    0  0.00000000000E+00  0.00000000000E+00 -0.18399528512E+04  0.18399528512E+04  0.25500000920E-02 0.  1.
    10030    2    1    2    0    0  0.00000000000E+00  0.00000000000E+00 -0.27519935436E+03  0.34047063481E+04  0.33935660642E+04 0.  0.
        3    1    3    3  502    0 -0.89079574680E+03  0.13976141690E+04 -0.50242813919E+03  0.17318419308E+04  0.10100000352E+00 0.  1.
       -3    1    3    3    0  502  0.89079574680E+03 -0.13976141690E+04  0.22722878483E+03  0.16728644173E+04  0.10100000352E+00 0. -1.
</event>
<event>
 5   0  0.1970449E-07  0.3388800E+04  0.7818609E-02  0.8140661E-01
        2   -1    0    0  501    0  0.00000000000E+00  0.00000000000E+00  0.26726616265E+04  0.26726616265E+04  0.25500000920E-02 0. -1.
       -2   -1    0    0    0  501  0.00000000000E+00  0.00000000000E+00 -0.10742065462E+04  0.10742065462E+04  0.25500000920E-02 0.  1.
    10030    2    1    2    0    0  0.00000000000E+00  0.00000000000E+00  0.15984550803E+04  0.37468681727E+04  0.33887995603E+04 0.  0.
        1    1    3    3  502    0 -0.45714038934E+03  0.14824625388E+04  0.45819347546E+02  0.15520218836E+04  0.50400001928E-02 0. -1.
       -1    1    3    3    0  502  0.45714038934E+03 -0.14824625388E+04  0.15526357327E+04  0.21948462892E+04  0.50400001928E-02 0.  1.
</event>
<event>
 5   0  0.1970449E-07  0.3391947E+04  0.7818609E-02  0.8139886E-01
       -2   -1    0    0    0  501  0.00000000000E+00  0.00000000000E+00  0.15158323396E+04  0.15158323397E+04  0.25500000920E-02 0. -1.
        2   -1    0    0  501    0  0.00000000000E+00  0.00000000000E+00 -0.18975228287E+04  0.18975228287E+04  0.25500000920E-02 0.  1.
    10030    2    1    2    0    0  0.00000000000E+00  0.00000000000E+00 -0.38169048908E+03  0.34133551684E+04  0.33919472101E+04 0.  0.
        1    1    3    3  502    0 -0.25590742441E+03  0.93659389644E+03 -0.15901717266E+04  0.18631540078E+04  0.50400001928E-02 0.  1.
       -1    1    3    3    0  502  0.25590742441E+03 -0.93659389644E+03  0.12084812375E+04  0.15502011606E+04  0.50400001928E-02 0. -1.
</event>
<event>
 5   0  0.1928004E-07  0.3390219E+04  0.7818609E-02  0.8140311E-01
        2   -1    0    0  501    0  0.00000000000E+00  0.00000000000E+00  0.18196328557E+04  0.18196328557E+04  0.25500000920E-02 0.  1.
       -2   -1    0    0    0  501  0.00000000000E+00  0.00000000000E+00 -0.15791074709E+04  0.15791074709E+04  0.25500000920E-02 0. -1.
    10030    2    1    2    0    0  0.00000000000E+00  0.00000000000E+00  0.24052538481E+03  0.33987403266E+04  0.33902187757E+04 0.  0.
        2    1    3    3  502    0 -0.91128316524E+02  0.79024019847E+02 -0.15747997116E+04  0.15794123266E+04  0.25500000920E-02 0. -1.
       -2    1    3    3    0  502  0.91128316524E+02 -0.79024019847E+02  0.18153250964E+04  0.18193280000E+04  0.25500000920E-02 0.  1.
</event>
<event>
 5   0  0.6584420E-08  0.3405493E+04  0.7818609E-02  0.8136559E-01
       -1   -1    0    0    0  501  0.00000000000E+00  0.00000000000E+00  0.17852203819E+04  0.17852203819E+04  0.50400001928E-02 0.  1.
        1   -1    0    0  501    0  0.00000000000E+00  0.00000000000E+00 -0.16240828134E+04  0.16240828134E+04  0.50400001928E-02 0. -1.
    10030    2    1    2    0    0  0.00000000000E+00  0.00000000000E+00  0.16113756855E+03  0.34093031953E+04  0.34054930570E+04 0.  0.
        1    1    3    3  502    0  0.11987676836E+04  0.93518458386E+03  0.84806304759E+03  0.17409265056E+04  0.50400001928E-02 0.  1.
       -1    1    3    3    0  502 -0.11987676836E+04 -0.93518458386E+03 -0.68692547904E+03  0.16683766897E+04  0.50400001928E-02 0. -1.
</event>
<event>
 5   0  0.1970449E-07  0.3397365E+04  0.7818609E-02  0.8138553E-01
        2   -1    0    0  501    0  0.00000000000E+00  0.00000000000E+00  0.19981462589E+04  0.19981462589E+04  0.25500000920E-02 0.  1.
       -2   -1    0    0    0  501  0.00000000000E+00  0.00000000000E+00 -0.14440996989E+04  0.14440996989E+04  0.25500000920E-02 0. -1.
    10030    2    1    2    0    0  0.00000000000E+00  0.00000000000E+00  0.55404656000E+03  0.34422459579E+04  0.33973651031E+04 0.  0.
        1    1    3    3  502    0  0.78718618458E+03 -0.70424595084E+03  0.16249733070E+04  0.19380822215E+04  0.50400001928E-02 0.  1.
       -1    1    3    3    0  502 -0.78718618458E+03  0.70424595084E+03 -0.10709267470E+04  0.15041637364E+04  0.50400001928E-02 0. -1.
</event>
<event>
 5   0  0.1963852E-07  0.3396934E+04  0.7818609E-02  0.8138659E-01
       -2   -1    0    0    0  501  0.00000000000E+00  0.00000000000E+00  0.14414450622E+04  0.14414450622E+04  0.25500000920E-02 0.  1.
        2   -1    0    0  501    0  0.00000000000E+00  0.00000000000E+00 -0.20013183038E+04  0.20013183038E+04  0.25500000920E-02 0. -1.
    10030    2    1    2    0    0  0.00000000000E+00  0.00000000000E+00 -0.55987324160E+03  0.34427633660E+04  0.33969341394E+04 0.  0.
        4    1    3    3  502    0 -0.10649008054E+04  0.67454069748E+03 -0.14336129694E+04  0.19089962381E+04  0.12699999809E+01 0. -1.
       -4    1    3    3    0  502  0.10649008054E+04 -0.67454069748E+03  0.87373972780E+03  0.15337671280E+04  0.12699999809E+01 0.  1.
</event>
<event>
 5   0  0.1897313E-07  0.3388742E+04  0.7818609E-02  0.8140675E-01
        2   -1    0    0  501    0  0.00000000000E+00  0.00000000000E+00  0.17470686753E+04  0.17470686753E+04  0.25500000920E-02 0.  1.
       -2   -1    0    0    0  501  0.00000000000E+00  0.00000000000E+00 -0.16432627794E+04  0.16432627794E+04  0.25500000920E-02 0. -1.
    10030    2    1    2    0    0  0.00000000000E+00  0.00000000000E+00  0.10380589587E+03  0.33903314547E+04  0.33887419065E+04 0.  0.
        3    1    3    3  502    0  0.14983423906E+04  0.40025079469E+02  0.84237544517E+03  0.17193685839E+04  0.10100000352E+00 0.  1.
       -3    1    3    3    0  502 -0.14983423906E+04 -0.40025079469E+02 -0.73856954931E+03  0.16709628709E+04  0.10100000352E+00 0. -1.
</event>
<event>
 5   0  0.6341535E-08  0.3395875E+04  0.7818609E-02  0.8138919E-01
        1   -1    0    0  501    0  0.00000000000E+00  0.00000000000E+00  0.24027357711E+04  0.24027357711E+04  0.50400001928E-02 0. -1.
       -1   -1    0    0    0  501  0.00000000000E+00  0.00000000000E+00 -0.11998789614E+04  0.11998789614E+04  0.50400001928E-02 0.  1.
    10030    2    1    2    0    0  0.00000000000E+00  0.00000000000E+00  0.12028568096E+04  0.36026147325E+04  0.33958752047E+04 0.  0.
        5    1    3    3  502    0  0.28259430746E+03 -0.15637513977E+04  0.12360011758E+04  0.20131813065E+04  0.46999998093E+01 0. -1.
       -5    1    3    3    0  502 -0.28259430746E+03  0.15637513977E+04 -0.33144366121E+02  0.15894334259E+04  0.46999998093E+01 0.  1.
</event>
<event>
 5   0  0.6788600E-08  0.3400899E+04  0.7818609E-02  0.8137686E-01
        1   -1    0    0  501    0  0.00000000000E+00  0.00000000000E+00  0.16840713188E+04  0.16840713188E+04  0.50400001928E-02 0.  1.
       -1   -1    0    0    0  501  0.00000000000E+00  0.00000000000E+00 -0.17169866430E+04  0.17169866430E+04  0.50400001928E-02 0. -1.
    10030    2    1    2    0    0  0.00000000000E+00  0.00000000000E+00 -0.32915324149E+02  0.34010579618E+04  0.34008986814E+04 0.  0.
        2    1    3    3  502    0 -0.10692829969E+03  0.16881033636E+04  0.15791028339E+03  0.16988414538E+04  0.25500000920E-02 0.  1.
       -2    1    3    3    0  502  0.10692829969E+03 -0.16881033636E+04 -0.19082560754E+03  0.17022165080E+04  0.25500000920E-02 0. -1.
</event>
<event>
 5   0  0.1970449E-07  0.3389884E+04  0.7818609E-02  0.8140394E-01
        2   -1    0    0  501    0  0.00000000000E+00  0.00000000000E+00  0.10510677784E+04  0.10510677784E+04  0.25500000920E-02 0. -1.
       -2   -1    0    0    0  501  0.00000000000E+00  0.00000000000E+00 -0.27332474502E+04  0.27332474502E+04  0.25500000920E-02 0.  1.
    10030    2    1    2    0    0  0.00000000000E+00  0.00000000000E+00 -0.16821796718E+04  0.37843152286E+04  0.33898839658E+04 0.  0.
        1    1    3    3  502    0  0.48428113439E+03  0.15460076669E+04 -0.28496957907E+03  0.16449545843E+04  0.50400001928E-02 0. -1.
       -1    1    3    3    0  502 -0.48428113439E+03 -0.15460076669E+04 -0.13972100927E+04  0.21393606444E+04  0.50400001928E-02 0.  1.
</event>
<event>
 5   0  0.1963852E-07  0.3386320E+04  0.7818609E-02  0.8141272E-01
       -2   -1    0    0    0  501  0.00000000000E+00  0.00000000000E+00  0.26261144381E+04  0.26261144381E+04  0.25500000920E-02 0. -1.
        2   -1    0    0  501    0  0.00000000000E+00  0.00000000000E+00 -0.10916475173E+04  0.10916475173E+04  0.25500000920E-02 0.  1.
    10030    2    1    2    0    0  0.00000000000E+00  0.00000000000E+00  0.15344669208E+04  0.37177619554E+04  0.33863203077E+04 0.  0.
        4    1    3    3  502    0  0.12835773199E+04 -0.36404260024E+03 -0.37724274370E+03  0.13865105307E+04  0.12699999809E+01 0.  1.
       -4    1    3    3    0  502 -0.12835773199E+04  0.36404260024E+03  0.19117096645E+04  0.23312514248E+04  0.12699999809E+01 0. -1.
</event>
<event>
 5   0  0.1897313E-07  0.3369663E+04  0.7818609E-02  0.8145392E-01
        2   -1    0    0  501    0  0.00000000000E+00  0.00000000000E+00  0.22003277103E+04  0.22003277103E+04  0.25500000920E-02 0.  1.
       -2   -1    0    0    0  501  0.00000000000E+00  0.00000000000E+00 -0.12901066479E+04  0.12901066479E+04  0.25500000920E-02 0. -1.
    10030    2    1    2    0    0  0.00000000000E+00  0.00000000000E+00  0.91022106241E+03  0.34904343583E+04  0.33696631326E+04 0.  0.
        3    1    3    3  502    0  0.71839865262E+03  0.23126571182E+03 -0.11052235697E+04  0.13383196938E+04  0.10100000352E+00 0. -1.
       -3    1    3    3    0  502 -0.71839865262E+03 -0.23126571182E+03  0.20154446321E+04  0.21521146645E+04  0.10100000352E+00 0.  1.
</event>
<event>
 5   0  0.6584420E-08  0.3392801E+04  0.7818609E-02  0.8139675E-01
       -1   -1    0    0    0  501  0.00000000000E+00  0.00000000000E+00  0.25091627844E+04  0.25091627844E+04  0.50400001928E-02 0.  1.
        1   -1    0    0  501    0  0.00000000000E+00  0.00000000000E+00 -0.11469062904E+04  0.11469062904E+04  0.50400001928E-02 0. -1.
    10030    2    1    2    0    0  0.00000000000E+00  0.00000000000E+00  0.13622564940E+04  0.36560690748E+04  0.33928009556E+04 0.  0.
        1    1    3    3  502    0 -0.63183430946E+03  0.14821888875E+04  0.12530426067E+04  0.20411306345E+04  0.50400001928E-02 0.  1.
       -1    1    3    3    0  502  0.63183430946E+03 -0.14821888875E+04  0.10921388730E+03  0.16149384403E+04  0.50400001928E-02 0. -1.
</event>
<event>
 5   0  0.1928004E-07  0.3402352E+04  0.7818609E-02  0.8137329E-01
       -2   -1    0    0    0  501  0.00000000000E+00  0.00000000000E+00  0.19808461882E+04  0.19808461883E+04  0.25500000920E-02 0.  1.
        2   -1    0    0  501    0  0.00000000000E+00  0.00000000000E+00 -0.14609920176E+04  0.14609920176E+04  0.25500000920E-02 0. -1.
    10030    2    1    2    0    0  0.00000000000E+00  0.00000000000E+00  0.51985417061E+03  0.34418382059E+04  0.34023524034E+04 0.  0.
        2    1    3    3  502    0 -0.16789707217E+04  0.26080832287E+03  0.34478627351E+03  0.17337362083E+04  0.25500000920E-02 0. -1.
       -2    1    3    3    0  502  0.16789707217E+04 -0.26080832287E+03  0.17506789710E+03  0.17081019976E+04  0.25500000920E-02 0.  1.
</event>
<event>
 5   0  0.6584420E-08  0.3400887E+04  0.7818609E-02  0.8137689E-01
        1   -1    0    0  501    0  0.00000000000E+00  0.00000000000E+00  0.11571362573E+04  0.11571362574E+04  0.50400001928E-02 0. -1.
       -1   -1    0    0    0  501  0.00000000000E+00  0.00000000000E+00 -0.24988486795E+04  0.24988486795E+04  0.50400001928E-02 0.  1.
    10030    2    1    2    0    0  0.00000000000E+00  0.00000000000E+00 -0.13417124221E+04  0.36559849368E+04  0.34008871835E+04 0.  0.
        1    1    3    3  502    0 -0.84903327923E+01 -0.16063961669E+04 -0.71421532990E+02  0.16080055243E+04  0.50400001928E-02 0. -1.
       -1    1    3    3    0  502  0.84903327923E+01  0.16063961669E+04 -0.12702908891E+04  0.20479794125E+04  0.50400001928E-02 0.  1.
</event>
<event>
 5   0  0.6788600E-08  0.3397983E+04  0.7818609E-02  0.8138401E-01
        1   -1    0    0  501    0  0.00000000000E+00  0.00000000000E+00  0.25590350018E+04  0.25590350018E+04  0.50400001928E-02 0. -1.
       -1   -1    0    0    0  501  0.00000000000E+00  0.00000000000E+00 -0.11279925412E+04  0.11279925412E+04  0.50400001928E-02 0.  1.
    10030    2    1    2    0    0  0.00000000000E+00  0.00000000000E+00  0.14310424606E+04  0.36870275430E+04  0.33979831634E+04 0.  0.
        2    1    3    3  502    0 -0.74753117636E+03 -0.14556919450E+04  0.21978790836E+03  0.16511052732E+04  0.25500000920E-02 0. -1.
       -2    1    3    3    0  502  0.74753117636E+03  0.14556919450E+04  0.12112545523E+04  0.20359222698E+04  0.25500000920E-02 0.  1.
</event>
<event>
 5   0  0.1986613E-07  0.3406611E+04  0.7818609E-02  0.8136286E-01
       -2   -1    0    0    0  501  0.00000000000E+00  0.00000000000E+00  0.23825079868E+04  0.23825079868E+04  0.25500000920E-02 0.  1.
        2   -1    0    0  501    0  0.00000000000E+00  0.00000000000E+00 -0.12177290534E+04  0.12177290534E+04  0.25500000920E-02 0. -1.
    10030    2    1    2    0    0  0.00000000000E+00  0.00000000000E+00  0.11647789334E+04  0.36002370402E+04  0.34066107471E+04 0.  0.
        5    1    3    3  502    0  0.10211396955E+04 -0.35065587463E+03  0.19746677791E+04  0.22505600965E+04  0.46999998093E+01 0.  1.
       -5    1    3    3    0  502 -0.10211396955E+04  0.35065587463E+03 -0.80988884571E+03  0.13496769437E+04  0.46999998093E+01 0. -1.
</event>
<event>
 5   0  0.6584420E-08  0.3398517E+04  0.7818609E-02  0.8138270E-01
        1   -1    0    0  501    0  0.00000000000E+00  0.00000000000E+00  0.16761121399E+04  0.16761121399E+04  0.50400001928E-02 0. -1.
       -1   -1    0    0    0  501  0.00000000000E+00  0.00000000000E+00 -0.17227241179E+04  0.17227241179E+04  0.50400001928E-02 0.  1.
    10030    2    1    2    0    0  0.00000000000E+00  0.00000000000E+00 -0.46611977924E+02  0.33988362578E+04  0.33985166221E+04 0.  0.
        1    1    3    3  502    0  0.11607576396E+04 -0.81198540012E+03 -0.96190383082E+03  0.17122901529E+04  0.50400001928E-02 0.  1.
       -1    1    3    3    0  502 -0.11607576396E+04  0.81198540012E+03  0.91529185290E+03  0.16865461049E+04  0.50400001928E-02 0. -1.
</event>
<event>
 5   0  0.1963852E-07  0.3401195E+04  0.7818609E-02  0.8137613E-01
        2   -1    0    0  501    0  0.00000000000E+00  0.00000000000E+00  0.12711220602E+04  0.12711220602E+04  0.25500000920E-02 0. -1.
       -2   -1    0    0    0  501  0.00000000000E+00  0.00000000000E+00 -0.22751806845E+04  0.22751806845E+04  0.25500000920E-02 0.  1.
    10030    2    1    2    0    0  0.00000000000E+00  0.00000000000E+00 -0.10040586243E+04  0.35463027447E+04  0.34011952952E+04 0.  0.
        4    1    3    3  502    0 -0.66344660853E+03 -0.96726232891E+03  0.78187580395E+03  0.14096415151E+04  0.12699999809E+01 0. -1.
       -4    1    3    3    0  502  0.66344660853E+03  0.96726232891E+03 -0.17859344283E+04  0.21366612297E+04  0.12699999809E+01 0.  1.
</event>
<event>
 5   0  0.6311750E-08  0.3408794E+04  0.7818609E-02  0.8135751E-01
        3   -1    0    0  501    0  0.00000000000E+00  0.00000000000E+00  0.12371322088E+04  0.12371322130E+04  0.10100000352E+00 0.  1.
       -3   -1    0    0    0  501  0.00000000000E+00  0.00000000000E+00 -0.23481481941E+04  0.23481481963E+04  0.10100000352E+00 0. -1.
    10030    2    1    2    0    0  0.00000000000E+00  0.00000000000E+00 -0.11110159853E+04  0.35852804092E+04  0.34087943753E+04 0.  0.
        4    1    3    3  502    0 -0.45662542251E+03  0.14021209613E+04  0.34344677855E+03  0.15140697703E+04  0.12699999809E+01 0.  1.
       -4    1    3    3    0  502  0.45662542251E+03 -0.14021209613E+04 -0.14544627638E+04  0.20712106390E+04  0.12699999809E+01 0. -1.
</event>
<event>
 5   0  0.1897313E-07  0.3401198E+04  0.7818609E-02  0.8137612E-01
        2   -1    0    0  501    0  0.00000000000E+00  0.00000000000E+00  0.18300723065E+04  0.18300723065E+04  0.25500000920E-02 0. -1.
       -2   -1    0    0    0  501  0.00000000000E+00  0.00000000000E+00 -0.15802858006E+04  0.15802858006E+04  0.25500000920E-02 0.  1.
    10030    2    1    2    0    0  0.00000000000E+00  0.00000000000E+00  0.24978650588E+03  0.34103581071E+04  0.34011981889E+04 0.  0.
        3    1    3    3  502    0 -0.75744033969E+03  0.65969310619E+02 -0.14003771963E+04  0.15934629334E+04  0.10100000352E+00 0.  1.
       -3    1    3    3    0  502  0.75744033969E+03 -0.65969310619E+02  0.16501637021E+04  0.18168951737E+04  0.10100000352E+00 0. -1.
</event>
<event>
 5   0  0.1897313E-07  0.3398240E+04  0.7818609E-02  0.8138339E-01
        2   -1    0    0  501    0  0.00000000000E+00  0.00000000000E+00  0.26413793644E+04  0.26413793644E+04  0.25500000920E-02 0. -1.
       -2   -1    0    0    0  501  0.00000000000E+00  0.00000000000E+00 -0.10929926235E+04  0.10929926236E+04  0.25500000920E-02 0.  1.
    10030    2    1    2    0    0  0.00000000000E+00  0.00000000000E+00  0.15483867409E+04  0.37343719880E+04  0.33982396392E+04 0.  0.
        3    1    3    3  502    0 -0.75327111056E+02  0.14059603390E+03  0.26331339775E+04  0.26379605706E+04  0.10100000352E+00 0. -1.
       -3    1    3    3    0  502  0.75327111056E+02 -0.14059603390E+03 -0.10847472367E+04  0.10964114173E+04  0.10100000352E+00 0.  1.
</event>
<event>
 5   0  0.6367111E-08  0.3399918E+04  0.7818609E-02  0.8137926E-01
       -1   -1    0    0    0  501  0.00000000000E+00  0.00000000000E+00  0.20159037742E+04  0.20159037742E+04  0.50400001928E-02 0.  1.
        1   -1    0    0  501    0  0.00000000000E+00  0.00000000000E+00 -0.14335311465E+04  0.14335311465E+04  0.50400001928E-02 0. -1.
    10030    2    1    2    0    0  0.00000000000E+00  0.00000000000E+00  0.58237262770E+03  0.34494349208E+04  0.33999181454E+04 0.  0.
        3    1    3    3  502    0 -0.15147275776E+04 -0.73704229442E+03  0.59319322419E+02  0.16855710517E+04  0.10100000352E+00 0. -1.
       -3    1    3    3    0  502  0.15147275776E+04  0.73704229442E+03  0.52305330528E+03  0.17638638691E+04  0.10100000352E+00 0.  1.
</event>
<event>
 5   0  0.1928004E-07  0.3397213E+04  0.7818609E-02  0.8138591E-01
       -2   -1    0    0    0  501  0.00000000000E+00  0.00000000000E+00  0.18810369088E+04  0.18810369088E+04  0.25500000920E-02 0.  1.
        2   -1    0    0  501    0  0.00000000000E+00  0.00000000000E+00 -0.15338687746E+04  0.15338687746E+04  0.25500000920E-02 0. -1.
    10030    2    1    2    0    0  0.00000000000E+00  0.00000000000E+00  0.34716813417E+03  0.34149056833E+04  0.33972128448E+04 0.  0.
        2    1    3    3  502    0  0.12560564323E+04  0.32335166370E+03  0.12761235067E+04  0.18195398495E+04  0.25500000920E-02 0.  1.
       -2    1    3    3    0  502 -0.12560564323E+04 -0.32335166370E+03 -0.92895537251E+03  0.15953658338E+04  0.25500000920E-02 0. -1.
</event>
<event>
 5   0  0.1963852E-07  0.3424456E+04  0.7818609E-02  0.8131930E-01
       -2   -1    0    0    0  501  0.00000000000E+00  0.00000000000E+00  0.16143090323E+04  0.16143090323E+04  0.25500000920E-02 0.  1.
        2   -1    0    0  501    0  0.00000000000E+00  0.00000000000E+00 -0.18160868676E+04  0.18160868676E+04  0.25500000920E-02 0. -1.
    10030    2    1    2    0    0  0.00000000000E+00  0.00000000000E+00 -0.20177783530E+03  0.34303958999E+04  0.34244564146E+04 0.  0.
        4    1    3    3  502    0  0.90166885134E+02 -0.13242735342E+04  0.98260315881E+03  0.16514663306E+04  0.12699999809E+01 0.  1.
       -4    1    3    3    0  502 -0.90166885134E+02  0.13242735342E+04 -0.11843809941E+04  0.17789295693E+04  0.12699999809E+01 0. -1.
</event>
<event>
 5   0  0.1963852E-07  0.3407148E+04  0.7818609E-02  0.8136154E-01
        2   -1    0    0  501    0  0.00000000000E+00  0.00000000000E+00  0.15451342465E+04  0.15451342465E+04  0.25500000920E-02 0.  1.
       -2   -1    0    0    0  501  0.00000000000E+00  0.00000000000E+00 -0.18782602622E+04  0.18782602622E+04  0.25500000920E-02 0. -1.
    10030    2    1    2    0    0  0.00000000000E+00  0.00000000000E+00 -0.33312601578E+03  0.34233945087E+04  0.34071479304E+04 0.  0.
        4    1    3    3  502    0  0.10179697443E+04 -0.13115852543E+03 -0.15327146489E+04  0.18446356732E+04  0.12699999809E+01 0. -1.
       -4    1    3    3    0  502 -0.10179697443E+04  0.13115852543E+03  0.11995886331E+04  0.15787588355E+04  0.12699999809E+01 0.  1.
</event>
<event>
 5   0  0.6311750E-08  0.3399401E+04  0.7818609E-02  0.8138053E-01
        1   -1    0    0  501    0  0.00000000000E+00  0.00000000000E+00  0.25801974349E+04  0.25801974349E+04  0.50400001928E-02 0. -1.
       -1   -1    0    0    0  501  0.00000000000E+00  0.00000000000E+00 -0.11196744203E+04  0.11196744203E+04  0.50400001928E-02 0.  1.
    10030    2    1    2    0    0  0.00000000000E+00  0.00000000000E+00  0.14605230146E+04  0.36998718552E+04  0.33994005749E+04 0.  0.
        4    1    3    3  502    0 -0.14842046283E+03 -0.20609259992E+03 -0.10989053940E+04  0.11278729855E+04  0.12699999809E+01 0.  1.
       -4    1    3    3    0  502  0.14842046283E+03  0.20609259992E+03  0.25594284086E+04  0.25719988696E+04  0.12699999809E+01 0. -1.
</event>
<event>
 5   0  0.6367111E-08  0.3389569E+04  0.7818609E-02  0.8140471E-01
        1   -1    0    0  501    0  0.00000000000E+00  0.00000000000E+00  0.10468385187E+04  0.10468385187E+04  0.50400001928E-02 0. -1.
       -1   -1    0    0    0  501  0.00000000000E+00  0.00000000000E+00 -0.27437799370E+04  0.27437799370E+04  0.50400001928E-02 0.  1.
    10030    2    1    2    0    0  0.00000000000E+00  0.00000000000E+00 -0.16969414183E+04  0.37906184557E+04  0.33895690139E+04 0.  0.
        3    1    3    3  502    0 -0.37103561155E+03 -0.60704221102E+03 -0.25686931276E+04  0.26653990443E+04  0.10100000352E+00 0.  1.
       -3    1    3    3    0  502  0.37103561155E+03  0.60704221102E+03  0.87175170935E+03  0.11252194115E+04  0.10100000352E+00 0. -1.
</event>
<event>
 5   0  0.6584420E-08  0.3397429E+04  0.7818609E-02  0.8138538E-01
       -1   -1    0    0    0  501  0.00000000000E+00  0.00000000000E+00  0.25985231028E+04  0.25985231028E+04  0.50400001928E-02 0.  1.
        1   -1    0    0  501    0  0.00000000000E+00  0.00000000000E+00 -0.11104886545E+04  0.11104886546E+04  0.50400001928E-02 0. -1.
    10030    2    1    2    0    0  0.00000000000E+00  0.00000000000E+00  0.14880344483E+04  0.37090117574E+04  0.33974286890E+04 0.  0.
        1    1    3    3  502    0 -0.11911521522E+04 -0.51043108548E+02  0.20650248633E+04  0.23844866396E+04  0.50400001928E-02 0.  1.
       -1    1    3    3    0  502  0.11911521522E+04  0.51043108548E+02 -0.57699041500E+03  0.13245251178E+04  0.50400001928E-02 0. -1.
</event>
<event>
 5   0  0.6311750E-08  0.3399186E+04  0.7818609E-02  0.8138106E-01
        1   -1    0    0  501    0  0.00000000000E+00  0.00000000000E+00  0.18680014157E+04  0.18680014157E+04  0.50400001928E-02 0.  1.
       -1   -1    0    0    0  501  0.00000000000E+00  0.00000000000E+00 -0.15463671703E+04  0.15463671703E+04  0.50400001928E-02 0. -1.
    10030    2    1    2    0    0  0.00000000000E+00  0.00000000000E+00  0.32163424536E+03  0.34143685860E+04  0.33991858221E+04 0.  0.
        4    1    3    3  502    0  0.83816181650E+03  0.25648153050E+03 -0.13018174547E+04  0.15694038054E+04  0.12699999809E+01 0. -1.
       -4    1    3    3    0  502 -0.83816181650E+03 -0.25648153050E+03  0.16234517001E+04  0.18449647806E+04  0.12699999809E+01 0.  1.
</event>
<event>
 5   0  0.6584420E-08  0.3404250E+04  0.7818609E-02  0.8136864E-01
        1   -1    0    0  501    0  0.00000000000E+00  0.00000000000E+00  0.27780228757E+04  0.27780228757E+04  0.50400001928E-02 0.  1.
       -1   -1    0    0    0  501  0.00000000000E+00  0.00000000000E+00 -0.10429107370E+04  0.10429107370E+04  0.50400001928E-02 0. -1.
    10030    2    1    2    0    0  0.00000000000E+00  0.00000000000E+00  0.17351121387E+04  0.38209336127E+04  0.34042502169E+04 0.  0.
        1    1    3    3  502    0 -0.89993624899E+03 -0.71985642231E+01  0.24891410273E+04  0.26468396486E+04  0.50400001928E-02 0.  1.
       -1    1    3    3    0  502  0.89993624899E+03  0.71985642231E+01 -0.75402888866E+03  0.11740939641E+04  0.50400001928E-02 0. -1.
</event>
<event>
 5   0  0.1928004E-07  0.3397179E+04  0.7818609E-02  0.8138599E-01
        2   -1    0    0  501    0  0.00000000000E+00  0.00000000000E+00  0.11712225986E+04  0.11712225986E+04  0.25500000920E-02 0. -1.
       -2   -1    0    0    0  501  0.00000000000E+00  0.00000000000E+00 -0.24634142816E+04  0.24634142816E+04  0.25500000920E-02 0.  1.
    10030    2    1    2    0    0  0.00000000000E+00  0.00000000000E+00 -0.12921916830E+04  0.36346368802E+04  0.33971791100E+04 0.  0.
        2    1    3    3  502    0  0.49842341205E+03 -0.14255323895E+03 -0.23767072554E+04  0.24325880665E+04  0.25500000920E-02 0.  1.
       -2    1    3    3    0  502 -0.49842341205E+03  0.14255323895E+03  0.10845155724E+04  0.12020488136E+04  0.25500000920E-02 0. -1.
</event>
<event>
 5   0  0.6311750E-08  0.3406825E+04  0.7818609E-02  0.8136233E-01
       -1   -1    0    0    0  501  0.00000000000E+00  0.00000000000E+00  0.98090389078E+03  0.98090389079E+03  0.50400001928E-02 0.  1.
        1   -1    0    0  501    0  0.00000000000E+00  0.00000000000E+00 -0.29581017695E+04  0.29581017695E+04  0.50400001928E-02 0. -1.
    10030    2    1    2    0    0  0.00000000000E+00  0.00000000000E+00 -0.19771978788E+04  0.39390056603E+04  0.34068246419E+04 0.  0.
        4    1    3    3  502    0 -0.15655430763E+04 -0.44157678946E+03 -0.40394427549E+03  0.16760333455E+04  0.12699999809E+01 0.  1.
       -4    1    3    3    0  502  0.15655430763E+04  0.44157678946E+03 -0.15732536033E+04  0.22629723148E+04  0.12699999809E+01 0. -1.
</event>
<event>
 5   0  0.1928004E-07  0.3373509E+04  0.7818609E-02  0.8144439E-01
        2   -1    0    0  501    0  0.00000000000E+00  0.00000000000E+00  0.26675365562E+04  0.26675365562E+04  0.25500000920E-02 0. -1.
       -2   -1    0    0    0  501  0.00000000000E+00  0.00000000000E+00 -0.10665796674E+04  0.10665796674E+04  0.25500000920E-02 0.  1.
    10030    2    1    2    0    0  0.00000000000E+00  0.00000000000E+00  0.16009568888E+04  0.37341162236E+04  0.33735087093E+04 0.  0.
        2    1    3    3  502    0 -0.64023295098E+03 -0.14877175836E+04  0.27901696378E+03  0.16434878479E+04  0.25500000920E-02 0.  1.
       -2    1    3    3    0  502  0.64023295098E+03  0.14877175836E+04  0.13219399250E+04  0.20906283757E+04  0.25500000920E-02 0. -1.
</event>
<event>
 5   0  0.6584420E-08  0.3402836E+04  0.7818609E-02  0.8137211E-01
        1   -1    0    0  501    0  0.00000000000E+00  0.00000000000E+00  0.20279953727E+04  0.20279953727E+04  0.50400001928E-02 0. -1.
       -1   -1    0    0    0  501  0.00000000000E+00  0.00000000000E+00 -0.14274310689E+04  0.14274310689E+04  0.50400001928E-02 0.  1.
    10030    2    1    2    0    0  0.00000000000E+00  0.00000000000E+00  0.60056430384E+03  0.34554264416E+04  0.34028362303E+04 0.  0.
        1    1    3    3  502    0  0.42607763644E+03 -0.15527433147E+04 -0.25800531051E+03  0.16306810521E+04  0.50400001928E-02 0.  1.
       -1    1    3    3    0  502 -0.42607763644E+03  0.15527433147E+04  0.85856961435E+03  0.18247453894E+04  0.50400001928E-02 0. -1.
</event>
<event>
 5   0  0.6367111E-08  0.3413964E+04  0.7818609E-02  0.8134488E-01
        1   -1    0    0  501    0  0.00000000000E+00  0.00000000000E+00  0.16220752982E+04  0.16220752982E+04  0.50400001928E-02 0. -1.
       -1   -1    0    0    0  501  0.00000000000E+00  0.00000000000E+00 -0.17963327119E+04  0.17963327119E+04  0.50400001928E-02 0.  1.
    10030    2    1    2    0    0  0.00000000000E+00  0.00000000000E+00 -0.17425741374E+03  0.34184080101E+04  0.34139636315E+04 0.  0.
        3    1    3    3  502    0  0.28829315124E+03 -0.60148134540E+03  0.14861883219E+04  0.16290022984E+04  0.10100000352E+00 0. -1.
       -3    1    3    3    0  502 -0.28829315124E+03  0.60148134540E+03 -0.16604457356E+04  0.17894057117E+04  0.10100000352E+00 0.  1.
</event>
<event>
 5   0  0.1928004E-07  0.3334578E+04  0.7818609E-02  0.8154152E-01
        2   -1    0    0  501    0  0.00000000000E+00  0.00000000000E+00  0.18509926928E+04  0.18509926928E+04  0.25500000920E-02 0.  1.
       -2   -1    0    0    0  501  0.00000000000E+00  0.00000000000E+00 -0.15018175191E+04  0.15018175191E+04  0.25500000920E-02 0. -1.
    10030    2    1    2    0    0  0.00000000000E+00  0.00000000000E+00  0.34917517369E+03  0.33528102120E+04  0.33345783865E+04 0.  0.
        2    1    3    3  502    0  0.16238239284E+03 -0.16098917074E+04  0.57894794559E+03  0.17185168241E+04  0.25500000920E-02 0.  1.
       -2    1    3    3    0  502 -0.16238239284E+03  0.16098917074E+04 -0.22977277190E+03  0.16342933879E+04  0.25500000920E-02 0. -1.
</event>
<event>
 5   0  0.1970449E-07  0.3400169E+04  0.7818609E-02  0.8137865E-01
        2   -1    0    0  501    0  0.00000000000E+00  0.00000000000E+00  0.12427093263E+04  0.12427093263E+04  0.25500000920E-02 0. -1.
       -2   -1    0    0    0  501  0.00000000000E+00  0.00000000000E+00 -0.23257954839E+04  0.23257954839E+04  0.25500000920E-02 0.  1.
    10030    2    1    2    0    0  0.00000000000E+00  0.00000000000E+00 -0.10830861575E+04  0.35685048102E+04  0.34001692540E+04 0.  0.
        1    1    3    3  502    0  0.96709283243E+03  0.13671161142E+04 -0.84934200348E+03  0.18776732557E+04  0.50400001928E-02 0. -1.
       -1    1    3    3    0  502 -0.96709283243E+03 -0.13671161142E+04 -0.23374415406E+03  0.16908315545E+04  0.50400001928E-02 0.  1.
</event>
<event>
 5   0  0.1986613E-07  0.3403516E+04  0.7818609E-02  0.8137044E-01
       -2   -1    0    0    0  501  0.00000000000E+00  0.00000000000E+00  0.18159861684E+04  0.18159861684E+04  0.25500000920E-02 0. -1.
        2   -1    0    0  501    0  0.00000000000E+00  0.00000000000E+00 -0.15947151610E+04  0.15947151610E+04  0.25500000920E-02 0.  1.
    10030    2    1    2    0    0  0.00000000000E+00  0.00000000000E+00  0.22127100744E+03  0.34107013294E+04  0.34035162259E+04 0.  0.
        5    1    3    3  502    0  0.74949102708E+03  0.11116336464E+03 -0.14163478408E+04  0.16062868328E+04  0.46999998093E+01 0.  1.
       -5    1    3    3    0  502 -0.74949102708E+03 -0.11116336464E+03  0.16376188482E+04  0.18044144965E+04  0.46999998093E+01 0. -1.
</event>
<event>
 5   0  0.6311750E-08  0.3405332E+04  0.7818609E-02  0.8136599E-01
       -1   -1    0    0    0  501  0.00000000000E+00  0.00000000000E+00  0.14823835244E+04  0.14823835244E+04  0.50400001928E-02 0. -1.
        1   -1    0    0  501    0  0.00000000000E+00  0.00000000000E+00 -0.19556824078E+04  0.19556824078E+04  0.50400001928E-02 0.  1.
    10030    2    1    2    0    0  0.00000000000E+00  0.00000000000E+00 -0.47329888346E+03  0.34380659322E+04  0.34053319253E+04 0.  0.
        4    1    3    3  502    0 -0.16769063054E+04 -0.26173238279E+03 -0.37416138101E+03  0.17379634487E+04  0.12699999809E+01 0. -1.
       -4    1    3    3    0  502  0.16769063054E+04  0.26173238279E+03 -0.99137502448E+02  0.17001024835E+04  0.12699999809E+01 0.  1.
</event>
<event>
 5   0  0.6584420E-08  0.3401603E+04  0.7818609E-02  0.8137513E-01
       -1   -1    0    0    0  501  0.00000000000E+00  0.00000000000E+00  0.18515734274E+04  0.18515734274E+04  0.50400001928E-02 0.  1.
        1   -1    0    0  501    0  0.00000000000E+00  0.00000000000E+00 -0.15623065058E+04  0.15623065059E+04  0.50400001928E-02 0. -1.
    10030    2    1    2    0    0  0.00000000000E+00  0.00000000000E+00  0.28926692152E+03  0.34138799332E+04  0.34016026879E+04 0.  0.
        1    1    3    3  502    0 -0.67695793058E+03  0.67980648020E+03 -0.12648271424E+04  0.15875127056E+04  0.50400001928E-02 0. -1.
       -1    1    3    3    0  502  0.67695793058E+03 -0.67980648020E+03  0.15540940640E+04  0.18263672276E+04  0.50400001928E-02 0.  1.
</event>
<event>
 5   0  0.6367111E-08  0.3352231E+04  0.7818609E-02  0.8149731E-01
       -1   -1    0    0    0  501  0.00000000000E+00  0.00000000000E+00  0.18442212556E+04  0.18442212556E+04  0.50400001928E-02 0.  1.
        1   -1    0    0  501    0  0.00000000000E+00  0.00000000000E+00 -0.15233333993E+04  0.15233333993E+04  0.50400001928E-02 0. -1.
    10030    2    1    2    0    0  0.00000000000E+00  0.00000000000E+00  0.32088785637E+03  0.33675546549E+04  0.33522313968E+04 0.  0.
        3    1    3    3  502    0 -0.62107016207E+03  0.75358572481E+03  0.15289279262E+04  0.18141775560E+04  0.10100000352E+00 0.  1.
       -3    1    3    3    0  502  0.62107016207E+03 -0.75358572481E+03 -0.12080400699E+04  0.15533770989E+04  0.10100000352E+00 0. -1.
</event>
<event>
 5   0  0.1897313E-07  0.3399046E+04  0.7818609E-02  0.8138140E-01
        2   -1    0    0  501    0  0.00000000000E+00  0.00000000000E+00  0.16851821806E+04  0.16851821806E+04  0.25500000920E-02 0. -1.
       -2   -1    0    0    0  501  0.00000000000E+00  0.00000000000E+00 -0.17139862090E+04  0.17139862090E+04  0.25500000920E-02 0.  1.
    10030    2    1    2    0    0  0.00000000000E+00  0.00000000000E+00 -0.28804028387E+02  0.33991683896E+04  0.33990463470E+04 0.  0.
        3    1    3    3  502    0 -0.66500050276E+03 -0.52523801047E+03 -0.14876413773E+04  0.17120681978E+04  0.10100000352E+00 0.  1.
       -3    1    3    3    0  502  0.66500050276E+03  0.52523801047E+03  0.14588373489E+04  0.16871001918E+04  0.10100000352E+00 0. -1.
</event>
<event>
 5   0  0.1928004E-07  0.3417691E+04  0.7818609E-02  0.8133578E-01
       -2   -1    0    0    0  501  0.00000000000E+00  0.00000000000E+00  0.17608488279E+04  0.17608488279E+04  0.25500000920E-02 0.  1.
        2   -1    0    0  501    0  0.00000000000E+00  0.00000000000E+00 -0.16583777053E+04  0.16583777053E+04  0.25500000920E-02 0. -1.
    10030    2    1    2    0    0  0.00000000000E+00  0.00000000000E+00  0.10247112255E+03  0.34192265332E+04  0.34176907049E+04 0.  0.
        2    1    3    3  502    0 -0.12290925856E+04 -0.45987818991E+03 -0.10437862870E+04  0.16767964535E+04  0.25500000920E-02 0. -1.
       -2    1    3    3    0  502  0.12290925856E+04  0.45987818991E+03  0.11462574095E+04  0.17424300797E+04  0.25500000920E-02 0.  1.
</event>
<event>
 5   0  0.6788600E-08  0.3403827E+04  0.7818609E-02  0.8136968E-01
       -1   -1    0    0    0  501  0.00000000000E+00  0.00000000000E+00  0.90686093449E+03  0.90686093451E+03  0.50400001928E-02 0.  1.
        1   -1    0    0  501    0  0.00000000000E+00  0.00000000000E+00 -0.31939954371E+04  0.31939954371E+04  0.50400001928E-02 0. -1.
    10030    2    1    2    0    0  0.00000000000E+00  0.00000000000E+00 -0.22871345026E+04  0.41008563716E+04  0.34038270737E+04 0.  0.
        2    1    3    3  502    0  0.57788416961E+03  0.11715023817E+04 -0.24579032845E+04  0.27834612445E+04  0.25500000920E-02 0.  1.
       -2    1    3    3    0  502 -0.57788416961E+03 -0.11715023817E+04  0.17076878192E+03  0.13173951270E+04  0.25500000920E-02 0. -1.
</event>
<event>
 5   0  0.6788600E-08  0.3383181E+04  0.7818609E-02  0.8142047E-01
        1   -1    0    0  501    0  0.00000000000E+00  0.00000000000E+00  0.18844226350E+04  0.18844226350E+04  0.50400001928E-02 0.  1.
       -1   -1    0    0    0  501  0.00000000000E+00  0.00000000000E+00 -0.15184905980E+04  0.15184905980E+04  0.50400001928E-02 0. -1.
    10030    2    1    2    0    0  0.00000000000E+00  0.00000000000E+00  0.36593203693E+03  0.34029132330E+04  0.33831807838E+04 0.  0.
        2    1    3    3  502    0  0.54384864503E+03 -0.14720582344E+04 -0.45218456926E+03  0.16331557424E+04  0.25500000920E-02 0.  1.
       -2    1    3    3    0  502 -0.54384864503E+03  0.14720582344E+04  0.81811660619E+03  0.17697574906E+04  0.25500000920E-02 0. -1.
</event>
<event>
 5   0  0.1963852E-07  0.3409154E+04  0.7818609E-02  0.8135663E-01
       -2   -1    0    0    0  501  0.00000000000E+00  0.00000000000E+00  0.28795641057E+04  0.28795641057E+04  0.25500000920E-02 0.  1.
        2   -1    0    0  501    0  0.00000000000E+00  0.00000000000E+00 -0.10090353685E+04  0.10090353685E+04  0.25500000920E-02 0. -1.
    10030    2    1    2    0    0  0.00000000000E+00  0.00000000000E+00  0.18705287372E+04  0.38885994742E+04  0.34091535773E+04 0.  0.
        4    1    3    3  502    0  0.14874880528E+04 -0.81974612975E+03  0.11004635504E+04  0.20237653182E+04  0.12699999809E+01 0. -1.
       -4    1    3    3    0  502 -0.14874880528E+04  0.81974612975E+03  0.77006518676E+03  0.18648341560E+04  0.12699999809E+01 0.  1.
</event>
<event>
 5   0  0.6367111E-08  0.3395657E+04  0.7818609E-02  0.8138973E-01
        1   -1    0    0  501    0  0.00000000000E+00  0.00000000000E+00  0.21789128943E+04  0.21789128943E+04  0.50400001928E-02 0.  1.
       -1   -1    0    0    0  501  0.00000000000E+00  0.00000000000E+00 -0.13229632073E+04  0.13229632073E+04  0.50400001928E-02 0. -1.
    10030    2    1    2    0    0  0.00000000000E+00  0.00000000000E+00  0.85594968703E+03  0.35018761016E+04  0.33956569856E+04 0.  0.
        3    1    3    3  502    0 -0.12612519822E+04  0.58585531936E+03  0.14324225946E+04  0.19964512309E+04  0.10100000352E+00 0.  1.
       -3    1    3    3    0  502  0.12612519822E+04 -0.58585531936E+03 -0.57647290753E+03  0.15054248706E+04  0.10100000352E+00 0. -1.
</event>
<event>
 5   0  0.1970449E-07  0.3386168E+04  0.7818609E-02  0.8141309E-01
       -2   -1    0    0    0  501  0.00000000000E+00  0.00000000000E+00  0.22836963631E+04  0.22836963631E+04  0.25500000920E-02 0.  1.
        2   -1    0    0  501    0  0.00000000000E+00  0.00000000000E+00 -0.12552168999E+04  0.12552168999E+04  0.25500000920E-02 0. -1.
    10030    2    1    2    0    0  0.00000000000E+00  0.00000000000E+00  0.10284794632E+04  0.35389132629E+04  0.33861684950E+04 0.  0.
        1    1    3    3  502    0  0.30865778845E+03  0.14122115409E+02  0.22539812434E+04  0.22750605509E+04  0.50400001928E-02 0.  1.
       -1    1    3    3    0  502 -0.30865778845E+03 -0.14122115409E+02 -0.12255017802E+04  0.12638527121E+04  0.50400001928E-02 0. -1.
</event>
<event>
 5   0  0.6788600E-08  0.3399065E+04  0.7818609E-02  0.8138136E-01
        1   -1    0    0  501    0  0.00000000000E+00  0.00000000000E+00  0.18579612557E+04  0.18579612557E+04  0.50400001928E-02 0.  1.
       -1   -1    0    0    0  501  0.00000000000E+00  0.00000000000E+00 -0.15546131428E+04  0.15546131428E+04  0.50400001928E-02 0. -1.
    10030    2    1    2    0    0  0.00000000000E+00  0.00000000000E+00  0.30334811288E+03  0.34125743985E+04  0.33990651579E+04 0.  0.
        2    1    3    3  502    0  0.93293804994E+03  0.13056200909E+04  0.71371481469E+03  0.17562477227E+04  0.25500000920E-02 0.  1.
       -2    1    3    3    0  502 -0.93293804994E+03 -0.13056200909E+04 -0.41036670181E+03  0.16563266758E+04  0.25500000920E-02 0. -1.
</event>
<event>
 5   0  0.6311750E-08  0.3398553E+04  0.7818609E-02  0.8138262E-01
       -1   -1    0    0    0  501  0.00000000000E+00  0.00000000000E+00  0.13567462855E+04  0.13567462855E+04  0.50400001928E-02 0. -1.
        1   -1    0    0  501    0  0.00000000000E+00  0.00000000000E+00 -0.21282830888E+04  0.21282830888E+04  0.50400001928E-02 0.  1.
    10030    2    1    2    0    0  0.00000000000E+00  0.00000000000E+00 -0.77153680333E+03  0.34850293743E+04  0.33985527362E+04 0.  0.
        4    1    3    3  502    0 -0.59064489404E+03  0.14673013029E+04 -0.10226218924E+04  0.18835051505E+04  0.12699999809E+01 0.  1.
       -4    1    3    3    0  502  0.59064489404E+03 -0.14673013029E+04  0.25108508905E+03  0.16015242237E+04  0.12699999809E+01 0. -1.
</event>
<event>
 5   0  0.1963852E-07  0.3410552E+04  0.7818609E-02  0.8135321E-01
       -2   -1    0    0    0  501  0.00000000000E+00  0.00000000000E+00  0.11588130143E+04  0.11588130143E+04  0.25500000920E-02 0.  1.
        2   -1    0    0  501    0  0.00000000000E+00  0.00000000000E+00 -0.25094352501E+04  0.25094352501E+04  0.25500000920E-02 0. -1.
    10030    2    1    2    0    0  0.00000000000E+00  0.00000000000E+00 -0.13506222358E+04  0.36682482644E+04  0.34105519942E+04 0.  0.
        4    1    3    3  502    0 -0.80491914497E+03  0.91449268509E+03  0.60806634659E+03  0.13615939174E+04  0.12699999809E+01 0.  1.
       -4    1    3    3    0  502  0.80491914497E+03 -0.91449268509E+03 -0.19586885824E+04  0.23066543470E+04  0.12699999809E+01 0. -1.
</event>
<event>
 5   0  0.1928004E-07  0.3400666E+04  0.7818609E-02  0.8137743E-01
        2   -1    0    0  501    0  0.00000000000E+00  0.00000000000E+00  0.18960389942E+04  0.18960389942E+04  0.25500000920E-02 0.  1.
       -2   -1    0    0    0  501  0.00000000000E+00  0.00000000000E+00 -0.15248273448E+04  0.15248273448E+04  0.25500000920E-02 0. -1.
    10030    2    1    2    0    0  0.00000000000E+00  0.00000000000E+00  0.37121164935E+03  0.34208663390E+04  0.34006658790E+04 0.  0.
        2    1    3    3  502    0  0.48604698367E+03 -0.11026101935E+04 -0.10211623391E+04  0.15794820138E+04  0.25500000920E-02 0. -1.
       -2    1    3    3    0  502 -0.48604698367E+03  0.11026101935E+04  0.13923739885E+04  0.18413843252E+04  0.25500000920E-02 0.  1.
</event>
<event>
 5   0  0.6341535E-08  0.3422317E+04  0.7818609E-02  0.8132451E-01
        1   -1    0    0  501    0  0.00000000000E+00  0.00000000000E+00  0.16042925849E+04  0.16042925849E+04  0.50400001928E-02 0. -1.
       -1   -1    0    0    0  501  0.00000000000E+00  0.00000000000E+00 -0.18251434570E+04  0.18251434570E+04  0.50400001928E-02 0.  1.
    10030    2    1    2    0    0  0.00000000000E+00  0.00000000000E+00 -0.22085087211E+03  0.34294360419E+04  0.34223174104E+04 0.  0.
        5    1    3    3  502    0  0.66246998599E+03  0.64704526183E+03 -0.15523444693E+04  0.18075755847E+04  0.46999998093E+01 0.  1.
       -5    1    3    3    0  502 -0.66246998599E+03 -0.64704526183E+03  0.13314935971E+04  0.16218604571E+04  0.46999998093E+01 0. -1.
</event>
<event>
 5   0  0.1986613E-07  0.3400406E+04  0.7818609E-02  0.8137807E-01
        2   -1    0    0  501    0  0.00000000000E+00  0.00000000000E+00  0.16229877237E+04  0.16229877237E+04  0.25500000920E-02 0.  1.
       -2   -1    0    0    0  501  0.00000000000E+00  0.00000000000E+00 -0.17810915601E+04  0.17810915601E+04  0.25500000920E-02 0. -1.
    10030    2    1    2    0    0  0.00000000000E+00  0.00000000000E+00 -0.15810383644E+03  0.34040792838E+04  0.34004057034E+04 0.  0.
        5    1    3    3  502    0 -0.28750681282E+03 -0.16649516952E+04  0.11074016778E+03  0.16932246719E+04  0.46999998093E+01 0. -1.
       -5    1    3    3    0  502  0.28750681282E+03  0.16649516952E+04 -0.26884400422E+03  0.17108546120E+04  0.46999998093E+01 0.  1.
</event>
<event>
 5   0  0.1928004E-07  0.3399762E+04  0.7818609E-02  0.8137965E-01
        2   -1    0    0  501    0  0.00000000000E+00  0.00000000000E+00  0.17805422856E+04  0.17805422856E+04  0.25500000920E-02 0. -1.
       -2   -1    0    0    0  501  0.00000000000E+00  0.00000000000E+00 -0.16228738155E+04  0.16228738155E+04  0.25500000920E-02 0.  1.
    10030    2    1    2    0    0  0.00000000000E+00  0.00000000000E+00  0.15766847009E+03  0.34034161012E+04  0.33997620228E+04 0.  0.
        2    1    3    3  502    0  0.28672255703E+03 -0.15357045054E+04  0.74962704000E+03  0.17327835560E+04  0.25500000920E-02 0. -1.
       -2    1    3    3    0  502 -0.28672255703E+03  0.15357045054E+04 -0.59195856990E+03  0.16706325452E+04  0.25500000920E-02 0.  1.
</event>
<event>
 5   0  0.1986613E-07  0.3406786E+04  0.7818609E-02  0.8136243E-01
        2   -1    0    0  501    0  0.00000000000E+00  0.00000000000E+00  0.21545947768E+04  0.21545947768E+04  0.25500000920E-02 0. -1.
       -2   -1    0    0    0  501  0.00000000000E+00  0.00000000000E+00 -0.13466787863E+04  0.13466787863E+04  0.25500000920E-02 0.  1.
    10030    2    1    2    0    0  0.00000000000E+00  0.00000000000E+00  0.80791599050E+03  0.35012735631E+04  0.34067856281E+04 0.  0.
        5    1    3    3  502    0  0.79789364254E+03  0.11220726382E+04 -0.62677574422E+03  0.15127958203E+04  0.46999998093E+01 0.  1.
       -5    1    3    3    0  502 -0.79789364254E+03 -0.11220726382E+04  0.14346917347E+04  0.19884777429E+04  0.46999998093E+01 0. -1.
</event>
<event>
 5   0  0.6367111E-08  0.3396066E+04  0.7818609E-02  0.8138873E-01
        1   -1    0    0  501    0  0.00000000000E+00  0.00000000000E+00  0.12026508830E+04  0.12026508830E+04  0.50400001928E-02 0.  1.
       -1   -1    0    0    0  501  0.00000000000E+00  0.00000000000E+00 -0.23974666954E+04  0.23974666954E+04  0.50400001928E-02 0. -1.
    10030    2    1    2    0    0  0.00000000000E+00  0.00000000000E+00 -0.11948158125E+04  0.36001175784E+04  0.33960656284E+04 0.  0.
        3    1    3    3  502    0  0.60968587488E+03 -0.98606455779E+03 -0.19126289642E+04  0.22365575653E+04  0.10100000352E+00 0. -1.
       -3    1    3    3    0  502 -0.60968587488E+03  0.98606455779E+03  0.71781315174E+03  0.13635600130E+04  0.10100000352E+00 0.  1.
</event>
<event>
 5   0  0.1970449E-07  0.3406306E+04  0.7818609E-02  0.8136360E-01
        2   -1    0    0  501    0  0.00000000000E+00  0.00000000000E+00  0.20775365555E+04  0.20775365555E+04  0.25500000920E-02 0. -1.
       -2   -1    0    0    0  501  0.00000000000E+00  0.00000000000E+00 -0.13962352454E+04  0.13962352454E+04  0.25500000920E-02 0.  1.
    10030    2    1    2    0    0  0.00000000000E+00  0.00000000000E+00  0.68130131009E+03  0.34737718010E+04  0.34063057776E+04 0.  0.
        1    1    3    3  502    0 -0.90534660593E+03  0.88252188320E+03  0.15044065781E+04  0.19651301492E+04  0.50400001928E-02 0. -1.
       -1    1    3    3    0  502  0.90534660593E+03 -0.88252188320E+03 -0.82310526800E+03  0.15086416518E+04  0.50400001928E-02 0.  1.
</event>
<event>
 5   0  0.6367111E-08  0.3383181E+04  0.7818609E-02  0.8142047E-01
       -1   -1    0    0    0  501  0.00000000000E+00  0.00000000000E+00  0.13135562417E+04  0.13135562417E+04  0.50400001928E-02 0. -1.
        1   -1    0    0  501    0  0.00000000000E+00  0.00000000000E+00 -0.21784213578E+04  0.21784213578E+04  0.50400001928E-02 0.  1.
    10030    2    1    2    0    0  0.00000000000E+00  0.00000000000E+00 -0.86486511603E+03  0.34919775995E+04  0.33831813263E+04 0.  0.
        3    1    3    3  502    0  0.20768799286E+03  0.73845155006E+03 -0.19885742446E+04  0.21314015414E+04  0.10100000352E+00 0.  1.
       -3    1    3    3    0  502 -0.20768799286E+03 -0.73845155006E+03  0.11237091285E+04  0.13605760581E+04  0.10100000352E+00 0. -1.
</event>
<event>
 5   0  0.1928004E-07  0.3401716E+04  0.7818609E-02  0.8137485E-01
        2   -1    0    0  501    0  0.00000000000E+00  0.00000000000E+00  0.18441743791E+04  0.18441743791E+04  0.25500000920E-02 0. -1.
       -2   -1    0    0    0  501  0.00000000000E+00  0.00000000000E+00 -0.15686789739E+04  0.15686789739E+04  0.25500000920E-02 0.  1.
    10030    2    1    2    0    0  0.00000000000E+00  0.00000000000E+00  0.27549540519E+03  0.34128533530E+04  0.34017157863E+04 0.  0.
        2    1    3    3  502    0  0.48259982890E+03 -0.90496054764E+03  0.14990473642E+04  0.18163147271E+04  0.25500000920E-02 0. -1.
       -2    1    3    3    0  502 -0.48259982890E+03  0.90496054764E+03 -0.12235519590E+04  0.15965386259E+04  0.25500000920E-02 0.  1.
</event>
<event>
 5   0  0.1897313E-07  0.3401249E+04  0.7818609E-02  0.8137600E-01
        2   -1    0    0  501    0  0.00000000000E+00  0.00000000000E+00  0.17143591458E+04  0.17143591458E+04  0.25500000920E-02 0.  1.
       -2   -1    0    0    0  501  0.00000000000E+00  0.00000000000E+00 -0.16869994715E+04  0.16869994715E+04  0.25500000920E-02 0. -1.
    10030    2    1    2    0    0  0.00000000000E+00  0.00000000000E+00  0.27359674335E+02  0.34013586173E+04  0.34012485783E+04 0.  0.
        3    1    3    3  502    0 -0.35331221082E+03  0.80173006622E+03  0.14713011236E+04  0.17124040481E+04  0.10100000352E+00 0.  1.
       -3    1    3    3    0  502  0.35331221082E+03 -0.80173006622E+03 -0.14439414493E+04  0.16889545691E+04  0.10100000352E+00 0. -1.
</event>
<event>
 5   0  0.1970449E-07  0.3409291E+04  0.7818609E-02  0.8135630E-01
        2   -1    0    0  501    0  0.00000000000E+00  0.00000000000E+00  0.20181437118E+04  0.20181437118E+04  0.25500000920E-02 0. -1.
       -2   -1    0    0    0  501  0.00000000000E+00  0.00000000000E+00 -0.14398461769E+04  0.14398461769E+04  0.25500000920E-02 0.  1.
    10030    2    1    2    0    0  0.00000000000E+00  0.00000000000E+00  0.57829753484E+03  0.34579898887E+04  0.34092911333E+04 0.  0.
        1    1    3    3  502    0  0.67063558198E+03 -0.15442488284E+04  0.56009741641E+03  0.17743070883E+04  0.50400001928E-02 0. -1.
       -1    1    3    3    0  502 -0.67063558198E+03  0.15442488284E+04  0.18200118429E+02  0.16836828003E+04  0.50400001928E-02 0.  1.
</event>
<event>
 5   0  0.1986613E-07  0.3406747E+04  0.7818609E-02  0.8136252E-01
       -2   -1    0    0    0  501  0.00000000000E+00  0.00000000000E+00  0.18068487605E+04  0.18068487605E+04  0.25500000920E-02 0. -1.
        2   -1    0    0  501    0  0.00000000000E+00  0.00000000000E+00 -0.16058237441E+04  0.16058237441E+04  0.25500000920E-02 0.  1.
    10030    2    1    2    0    0  0.00000000000E+00  0.00000000000E+00  0.20102501632E+03  0.34126725046E+04  0.34067466249E+04 0.  0.
        5    1    3    3  502    0 -0.10150904199E+04  0.10456358581E+04  0.98391701817E+03  0.17583735942E+04  0.46999998093E+01 0. -1.
       -5    1    3    3    0  502  0.10150904199E+04 -0.10456358581E+04 -0.78289200186E+03  0.16542989104E+04  0.46999998093E+01 0.  1.
</event>
<event>
 5   0  0.6311750E-08  0.3399862E+04  0.7818609E-02  0.8137940E-01
       -1   -1    0    0    0  501  0.00000000000E+00  0.00000000000E+00  0.17215984266E+04  0.17215984266E+04  0.50400001928E-02 0. -1.
        1   -1    0    0  501    0  0.00000000000E+00  0.00000000000E+00 -0.16785360085E+04  0.16785360085E+04  0.50400001928E-02 0.  1.
    10030    2    1    2    0    0  0.00000000000E+00  0.00000000000E+00  0.43062418096E+02  0.34001344351E+04  0.33998617332E+04 0.  0.
        4    1    3    3  502    0  0.10963460899E+04  0.12949733731E+04  0.12561910626E+03  0.17013854821E+04  0.12699999809E+01 0.  1.
       -4    1    3    3    0  502 -0.10963460899E+04 -0.12949733731E+04 -0.82556688159E+02  0.16987489531E+04  0.12699999809E+01 0. -1.
</event>
<event>
 5   0  0.6341535E-08  0.3398276E+04  0.7818609E-02  0.8138330E-01
       -1   -1    0    0    0  501  0.00000000000E+00  0.00000000000E+00  0.19903773557E+04  0.19903773557E+04  0.50400001928E-02 0.  1.
        1   -1    0    0  501    0  0.00000000000E+00  0.00000000000E+00 -0.14505138297E+04  0.14505138297E+04  0.50400001928E-02 0. -1.
    10030    2    1    2    0    0  0.00000000000E+00  0.00000000000E+00  0.53986352595E+03  0.34408911854E+04  0.33982759634E+04 0.  0.
        5    1    3    3  502    0 -0.99747950982E+03  0.88540476221E+03  0.13358153447E+04  0.18876789162E+04  0.46999998093E+01 0.  1.
       -5    1    3    3    0  502  0.99747950982E+03 -0.88540476221E+03 -0.79595181877E+03  0.15532122692E+04  0.46999998093E+01 0. -1.
</event>
<event>
 5   0  0.1963852E-07  0.3396385E+04  0.7818609E-02  0.8138794E-01
       -2   -1    0    0    0  501  0.00000000000E+00  0.00000000000E+00  0.12213781153E+04  0.12213781153E+04  0.25500000920E-02 0. -1.
        2   -1    0    0  501    0  0.00000000000E+00  0.00000000000E+00 -0.23611504182E+04  0.23611504182E+04  0.25500000920E-02 0.  1.
    10030    2    1    2    0    0  0.00000000000E+00  0.00000000000E+00 -0.11397723028E+04  0.35825285335E+04  0.33963848120E+04 0.  0.
        4    1    3    3  502    0  0.12628534639E+04 -0.57448104220E+03 -0.16028580899E+04  0.21199016507E+04  0.12699999809E+01 0.  1.
       -4    1    3    3    0  502 -0.12628534639E+04  0.57448104220E+03  0.46308578710E+03  0.14626268828E+04  0.12699999809E+01 0. -1.
</event>
<event>
 5   0  0.6311750E-08  0.3396489E+04  0.7818609E-02  0.8138768E-01
        1   -1    0    0  501    0  0.00000000000E+00  0.00000000000E+00  0.22128708992E+04  0.22128708992E+04  0.50400001928E-02 0.  1.
       -1   -1    0    0    0  501  0.00000000000E+00  0.00000000000E+00 -0.13033001430E+04  0.13033001431E+04  0.50400001928E-02 0. -1.
    10030    2    1    2    0    0  0.00000000000E+00  0.00000000000E+00  0.90957075616E+03  0.35161710423E+04  0.33964893402E+04 0.  0.
        4    1    3    3  502    0  0.90907635514E+03  0.40298228860E+03 -0.97039362452E+03  0.13894171238E+04  0.12699999809E+01 0. -1.
       -4    1    3    3    0  502 -0.90907635514E+03 -0.40298228860E+03  0.18799643807E+04  0.21267539185E+04  0.12699999809E+01 0.  1.
</event>
<event>
 5   0  0.6584420E-08  0.3399388E+04  0.7818609E-02  0.8138056E-01
       -1   -1    0    0    0  501  0.00000000000E+00  0.00000000000E+00  0.13505101470E+04  0.13505101471E+04  0.50400001928E-02 0. -1.
        1   -1    0    0  501    0  0.00000000000E+00  0.00000000000E+00 -0.21391621594E+04  0.21391621594E+04  0.50400001928E-02 0.  1.
    10030    2    1    2    0    0  0.00000000000E+00  0.00000000000E+00 -0.78865201234E+03  0.34896723064E+04  0.33993882994E+04 0.  0.
        1    1    3    3  502    0  0.55586194506E+03  0.10515010064E+04  0.85213943301E+03  0.14631399392E+04  0.50400001928E-02 0. -1.
       -1    1    3    3    0  502 -0.55586194506E+03 -0.10515010064E+04 -0.16407914453E+04  0.20265323672E+04  0.50400001928E-02 0.  1.
</event>
<event>
 5   0  0.1970449E-07  0.3395510E+04  0.7818609E-02  0.8139009E-01
       -2   -1    0    0    0  501  0.00000000000E+00  0.00000000000E+00  0.13070378812E+04  0.13070378812E+04  0.25500000920E-02 0. -1.
        2   -1    0    0  501    0  0.00000000000E+00  0.00000000000E+00 -0.22052707241E+04  0.22052707241E+04  0.25500000920E-02 0.  1.
    10030    2    1    2    0    0  0.00000000000E+00  0.00000000000E+00 -0.89823284288E+03  0.35123086053E+04  0.33955101971E+04 0.  0.
        1    1    3    3  502    0  0.60811664466E+03  0.12091063989E+04 -0.15093758988E+04  0.20273035642E+04  0.50400001928E-02 0.  1.
       -1    1    3    3    0  502 -0.60811664466E+03 -0.12091063989E+04  0.61114305593E+03  0.14850050411E+04  0.50400001928E-02 0. -1.
</event>
<event>
 5   0  0.6341535E-08  0.3396051E+04  0.7818609E-02  0.8138876E-01
        1   -1    0    0  501    0  0.00000000000E+00  0.00000000000E+00  0.22132643674E+04  0.22132643674E+04  0.50400001928E-02 0. -1.
       -1   -1    0    0    0  501  0.00000000000E+00  0.00000000000E+00 -0.13027318437E+04  0.13027318437E+04  0.50400001928E-02 0.  1.
    10030    2    1    2    0    0  0.00000000000E+00  0.00000000000E+00  0.91053252369E+03  0.35159962111E+04  0.33960506297E+04 0.  0.
        5    1    3    3  502    0  0.15895220371E+03  0.16796922792E+04  0.65343165654E+03  0.18093167152E+04  0.46999998093E+01 0. -1.
       -5    1    3    3    0  502 -0.15895220371E+03 -0.16796922792E+04  0.25710086716E+03  0.17066794959E+04  0.46999998093E+01 0.  1.
</event>
<event>
 5   0  0.1963852E-07  0.3392492E+04  0.7818609E-02  0.8139752E-01
       -2   -1    0    0    0  501  0.00000000000E+00  0.00000000000E+00  0.12230606823E+04  0.12230606823E+04  0.25500000920E-02 0.  1.
        2   -1    0    0  501    0  0.00000000000E+00  0.00000000000E+00 -0.23524997224E+04  0.23524997224E+04  0.25500000920E-02 0. -1.
    10030    2    1    2    0    0  0.00000000000E+00  0.00000000000E+00 -0.11294390401E+04  0.35755604046E+04  0.33924916598E+04 0.  0.
        4    1    3    3  502    0  0.11057343929E+03  0.89955455110E+03  0.94646757415E+03  0.13104302186E+04  0.12699999809E+01 0.  1.
       -4    1    3    3    0  502 -0.11057343929E+03 -0.89955455110E+03 -0.20759066143E+04  0.22651301861E+04  0.12699999809E+01 0. -1.
</event>
<event>
 5   0  0.1970449E-07  0.3401393E+04  0.7818609E-02  0.8137564E-01
        2   -1    0    0  501    0  0.00000000000E+00  0.00000000000E+00  0.21356473963E+04  0.21356473963E+04  0.25500000920E-02 0.  1.
       -2   -1    0    0    0  501  0.00000000000E+00  0.00000000000E+00 -0.13543288691E+04  0.13543288691E+04  0.25500000920E-02 0. -1.
    10030    2    1    2    0    0  0.00000000000E+00  0.00000000000E+00  0.78131852720E+03  0.34899762655E+04  0.34013931987E+04 0.  0.
        1    1    3    3  502    0  0.26459131773E+03  0.32751227033E+03  0.20813268836E+04  0.21234863901E+04  0.50400001928E-02 0.  1.
       -1    1    3    3    0  502 -0.26459131773E+03 -0.32751227033E+03 -0.13000083564E+04  0.13664898753E+04  0.50400001928E-02 0. -1.
</event>
<event>
 5   0  0.1897313E-07  0.3392992E+04  0.7818609E-02  0.8139628E-01
       -2   -1    0    0    0  501  0.00000000000E+00  0.00000000000E+00  0.17858140638E+04  0.17858140638E+04  0.25500000920E-02 0.  1.
        2   -1    0    0  501    0  0.00000000000E+00  0.00000000000E+00 -0.16116450897E+04  0.16116450897E+04  0.25500000920E-02 0. -1.
    10030    2    1    2    0    0  0.00000000000E+00  0.00000000000E+00  0.17416897412E+03  0.33974591535E+04  0.33929918756E+04 0.  0.
        3    1    3    3  502    0  0.90275697096E+03 -0.10580735265E+04 -0.88558971486E+03  0.16488659404E+04  0.10100000352E+00 0. -1.
       -3    1    3    3    0  502 -0.90275697096E+03  0.10580735265E+04  0.10597586890E+04  0.17485932131E+04  0.10100000352E+00 0.  1.
</event>
<event>
 5   0  0.1928004E-07  0.3402708E+04  0.7818609E-02  0.8137242E-01
        2   -1    0    0  501    0  0.00000000000E+00  0.00000000000E+00  0.14308113249E+04  0.14308113249E+04  0.25500000920E-02 0.  1.
       -2   -1    0    0    0  501  0.00000000000E+00  0.00000000000E+00 -0.20230514781E+04  0.20230514781E+04  0.25500000920E-02 0. -1.
    10030    2    1    2    0    0  0.00000000000E+00  0.00000000000E+00 -0.59224015312E+03  0.34538628030E+04  0.34027077252E+04 0.  0.
        2    1    3    3  502    0  0.10588179686E+04  0.10068811640E+03  0.10517633361E+04  0.14958073748E+04  0.25500000920E-02 0.  1.
       -2    1    3    3    0  502 -0.10588179686E+04 -0.10068811640E+03 -0.16440034892E+04  0.19580554282E+04  0.25500000920E-02 0. -1.
</event>
<event>
 5   0  0.1970449E-07  0.3402596E+04  0.7818609E-02  0.8137269E-01
       -2   -1    0    0    0  501  0.00000000000E+00  0.00000000000E+00  0.15613149091E+04  0.15613149091E+04  0.25500000920E-02 0. -1.
        2   -1    0    0  501    0  0.00000000000E+00  0.00000000000E+00 -0.18538316852E+04  0.18538316852E+04  0.25500000920E-02 0.  1.
    10030    2    1    2    0    0  0.00000000000E+00  0.00000000000E+00 -0.29251677612E+03  0.34151465943E+04  0.34025960965E+04 0.  0.
        1    1    3    3  502    0  0.11592143786E+04  0.64904167926E+03  0.92038532132E+03  0.16162123056E+04  0.50400001928E-02 0. -1.
       -1    1    3    3    0  502 -0.11592143786E+04 -0.64904167926E+03 -0.12129020974E+04  0.17989342887E+04  0.50400001928E-02 0.  1.
</event>
<event>
 5   0  0.1897313E-07  0.3400583E+04  0.7818609E-02  0.8137763E-01
        2   -1    0    0  501    0  0.00000000000E+00  0.00000000000E+00  0.13984649927E+04  0.13984649927E+04  0.25500000920E-02 0. -1.
       -2   -1    0    0    0  501  0.00000000000E+00  0.00000000000E+00 -0.20672604355E+04  0.20672604355E+04  0.25500000920E-02 0.  1.
    10030    2    1    2    0    0  0.00000000000E+00  0.00000000000E+00 -0.66879544285E+03  0.34657254282E+04  0.34005830970E+04 0.  0.
        3    1    3    3  502    0  0.15957667406E+04 -0.16472052572E+03  0.23976544255E+03  0.16220640616E+04  0.10100000352E+00 0. -1.
       -3    1    3    3    0  502 -0.15957667406E+04  0.16472052572E+03 -0.90856088541E+03  0.18436613666E+04  0.10100000352E+00 0.  1.
</event>
<event>
 5   0  0.1928004E-07  0.3398428E+04  0.7818609E-02  0.8138292E-01
       -2   -1    0    0    0  501  0.00000000000E+00  0.00000000000E+00  0.19709994948E+04  0.19709994948E+04  0.25500000920E-02 0.  1.
        2   -1    0    0  501    0  0.00000000000E+00  0.00000000000E+00 -0.14649058554E+04  0.14649058554E+04  0.25500000920E-02 0. -1.
    10030    2    1    2    0    0  0.00000000000E+00  0.00000000000E+00  0.50609363936E+03  0.34359053502E+04  0.33984282843E+04 0.  0.
        2    1    3    3  502    0 -0.83792229755E+03  0.11388976884E+04 -0.69975069081E+03  0.15776098220E+04  0.25500000920E-02 0. -1.
       -2    1    3    3    0  502  0.83792229755E+03 -0.11388976884E+04  0.12058443302E+04  0.18582955281E+04  0.25500000920E-02 0.  1.
</event>
<event>
 5   0  0.6367111E-08  0.3398982E+04  0.7818609E-02  0.8138156E-01
       -1   -1    0    0    0  501  0.00000000000E+00  0.00000000000E+00  0.14992597588E+04  0.14992597588E+04  0.50400001928E-02 0.  1.
        1   -1    0    0  501    0  0.00000000000E+00  0.00000000000E+00 -0.19264639420E+04  0.19264639420E+04  0.50400001928E-02 0. -1.
    10030    2    1    2    0    0  0.00000000000E+00  0.00000000000E+00 -0.42720418317E+03  0.34257237008E+04  0.33989821212E+04 0.  0.
        3    1    3    3  502    0  0.79391507256E+03  0.37269102924E+03  0.12535533034E+04  0.15299005328E+04  0.10100000352E+00 0.  1.
       -3    1    3    3    0  502 -0.79391507256E+03 -0.37269102924E+03 -0.16807574865E+04  0.18958231680E+04  0.10100000352E+00 0. -1.
</event>
<event>
 5   0  0.6584420E-08  0.3379612E+04  0.7818609E-02  0.8142928E-01
        1   -1    0    0  501    0  0.00000000000E+00  0.00000000000E+00  0.18846403128E+04  0.18846403128E+04  0.50400001928E-02 0. -1.
       -1   -1    0    0    0  501  0.00000000000E+00  0.00000000000E+00 -0.15151137586E+04  0.15151137587E+04  0.50400001928E-02 0.  1.
    10030    2    1    2    0    0  0.00000000000E+00  0.00000000000E+00  0.36952655415E+03  0.33997540715E+04  0.33796120890E+04 0.  0.
        1    1    3    3  502    0  0.14307879613E+04 -0.89865037852E+03  0.21171427505E+03  0.17028063974E+04  0.50400001928E-02 0. -1.
       -1    1    3    3    0  502 -0.14307879613E+04  0.89865037852E+03  0.15781227910E+03  0.16969476740E+04  0.50400001928E-02 0.  1.
</event>
<event>
 5   0  0.1928004E-07  0.3406964E+04  0.7818609E-02  0.8136199E-01
       -2   -1    0    0    0  501  0.00000000000E+00  0.00000000000E+00  0.17009569333E+04  0.17009569333E+04  0.25500000920E-02 0. -1.
        2   -1    0    0  501    0  0.00000000000E+00  0.00000000000E+00 -0.17060107282E+04  0.17060107282E+04  0.25500000920E-02 0.  1.
    10030    2    1    2    0    0  0.00000000000E+00  0.00000000000E+00 -0.50537948460E+01  0.34069676615E+04  0.34069639132E+04 0.  0.
        2    1    3    3  502    0 -0.14832361709E+04 -0.75232659557E+03  0.36607346933E+03  0.17029370599E+04  0.25500000920E-02 0. -1.
       -2    1    3    3    0  502  0.14832361709E+04  0.75232659557E+03 -0.37112726417E+03  0.17040306016E+04  0.25500000920E-02 0.  1.
</event>
<event>
 5   0  0.1986613E-07  0.3395334E+04  0.7818609E-02  0.8139052E-01
       -2   -1    0    0    0  501  0.00000000000E+00  0.00000000000E+00  0.20062219169E+04  0.20062219169E+04  0.25500000920E-02 0. -1.
        2   -1    0    0  501    0  0.00000000000E+00  0.00000000000E+00 -0.14365679322E+04  0.14365679322E+04  0.25500000920E-02 0.  1.
    10030    2    1    2    0    0  0.00000000000E+00  0.00000000000E+00  0.56965398470E+03  0.34427898492E+04  0.33953344877E+04 0.  0.
        5    1    3    3  502    0  0.56981983811E+03 -0.11324329895E+04 -0.86009266597E+03  0.15319532003E+04  0.46999998093E+01 0.  1.
       -5    1    3    3    0  502 -0.56981983811E+03  0.11324329895E+04  0.14297466507E+04  0.19108366489E+04  0.46999998093E+01 0. -1.
</event>
<event>
 5   0  0.1986613E-07  0.3400195E+04  0.7818609E-02  0.8137859E-01
       -2   -1    0    0    0  501  0.00000000000E+00  0.00000000000E+00  0.13076578807E+04  0.13076578807E+04  0.25500000920E-02 0.  1.
        2   -1    0    0  501    0  0.00000000000E+00  0.00000000000E+00 -0.22103112360E+04  0.22103112360E+04  0.25500000920E-02 0. -1.
    10030    2    1    2    0    0  0.00000000000E+00  0.00000000000E+00 -0.90265335531E+03  0.35179691168E+04  0.34001946454E+04 0.  0.
        5    1    3    3  502    0  0.14778175676E+04 -0.43727000011E+03  0.29128006733E+03  0.15684438095E+04  0.46999998093E+01 0.  1.
       -5    1    3    3    0  502 -0.14778175676E+04  0.43727000011E+03 -0.11939334226E+04  0.19495253073E+04  0.46999998093E+01 0. -1.
</event>
<event>
 5   0  0.6311750E-08  0.3431980E+04  0.7818609E-02  0.8130102E-01
        1   -1    0    0  501    0  0.00000000000E+00  0.00000000000E+00  0.25490615221E+04  0.25490615221E+04  0.50400001928E-02 0. -1.
       -1   -1    0    0    0  501  0.00000000000E+00  0.00000000000E+00 -0.11551786237E+04  0.11551786237E+04  0.50400001928E-02 0.  1.
    10030    2    1    2    0    0  0.00000000000E+00  0.00000000000E+00  0.13938828985E+04  0.37042401458E+04  0.34319798256E+04 0.  0.
        4    1    3    3  502    0 -0.69632509418E+03 -0.37575181393E+03  0.23404188527E+04  0.24705505624E+04  0.12699999809E+01 0. -1.
       -4    1    3    3    0  502  0.69632509418E+03  0.37575181393E+03 -0.94653595427E+03  0.12336895834E+04  0.12699999809E+01 0.  1.
</event>
<event>
 5   0  0.6341535E-08  0.3399499E+04  0.7818609E-02  0.8138029E-01
       -1   -1    0    0    0  501  0.00000000000E+00  0.00000000000E+00  0.12683232816E+04  0.12683232816E+04  0.50400001928E-02 0. -1.
        1   -1    0    0  501    0  0.00000000000E+00  0.00000000000E+00 -0.22779275488E+04  0.22779275488E+04  0.50400001928E-02 0.  1.
    10030    2    1    2    0    0  0.00000000000E+00  0.00000000000E+00 -0.10096042672E+04  0.35462508305E+04  0.33994991066E+04 0.  0.
        5    1    3    3  502    0 -0.21172895588E+03 -0.16705867757E+04 -0.74594591886E+03  0.18417781435E+04  0.46999998093E+01 0.  1.
       -5    1    3    3    0  502  0.21172895588E+03  0.16705867757E+04 -0.26365834838E+03  0.17044726870E+04  0.46999998093E+01 0. -1.
</event>
<event>
 5   0  0.1970449E-07  0.3404396E+04  0.7818609E-02  0.8136828E-01
       -2   -1    0    0    0  501  0.00000000000E+00  0.00000000000E+00  0.12460612811E+04  0.12460612811E+04  0.25500000920E-02 0.  1.
        2   -1    0    0  501    0  0.00000000000E+00  0.00000000000E+00 -0.23253096791E+04  0.23253096791E+04  0.25500000920E-02 0. -1.
    10030    2    1    2    0    0  0.00000000000E+00  0.00000000000E+00 -0.10792483980E+04  0.35713709602E+04  0.34043961918E+04 0.  0.
        1    1    3    3  502    0 -0.11571395614E+04  0.38201568832E+03 -0.17864331708E+04  0.21624642019E+04  0.50400001928E-02 0. -1.
       -1    1    3    3    0  502  0.11571395614E+04 -0.38201568832E+03  0.70718477287E+03  0.14089067583E+04  0.50400001928E-02 0.  1.
</event>
<event>
 5   0  0.1963852E-07  0.3400064E+04  0.7818609E-02  0.8137891E-01
        2   -1    0    0  501    0  0.00000000000E+00  0.00000000000E+00  0.14128532974E+04  0.14128532974E+04  0.25500000920E-02 0.  1.
       -2   -1    0    0    0  501  0.00000000000E+00  0.00000000000E+00 -0.20455831746E+04  0.20455831747E+04  0.25500000920E-02 0. -1.
    10030    2    1    2    0    0  0.00000000000E+00  0.00000000000E+00 -0.63272987729E+03  0.34584364720E+04  0.34000640778E+04 0.  0.
        4    1    3    3  502    0  0.97073348578E+02  0.12564333113E+04  0.84430330613E+03  0.15168709854E+04  0.12699999809E+01 0.  1.
       -4    1    3    3    0  502 -0.97073348578E+02 -0.12564333113E+04 -0.14770331834E+04  0.19415654866E+04  0.12699999809E+01 0. -1.
</event>
<event>
 5   0  0.1928004E-07  0.3380881E+04  0.7818609E-02  0.8142615E-01
       -2   -1    0    0    0  501  0.00000000000E+00  0.00000000000E+00  0.97614956965E+03  0.97614956965E+03  0.25500000920E-02 0.  1.
        2   -1    0    0  501    0  0.00000000000E+00  0.00000000000E+00 -0.29274083640E+04  0.29274083640E+04  0.25500000920E-02 0. -1.
    10030    2    1    2    0    0  0.00000000000E+00  0.00000000000E+00 -0.19512587943E+04  0.39035579336E+04  0.33808806040E+04 0.  0.
        2    1    3    3  502    0 -0.17490836843E+03 -0.72912148417E+03  0.77364459893E+03  0.10773750700E+04  0.25500000920E-02 0.  1.
       -2    1    3    3    0  502  0.17490836843E+03  0.72912148417E+03 -0.27249033933E+04  0.28261828636E+04  0.25500000920E-02 0. -1.
</event>
<event>
 5   0  0.1928004E-07  0.3391035E+04  0.7818609E-02  0.8140110E-01
        2   -1    0    0  501    0  0.00000000000E+00  0.00000000000E+00  0.15806169023E+04  0.15806169023E+04  0.25500000920E-02 0.  1.
       -2   -1    0    0    0  501  0.00000000000E+00  0.00000000000E+00 -0.18187707998E+04  0.18187707998E+04  0.25500000920E-02 0. -1.
    10030    2    1    2    0    0  0.00000000000E+00  0.00000000000E+00 -0.23815389746E+03  0.33993877021E+04  0.33910351620E+04 0.  0.
        2    1    3    3  502    0 -0.13606224108E+04  0.84626534495E+03 -0.67480826420E+03  0.17386272091E+04  0.25500000920E-02 0. -1.
       -2    1    3    3    0  502  0.13606224108E+04 -0.84626534495E+03  0.43665436674E+03  0.16607604929E+04  0.25500000920E-02 0.  1.
</event>
<event>
 5   0  0.6788600E-08  0.3319576E+04  0.7818609E-02  0.8157932E-01
        1   -1    0    0  501    0  0.00000000000E+00  0.00000000000E+00  0.24846171398E+04  0.24846171398E+04  0.50400001928E-02 0. -1.
       -1   -1    0    0    0  501  0.00000000000E+00  0.00000000000E+00 -0.11087806403E+04  0.11087806403E+04  0.50400001928E-02 0.  1.
    10030    2    1    2    0    0  0.00000000000E+00  0.00000000000E+00  0.13758364995E+04  0.35933977801E+04  0.33195755049E+04 0.  0.
        2    1    3    3  502    0  0.88150855196E+03  0.81805120452E+03 -0.55039701611E+03  0.13225739963E+04  0.25500000920E-02 0.  1.
       -2    1    3    3    0  502 -0.88150855196E+03 -0.81805120452E+03  0.19262335156E+04  0.22708237838E+04  0.25500000920E-02 0. -1.
</event>
<event>
 5   0  0.6367111E-08  0.3395620E+04  0.7818609E-02  0.8138982E-01
        1   -1    0    0  501    0  0.00000000000E+00  0.00000000000E+00  0.22132751428E+04  0.22132751428E+04  0.50400001928E-02 0.  1.
       -1   -1    0    0    0  501  0.00000000000E+00  0.00000000000E+00 -0.13023952786E+04  0.13023952786E+04  0.50400001928E-02 0. -1.
    10030    2    1    2    0    0  0.00000000000E+00  0.00000000000E+00  0.91087986424E+03  0.35156704214E+04  0.33956201768E+04 0.  0.
        3    1    3    3  502    0 -0.15497195646E+04  0.68225456234E+03  0.32671797780E+03  0.17244844633E+04  0.10100000352E+00 0. -1.
       -3    1    3    3    0  502  0.15497195646E+04 -0.68225456234E+03  0.58416188645E+03  0.17911859581E+04  0.10100000352E+00 0.  1.
</event>
<event>
 5   0  0.1986613E-07  0.3399693E+04  0.7818609E-02  0.8137982E-01
        2   -1    0    0  501    0  0.00000000000E+00  0.00000000000E+00  0.20946239902E+04  0.20946239902E+04  0.25500000920E-02 0. -1.
       -2   -1    0    0    0  501  0.00000000000E+00  0.00000000000E+00 -0.13794735160E+04  0.13794735160E+04  0.25500000920E-02 0.  1.
    10030    2    1    2    0    0  0.00000000000E+00  0.00000000000E+00  0.71515047423E+03  0.34740975063E+04  0.33996931159E+04 0.  0.
        5    1    3    3  502    0 -0.18523855923E+03  0.43962806774E+03  0.20248059961E+04  0.20802518054E+04  0.46999998093E+01 0. -1.
       -5    1    3    3    0  502  0.18523855923E+03 -0.43962806774E+03 -0.13096555219E+04  0.13938457009E+04  0.46999998093E+01 0.  1.
</event>
<event>
 5   0  0.1970449E-07  0.3397285E+04  0.7818609E-02  0.8138573E-01
        2   -1    0    0  501    0  0.00000000000E+00  0.00000000000E+00  0.10960151644E+04  0.10960151644E+04  0.25500000920E-02 0.  1.
       -2   -1    0    0    0  501  0.00000000000E+00  0.00000000000E+00 -0.26326151752E+04  0.26326151752E+04  0.25500000920E-02 0. -1.
    10030    2    1    2    0    0  0.00000000000E+00  0.00000000000E+00 -0.15366000108E+04  0.37286303396E+04  0.33972848889E+04 0.  0.
        1    1    3    3  502    0  0.12531735057E+03  0.76537546101E+03 -0.24269479081E+04  0.25478579598E+04  0.50400001928E-02 0. -1.
       -1    1    3    3    0  502 -0.12531735057E+03 -0.76537546101E+03  0.89034789730E+03  0.11807723798E+04  0.50400001928E-02 0.  1.
</event>
<event>
 5   0  0.6311750E-08  0.3399534E+04  0.7818609E-02  0.8138021E-01
        1   -1    0    0  501    0  0.00000000000E+00  0.00000000000E+00  0.20927744197E+04  0.20927744197E+04  0.50400001928E-02 0.  1.
       -1   -1    0    0    0  501  0.00000000000E+00  0.00000000000E+00 -0.13805630932E+04  0.13805630932E+04  0.50400001928E-02 0. -1.
    10030    2    1    2    0    0  0.00000000000E+00  0.00000000000E+00  0.71221132645E+03  0.34733375129E+04  0.33995335717E+04 0.  0.
        4    1    3    3  502    0 -0.11697181121E+04  0.50978584119E+03  0.15034652935E+04  0.19719359947E+04  0.12699999809E+01 0.  1.
       -4    1    3    3    0  502  0.11697181121E+04 -0.50978584119E+03 -0.79125396701E+03  0.15014015182E+04  0.12699999809E+01 0. -1.
</event>
<event>
 5   0  0.6367111E-08  0.3400917E+04  0.7818609E-02  0.8137681E-01
       -1   -1    0    0    0  501  0.00000000000E+00  0.00000000000E+00  0.17804154064E+04  0.17804154065E+04  0.50400001928E-02 0.  1.
        1   -1    0    0  501    0  0.00000000000E+00  0.00000000000E+00 -0.16240922160E+04  0.16240922160E+04  0.50400001928E-02 0. -1.
    10030    2    1    2    0    0  0.00000000000E+00  0.00000000000E+00  0.15632319042E+03  0.34045076225E+04  0.34009168193E+04 0.  0.
        3    1    3    3  502    0  0.10208424303E+04 -0.26921022684E+03  0.14125977010E+04  0.17635264922E+04  0.10100000352E+00 0. -1.
       -3    1    3    3    0  502 -0.10208424303E+04  0.26921022684E+03 -0.12562745106E+04  0.16409811303E+04  0.10100000352E+00 0.  1.
</event>
<event>
 5   0  0.1986613E-07  0.3403768E+04  0.7818609E-02  0.8136982E-01
       -2   -1    0    0    0  501  0.00000000000E+00  0.00000000000E+00  0.15228157968E+04  0.15228157968E+04  0.25500000920E-02 0. -1.
        2   -1    0    0  501    0  0.00000000000E+00  0.00000000000E+00 -0.19020088603E+04  0.19020088603E+04  0.25500000920E-02 0.  1.
    10030    2    1    2    0    0  0.00000000000E+00  0.00000000000E+00 -0.37919306354E+03  0.34248246571E+04  0.34037679933E+04 0.  0.
        5    1    3    3  502    0  0.13233849890E+04  0.32971837731E+03  0.83470160122E+03  0.15990030928E+04  0.46999998093E+01 0. -1.
       -5    1    3    3    0  502 -0.13233849890E+04 -0.32971837731E+03 -0.12138946648E+04  0.18258215643E+04  0.46999998093E+01 0.  1.
</event>
<event>
 5   0  0.1986613E-07  0.3436457E+04  0.7818609E-02  0.8129016E-01
        2   -1    0    0  501    0  0.00000000000E+00  0.00000000000E+00  0.29765012322E+04  0.29765012322E+04  0.25500000920E-02 0.  1.
       -2   -1    0    0    0  501  0.00000000000E+00  0.00000000000E+00 -0.99187212554E+03  0.99187212555E+03  0.25500000920E-02 0. -1.
    10030    2    1    2    0    0  0.00000000000E+00  0.00000000000E+00  0.19846291067E+04  0.39683733578E+04  0.34364566657E+04 0.  0.
        5    1    3    3  502    0 -0.44740625143E+02 -0.14192088615E+04  0.21096149850E+04  0.25429614608E+04  0.46999998093E+01 0.  1.
       -5    1    3    3    0  502  0.44740625143E+02  0.14192088615E+04 -0.12498587833E+03  0.14254118970E+04  0.46999998093E+01 0. -1.
</event>
<event>
 5   0  0.1928004E-07  0.3410899E+04  0.7818609E-02  0.8135236E-01
        2   -1    0    0  501    0  0.00000000000E+00  0.00000000000E+00  0.10527796274E+04  0.10527796274E+04  0.25500000920E-02 0.  1.
       -2   -1    0    0    0  501  0.00000000000E+00  0.00000000000E+00 -0.27627422793E+04  0.27627422793E+04  0.25500000920E-02 0. -1.
    10030    2    1    2    0    0  0.00000000000E+00  0.00000000000E+00 -0.17099626519E+04  0.38155219067E+04  0.34108994635E+04 0.  0.
        2    1    3    3  502    0 -0.88034105800E+03 -0.49817916980E+03  0.68099319321E+03  0.12193992754E+04  0.25500000920E-02 0.  1.
       -2    1    3    3    0  502  0.88034105800E+03  0.49817916980E+03 -0.23909558451E+04  0.25961226313E+04  0.25500000920E-02 0. -1.
</event>
<event>
 5   0  0.1963852E-07  0.3397609E+04  0.7818609E-02  0.8138493E-01
        2   -1    0    0  501    0  0.00000000000E+00  0.00000000000E+00  0.19980606717E+04  0.19980606717E+04  0.25500000920E-02 0. -1.
       -2   -1    0    0    0  501  0.00000000000E+00  0.00000000000E+00 -0.14443686442E+04  0.14443686443E+04  0.25500000920E-02 0.  1.
    10030    2    1    2    0    0  0.00000000000E+00  0.00000000000E+00  0.55369202741E+03  0.34424293159E+04  0.33976086787E+04 0.  0.
        4    1    3    3  502    0 -0.18805196118E+03  0.13005933881E+04 -0.81393762148E+03  0.15457693119E+04  0.12699999809E+01 0.  1.
       -4    1    3    3    0  502  0.18805196118E+03 -0.13005933881E+04  0.13676296489E+04  0.18966600040E+04  0.12699999809E+01 0. -1.
</event>
<event>
 5   0  0.6584420E-08  0.3399731E+04  0.7818609E-02  0.8137972E-01
       -1   -1    0    0    0  501  0.00000000000E+00  0.00000000000E+00  0.11418034782E+04  0.11418034782E+04  0.50400001928E-02 0.  1.
        1   -1    0    0  501    0  0.00000000000E+00  0.00000000000E+00 -0.25306830451E+04  0.25306830451E+04  0.50400001928E-02 0. -1.
    10030    2    1    2    0    0  0.00000000000E+00  0.00000000000E+00 -0.13888795668E+04  0.36724865233E+04  0.33997309912E+04 0.  0.
        1    1    3    3  502    0 -0.22919931035E+03  0.78525730211E+03  0.91520275914E+03  0.12275004867E+04  0.50400001928E-02 0.  1.
       -1    1    3    3    0  502  0.22919931035E+03 -0.78525730211E+03 -0.23040823260E+04  0.24449860366E+04  0.50400001928E-02 0. -1.
</event>
<event>
 5   0  0.6584420E-08  0.3404615E+04  0.7818609E-02  0.8136775E-01
       -1   -1    0    0    0  501  0.00000000000E+00  0.00000000000E+00  0.15368119390E+04  0.15368119390E+04  0.50400001928E-02 0.  1.
        1   -1    0    0  501    0  0.00000000000E+00  0.00000000000E+00 -0.18856250718E+04  0.18856250718E+04  0.50400001928E-02 0. -1.
    10030    2    1    2    0    0  0.00000000000E+00  0.00000000000E+00 -0.34881313280E+03  0.34224370109E+04  0.34046151753E+04 0.  0.
        1    1    3    3  502    0 -0.12481524915E+04 -0.11562986184E+04 -0.11990109986E+03  0.17056633345E+04  0.50400001928E-02 0.  1.
       -1    1    3    3    0  502  0.12481524915E+04  0.11562986184E+04 -0.22891203294E+03  0.17167736764E+04  0.50400001928E-02 0. -1.
</event>
<event>
 5   0  0.6341535E-08  0.3430090E+04  0.7818609E-02  0.8130561E-01
       -1   -1    0    0    0  501  0.00000000000E+00  0.00000000000E+00  0.18897935031E+04  0.18897935031E+04  0.50400001928E-02 0. -1.
        1   -1    0    0  501    0  0.00000000000E+00  0.00000000000E+00 -0.15564552786E+04  0.15564552787E+04  0.50400001928E-02 0.  1.
    10030    2    1    2    0    0  0.00000000000E+00  0.00000000000E+00  0.33333822448E+03  0.34462487818E+04  0.34300898376E+04 0.  0.
        5    1    3    3  502    0 -0.14726832251E+02 -0.39883867405E+03  0.18424799196E+04  0.18852170994E+04  0.46999998093E+01 0. -1.
       -5    1    3    3    0  502  0.14726832251E+02  0.39883867405E+03 -0.15091416951E+04  0.15610316824E+04  0.46999998093E+01 0.  1.
</event>
<event>
 5   0  0.1970449E-07  0.3398154E+04  0.7818609E-02  0.8138359E-01
        2   -1    0    0  501    0  0.00000000000E+00  0.00000000000E+00  0.23614947441E+04  0.23614947441E+04  0.25500000920E-02 0. -1.
       -2   -1    0    0    0  501  0.00000000000E+00  0.00000000000E+00 -0.12224728531E+04  0.12224728531E+04  0.25500000920E-02 0.  1.
    10030    2    1    2    0    0  0.00000000000E+00  0.00000000000E+00  0.11390218910E+04  0.35839675972E+04  0.33981543328E+04 0.  0.
        1    1    3    3  502    0  0.13819646042E+04  0.75509763591E+03  0.12422489045E+04  0.20057868650E+04  0.50400001928E-02 0. -1.
       -1    1    3    3    0  502 -0.13819646042E+04 -0.75509763591E+03 -0.10322701348E+03  0.15781807322E+04  0.50400001928E-02 0.  1.
</event>
<event>
 5   0  0.1928004E-07  0.3403234E+04  0.7818609E-02  0.8137113E-01
       -2   -1    0    0    0  501  0.00000000000E+00  0.00000000000E+00  0.13693186958E+04  0.13693186958E+04  0.25500000920E-02 0.  1.
        2   -1    0    0  501    0  0.00000000000E+00  0.00000000000E+00 -0.21145559540E+04  0.21145559540E+04  0.25500000920E-02 0. -1.
    10030    2    1    2    0    0  0.00000000000E+00  0.00000000000E+00 -0.74523725819E+03  0.34838746498E+04  0.34032343446E+04 0.  0.
        2    1    3    3  502    0  0.36899950561E+03  0.11614756231E+04  0.84308772945E+03  0.14818850083E+04  0.25500000920E-02 0.  1.
       -2    1    3    3    0  502 -0.36899950561E+03 -0.11614756231E+04 -0.15883249876E+04  0.20019896415E+04  0.25500000920E-02 0. -1.
</event>
<event>
 5   0  0.6311750E-08  0.3403719E+04  0.7818609E-02  0.8136994E-01
       -1   -1    0    0    0  501  0.00000000000E+00  0.00000000000E+00  0.24141610475E+04  0.24141610475E+04  0.50400001928E-02 0. -1.
        1   -1    0    0  501    0  0.00000000000E+00  0.00000000000E+00 -0.11997235383E+04  0.11997235383E+04  0.50400001928E-02 0.  1.
    10030    2    1    2    0    0  0.00000000000E+00  0.00000000000E+00  0.12144375092E+04  0.36138845859E+04  0.34037190448E+04 0.  0.
        4    1    3    3  502    0  0.10055266708E+04  0.30696751075E+03 -0.81370159793E+03  0.13294453135E+04  0.12699999809E+01 0.  1.
       -4    1    3    3    0  502 -0.10055266708E+04 -0.30696751075E+03  0.20281391071E+04  0.22844392723E+04  0.12699999809E+01 0. -1.
</event>
<event>
 5   0  0.6341535E-08  0.3402549E+04  0.7818609E-02  0.8137281E-01
        1   -1    0    0  501    0  0.00000000000E+00  0.00000000000E+00  0.19303061261E+04  0.19303061261E+04  0.50400001928E-02 0.  1.
       -1   -1    0    0    0  501  0.00000000000E+00  0.00000000000E+00 -0.14994171942E+04  0.14994171942E+04  0.50400001928E-02 0. -1.
    10030    2    1    2    0    0  0.00000000000E+00  0.00000000000E+00  0.43088893192E+03  0.34297233203E+04  0.34025485716E+04 0.  0.
        5    1    3    3  502    0 -0.65615623433E+03 -0.12359661385E+04 -0.75983597893E+03  0.15923335405E+04  0.46999998093E+01 0.  1.
       -5    1    3    3    0  502  0.65615623433E+03  0.12359661385E+04  0.11907249108E+04  0.18373897797E+04  0.46999998093E+01 0. -1.
</event>
<event>
 5   0  0.1970449E-07  0.3400645E+04  0.7818609E-02  0.8137748E-01
       -2   -1    0    0    0  501  0.00000000000E+00  0.00000000000E+00  0.13531947379E+04  0.13531947379E+04  0.25500000920E-02 0.  1.
        2   -1    0    0  501    0  0.00000000000E+00  0.00000000000E+00 -0.21364970094E+04  0.21364970094E+04  0.25500000920E-02 0. -1.
    10030    2    1    2    0    0  0.00000000000E+00  0.00000000000E+00 -0.78330227149E+03  0.34896917473E+04  0.34006449451E+04 0.  0.
        1    1    3    3  502    0  0.13128650503E+02  0.89972026370E+03 -0.18721443804E+04  0.20771599591E+04  0.50400001928E-02 0. -1.
       -1    1    3    3    0  502 -0.13128650503E+02 -0.89972026370E+03  0.10888421090E+04  0.14125317882E+04  0.50400001928E-02 0.  1.
</event>
<event>
 5   0  0.6367111E-08  0.3395263E+04  0.7818609E-02  0.8139070E-01
        1   -1    0    0  501    0  0.00000000000E+00  0.00000000000E+00  0.23624373486E+04  0.23624373486E+04  0.50400001928E-02 0.  1.
       -1   -1    0    0    0  501  0.00000000000E+00  0.00000000000E+00 -0.12199063978E+04  0.12199063978E+04  0.50400001928E-02 0. -1.
    10030    2    1    2    0    0  0.00000000000E+00  0.00000000000E+00  0.11425309508E+04  0.35823437463E+04  0.33952628386E+04 0.  0.
        3    1    3    3  502    0 -0.42993871910E+03 -0.12896261735E+03 -0.11561612607E+04  0.12402368845E+04  0.10100000352E+00 0. -1.
       -3    1    3    3    0  502  0.42993871910E+03  0.12896261735E+03  0.22986922115E+04  0.23421068618E+04  0.10100000352E+00 0.  1.
</event>
<event>
 5   0  0.1928004E-07  0.3403815E+04  0.7818609E-02  0.8136971E-01
        2   -1    0    0  501    0  0.00000000000E+00  0.00000000000E+00  0.24143035498E+04  0.24143035498E+04  0.25500000920E-02 0.  1.
       -2   -1    0    0    0  501  0.00000000000E+00  0.00000000000E+00 -0.11997206959E+04  0.11997206959E+04  0.25500000920E-02 0. -1.
    10030    2    1    2    0    0  0.00000000000E+00  0.00000000000E+00  0.12145828539E+04  0.36140242456E+04  0.34038154678E+04 0.  0.
        2    1    3    3  502    0 -0.12628172554E+04  0.10305903724E+04  0.87501012073E+02  0.16323236087E+04  0.25500000920E-02 0.  1.
       -2    1    3    3    0  502  0.12628172554E+04 -0.10305903724E+04  0.11270818419E+04  0.19817006370E+04  0.25500000920E-02 0. -1.
</event>
<event>
 5   0  0.1928004E-07  0.3400062E+04  0.7818609E-02  0.8137891E-01
       -2   -1    0    0    0  501  0.00000000000E+00  0.00000000000E+00  0.17838970346E+04  0.17838970346E+04  0.25500000920E-02 0.  1.
        2   -1    0    0  501    0  0.00000000000E+00  0.00000000000E+00 -0.16201080154E+04  0.16201080154E+04  0.25500000920E-02 0. -1.
    10030    2    1    2    0    0  0.00000000000E+00  0.00000000000E+00  0.16378901919E+03  0.34040050499E+04  0.34000622843E+04 0.  0.
        2    1    3    3  502    0  0.11195060122E+04 -0.43112863663E+03  0.12878411456E+04  0.17600285307E+04  0.25500000920E-02 0.  1.
       -2    1    3    3    0  502 -0.11195060122E+04  0.43112863663E+03 -0.11240521264E+04  0.16439765192E+04  0.25500000920E-02 0. -1.
</event>
<event>
 5   0  0.1963852E-07  0.3398584E+04  0.7818609E-02  0.8138254E-01
       -2   -1    0    0    0  501  0.00000000000E+00  0.00000000000E+00  0.12128812749E+04  0.12128812749E+04  0.25500000920E-02 0. -1.
        2   -1    0    0  501    0  0.00000000000E+00  0.00000000000E+00 -0.23807712824E+04  0.23807712824E+04  0.25500000920E-02 0.  1.
    10030    2    1    2    0    0  0.00000000000E+00  0.00000000000E+00 -0.11678900076E+04  0.35936525573E+04  0.33985837687E+04 0.  0.
        4    1    3    3  502    0  0.73830922070E+03 -0.45523498606E+03 -0.21290666099E+04  0.22989705610E+04  0.12699999809E+01 0.  1.
       -4    1    3    3    0  502 -0.73830922070E+03  0.45523498606E+03  0.96117660235E+03  0.12946819964E+04  0.12699999809E+01 0. -1.
</event>
<event>
 5   0  0.1897313E-07  0.3426205E+04  0.7818609E-02  0.8131504E-01
       -2   -1    0    0    0  501  0.00000000000E+00  0.00000000000E+00  0.18747719262E+04  0.18747719262E+04  0.25500000920E-02 0. -1.
        2   -1    0    0  501    0  0.00000000000E+00  0.00000000000E+00 -0.15653747058E+04  0.15653747058E+04  0.25500000920E-02 0.  1.
    10030    2    1    2    0    0  0.00000000000E+00  0.00000000000E+00  0.30939722038E+03  0.34401466320E+04  0.34262052200E+04 0.  0.
        3    1    3    3  502    0 -0.14980896932E+04  0.81384224798E+03  0.32303703409E+03  0.17352132056E+04  0.10100000352E+00 0. -1.
       -3    1    3    3    0  502  0.14980896932E+04 -0.81384224798E+03 -0.13639813709E+02  0.17049334263E+04  0.10100000352E+00 0.  1.
</event>
<event>
 5   0  0.1970449E-07  0.3402542E+04  0.7818609E-02  0.8137283E-01
        2   -1    0    0  501    0  0.00000000000E+00  0.00000000000E+00  0.19405919872E+04  0.19405919872E+04  0.25500000920E-02 0.  1.
       -2   -1    0    0    0  501  0.00000000000E+00  0.00000000000E+00 -0.14914641756E+04  0.14914641756E+04  0.25500000920E-02 0. -1.
    10030    2    1    2    0    0  0.00000000000E+00  0.00000000000E+00  0.44912781167E+03  0.34320561628E+04  0.34025422427E+04 0.  0.
        1    1    3    3  502    0  0.73651097849E+02 -0.77808956166E+03 -0.12996609729E+04  0.15165640424E+04  0.50400001928E-02 0. -1.
       -1    1    3    3    0  502 -0.73651097849E+02  0.77808956166E+03  0.17487887846E+04  0.19154921204E+04  0.50400001928E-02 0.  1.
</event>
<event>
 5   0  0.1986613E-07  0.3398403E+04  0.7818609E-02  0.8138298E-01
        2   -1    0    0  501    0  0.00000000000E+00  0.00000000000E+00  0.13519712362E+04  0.13519712362E+04  0.25500000920E-02 0.  1.
       -2   -1    0    0    0  501  0.00000000000E+00  0.00000000000E+00 -0.21356120595E+04  0.21356120595E+04  0.25500000920E-02 0. -1.
    10030    2    1    2    0    0  0.00000000000E+00  0.00000000000E+00 -0.78364082330E+03  0.34875832957E+04  0.33984031992E+04 0.  0.
        5    1    3    3  502    0 -0.58194327771E+03  0.11140939380E+04 -0.15652419145E+04  0.20074530187E+04  0.46999998093E+01 0. -1.
       -5    1    3    3    0  502  0.58194327771E+03 -0.11140939380E+04  0.78160109121E+03  0.14801302770E+04  0.46999998093E+01 0.  1.
</event>
<event>
 5   0  0.6311750E-08  0.3393212E+04  0.7818609E-02  0.8139574E-01
       -1   -1    0    0    0  501  0.00000000000E+00  0.00000000000E+00  0.27856740704E+04  0.27856740704E+04  0.50400001928E-02 0.  1.
        1   -1    0    0  501    0  0.00000000000E+00  0.00000000000E+00 -0.10333127599E+04  0.10333127599E+04  0.50400001928E-02 0. -1.
    10030    2    1    2    0    0  0.00000000000E+00  0.00000000000E+00  0.17523613105E+04  0.38189868303E+04  0.33932123788E+04 0.  0.
        4    1    3    3  502    0  0.75739923346E+03  0.84239560637E+03 -0.54530642851E+03  0.12572369189E+04  0.12699999809E+01 0.  1.
       -4    1    3    3    0  502 -0.75739923346E+03 -0.84239560637E+03  0.22976677390E+04  0.25617499113E+04  0.12699999809E+01 0. -1.
</event>
<event>
 5   0  0.6341535E-08  0.3385784E+04  0.7818609E-02  0.8141404E-01
       -1   -1    0    0    0  501  0.00000000000E+00  0.00000000000E+00  0.16163100433E+04  0.16163100433E+04  0.50400001928E-02 0. -1.
        1   -1    0    0  501    0  0.00000000000E+00  0.00000000000E+00 -0.17731027369E+04  0.17731027369E+04  0.50400001928E-02 0.  1.
    10030    2    1    2    0    0  0.00000000000E+00  0.00000000000E+00 -0.15679269359E+03  0.33894127802E+04  0.33857842587E+04 0.  0.
        5    1    3    3  502    0 -0.63892484821E+03 -0.32025656946E+03  0.14578728269E+04  0.16236392769E+04  0.46999998093E+01 0. -1.
       -5    1    3    3    0  502  0.63892484821E+03  0.32025656946E+03 -0.16146655205E+04  0.17657735033E+04  0.46999998093E+01 0.  1.
</event>
<event>
 5   0  0.1963852E-07  0.3400728E+04  0.7818609E-02  0.8137728E-01
       -2   -1    0    0    0  501  0.00000000000E+00  0.00000000000E+00  0.10252160054E+04  0.10252160054E+04  0.25500000920E-02 0.  1.
        2   -1    0    0  501    0  0.00000000000E+00  0.00000000000E+00 -0.28201249304E+04  0.28201249304E+04  0.25500000920E-02 0. -1.
    10030    2    1    2    0    0  0.00000000000E+00  0.00000000000E+00 -0.17949089250E+04  0.38453409358E+04  0.34007276961E+04 0.  0.
        4    1    3    3  502    0 -0.98241807545E+03  0.10942891081E+04  0.67738254915E+02  0.14721426599E+04  0.12699999809E+01 0.  1.
       -4    1    3    3    0  502  0.98241807545E+03 -0.10942891081E+04 -0.18626471799E+04  0.23731982759E+04  0.12699999809E+01 0. -1.
</event>
<event>
 5   0  0.1928004E-07  0.3400062E+04  0.7818609E-02  0.8137891E-01
       -2   -1    0    0    0  501  0.00000000000E+00  0.00000000000E+00  0.19981523004E+04  0.19981523004E+04  0.25500000920E-02 0. -1.
        2   -1    0    0  501    0  0.00000000000E+00  0.00000000000E+00 -0.14463890452E+04  0.14463890452E+04  0.25500000920E-02 0.  1.
    10030    2    1    2    0    0  0.00000000000E+00  0.00000000000E+00  0.55176325521E+03  0.34445413457E+04  0.34000621159E+04 0.  0.
        2    1    3    3  502    0  0.72210833094E+03  0.14227879283E+04  0.87036276420E+03  0.18174975301E+04  0.25500000920E-02 0. -1.
       -2    1    3    3    0  502 -0.72210833094E+03 -0.14227879283E+04 -0.31859950899E+03  0.16270438156E+04  0.25500000920E-02 0.  1.
</event>
<event>
 5   0  0.6341535E-08  0.3401157E+04  0.7818609E-02  0.8137622E-01
        1   -1    0    0  501    0  0.00000000000E+00  0.00000000000E+00  0.23254741047E+04  0.23254741047E+04  0.50400001928E-02 0.  1.
       -1   -1    0    0    0  501  0.00000000000E+00  0.00000000000E+00 -0.12436035062E+04  0.12436035062E+04  0.50400001928E-02 0. -1.
    10030    2    1    2    0    0  0.00000000000E+00  0.00000000000E+00  0.10818705986E+04  0.35690776109E+04  0.34011573031E+04 0.  0.
        5    1    3    3  502    0  0.29981681658E+03 -0.13459421611E+04  0.15853078986E+04  0.21011124786E+04  0.46999998093E+01 0.  1.
       -5    1    3    3    0  502 -0.29981681658E+03  0.13459421611E+04 -0.50343730000E+03  0.14679651323E+04  0.46999998093E+01 0. -1.
</event>
<event>
 5   0  0.6311750E-08  0.3341421E+04  0.7818609E-02  0.8152435E-01
        1   -1    0    0  501    0  0.00000000000E+00  0.00000000000E+00  0.23762051372E+04  0.23762051372E+04  0.50400001928E-02 0. -1.
       -1   -1    0    0    0  501  0.00000000000E+00  0.00000000000E+00 -0.11746771598E+04  0.11746771599E+04  0.50400001928E-02 0.  1.
    10030    2    1    2    0    0  0.00000000000E+00  0.00000000000E+00  0.12015279774E+04  0.35508822971E+04  0.33414211957E+04 0.  0.
        4    1    3    3  502    0 -0.47978430108E+03  0.15060078929E+04  0.25518336890E+02  0.15807926959E+04  0.12699999809E+01 0.  1.
       -4    1    3    3    0  502  0.47978430108E+03 -0.15060078929E+04  0.11760096405E+04  0.19700896011E+04  0.12699999809E+01 0. -1.
</event>
<event>
 5   0  0.1986613E-07  0.3391424E+04  0.7818609E-02  0.8140014E-01
       -2   -1    0    0    0  501  0.00000000000E+00  0.00000000000E+00  0.12089265132E+04  0.12089265132E+04  0.25500000920E-02 0.  1.
        2   -1    0    0  501    0  0.00000000000E+00  0.00000000000E+00 -0.23785068809E+04  0.23785068809E+04  0.25500000920E-02 0. -1.
    10030    2    1    2    0    0  0.00000000000E+00  0.00000000000E+00 -0.11695803677E+04  0.35874333941E+04  0.33914244972E+04 0.  0.
        5    1    3    3  502    0  0.10142614042E+04  0.11608042148E+04 -0.13321848519E+04  0.20373834177E+04  0.46999998093E+01 0.  1.
       -5    1    3    3    0  502 -0.10142614042E+04 -0.11608042148E+04  0.16260448413E+03  0.15500499764E+04  0.46999998093E+01 0. -1.
</event>
<event>
 5   0  0.6788600E-08  0.3406049E+04  0.7818609E-02  0.8136423E-01
       -1   -1    0    0    0  501  0.00000000000E+00  0.00000000000E+00  0.18891971371E+04  0.18891971371E+04  0.50400001928E-02 0.  1.
        1   -1    0    0  501    0  0.00000000000E+00  0.00000000000E+00 -0.15351988104E+04  0.15351988104E+04  0.50400001928E-02 0. -1.
    10030    2    1    2    0    0  0.00000000000E+00  0.00000000000E+00  0.35399832669E+03  0.34243959475E+04  0.34060494404E+04 0.  0.
        2    1    3    3  502    0 -0.60465137037E+03 -0.96405879862E+03  0.14508204402E+04  0.18438797674E+04  0.25500000920E-02 0.  1.
       -2    1    3    3    0  502  0.60465137037E+03  0.96405879862E+03 -0.10968221135E+04  0.15805161801E+04  0.25500000920E-02 0. -1.
</event>
<event>
 5   0  0.6367111E-08  0.3400127E+04  0.7818609E-02  0.8137875E-01
        1   -1    0    0  501    0  0.00000000000E+00  0.00000000000E+00  0.21316714219E+04  0.21316714219E+04  0.50400001928E-02 0.  1.
       -1   -1    0    0    0  501  0.00000000000E+00  0.00000000000E+00 -0.13558449284E+04  0.13558449284E+04  0.50400001928E-02 0. -1.
    10030    2    1    2    0    0  0.00000000000E+00  0.00000000000E+00  0.77582649349E+03  0.34875163503E+04  0.34001269897E+04 0.  0.
        3    1    3    3  502    0 -0.68834503885E+03  0.19683738492E+03  0.19695081707E+04  0.20955968823E+04  0.10100000352E+00 0.  1.
       -3    1    3    3    0  502  0.68834503885E+03 -0.19683738492E+03 -0.11936816772E+04  0.13919194680E+04  0.10100000352E+00 0. -1.
</event>
<event>
 5   0  0.6584420E-08  0.3397380E+04  0.7818609E-02  0.8138550E-01
       -1   -1    0    0    0  501  0.00000000000E+00  0.00000000000E+00  0.15471695399E+04  0.15471695399E+04  0.50400001928E-02 0.  1.
        1   -1    0    0  501    0  0.00000000000E+00  0.00000000000E+00 -0.18650495952E+04  0.18650495952E+04  0.50400001928E-02 0. -1.
    10030    2    1    2    0    0  0.00000000000E+00  0.00000000000E+00 -0.31788005522E+03  0.34122191351E+04  0.33973801225E+04 0.  0.
        1    1    3    3  502    0 -0.27591642503E+03 -0.73621558222E+03 -0.16713073699E+04  0.18470006989E+04  0.50400001928E-02 0. -1.
       -1    1    3    3    0  502  0.27591642503E+03  0.73621558222E+03  0.13534273146E+04  0.15652184362E+04  0.50400001928E-02 0.  1.
</event>
<event>
 5   0  0.1970449E-07  0.3396905E+04  0.7818609E-02  0.8138666E-01
       -2   -1    0    0    0  501  0.00000000000E+00  0.00000000000E+00  0.21790772401E+04  0.21790772401E+04  0.25500000920E-02 0. -1.
        2   -1    0    0  501    0  0.00000000000E+00  0.00000000000E+00 -0.13238357597E+04  0.13238357597E+04  0.25500000920E-02 0.  1.
    10030    2    1    2    0    0  0.00000000000E+00  0.00000000000E+00  0.85524148037E+03  0.35029129998E+04  0.33969046932E+04 0.  0.
        1    1    3    3  502    0 -0.51442548839E+03  0.15193436248E+04  0.10033464217E+04  0.18920207914E+04  0.50400001928E-02 0. -1.
       -1    1    3    3    0  502  0.51442548839E+03 -0.15193436248E+04 -0.14810494128E+03  0.16108922084E+04  0.50400001928E-02 0.  1.
</event>
<event>
 5   0  0.1897313E-07  0.3398594E+04  0.7818609E-02  0.8138251E-01
        2   -1    0    0  501    0  0.00000000000E+00  0.00000000000E+00  0.16444836672E+04  0.16444836672E+04  0.25500000920E-02 0. -1.
       -2   -1    0    0    0  501  0.00000000000E+00  0.00000000000E+00 -0.17559375172E+04  0.17559375172E+04  0.25500000920E-02 0.  1.
    10030    2    1    2    0    0  0.00000000000E+00  0.00000000000E+00 -0.11145385006E+03  0.34004211844E+04  0.33985941609E+04 0.  0.
        3    1    3    3  502    0  0.57910151520E+03  0.12476273132E+04 -0.10541000442E+04  0.17329337526E+04  0.10100000352E+00 0. -1.
       -3    1    3    3    0  502 -0.57910151520E+03 -0.12476273132E+04  0.94264619415E+03  0.16674874318E+04  0.10100000352E+00 0.  1.
</event>
<event>
 5   0  0.1986613E-07  0.3404908E+04  0.7818609E-02  0.8136703E-01
       -2   -1    0    0    0  501  0.00000000000E+00  0.00000000000E+00  0.16689565553E+04  0.16689565553E+04  0.25500000920E-02 0.  1.
        2   -1    0    0  501    0  0.00000000000E+00  0.00000000000E+00 -0.17366240213E+04  0.17366240213E+04  0.25500000920E-02 0. -1.
    10030    2    1    2    0    0  0.00000000000E+00  0.00000000000E+00 -0.67667465926E+02  0.34055805766E+04  0.34049082481E+04 0.  0.
        5    1    3    3  502    0  0.57844995704E+03  0.16011630209E+04 -0.33070546651E+02  0.17027751241E+04  0.46999998093E+01 0. -1.
       -5    1    3    3    0  502 -0.57844995704E+03 -0.16011630209E+04 -0.34596919275E+02  0.17028054525E+04  0.46999998093E+01 0.  1.
</event>
<event>
 5   0  0.1963852E-07  0.3378686E+04  0.7818609E-02  0.8143157E-01
       -2   -1    0    0    0  501  0.00000000000E+00  0.00000000000E+00  0.10267479067E+04  0.10267479067E+04  0.25500000920E-02 0.  1.
        2   -1    0    0  501    0  0.00000000000E+00  0.00000000000E+00 -0.27795331535E+04  0.27795331535E+04  0.25500000920E-02 0. -1.
    10030    2    1    2    0    0  0.00000000000E+00  0.00000000000E+00 -0.17527852467E+04  0.38062810602E+04  0.33786860446E+04 0.  0.
        4    1    3    3  502    0  0.12855735868E+04  0.98037079876E+03 -0.14283500426E+04  0.21573158802E+04  0.12699999809E+01 0. -1.
       -4    1    3    3    0  502 -0.12855735868E+04 -0.98037079876E+03 -0.32443520416E+03  0.16489651800E+04  0.12699999809E+01 0.  1.
</event>
<event>
 5   0  0.1970449E-07  0.3400956E+04  0.7818609E-02  0.8137672E-01
        2   -1    0    0  501    0  0.00000000000E+00  0.00000000000E+00  0.28353327001E+04  0.28353327001E+04  0.25500000920E-02 0. -1.
       -2   -1    0    0    0  501  0.00000000000E+00  0.00000000000E+00 -0.10198538099E+04  0.10198538099E+04  0.25500000920E-02 0.  1.
    10030    2    1    2    0    0  0.00000000000E+00  0.00000000000E+00  0.18154788901E+04  0.38551865100E+04  0.34009556637E+04 0.  0.
        1    1    3    3  502    0  0.12606547668E+04  0.93673435283E+03  0.16883307979E+03  0.15796285315E+04  0.50400001928E-02 0.  1.
       -1    1    3    3    0  502 -0.12606547668E+04 -0.93673435283E+03  0.16466458103E+04  0.22755579785E+04  0.50400001928E-02 0. -1.
</event>
<event>
 5   0  0.6788600E-08  0.3409801E+04  0.7818609E-02  0.8135505E-01
       -1   -1    0    0    0  501  0.00000000000E+00  0.00000000000E+00  0.13667372988E+04  0.13667372988E+04  0.50400001928E-02 0.  1.
        1   -1    0    0  501    0  0.00000000000E+00  0.00000000000E+00 -0.21267337665E+04  0.21267337665E+04  0.50400001928E-02 0. -1.
    10030    2    1    2    0    0  0.00000000000E+00  0.00000000000E+00 -0.75999646768E+03  0.34934710653E+04  0.34098013803E+04 0.  0.
        2    1    3    3  502    0  0.56041073519E+03  0.15060721510E+04  0.20351446881E+03  0.16197937076E+04  0.25500000920E-02 0.  1.
       -2    1    3    3    0  502 -0.56041073519E+03 -0.15060721510E+04 -0.96351093649E+03  0.18736773577E+04  0.25500000920E-02 0. -1.
</event>
<event>
 5   0  0.6367111E-08  0.3405650E+04  0.7818609E-02  0.8136521E-01
       -1   -1    0    0    0  501  0.00000000000E+00  0.00000000000E+00  0.16291943621E+04  0.16291943621E+04  0.50400001928E-02 0. -1.
        1   -1    0    0  501    0  0.00000000000E+00  0.00000000000E+00 -0.17797829222E+04  0.17797829222E+04  0.50400001928E-02 0.  1.
    10030    2    1    2    0    0  0.00000000000E+00  0.00000000000E+00 -0.15058856010E+03  0.34089772843E+04  0.34056496018E+04 0.  0.
        3    1    3    3  502    0  0.62370707671E+03  0.57620866840E+03  0.14021510980E+04  0.16392237977E+04  0.10100000352E+00 0. -1.
       -3    1    3    3    0  502 -0.62370707671E+03 -0.57620866840E+03 -0.15527396581E+04  0.17697534866E+04  0.10100000352E+00 0.  1.
</event>
<event>
 5   0  0.1897313E-07  0.3392654E+04  0.7818609E-02  0.8139712E-01
       -2   -1    0    0    0  501  0.00000000000E+00  0.00000000000E+00  0.15434947884E+04  0.15434947884E+04  0.25500000920E-02 0. -1.
        2   -1    0    0  501    0  0.00000000000E+00  0.00000000000E+00 -0.18642926350E+04  0.18642926350E+04  0.25500000920E-02 0.  1.
    10030    2    1    2    0    0  0.00000000000E+00  0.00000000000E+00 -0.32079784658E+03  0.34077874234E+04  0.33926543980E+04 0.  0.
        3    1    3    3  502    0 -0.76063893781E+03 -0.15117103461E+04 -0.42889097440E+02  0.16928317250E+04  0.10100000352E+00 0. -1.
       -3    1    3    3    0  502  0.76063893781E+03  0.15117103461E+04 -0.27790874914E+03  0.17149556984E+04  0.10100000352E+00 0.  1.
</event>
<event>
 5   0  0.1897313E-07  0.3391230E+04  0.7818609E-02  0.8140062E-01
        2   -1    0    0  501    0  0.00000000000E+00  0.00000000000E+00  0.22450088795E+04  0.22450088795E+04  0.25500000920E-02 0. -1.
       -2   -1    0    0    0  501  0.00000000000E+00  0.00000000000E+00 -0.12806677250E+04  0.12806677250E+04  0.25500000920E-02 0.  1.
    10030    2    1    2    0    0  0.00000000000E+00  0.00000000000E+00  0.96434115454E+03  0.35256766045E+04  0.33912301098E+04 0.  0.
        3    1    3    3  502    0 -0.10110477450E+04 -0.11550591870E+04  0.12309542613E+04  0.19676452098E+04  0.10100000352E+00 0. -1.
       -3    1    3    3    0  502  0.10110477450E+04  0.11550591870E+04 -0.26661310678E+03  0.15580313947E+04  0.10100000352E+00 0.  1.
</event>
<event>
 5   0  0.6311750E-08  0.3390514E+04  0.7818609E-02  0.8140238E-01
       -1   -1    0    0    0  501  0.00000000000E+00  0.00000000000E+00  0.13908035108E+04  0.13908035108E+04  0.50400001928E-02 0. -1.
        1   -1    0    0  501    0  0.00000000000E+00  0.00000000000E+00 -0.20663572035E+04  0.20663572035E+04  0.50400001928E-02 0.  1.
    10030    2    1    2    0    0  0.00000000000E+00  0.00000000000E+00 -0.67555369268E+03  0.34571607142E+04  0.33905143286E+04 0.  0.
        4    1    3    3  502    0 -0.12925744985E+04  0.32191487506E+03  0.73141343557E+03  0.15196530023E+04  0.12699999809E+01 0. -1.
       -4    1    3    3    0  502  0.12925744985E+04 -0.32191487506E+03 -0.14069671282E+04  0.19375077119E+04  0.12699999809E+01 0.  1.
</event>
<event>
 5   0  0.6584420E-08  0.3383722E+04  0.7818609E-02  0.8141913E-01
        1   -1    0    0  501    0  0.00000000000E+00  0.00000000000E+00  0.12752434003E+04  0.12752434003E+04  0.50400001928E-02 0.  1.
       -1   -1    0    0    0  501  0.00000000000E+00  0.00000000000E+00 -0.22445864749E+04  0.22445864749E+04  0.50400001928E-02 0. -1.
    10030    2    1    2    0    0  0.00000000000E+00  0.00000000000E+00 -0.96934307460E+03  0.35198298753E+04  0.33837222632E+04 0.  0.
        1    1    3    3  502    0  0.38351766873E+03 -0.50137778095E+03 -0.21175017372E+04  0.22095879907E+04  0.50400001928E-02 0. -1.
       -1    1    3    3    0  502 -0.38351766873E+03  0.50137778095E+03  0.11481586626E+04  0.13102418846E+04  0.50400001928E-02 0.  1.
</event>
<event>
 5   0  0.1986613E-07  0.3400896E+04  0.7818609E-02  0.8137687E-01
        2   -1    0    0  501    0  0.00000000000E+00  0.00000000000E+00  0.19090659056E+04  0.19090659056E+04  0.25500000920E-02 0.  1.
       -2   -1    0    0    0  501  0.00000000000E+00  0.00000000000E+00 -0.15146269405E+04  0.15146269405E+04  0.25500000920E-02 0. -1.
    10030    2    1    2    0    0  0.00000000000E+00  0.00000000000E+00  0.39443896513E+03  0.34236928461E+04  0.34008955596E+04 0.  0.
        5    1    3    3  502    0  0.22549923684E+03  0.62197210306E+02 -0.14983457158E+04  0.15165026781E+04  0.46999998093E+01 0. -1.
       -5    1    3    3    0  502 -0.22549923684E+03 -0.62197210306E+02  0.18927846809E+04  0.19071901680E+04  0.46999998093E+01 0.  1.
</event>
<event>
 5   0  0.6311750E-08  0.3352186E+04  0.7818609E-02  0.8149742E-01
       -1   -1    0    0    0  501  0.00000000000E+00  0.00000000000E+00  0.10916759290E+04  0.10916759290E+04  0.50400001928E-02 0. -1.
        1   -1    0    0  501    0  0.00000000000E+00  0.00000000000E+00 -0.25733721064E+04  0.25733721064E+04  0.50400001928E-02 0.  1.
    10030    2    1    2    0    0  0.00000000000E+00  0.00000000000E+00 -0.14816961775E+04  0.36650480354E+04  0.33521863820E+04 0.  0.
        4    1    3    3  502    0 -0.34102785859E+03 -0.12721209834E+04 -0.18742765731E+04  0.22907435653E+04  0.12699999809E+01 0.  1.
       -4    1    3    3    0  502  0.34102785859E+03  0.12721209834E+04  0.39258039559E+03  0.13743044701E+04  0.12699999809E+01 0. -1.
</event>
<event>
 5   0  0.6584420E-08  0.3370212E+04  0.7818609E-02  0.8145256E-01
        1   -1    0    0  501    0  0.00000000000E+00  0.00000000000E+00  0.26749955274E+04  0.26749955274E+04  0.50400001928E-02 0. -1.
       -1   -1    0    0    0  501  0.00000000000E+00  0.00000000000E+00 -0.10615276258E+04  0.10615276258E+04  0.50400001928E-02 0.  1.
    10030    2    1    2    0    0  0.00000000000E+00  0.00000000000E+00  0.16134679015E+04  0.37365231532E+04  0.33702116558E+04 0.  0.
        1    1    3    3  502    0 -0.15531314571E+04  0.64803183123E+03  0.90222998732E+03  0.19094977160E+04  0.50400001928E-02 0.  1.
       -1    1    3    3    0  502  0.15531314571E+04 -0.64803183123E+03  0.71123791422E+03  0.18270254372E+04  0.50400001928E-02 0. -1.
</event>
<event>
 5   0  0.1963852E-07  0.3401075E+04  0.7818609E-02  0.8137643E-01
       -2   -1    0    0    0  501  0.00000000000E+00  0.00000000000E+00  0.92723930021E+03  0.92723930021E+03  0.25500000920E-02 0. -1.
        2   -1    0    0  501    0  0.00000000000E+00  0.00000000000E+00 -0.31187496321E+04  0.31187496321E+04  0.25500000920E-02 0.  1.
    10030    2    1    2    0    0  0.00000000000E+00  0.00000000000E+00 -0.21915103319E+04  0.40459889323E+04  0.34010746692E+04 0.  0.
        4    1    3    3  502    0  0.35455150490E+03  0.11309182321E+02 -0.30742453537E+04  0.30946438850E+04  0.12699999809E+01 0.  1.
       -4    1    3    3    0  502 -0.35455150490E+03 -0.11309182321E+02  0.88273502187E+03  0.95134504727E+03  0.12699999809E+01 0. -1.
</event>
<event>
 5   0  0.6367111E-08  0.3419693E+04  0.7818609E-02  0.8133090E-01
       -1   -1    0    0    0  501  0.00000000000E+00  0.00000000000E+00  0.17012867631E+04  0.17012867631E+04  0.50400001928E-02 0.  1.
        1   -1    0    0  501    0  0.00000000000E+00  0.00000000000E+00 -0.17184491280E+04  0.17184491280E+04  0.50400001928E-02 0. -1.
    10030    2    1    2    0    0  0.00000000000E+00  0.00000000000E+00 -0.17162364876E+02  0.34197358911E+04  0.34196928251E+04 0.  0.
        3    1    3    3  502    0  0.13977176135E+04 -0.64484720911E+03 -0.75299118446E+03  0.17136038586E+04  0.10100000352E+00 0. -1.
       -3    1    3    3    0  502 -0.13977176135E+04  0.64484720911E+03  0.73582881958E+03  0.17061320325E+04  0.10100000352E+00 0.  1.
</event>
<event>
 5   0  0.6584420E-08  0.3399834E+04  0.7818609E-02  0.8137947E-01
       -1   -1    0    0    0  501  0.00000000000E+00  0.00000000000E+00  0.12359699311E+04  0.12359699311E+04  0.50400001928E-02 0.  1.
        1   -1    0    0  501    0  0.00000000000E+00  0.00000000000E+00 -0.23380164406E+04  0.23380164406E+04  0.50400001928E-02 0. -1.
    10030    2    1    2    0    0  0.00000000000E+00  0.00000000000E+00 -0.11020465095E+04  0.35739863717E+04  0.33998341248E+04 0.  0.
        1    1    3    3  502    0  0.13266622083E+04 -0.17285056073E+02 -0.16681861031E+04  0.21314727920E+04  0.50400001928E-02 0. -1.
       -1    1    3    3    0  502 -0.13266622083E+04  0.17285056073E+02  0.56613959366E+03  0.14425135797E+04  0.50400001928E-02 0.  1.
</event>
<event>
 5   0  0.6584420E-08  0.3405582E+04  0.7818609E-02  0.8136538E-01
        1   -1    0    0  501    0  0.00000000000E+00  0.00000000000E+00  0.13887401773E+04  0.13887401773E+04  0.50400001928E-02 0.  1.
       -1   -1    0    0    0  501  0.00000000000E+00  0.00000000000E+00 -0.20878612130E+04  0.20878612130E+04  0.50400001928E-02 0. -1.
    10030    2    1    2    0    0  0.00000000000E+00  0.00000000000E+00 -0.69912103570E+03  0.34766013903E+04  0.34055817424E+04 0.  0.
        1    1    3    3  502    0  0.45182918545E+01 -0.16136016052E+04 -0.90474568981E+03  0.18499446798E+04  0.50400001928E-02 0.  1.
       -1    1    3    3    0  502 -0.45182918545E+01  0.16136016052E+04  0.20562465411E+03  0.16266567104E+04  0.50400001928E-02 0. -1.
</event>
<event>
 5   0  0.6341535E-08  0.3405983E+04  0.7818609E-02  0.8136439E-01
       -1   -1    0    0    0  501  0.00000000000E+00  0.00000000000E+00  0.14275043509E+04  0.14275043509E+04  0.50400001928E-02 0. -1.
        1   -1    0    0  501    0  0.00000000000E+00  0.00000000000E+00 -0.20316439032E+04  0.20316439033E+04  0.50400001928E-02 0.  1.
    10030    2    1    2    0    0  0.00000000000E+00  0.00000000000E+00 -0.60413955238E+03  0.34591482541E+04  0.34059832714E+04 0.  0.
        5    1    3    3  502    0  0.95954380304E+02  0.16958418620E+04 -0.17738721081E+03  0.17077983419E+04  0.46999998093E+01 0. -1.
       -5    1    3    3    0  502 -0.95954380304E+02 -0.16958418620E+04 -0.42675234157E+03  0.17513499122E+04  0.46999998093E+01 0.  1.
</event>
<event>
 5   0  0.6341535E-08  0.3403818E+04  0.7818609E-02  0.8136970E-01
       -1   -1    0    0    0  501  0.00000000000E+00  0.00000000000E+00  0.13637644042E+04  0.13637644042E+04  0.50400001928E-02 0. -1.
        1   -1    0    0  501    0  0.00000000000E+00  0.00000000000E+00 -0.21238969126E+04  0.21238969126E+04  0.50400001928E-02 0.  1.
    10030    2    1    2    0    0  0.00000000000E+00  0.00000000000E+00 -0.76013250843E+03  0.34876613167E+04  0.34038184484E+04 0.  0.
        5    1    3    3  502    0 -0.12483197385E+04  0.20643984110E+00  0.80522116765E+03  0.14854983780E+04  0.46999998093E+01 0. -1.
       -5    1    3    3    0  502  0.12483197385E+04 -0.20643984110E+00 -0.15653536761E+04  0.20021629388E+04  0.46999998093E+01 0.  1.
</event>
<event>
 5   0  0.6788600E-08  0.3391536E+04  0.7818609E-02  0.8139987E-01
       -1   -1    0    0    0  501  0.00000000000E+00  0.00000000000E+00  0.13221616020E+04  0.13221616020E+04  0.50400001928E-02 0.  1.
        1   -1    0    0  501    0  0.00000000000E+00  0.00000000000E+00 -0.21749453717E+04  0.21749453717E+04  0.50400001928E-02 0. -1.
    10030    2    1    2    0    0  0.00000000000E+00  0.00000000000E+00 -0.85278376967E+03  0.34971069737E+04  0.33915360867E+04 0.  0.
        2    1    3    3  502    0 -0.46569430707E+03  0.16240059345E+04 -0.27568208247E+03  0.17118022881E+04  0.25500000920E-02 0.  1.
       -2    1    3    3    0  502  0.46569430707E+03 -0.16240059345E+04 -0.57710168720E+03  0.17853046856E+04  0.25500000920E-02 0. -1.
</event>
<event>
 5   0  0.6788600E-08  0.3404810E+04  0.7818609E-02  0.8136727E-01
        1   -1    0    0  501    0  0.00000000000E+00  0.00000000000E+00  0.18336590184E+04  0.18336590184E+04  0.50400001928E-02 0. -1.
       -1   -1    0    0    0  501  0.00000000000E+00  0.00000000000E+00 -0.15805459249E+04  0.15805459249E+04  0.50400001928E-02 0.  1.
    10030    2    1    2    0    0  0.00000000000E+00  0.00000000000E+00  0.25311309352E+03  0.34142049433E+04  0.34048097094E+04 0.  0.
        2    1    3    3  502    0  0.88480769951E+03  0.96594858403E+03  0.12168659120E+04  0.17879328790E+04  0.25500000920E-02 0. -1.
       -2    1    3    3    0  502 -0.88480769951E+03 -0.96594858403E+03 -0.96375281847E+03  0.16262720643E+04  0.25500000920E-02 0.  1.
</event>
<event>
 5   0  0.6788600E-08  0.3401460E+04  0.7818609E-02  0.8137548E-01
       -1   -1    0    0    0  501  0.00000000000E+00  0.00000000000E+00  0.15325391511E+04  0.15325391511E+04  0.50400001928E-02 0. -1.
        1   -1    0    0  501    0  0.00000000000E+00  0.00000000000E+00 -0.18873788505E+04  0.18873788505E+04  0.50400001928E-02 0.  1.
    10030    2    1    2    0    0  0.00000000000E+00  0.00000000000E+00 -0.35483969937E+03  0.34199180015E+04  0.34014596756E+04 0.  0.
        2    1    3    3  502    0  0.24963403679E+02  0.10432582976E+04 -0.15276411042E+04  0.18500536182E+04  0.25500000920E-02 0.  1.
       -2    1    3    3    0  502 -0.24963403679E+02 -0.10432582976E+04  0.11728014048E+04  0.15698643834E+04  0.25500000920E-02 0. -1.
</event>
<event>
 5   0  0.1986613E-07  0.3394988E+04  0.7818609E-02  0.8139138E-01
       -2   -1    0    0    0  501  0.00000000000E+00  0.00000000000E+00  0.10401699713E+04  0.10401699713E+04  0.25500000920E-02 0.  1.
        2   -1    0    0  501    0  0.00000000000E+00  0.00000000000E+00 -0.27702066964E+04  0.27702066964E+04  0.25500000920E-02 0. -1.
    10030    2    1    2    0    0  0.00000000000E+00  0.00000000000E+00 -0.17300367251E+04  0.38103766676E+04  0.33949879645E+04 0.  0.
        5    1    3    3  502    0 -0.13913962891E+04 -0.86991032906E+03 -0.13526110421E+04  0.21265714978E+04  0.46999998093E+01 0. -1.
       -5    1    3    3    0  502  0.13913962891E+04  0.86991032906E+03 -0.37742568301E+03  0.16838051699E+04  0.46999998093E+01 0.  1.
</event>
<event>
 5   0  0.6584420E-08  0.3394541E+04  0.7818609E-02  0.8139247E-01
       -1   -1    0    0    0  501  0.00000000000E+00  0.00000000000E+00  0.20352602015E+04  0.20352602015E+04  0.50400001928E-02 0.  1.
        1   -1    0    0  501    0  0.00000000000E+00  0.00000000000E+00 -0.14154099101E+04  0.14154099101E+04  0.50400001928E-02 0. -1.
    10030    2    1    2    0    0  0.00000000000E+00  0.00000000000E+00  0.61985029139E+03  0.34506701116E+04  0.33945411819E+04 0.  0.
        1    1    3    3  502    0  0.39929970472E+02 -0.73342692588E+03 -0.12454791271E+04  0.14459348928E+04  0.50400001928E-02 0. -1.
       -1    1    3    3    0  502 -0.39929970472E+02  0.73342692588E+03  0.18653294185E+04  0.20047352188E+04  0.50400001928E-02 0.  1.
</event>
<event>
 5   0  0.6311750E-08  0.3398348E+04  0.7818609E-02  0.8138312E-01
        3   -1    0    0  501    0  0.00000000000E+00  0.00000000000E+00  0.16297960883E+04  0.16297960914E+04  0.10100000352E+00 0. -1.
       -3   -1    0    0    0  501  0.00000000000E+00  0.00000000000E+00 -0.17715056039E+04  0.17715056068E+04  0.10100000352E+00 0.  1.
    10030    2    1    2    0    0  0.00000000000E+00  0.00000000000E+00 -0.14170951562E+03  0.34013016982E+04  0.33983483717E+04 0.  0.
        1    1    3    3  502    0 -0.98364969281E+02  0.10505853353E+04  0.12621388849E+04  0.16451139106E+04  0.50400001928E-02 0. -1.
       -1    1    3    3    0  502  0.98364969281E+02 -0.10505853353E+04 -0.14038484005E+04  0.17561877877E+04  0.50400001928E-02 0.  1.
</event>
<event>
 5   0  0.1897313E-07  0.3400382E+04  0.7818609E-02  0.8137813E-01
        2   -1    0    0  501    0  0.00000000000E+00  0.00000000000E+00  0.21964661855E+04  0.21964661855E+04  0.25500000920E-02 0. -1.
       -2   -1    0    0    0  501  0.00000000000E+00  0.00000000000E+00 -0.13160452745E+04  0.13160452745E+04  0.25500000920E-02 0.  1.
    10030    2    1    2    0    0  0.00000000000E+00  0.00000000000E+00  0.88042091103E+03  0.35125114600E+04  0.34003817104E+04 0.  0.
        3    1    3    3  502    0  0.13335957907E+04 -0.94215334387E+03 -0.49248105602E+02  0.16335715603E+04  0.10100000352E+00 0. -1.
       -3    1    3    3    0  502 -0.13335957907E+04  0.94215334387E+03  0.92966901663E+03  0.18789398998E+04  0.10100000352E+00 0.  1.
</event>
<event>
 5   0  0.6311750E-08  0.3392838E+04  0.7818609E-02  0.8139666E-01
       -1   -1    0    0    0  501  0.00000000000E+00  0.00000000000E+00  0.18604473063E+04  0.18604473063E+04  0.50400001928E-02 0. -1.
        1   -1    0    0  501    0  0.00000000000E+00  0.00000000000E+00 -0.15468522554E+04  0.15468522554E+04  0.50400001928E-02 0.  1.
    10030    2    1    2    0    0  0.00000000000E+00  0.00000000000E+00  0.31359505099E+03  0.34072995617E+04  0.33928378162E+04 0.  0.
        4    1    3    3  502    0  0.13815382869E+04  0.62595914428E+03 -0.60628506476E+03  0.16334185260E+04  0.12699999809E+01 0.  1.
       -4    1    3    3    0  502 -0.13815382869E+04 -0.62595914428E+03  0.91988011574E+03  0.17738810357E+04  0.12699999809E+01 0. -1.
</event>
<event>
 5   0  0.1963852E-07  0.3405181E+04  0.7818609E-02  0.8136636E-01
        2   -1    0    0  501    0  0.00000000000E+00  0.00000000000E+00  0.14494384828E+04  0.14494384828E+04  0.25500000920E-02 0.  1.
       -2   -1    0    0    0  501  0.00000000000E+00  0.00000000000E+00 -0.19999570496E+04  0.19999570496E+04  0.25500000920E-02 0. -1.
    10030    2    1    2    0    0  0.00000000000E+00  0.00000000000E+00 -0.55051856674E+03  0.34493955324E+04  0.34051811768E+04 0.  0.
        4    1    3    3  502    0  0.12151744914E+03  0.38285101975E+03 -0.19512730902E+04  0.19921871597E+04  0.12699999809E+01 0. -1.
       -4    1    3    3    0  502 -0.12151744914E+03 -0.38285101975E+03  0.14007545234E+04  0.14572083728E+04  0.12699999809E+01 0.  1.
</event>
<event>
 5   0  0.1970449E-07  0.3401466E+04  0.7818609E-02  0.8137547E-01
       -2   -1    0    0    0  501  0.00000000000E+00  0.00000000000E+00  0.17637940061E+04  0.17637940061E+04  0.25500000920E-02 0. -1.
        2   -1    0    0  501    0  0.00000000000E+00  0.00000000000E+00 -0.16399262294E+04  0.16399262294E+04  0.25500000920E-02 0.  1.
    10030    2    1    2    0    0  0.00000000000E+00  0.00000000000E+00  0.12386777671E+03  0.34037202355E+04  0.34014655982E+04 0.  0.
        1    1    3    3  502    0 -0.33769907366E+03  0.81212602568E+02  0.17279266046E+04  0.17624887240E+04  0.50400001928E-02 0. -1.
       -1    1    3    3    0  502  0.33769907366E+03 -0.81212602568E+02 -0.16040588279E+04  0.16412315115E+04  0.50400001928E-02 0.  1.
</event>
<event>
 5   0  0.6367111E-08  0.3389359E+04  0.7818609E-02  0.8140523E-01
        1   -1    0    0  501    0  0.00000000000E+00  0.00000000000E+00  0.22525722451E+04  0.22525722451E+04  0.50400001928E-02 0.  1.
       -1   -1    0    0    0  501  0.00000000000E+00  0.00000000000E+00 -0.12749599631E+04  0.12749599631E+04  0.50400001928E-02 0. -1.
    10030    2    1    2    0    0  0.00000000000E+00  0.00000000000E+00  0.97761228195E+03  0.35275322082E+04  0.33893594832E+04 0.  0.
        3    1    3    3  502    0  0.94635949458E+03  0.21306786578E+03 -0.95742706714E+03  0.13629603103E+04  0.10100000352E+00 0. -1.
       -3    1    3    3    0  502 -0.94635949458E+03 -0.21306786578E+03  0.19350393491E+04  0.21645718979E+04  0.10100000352E+00 0.  1.
</event>
<event>
 5   0  0.1897313E-07  0.3398413E+04  0.7818609E-02  0.8138296E-01
        2   -1    0    0  501    0  0.00000000000E+00  0.00000000000E+00  0.30651189396E+04  0.30651189396E+04  0.25500000920E-02 0. -1.
       -2   -1    0    0    0  501  0.00000000000E+00  0.00000000000E+00 -0.94198706842E+03  0.94198706843E+03  0.25500000920E-02 0.  1.
    10030    2    1    2    0    0  0.00000000000E+00  0.00000000000E+00  0.21231318712E+04  0.40071060081E+04  0.33984128085E+04 0.  0.
        3    1    3    3  502    0  0.19033229660E+01 -0.11786557827E+03  0.30602918030E+04  0.30625613214E+04  0.10100000352E+00 0. -1.
       -3    1    3    3    0  502 -0.19033229660E+01  0.11786557827E+03 -0.93715993182E+03  0.94454468671E+03  0.10100000352E+00 0.  1.
</event>
<event>
 5   0  0.6311750E-08  0.3391142E+04  0.7818609E-02  0.8140084E-01
        1   -1    0    0  501    0  0.00000000000E+00  0.00000000000E+00  0.23864375092E+04  0.23864375092E+04  0.50400001928E-02 0. -1.
       -1   -1    0    0    0  501  0.00000000000E+00  0.00000000000E+00 -0.12047082739E+04  0.12047082739E+04  0.50400001928E-02 0.  1.
    10030    2    1    2    0    0  0.00000000000E+00  0.00000000000E+00  0.11817292353E+04  0.35911457831E+04  0.33911419979E+04 0.  0.
        4    1    3    3  502    0  0.10422124546E+04 -0.20607655419E+02 -0.82528989052E+03  0.13295625191E+04  0.12699999809E+01 0.  1.
       -4    1    3    3    0  502 -0.10422124546E+04  0.20607655419E+02  0.20070191258E+04  0.22615832640E+04  0.12699999809E+01 0. -1.
</event>
<event>
 5   0  0.1928004E-07  0.3405439E+04  0.7818609E-02  0.8136573E-01
        2   -1    0    0  501    0  0.00000000000E+00  0.00000000000E+00  0.18144958719E+04  0.18144958719E+04  0.25500000920E-02 0. -1.
       -2   -1    0    0    0  501  0.00000000000E+00  0.00000000000E+00 -0.15978288789E+04  0.15978288789E+04  0.25500000920E-02 0.  1.
    10030    2    1    2    0    0  0.00000000000E+00  0.00000000000E+00  0.21666699297E+03  0.34123247507E+04  0.34054391227E+04 0.  0.
        2    1    3    3  502    0  0.12881040785E+03 -0.44667159660E+03  0.17496767310E+04  0.18103801533E+04  0.25500000920E-02 0. -1.
       -2    1    3    3    0  502 -0.12881040785E+03  0.44667159660E+03 -0.15330097380E+04  0.16019445975E+04  0.25500000920E-02 0.  1.
</event>
<event>
 5   0  0.6311750E-08  0.3324004E+04  0.7818609E-02  0.8156814E-01
        1   -1    0    0  501    0  0.00000000000E+00  0.00000000000E+00  0.20256268269E+04  0.20256268269E+04  0.50400001928E-02 0. -1.
       -1   -1    0    0    0  501  0.00000000000E+00  0.00000000000E+00 -0.13636526099E+04  0.13636526099E+04  0.50400001928E-02 0.  1.
    10030    2    1    2    0    0  0.00000000000E+00  0.00000000000E+00  0.66197421699E+03  0.33892794368E+04  0.33240043979E+04 0.  0.
        4    1    3    3  502    0  0.14732128855E+03  0.78374535563E+03  0.18178022292E+04  0.19850357432E+04  0.12699999809E+01 0. -1.
       -4    1    3    3    0  502 -0.14732128855E+03 -0.78374535563E+03 -0.11558280122E+04  0.14042436936E+04  0.12699999809E+01 0.  1.
</event>
<event>
 5   0  0.6311750E-08  0.3401703E+04  0.7818609E-02  0.8137488E-01
       -1   -1    0    0    0  501  0.00000000000E+00  0.00000000000E+00  0.25098081828E+04  0.25098081828E+04  0.50400001928E-02 0.  1.
        1   -1    0    0  501    0  0.00000000000E+00  0.00000000000E+00 -0.11526362374E+04  0.11526362374E+04  0.50400001928E-02 0. -1.
    10030    2    1    2    0    0  0.00000000000E+00  0.00000000000E+00  0.13571719454E+04  0.36624444202E+04  0.34017030208E+04 0.  0.
        4    1    3    3  502    0  0.89397673076E+03  0.13764455204E+04  0.11589911062E+04  0.20092433061E+04  0.12699999809E+01 0.  1.
       -4    1    3    3    0  502 -0.89397673076E+03 -0.13764455204E+04  0.19818083920E+03  0.16532011141E+04  0.12699999809E+01 0. -1.
</event>
<event>
 5   0  0.6788600E-08  0.3414933E+04  0.7818609E-02  0.8134251E-01
        1   -1    0    0  501    0  0.00000000000E+00  0.00000000000E+00  0.27783580643E+04  0.27783580643E+04  0.50400001928E-02 0. -1.
       -1   -1    0    0    0  501  0.00000000000E+00  0.00000000000E+00 -0.10493400428E+04  0.10493400428E+04  0.50400001928E-02 0.  1.
    10030    2    1    2    0    0  0.00000000000E+00  0.00000000000E+00  0.17290180215E+04  0.38276981071E+04  0.34149333054E+04 0.  0.
        2    1    3    3  502    0  0.75173609881E+03 -0.13720730326E+04  0.97919767205E+02  0.15675713221E+04  0.25500000920E-02 0.  1.
       -2    1    3    3    0  502 -0.75173609881E+03  0.13720730326E+04  0.16310982543E+04  0.22601267850E+04  0.25500000920E-02 0. -1.
</event>
<event>
 5   0  0.1928004E-07  0.3398783E+04  0.7818609E-02  0.8138205E-01
       -2   -1    0    0    0  501  0.00000000000E+00  0.00000000000E+00  0.16531985013E+04  0.16531985013E+04  0.25500000920E-02 0. -1.
        2   -1    0    0  501    0  0.00000000000E+00  0.00000000000E+00 -0.17468748206E+04  0.17468748206E+04  0.25500000920E-02 0.  1.
    10030    2    1    2    0    0  0.00000000000E+00  0.00000000000E+00 -0.93676319301E+02  0.34000733220E+04  0.33987826265E+04 0.  0.
        2    1    3    3  502    0 -0.12430495375E+04 -0.10452976750E+04  0.45346319976E+03  0.16862527259E+04  0.25500000920E-02 0.  1.
       -2    1    3    3    0  502  0.12430495375E+04  0.10452976750E+04 -0.54713951906E+03  0.17138205961E+04  0.25500000920E-02 0. -1.
</event>
<event>
 5   0  0.1970449E-07  0.3405883E+04  0.7818609E-02  0.8136464E-01
        2   -1    0    0  501    0  0.00000000000E+00  0.00000000000E+00  0.26579010453E+04  0.26579010453E+04  0.25500000920E-02 0.  1.
       -2   -1    0    0    0  501  0.00000000000E+00  0.00000000000E+00 -0.10910899836E+04  0.10910899836E+04  0.25500000920E-02 0. -1.
    10030    2    1    2    0    0  0.00000000000E+00  0.00000000000E+00  0.15668110616E+04  0.37489910289E+04  0.34058826803E+04 0.  0.
        1    1    3    3  502    0 -0.17990106510E+03  0.15630837135E+04  0.15005053762E+04  0.21741921425E+04  0.50400001928E-02 0.  1.
       -1    1    3    3    0  502  0.17990106510E+03 -0.15630837135E+04  0.66305685431E+02  0.15747988864E+04  0.50400001928E-02 0. -1.
</event>
<event>
 5   0  0.1986613E-07  0.3387080E+04  0.7818609E-02  0.8141085E-01
       -2   -1    0    0    0  501  0.00000000000E+00  0.00000000000E+00  0.24104607984E+04  0.24104607984E+04  0.25500000920E-02 0. -1.
        2   -1    0    0  501    0  0.00000000000E+00  0.00000000000E+00 -0.11898463731E+04  0.11898463731E+04  0.25500000920E-02 0.  1.
    10030    2    1    2    0    0  0.00000000000E+00  0.00000000000E+00  0.12206144252E+04  0.36003071715E+04  0.33870801812E+04 0.  0.
        5    1    3    3  502    0 -0.14516829534E+04  0.49294206005E+03 -0.15448781401E+03  0.15408646425E+04  0.46999998093E+01 0. -1.
       -5    1    3    3    0  502  0.14516829534E+04 -0.49294206005E+03  0.13751022393E+04  0.20594425290E+04  0.46999998093E+01 0.  1.
</event>
<event>
 5   0  0.1970449E-07  0.3404217E+04  0.7818609E-02  0.8136872E-01
        2   -1    0    0  501    0  0.00000000000E+00  0.00000000000E+00  0.22428196565E+04  0.22428196565E+04  0.25500000920E-02 0. -1.
       -2   -1    0    0    0  501  0.00000000000E+00  0.00000000000E+00 -0.12917547162E+04  0.12917547162E+04  0.25500000920E-02 0.  1.
    10030    2    1    2    0    0  0.00000000000E+00  0.00000000000E+00  0.95106494027E+03  0.35345743726E+04  0.34042167198E+04 0.  0.
        1    1    3    3  502    0  0.18417665785E+03  0.83122229848E+03 -0.10547864791E+04  0.13555169004E+04  0.50400001928E-02 0.  1.
       -1    1    3    3    0  502 -0.18417665785E+03 -0.83122229848E+03  0.20058514194E+04  0.21790574722E+04  0.50400001928E-02 0. -1.
</event>
<event>
 5   0  0.6584420E-08  0.3399846E+04  0.7818609E-02  0.8137944E-01
       -1   -1    0    0    0  501  0.00000000000E+00  0.00000000000E+00  0.22853006310E+04  0.22853006310E+04  0.50400001928E-02 0.  1.
        1   -1    0    0  501    0  0.00000000000E+00  0.00000000000E+00 -0.12644892134E+04  0.12644892134E+04  0.50400001928E-02 0. -1.
    10030    2    1    2    0    0  0.00000000000E+00  0.00000000000E+00  0.10208114175E+04  0.35497898444E+04  0.33998458773E+04 0.  0.
        1    1    3    3  502    0 -0.84741415741E+03  0.16821732227E+03 -0.10181735130E+04  0.13353221050E+04  0.50400001928E-02 0.  1.
       -1    1    3    3    0  502  0.84741415741E+03 -0.16821732227E+03  0.20389849305E+04  0.22144677393E+04  0.50400001928E-02 0. -1.
</event>
<event>
 5   0  0.1986613E-07  0.3401903E+04  0.7818609E-02  0.8137439E-01
       -2   -1    0    0    0  501  0.00000000000E+00  0.00000000000E+00  0.18674809843E+04  0.18674809843E+04  0.25500000920E-02 0.  1.
        2   -1    0    0  501    0  0.00000000000E+00  0.00000000000E+00 -0.15492717518E+04  0.15492717518E+04  0.25500000920E-02 0. -1.
    10030    2    1    2    0    0  0.00000000000E+00  0.00000000000E+00  0.31820923251E+03  0.34167527360E+04  0.34019027240E+04 0.  0.
        5    1    3    3  502    0  0.89806573365E+03 -0.21403469634E+03 -0.12757253934E+04  0.15747476886E+04  0.46999998093E+01 0. -1.
       -5    1    3    3    0  502 -0.89806573365E+03  0.21403469634E+03  0.15939346259E+04  0.18420050475E+04  0.46999998093E+01 0.  1.
</event>
<event>
 5   0  0.1963852E-07  0.3400443E+04  0.7818609E-02  0.8137798E-01
        2   -1    0    0  501    0  0.00000000000E+00  0.00000000000E+00  0.20124395126E+04  0.20124395126E+04  0.25500000920E-02 0. -1.
       -2   -1    0    0    0  501  0.00000000000E+00  0.00000000000E+00 -0.14364424765E+04  0.14364424765E+04  0.25500000920E-02 0.  1.
    10030    2    1    2    0    0  0.00000000000E+00  0.00000000000E+00  0.57599703606E+03  0.34488819891E+04  0.34004432636E+04 0.  0.
        4    1    3    3  502    0  0.32874560641E+03  0.30625952480E+03 -0.13751413998E+04  0.14466803561E+04  0.12699999809E+01 0.  1.
       -4    1    3    3    0  502 -0.32874560641E+03 -0.30625952480E+03  0.19511384359E+04  0.20022016330E+04  0.12699999809E+01 0. -1.
</event>
<event>
 5   0  0.1963852E-07  0.3410788E+04  0.7818609E-02  0.8135264E-01
       -2   -1    0    0    0  501  0.00000000000E+00  0.00000000000E+00  0.25154818040E+04  0.25154818040E+04  0.25500000920E-02 0. -1.
        2   -1    0    0  501    0  0.00000000000E+00  0.00000000000E+00 -0.11561874552E+04  0.11561874552E+04  0.25500000920E-02 0.  1.
    10030    2    1    2    0    0  0.00000000000E+00  0.00000000000E+00  0.13592943488E+04  0.36716692592E+04  0.34107878887E+04 0.  0.
        4    1    3    3  502    0  0.29365818424E+03  0.15102832787E+04  0.14715614614E+04  0.21290104412E+04  0.12699999809E+01 0. -1.
       -4    1    3    3    0  502 -0.29365818424E+03 -0.15102832787E+04 -0.11226711263E+03  0.15426588180E+04  0.12699999809E+01 0.  1.
</event>
<event>
 5   0  0.6788600E-08  0.3397349E+04  0.7818609E-02  0.8138557E-01
       -1   -1    0    0    0  501  0.00000000000E+00  0.00000000000E+00  0.10336151306E+04  0.10336151306E+04  0.50400001928E-02 0. -1.
        1   -1    0    0  501    0  0.00000000000E+00  0.00000000000E+00 -0.27916533678E+04  0.27916533678E+04  0.50400001928E-02 0.  1.
    10030    2    1    2    0    0  0.00000000000E+00  0.00000000000E+00 -0.17580382372E+04  0.38252684984E+04  0.33973490609E+04 0.  0.
        2    1    3    3  502    0 -0.98589507364E+03  0.82903360948E+03  0.36780175062E+03  0.13396133583E+04  0.25500000920E-02 0. -1.
       -2    1    3    3    0  502  0.98589507364E+03 -0.82903360948E+03 -0.21258399878E+04  0.24856551401E+04  0.25500000920E-02 0.  1.
</event>
<event>
 5   0  0.6367111E-08  0.3392295E+04  0.7818609E-02  0.8139800E-01
       -1   -1    0    0    0  501  0.00000000000E+00  0.00000000000E+00  0.21443382680E+04  0.21443382680E+04  0.50400001928E-02 0. -1.
        1   -1    0    0  501    0  0.00000000000E+00  0.00000000000E+00 -0.13416333066E+04  0.13416333066E+04  0.50400001928E-02 0.  1.
    10030    2    1    2    0    0  0.00000000000E+00  0.00000000000E+00  0.80270496138E+03  0.34859715746E+04  0.33922945868E+04 0.  0.
        3    1    3    3  502    0 -0.95784189074E+03  0.35424998533E+03 -0.99028266473E+03  0.14225378399E+04  0.10100000352E+00 0.  1.
       -3    1    3    3    0  502  0.95784189074E+03 -0.35424998533E+03  0.17929876261E+04  0.20634337347E+04  0.10100000352E+00 0. -1.
</event>
<event>
 5   0  0.6341535E-08  0.3400945E+04  0.7818609E-02  0.8137674E-01
       -1   -1    0    0    0  501  0.00000000000E+00  0.00000000000E+00  0.17431604843E+04  0.17431604843E+04  0.50400001928E-02 0. -1.
        1   -1    0    0  501    0  0.00000000000E+00  0.00000000000E+00 -0.16588299795E+04  0.16588299796E+04  0.50400001928E-02 0.  1.
    10030    2    1    2    0    0  0.00000000000E+00  0.00000000000E+00  0.84330504706E+02  0.34019904638E+04  0.34009450866E+04 0.  0.
        5    1    3    3  502    0  0.14917834219E+04  0.81615398587E+03  0.34437986246E+02  0.17008036840E+04  0.46999998093E+01 0. -1.
       -5    1    3    3    0  502 -0.14917834219E+04 -0.81615398587E+03  0.49892518459E+02  0.17011867798E+04  0.46999998093E+01 0.  1.
</event>
<event>
 5   0  0.1963852E-07  0.3403087E+04  0.7818609E-02  0.8137149E-01
       -2   -1    0    0    0  501  0.00000000000E+00  0.00000000000E+00  0.26046120057E+04  0.26046120057E+04  0.25500000920E-02 0.  1.
        2   -1    0    0  501    0  0.00000000000E+00  0.00000000000E+00 -0.11115861886E+04  0.11115861886E+04  0.25500000920E-02 0. -1.
    10030    2    1    2    0    0  0.00000000000E+00  0.00000000000E+00  0.14930258171E+04  0.37161981943E+04  0.34030872643E+04 0.  0.
        4    1    3    3  502    0 -0.56710380102E+03  0.15379302154E+04  0.24798642141E+03  0.16578102867E+04  0.12699999809E+01 0. -1.
       -4    1    3    3    0  502  0.56710380102E+03 -0.15379302154E+04  0.12450393957E+04  0.20583879076E+04  0.12699999809E+01 0.  1.
</event>
<event>
 5   0  0.1986613E-07  0.3400427E+04  0.7818609E-02  0.8137802E-01
        2   -1    0    0  501    0  0.00000000000E+00  0.00000000000E+00  0.10411178767E+04  0.10411178767E+04  0.25500000920E-02 0. -1.
       -2   -1    0    0    0  501  0.00000000000E+00  0.00000000000E+00 -0.27765589982E+04  0.27765589982E+04  0.25500000920E-02 0.  1.
    10030    2    1    2    0    0  0.00000000000E+00  0.00000000000E+00 -0.17354411215E+04  0.38176768750E+04  0.34004265667E+04 0.  0.
        5    1    3    3  502    0  0.67564823195E+03 -0.72567954665E+03 -0.24183516534E+04  0.26137249563E+04  0.46999998093E+01 0.  1.
       -5    1    3    3    0  502 -0.67564823195E+03  0.72567954665E+03  0.68291053194E+03  0.12039519186E+04  0.46999998093E+01 0. -1.
</event>
<event>
 5   0  0.1970449E-07  0.3396176E+04  0.7818609E-02  0.8138845E-01
       -2   -1    0    0    0  501  0.00000000000E+00  0.00000000000E+00  0.14804890619E+04  0.14804890619E+04  0.25500000920E-02 0. -1.
        2   -1    0    0  501    0  0.00000000000E+00  0.00000000000E+00 -0.19476694674E+04  0.19476694674E+04  0.25500000920E-02 0.  1.
    10030    2    1    2    0    0  0.00000000000E+00  0.00000000000E+00 -0.46718040546E+03  0.34281585293E+04  0.33961762868E+04 0.  0.
        1    1    3    3  502    0  0.86650790456E+03  0.12769895917E+04 -0.94875705996E+03  0.18115403183E+04  0.50400001928E-02 0.  1.
       -1    1    3    3    0  502 -0.86650790456E+03 -0.12769895917E+04  0.48157665450E+03  0.16166182110E+04  0.50400001928E-02 0. -1.
</event>
<event>
 5   0  0.1970449E-07  0.3406449E+04  0.7818609E-02  0.8136325E-01
        2   -1    0    0  501    0  0.00000000000E+00  0.00000000000E+00  0.14633970356E+04  0.14633970356E+04  0.25500000920E-02 0.  1.
       -2   -1    0    0    0  501  0.00000000000E+00  0.00000000000E+00 -0.19823556189E+04  0.19823556189E+04  0.25500000920E-02 0. -1.
    10030    2    1    2    0    0  0.00000000000E+00  0.00000000000E+00 -0.51895858329E+03  0.34457526544E+04  0.34064487879E+04 0.  0.
        1    1    3    3  502    0  0.77171822671E+03 -0.14837469249E+04 -0.58556405267E+03  0.17719873641E+04  0.50400001928E-02 0. -1.
       -1    1    3    3    0  502 -0.77171822671E+03  0.14837469249E+04  0.66605469379E+02  0.16737652904E+04  0.50400001928E-02 0.  1.
</event>
<event>
 5   0  0.6341535E-08  0.3419373E+04  0.7818609E-02  0.8133168E-01
        1   -1    0    0  501    0  0.00000000000E+00  0.00000000000E+00  0.28571927186E+04  0.28571927186E+04  0.50400001928E-02 0. -1.
       -1   -1    0    0    0  501  0.00000000000E+00  0.00000000000E+00 -0.10230421308E+04  0.10230421308E+04  0.50400001928E-02 0.  1.
    10030    2    1    2    0    0  0.00000000000E+00  0.00000000000E+00  0.18341505878E+04  0.38802348495E+04  0.34193733503E+04 0.  0.
        5    1    3    3  502    0  0.93427207681E+03  0.13504606091E+04  0.14570184468E+04  0.21953434844E+04  0.46999998093E+01 0. -1.
       -5    1    3    3    0  502 -0.93427207681E+03 -0.13504606091E+04  0.37713214105E+03  0.16848913651E+04  0.46999998093E+01 0.  1.
</event>
<event>
 5   0  0.6311750E-08  0.3403958E+04  0.7818609E-02  0.8136935E-01
        3   -1    0    0  501    0  0.00000000000E+00  0.00000000000E+00  0.18178989566E+04  0.18178989594E+04  0.10100000352E+00 0.  1.
       -3   -1    0    0    0  501  0.00000000000E+00  0.00000000000E+00 -0.15934512053E+04  0.15934512085E+04  0.10100000352E+00 0. -1.
    10030    2    1    2    0    0  0.00000000000E+00  0.00000000000E+00  0.22444775127E+03  0.34113501679E+04  0.34039584567E+04 0.  0.
        2    1    3    3  502    0 -0.89631165729E+03  0.14465667544E+04  0.14062853125E+03  0.17075439514E+04  0.25500000920E-02 0. -1.
       -2    1    3    3    0  502  0.89631165729E+03 -0.14465667544E+04  0.83819220026E+02  0.17038062166E+04  0.25500000920E-02 0.  1.
</event>
<event>
 5   0  0.1963852E-07  0.3446900E+04  0.7818609E-02  0.8126490E-01
       -2   -1    0    0    0  501  0.00000000000E+00  0.00000000000E+00  0.20336268634E+04  0.20336268634E+04  0.25500000920E-02 0. -1.
        2   -1    0    0  501    0  0.00000000000E+00  0.00000000000E+00 -0.14605829380E+04  0.14605829380E+04  0.25500000920E-02 0.  1.
    10030    2    1    2    0    0  0.00000000000E+00  0.00000000000E+00  0.57304392536E+03  0.34942098014E+04  0.34469004622E+04 0.  0.
        4    1    3    3  502    0  0.68096620855E+03  0.15574802600E+04  0.57471130020E+03  0.17943674175E+04  0.12699999809E+01 0.  1.
       -4    1    3    3    0  502 -0.68096620855E+03 -0.15574802600E+04 -0.16673748457E+01  0.16998423840E+04  0.12699999809E+01 0. -1.
</event>
<event>
 5   0  0.6311750E-08  0.3409841E+04  0.7818609E-02  0.8135495E-01
       -1   -1    0    0    0  501  0.00000000000E+00  0.00000000000E+00  0.17574749177E+04  0.17574749177E+04  0.50400001928E-02 0. -1.
        1   -1    0    0  501    0  0.00000000000E+00  0.00000000000E+00 -0.16539377702E+04  0.16539377702E+04  0.50400001928E-02 0.  1.
    10030    2    1    2    0    0  0.00000000000E+00  0.00000000000E+00  0.10353714746E+03  0.34114126880E+04  0.34098411380E+04 0.  0.
        4    1    3    3  502    0 -0.33610986108E+03 -0.72480716973E+03  0.15585959454E+04  0.17514388959E+04  0.12699999809E+01 0. -1.
       -4    1    3    3    0  502  0.33610986108E+03  0.72480716973E+03 -0.14550587980E+04  0.16599737921E+04  0.12699999809E+01 0.  1.
</event>
<event>
 5   0  0.1963852E-07  0.3402684E+04  0.7818609E-02  0.8137248E-01
       -2   -1    0    0    0  501  0.00000000000E+00  0.00000000000E+00  0.14073326998E+04  0.14073326998E+04  0.25500000920E-02 0.  1.
        2   -1    0    0  501    0  0.00000000000E+00  0.00000000000E+00 -0.20567730635E+04  0.20567730635E+04  0.25500000920E-02 0. -1.
    10030    2    1    2    0    0  0.00000000000E+00  0.00000000000E+00 -0.64944036368E+03  0.34641057634E+04  0.34026836400E+04 0.  0.
        4    1    3    3  502    0  0.78250316125E+03  0.82678597733E+03 -0.16119313963E+04  0.19733754556E+04  0.12699999809E+01 0. -1.
       -4    1    3    3    0  502 -0.78250316125E+03 -0.82678597733E+03  0.96249103260E+03  0.14907303077E+04  0.12699999809E+01 0.  1.
</event>
<event>
 5   0  0.6367111E-08  0.3396815E+04  0.7818609E-02  0.8138689E-01
        1   -1    0    0  501    0  0.00000000000E+00  0.00000000000E+00  0.16909934672E+04  0.16909934672E+04  0.50400001928E-02 0. -1.
       -1   -1    0    0    0  501  0.00000000000E+00  0.00000000000E+00 -0.17058537237E+04  0.17058537237E+04  0.50400001928E-02 0.  1.
    10030    2    1    2    0    0  0.00000000000E+00  0.00000000000E+00 -0.14860256567E+02  0.33968471909E+04  0.33968146860E+04 0.  0.
        3    1    3    3  502    0  0.14077813733E+03  0.15905636712E+04 -0.58612056843E+03  0.17009552043E+04  0.10100000352E+00 0.  1.
       -3    1    3    3    0  502 -0.14077813733E+03 -0.15905636712E+04  0.57126031186E+03  0.16958919866E+04  0.10100000352E+00 0. -1.
</event>
<event>
 5   0  0.6311750E-08  0.3401193E+04  0.7818609E-02  0.8137614E-01
        1   -1    0    0  501    0  0.00000000000E+00  0.00000000000E+00  0.28710786745E+04  0.28710786745E+04  0.50400001928E-02 0. -1.
       -1   -1    0    0    0  501  0.00000000000E+00  0.00000000000E+00 -0.10072970161E+04  0.10072970161E+04  0.50400001928E-02 0.  1.
    10030    2    1    2    0    0  0.00000000000E+00  0.00000000000E+00  0.18637816583E+04  0.38783756906E+04  0.34011933093E+04 0.  0.
        4    1    3    3  502    0 -0.99218789210E+03 -0.36822688352E+03  0.24498159895E+04  0.26686378259E+04  0.12699999809E+01 0. -1.
       -4    1    3    3    0  502  0.99218789210E+03  0.36822688352E+03 -0.58603433111E+03  0.12097378646E+04  0.12699999809E+01 0.  1.
</event>
<event>
 5   0  0.6788600E-08  0.3399333E+04  0.7818609E-02  0.8138070E-01
       -1   -1    0    0    0  501  0.00000000000E+00  0.00000000000E+00  0.12735690790E+04  0.12735690790E+04  0.50400001928E-02 0.  1.
        1   -1    0    0  501    0  0.00000000000E+00  0.00000000000E+00 -0.22683228095E+04  0.22683228095E+04  0.50400001928E-02 0. -1.
    10030    2    1    2    0    0  0.00000000000E+00  0.00000000000E+00 -0.99475373049E+03  0.35418918886E+04  0.33993327530E+04 0.  0.
        2    1    3    3  502    0 -0.14419896595E+04 -0.89453859643E+03 -0.39672165342E+03  0.17426765474E+04  0.25500000920E-02 0. -1.
       -2    1    3    3    0  502  0.14419896595E+04  0.89453859643E+03 -0.59803207708E+03  0.17992153411E+04  0.25500000920E-02 0.  1.
</event>
<event>
 5   0  0.1970449E-07  0.3394309E+04  0.7818609E-02  0.8139305E-01
       -2   -1    0    0    0  501  0.00000000000E+00  0.00000000000E+00  0.13998150929E+04  0.13998150929E+04  0.25500000920E-02 0.  1.
        2   -1    0    0  501    0  0.00000000000E+00  0.00000000000E+00 -0.20576522363E+04  0.20576522363E+04  0.25500000920E-02 0. -1.
    10030    2    1    2    0    0  0.00000000000E+00  0.00000000000E+00 -0.65783714342E+03  0.34574673292E+04  0.33943085637E+04 0.  0.
        1    1    3    3  502    0  0.11276612235E+04  0.74670301439E+03 -0.13732505616E+04  0.19274341316E+04  0.50400001928E-02 0. -1.
       -1    1    3    3    0  502 -0.11276612235E+04 -0.74670301439E+03  0.71541341822E+03  0.15300331976E+04  0.50400001928E-02 0.  1.
</event>
<event>
 5   0  0.6584420E-08  0.3403624E+04  0.7818609E-02  0.8137017E-01
        1   -1    0    0  501    0  0.00000000000E+00  0.00000000000E+00  0.21231120148E+04  0.21231120148E+04  0.50400001928E-02 0.  1.
       -1   -1    0    0    0  501  0.00000000000E+00  0.00000000000E+00 -0.13641129883E+04  0.13641129883E+04  0.50400001928E-02 0. -1.
    10030    2    1    2    0    0  0.00000000000E+00  0.00000000000E+00  0.75899902645E+03  0.34872250031E+04  0.34036243477E+04 0.  0.
        1    1    3    3  502    0  0.12540527501E+04  0.10923745429E+04  0.74924333544E+03  0.18240877221E+04  0.50400001928E-02 0. -1.
       -1    1    3    3    0  502 -0.12540527501E+04 -0.10923745429E+04  0.97556910135E+01  0.16631372811E+04  0.50400001928E-02 0.  1.
</event>
<event>
 5   0  0.1970449E-07  0.3440029E+04  0.7818609E-02  0.8128151E-01
       -2   -1    0    0    0  501  0.00000000000E+00  0.00000000000E+00  0.25048442588E+04  0.25048442588E+04  0.25500000920E-02 0. -1.
        2   -1    0    0  501    0  0.00000000000E+00  0.00000000000E+00 -0.11810910478E+04  0.11810910478E+04  0.25500000920E-02 0.  1.
    10030    2    1    2    0    0  0.00000000000E+00  0.00000000000E+00  0.13237532110E+04  0.36859353066E+04  0.34400285639E+04 0.  0.
        1    1    3    3  502    0 -0.60558294046E+03  0.12915386794E+04  0.16916424917E+04  0.22127939755E+04  0.50400001928E-02 0. -1.
       -1    1    3    3    0  502  0.60558294046E+03 -0.12915386794E+04 -0.36788928078E+03  0.14731413310E+04  0.50400001928E-02 0.  1.
</event>
<event>
 5   0  0.1928004E-07  0.3410769E+04  0.7818609E-02  0.8135268E-01
        2   -1    0    0  501    0  0.00000000000E+00  0.00000000000E+00  0.19233672152E+04  0.19233672152E+04  0.25500000920E-02 0. -1.
       -2   -1    0    0    0  501  0.00000000000E+00  0.00000000000E+00 -0.15121065604E+04  0.15121065604E+04  0.25500000920E-02 0.  1.
    10030    2    1    2    0    0  0.00000000000E+00  0.00000000000E+00  0.41126065485E+03  0.34354737756E+04  0.34107689363E+04 0.  0.
        2    1    3    3  502    0  0.12024163909E+04 -0.11804567215E+04 -0.59052284556E+02  0.16860517254E+04  0.25500000920E-02 0. -1.
       -2    1    3    3    0  502 -0.12024163909E+04  0.11804567215E+04  0.47031293940E+03  0.17494220501E+04  0.25500000920E-02 0.  1.
</event>
<event>
 5   0  0.1963852E-07  0.3356760E+04  0.7818609E-02  0.8148601E-01
       -2   -1    0    0    0  501  0.00000000000E+00  0.00000000000E+00  0.12415798908E+04  0.12415798908E+04  0.25500000920E-02 0.  1.
        2   -1    0    0  501    0  0.00000000000E+00  0.00000000000E+00 -0.22688513806E+04  0.22688513807E+04  0.25500000920E-02 0. -1.
    10030    2    1    2    0    0  0.00000000000E+00  0.00000000000E+00 -0.10272714899E+04  0.35104312714E+04  0.33567604916E+04 0.  0.
        4    1    3    3  502    0  0.28293725113E+03  0.16473534878E+04 -0.35458222650E+03  0.17086711709E+04  0.12699999809E+01 0.  1.
       -4    1    3    3    0  502 -0.28293725113E+03 -0.16473534878E+04 -0.67268926335E+03  0.18017601006E+04  0.12699999809E+01 0. -1.
</event>
<event>
 5   0  0.6311750E-08  0.3397310E+04  0.7818609E-02  0.8138567E-01
        1   -1    0    0  501    0  0.00000000000E+00  0.00000000000E+00  0.16740097909E+04  0.16740097909E+04  0.50400001928E-02 0. -1.
       -1   -1    0    0    0  501  0.00000000000E+00  0.00000000000E+00 -0.17236629343E+04  0.17236629343E+04  0.50400001928E-02 0.  1.
    10030    2    1    2    0    0  0.00000000000E+00  0.00000000000E+00 -0.49653143439E+02  0.33976727252E+04  0.33973098936E+04 0.  0.
        4    1    3    3  502    0  0.15601138101E+04  0.66099038204E+03  0.95866181360E+02  0.16970725745E+04  0.12699999809E+01 0.  1.
       -4    1    3    3    0  502 -0.15601138101E+04 -0.66099038204E+03 -0.14551932480E+03  0.17006001507E+04  0.12699999809E+01 0. -1.
</event>
<event>
 5   0  0.6584420E-08  0.3404136E+04  0.7818609E-02  0.8136892E-01
       -1   -1    0    0    0  501  0.00000000000E+00  0.00000000000E+00  0.11533298984E+04  0.11533298985E+04  0.50400001928E-02 0.  1.
        1   -1    0    0  501    0  0.00000000000E+00  0.00000000000E+00 -0.25118877838E+04  0.25118877838E+04  0.50400001928E-02 0. -1.
    10030    2    1    2    0    0  0.00000000000E+00  0.00000000000E+00 -0.13585578854E+04  0.36652176823E+04  0.34041358860E+04 0.  0.
        1    1    3    3  502    0 -0.67271311943E+03  0.78726718653E+03  0.77513806592E+03  0.12935113395E+04  0.50400001928E-02 0.  1.
       -1    1    3    3    0  502  0.67271311943E+03 -0.78726718653E+03 -0.21336959513E+04  0.23717063428E+04  0.50400001928E-02 0. -1.
</event>
<event>
 5   0  0.1963852E-07  0.3399686E+04  0.7818609E-02  0.8137983E-01
        2   -1    0    0  501    0  0.00000000000E+00  0.00000000000E+00  0.18185049772E+04  0.18185049772E+04  0.25500000920E-02 0.  1.
       -2   -1    0    0    0  501  0.00000000000E+00  0.00000000000E+00 -0.15889242937E+04  0.15889242937E+04  0.25500000920E-02 0. -1.
    10030    2    1    2    0    0  0.00000000000E+00  0.00000000000E+00  0.22958068350E+03  0.34074292710E+04  0.33996863012E+04 0.  0.
        4    1    3    3  502    0 -0.35472052454E+02 -0.15119295342E+04 -0.66304157921E+03  0.16513070373E+04  0.12699999809E+01 0. -1.
       -4    1    3    3    0  502  0.35472052454E+02  0.15119295342E+04  0.89262226271E+03  0.17561222337E+04  0.12699999809E+01 0.  1.
</event>
<event>
 5   0  0.1897313E-07  0.3397467E+04  0.7818609E-02  0.8138528E-01
        2   -1    0    0  501    0  0.00000000000E+00  0.00000000000E+00  0.24032548330E+04  0.24032548330E+04  0.25500000920E-02 0.  1.
       -2   -1    0    0    0  501  0.00000000000E+00  0.00000000000E+00 -0.12007444541E+04  0.12007444541E+04  0.25500000920E-02 0. -1.
    10030    2    1    2    0    0  0.00000000000E+00  0.00000000000E+00  0.12025103789E+04  0.36039992870E+04  0.33974666517E+04 0.  0.
        3    1    3    3  502    0 -0.11286723876E+04  0.11528569681E+04  0.11652867736E+04  0.19901944183E+04  0.10100000352E+00 0. -1.
       -3    1    3    3    0  502  0.11286723876E+04 -0.11528569681E+04  0.37223605238E+02  0.16138048688E+04  0.10100000352E+00 0.  1.
</event>
<event>
 5   0  0.6788600E-08  0.3398883E+04  0.7818609E-02  0.8138180E-01
       -1   -1    0    0    0  501  0.00000000000E+00  0.00000000000E+00  0.28738978695E+04  0.28738978695E+04  0.50400001928E-02 0. -1.
        1   -1    0    0  501    0  0.00000000000E+00  0.00000000000E+00 -0.10049424466E+04  0.10049424466E+04  0.50400001928E-02 0.  1.
    10030    2    1    2    0    0  0.00000000000E+00  0.00000000000E+00  0.18689554228E+04  0.38788403161E+04  0.33988833204E+04 0.  0.
        2    1    3    3  502    0 -0.13461772602E+04  0.97668769010E+03  0.13330687922E+04  0.21314747159E+04  0.25500000920E-02 0.  1.
       -2    1    3    3    0  502  0.13461772602E+04 -0.97668769010E+03  0.53588663069E+03  0.17473656002E+04  0.25500000920E-02 0. -1.
</event>
<event>
 5   0  0.6367111E-08  0.3333686E+04  0.7818609E-02  0.8154376E-01
       -1   -1    0    0    0  501  0.00000000000E+00  0.00000000000E+00  0.13283816164E+04  0.13283816164E+04  0.50400001928E-02 0. -1.
        1   -1    0    0  501    0  0.00000000000E+00  0.00000000000E+00 -0.20915423277E+04  0.20915423277E+04  0.50400001928E-02 0.  1.
    10030    2    1    2    0    0  0.00000000000E+00  0.00000000000E+00 -0.76316071132E+03  0.34199239441E+04  0.33336864748E+04 0.  0.
        3    1    3    3  502    0 -0.11586297337E+04 -0.68749349697E+03  0.62528551103E+03  0.14852784751E+04  0.10100000352E+00 0. -1.
       -3    1    3    3    0  502  0.11586297337E+04  0.68749349697E+03 -0.13884462223E+04  0.19346454690E+04  0.10100000352E+00 0.  1.
</event>
<event>
 5   0  0.1928004E-07  0.3395364E+04  0.7818609E-02  0.8139045E-01
        2   -1    0    0  501    0  0.00000000000E+00  0.00000000000E+00  0.23713547939E+04  0.23713547939E+04  0.25500000920E-02 0. -1.
       -2   -1    0    0    0  501  0.00000000000E+00  0.00000000000E+00 -0.12153915175E+04  0.12153915175E+04  0.25500000920E-02 0.  1.
    10030    2    1    2    0    0  0.00000000000E+00  0.00000000000E+00  0.11559632764E+04  0.35867463114E+04  0.33953641934E+04 0.  0.
        2    1    3    3  502    0 -0.13602448683E+04  0.98585413287E+03  0.83662955953E+03  0.18767321314E+04  0.25500000920E-02 0.  1.
       -2    1    3    3    0  502  0.13602448683E+04 -0.98585413287E+03  0.31933371685E+03  0.17100141800E+04  0.25500000920E-02 0. -1.
</event>
<event>
 5   0  0.1963852E-07  0.3409135E+04  0.7818609E-02  0.8135668E-01
        2   -1    0    0  501    0  0.00000000000E+00  0.00000000000E+00  0.16254422578E+04  0.16254422578E+04  0.25500000920E-02 0. -1.
       -2   -1    0    0    0  501  0.00000000000E+00  0.00000000000E+00 -0.17875443200E+04  0.17875443200E+04  0.25500000920E-02 0.  1.
    10030    2    1    2    0    0  0.00000000000E+00  0.00000000000E+00 -0.16210206222E+03  0.34129865777E+04  0.34091348318E+04 0.  0.
        4    1    3    3  502    0  0.13693735532E+04  0.48468486356E+03  0.81183393889E+03  0.16640851247E+04  0.12699999809E+01 0.  1.
       -4    1    3    3    0  502 -0.13693735532E+04 -0.48468486356E+03 -0.97393600111E+03  0.17489014530E+04  0.12699999809E+01 0. -1.
</event>
<event>
 5   0  0.6584420E-08  0.3402622E+04  0.7818609E-02  0.8137263E-01
       -1   -1    0    0    0  501  0.00000000000E+00  0.00000000000E+00  0.13178531113E+04  0.13178531113E+04  0.50400001928E-02 0.  1.
        1   -1    0    0  501    0  0.00000000000E+00  0.00000000000E+00 -0.21963441529E+04  0.21963441529E+04  0.50400001928E-02 0. -1.
    10030    2    1    2    0    0  0.00000000000E+00  0.00000000000E+00 -0.87849104165E+03  0.35141972642E+04  0.34026219158E+04 0.  0.
        1    1    3    3  502    0  0.72386438090E+03 -0.53830693176E+03  0.10505192318E+04  0.13846821481E+04  0.50400001928E-02 0.  1.
       -1    1    3    3    0  502 -0.72386438090E+03  0.53830693176E+03 -0.19290102735E+04  0.21295151162E+04  0.50400001928E-02 0. -1.
</event>
<event>
 5   0  0.6584420E-08  0.3402788E+04  0.7818609E-02  0.8137222E-01
       -1   -1    0    0    0  501  0.00000000000E+00  0.00000000000E+00  0.10854176604E+04  0.10854176604E+04  0.50400001928E-02 0.  1.
        1   -1    0    0  501    0  0.00000000000E+00  0.00000000000E+00 -0.26669376848E+04  0.26669376848E+04  0.50400001928E-02 0. -1.
    10030    2    1    2    0    0  0.00000000000E+00  0.00000000000E+00 -0.15815200243E+04  0.37523553452E+04  0.34027878349E+04 0.  0.
        1    1    3    3  502    0 -0.12779588264E+04  0.73890040332E+03 -0.17235863996E+04  0.22693396936E+04  0.50400001928E-02 0. -1.
       -1    1    3    3    0  502  0.12779588264E+04 -0.73890040332E+03  0.14206637527E+03  0.14830156516E+04  0.50400001928E-02 0.  1.
</event>
<event>
 5   0  0.1897313E-07  0.3396016E+04  0.7818609E-02  0.8138885E-01
        2   -1    0    0  501    0  0.00000000000E+00  0.00000000000E+00  0.10564936294E+04  0.10564936294E+04  0.25500000920E-02 0.  1.
       -2   -1    0    0    0  501  0.00000000000E+00  0.00000000000E+00 -0.27290570085E+04  0.27290570085E+04  0.25500000920E-02 0. -1.
    10030    2    1    2    0    0  0.00000000000E+00  0.00000000000E+00 -0.16725633791E+04  0.37855506379E+04  0.33960161034E+04 0.  0.
        3    1    3    3  502    0 -0.11259506855E+04  0.98859400828E+03  0.54190003901E+02  0.14993397300E+04  0.10100000352E+00 0.  1.
       -3    1    3    3    0  502  0.11259506855E+04 -0.98859400828E+03 -0.17267533830E+04  0.22862109079E+04  0.10100000352E+00 0. -1.
</event>
<event>
 5   0  0.6311750E-08  0.3399555E+04  0.7818609E-02  0.8138016E-01
        1   -1    0    0  501    0  0.00000000000E+00  0.00000000000E+00  0.17615763755E+04  0.17615763755E+04  0.50400001928E-02 0.  1.
       -1   -1    0    0    0  501  0.00000000000E+00  0.00000000000E+00 -0.16401461574E+04  0.16401461574E+04  0.50400001928E-02 0. -1.
    10030    2    1    2    0    0  0.00000000000E+00  0.00000000000E+00  0.12143021804E+03  0.34017225329E+04  0.33995545139E+04 0.  0.
        4    1    3    3  502    0  0.13707198923E+04 -0.71456947725E+03  0.76810197686E+03  0.17261126327E+04  0.12699999809E+01 0. -1.
       -4    1    3    3    0  502 -0.13707198923E+04  0.71456947725E+03 -0.64667175882E+03  0.16756099002E+04  0.12699999809E+01 0.  1.
</event>
<event>
 5   0  0.6367111E-08  0.3405091E+04  0.7818609E-02  0.8136658E-01
       -1   -1    0    0    0  501  0.00000000000E+00  0.00000000000E+00  0.15042131357E+04  0.15042131357E+04  0.50400001928E-02 0. -1.
        1   -1    0    0  501    0  0.00000000000E+00  0.00000000000E+00 -0.19270286665E+04  0.19270286665E+04  0.50400001928E-02 0.  1.
    10030    2    1    2    0    0  0.00000000000E+00  0.00000000000E+00 -0.42281553081E+03  0.34312418022E+04  0.34050913838E+04 0.  0.
        3    1    3    3  502    0  0.97543423336E+03  0.58609536470E+03 -0.14874989064E+04  0.18728675145E+04  0.10100000352E+00 0.  1.
       -3    1    3    3    0  502 -0.97543423336E+03 -0.58609536470E+03  0.10646833756E+04  0.15583742877E+04  0.10100000352E+00 0. -1.
</event>
<event>
 5   0  0.6584420E-08  0.3400080E+04  0.7818609E-02  0.8137887E-01
       -1   -1    0    0    0  501  0.00000000000E+00  0.00000000000E+00  0.18689927996E+04  0.18689927996E+04  0.50400001928E-02 0.  1.
        1   -1    0    0  501    0  0.00000000000E+00  0.00000000000E+00 -0.15463598018E+04  0.15463598018E+04  0.50400001928E-02 0. -1.
    10030    2    1    2    0    0  0.00000000000E+00  0.00000000000E+00  0.32263299779E+03  0.34153526014E+04  0.34000796080E+04 0.  0.
        1    1    3    3  502    0  0.88035737957E+03 -0.70632555451E+03 -0.11156967822E+04  0.15870426001E+04  0.50400001928E-02 0. -1.
       -1    1    3    3    0  502 -0.88035737957E+03  0.70632555451E+03  0.14383297800E+04  0.18283100013E+04  0.50400001928E-02 0.  1.
</event>
<event>
 5   0  0.6367111E-08  0.3395188E+04  0.7818609E-02  0.8139088E-01
        1   -1    0    0  501    0  0.00000000000E+00  0.00000000000E+00  0.21280616196E+04  0.21280616196E+04  0.50400001928E-02 0.  1.
       -1   -1    0    0    0  501  0.00000000000E+00  0.00000000000E+00 -0.13542019804E+04  0.13542019804E+04  0.50400001928E-02 0. -1.
    10030    2    1    2    0    0  0.00000000000E+00  0.00000000000E+00  0.77385963920E+03  0.34822636000E+04  0.33951879239E+04 0.  0.
        3    1    3    3  502    0 -0.10769819993E+03 -0.15128398878E+04 -0.39521703245E+03  0.15673161587E+04  0.10100000352E+00 0. -1.
       -3    1    3    3    0  502  0.10769819993E+03  0.15128398878E+04  0.11690766716E+04  0.19149474413E+04  0.10100000352E+00 0.  1.
</event>
<event>
 5   0  0.1986613E-07  0.3400414E+04  0.7818609E-02  0.8137805E-01
       -2   -1    0    0    0  501  0.00000000000E+00  0.00000000000E+00  0.93209756702E+03  0.93209756702E+03  0.25500000920E-02 0. -1.
        2   -1    0    0  501    0  0.00000000000E+00  0.00000000000E+00 -0.31012882498E+04  0.31012882498E+04  0.25500000920E-02 0.  1.
    10030    2    1    2    0    0  0.00000000000E+00  0.00000000000E+00 -0.21691906828E+04  0.40333858168E+04  0.34004136409E+04 0.  0.
        5    1    3    3  502    0  0.13607746085E+04  0.59878243809E+03 -0.10616307874E+03  0.14904833554E+04  0.46999998093E+01 0. -1.
       -5    1    3    3    0  502 -0.13607746085E+04 -0.59878243809E+03 -0.20630276040E+04  0.25429024614E+04  0.46999998093E+01 0.  1.
</event>
<event>
 5   0  0.6311750E-08  0.3382225E+04  0.7818609E-02  0.8142283E-01
       -1   -1    0    0    0  501  0.00000000000E+00  0.00000000000E+00  0.21901192125E+04  0.21901192125E+04  0.50400001928E-02 0.  1.
        1   -1    0    0  501    0  0.00000000000E+00  0.00000000000E+00 -0.13058014097E+04  0.13058014097E+04  0.50400001928E-02 0. -1.
    10030    2    1    2    0    0  0.00000000000E+00  0.00000000000E+00  0.88431780286E+03  0.34959206222E+04  0.33822245668E+04 0.  0.
        4    1    3    3  502    0  0.98079212224E+03  0.13404748736E+04  0.77070089995E+03  0.18310673292E+04  0.12699999809E+01 0. -1.
       -4    1    3    3    0  502 -0.98079212224E+03 -0.13404748736E+04  0.11361690290E+03  0.16648532930E+04  0.12699999809E+01 0.  1.
</event>
<event>
 5   0  0.6584420E-08  0.3401999E+04  0.7818609E-02  0.8137416E-01
        1   -1    0    0  501    0  0.00000000000E+00  0.00000000000E+00  0.12804507256E+04  0.12804507256E+04  0.50400001928E-02 0.  1.
       -1   -1    0    0    0  501  0.00000000000E+00  0.00000000000E+00 -0.22596720130E+04  0.22596720130E+04  0.50400001928E-02 0. -1.
    10030    2    1    2    0    0  0.00000000000E+00  0.00000000000E+00 -0.97922128733E+03  0.35401227386E+04  0.34019986295E+04 0.  0.
        1    1    3    3  502    0 -0.77426276148E+03  0.13440352906E+04 -0.12161594707E+04  0.19710295645E+04  0.50400001928E-02 0. -1.
       -1    1    3    3    0  502  0.77426276148E+03 -0.13440352906E+04  0.23693818335E+03  0.15690931741E+04  0.50400001928E-02 0.  1.
</event>
<event>
 5   0  0.6367111E-08  0.3365933E+04  0.7818609E-02  0.8146318E-01
       -1   -1    0    0    0  501  0.00000000000E+00  0.00000000000E+00  0.11316643826E+04  0.11316643826E+04  0.50400001928E-02 0. -1.
        1   -1    0    0  501    0  0.00000000000E+00  0.00000000000E+00 -0.25028410003E+04  0.25028410003E+04  0.50400001928E-02 0.  1.
    10030    2    1    2    0    0  0.00000000000E+00  0.00000000000E+00 -0.13711766178E+04  0.36345053829E+04  0.33659328664E+04 0.  0.
        3    1    3    3  502    0 -0.11800907527E+04 -0.11758064189E+04 -0.42724703408E+03  0.17197892190E+04  0.10100000352E+00 0.  1.
       -3    1    3    3    0  502  0.11800907527E+04  0.11758064189E+04 -0.94392958368E+03  0.19147161639E+04  0.10100000352E+00 0. -1.
</event>
<event>
 5   0  0.1986613E-07  0.3392066E+04  0.7818609E-02  0.8139856E-01
        2   -1    0    0  501    0  0.00000000000E+00  0.00000000000E+00  0.22650311439E+04  0.22650311439E+04  0.25500000920E-02 0. -1.
       -2   -1    0    0    0  501  0.00000000000E+00  0.00000000000E+00 -0.12699725272E+04  0.12699725272E+04  0.25500000920E-02 0.  1.
    10030    2    1    2    0    0  0.00000000000E+00  0.00000000000E+00  0.99505861670E+03  0.35350036712E+04  0.33920656398E+04 0.  0.
        5    1    3    3  502    0  0.15325201930E+03 -0.14520064313E+04 -0.40179274268E+03  0.15143541053E+04  0.46999998093E+01 0.  1.
       -5    1    3    3    0  502 -0.15325201930E+03  0.14520064313E+04  0.13968513594E+04  0.20206495659E+04  0.46999998093E+01 0. -1.
</event>
<event>
 5   0  0.1963852E-07  0.3394114E+04  0.7818609E-02  0.8139352E-01
        2   -1    0    0  501    0  0.00000000000E+00  0.00000000000E+00  0.15777168070E+04  0.15777168070E+04  0.25500000920E-02 0.  1.
       -2   -1    0    0    0  501  0.00000000000E+00  0.00000000000E+00 -0.18254239865E+04  0.18254239865E+04  0.25500000920E-02 0. -1.
    10030    2    1    2    0    0  0.00000000000E+00  0.00000000000E+00 -0.24770717944E+03  0.34031407935E+04  0.33941137891E+04 0.  0.
        4    1    3    3  502    0 -0.35024730696E+03 -0.16172535687E+04  0.25373556929E+03  0.16740865072E+04  0.12699999809E+01 0.  1.
       -4    1    3    3    0  502  0.35024730696E+03  0.16172535687E+04 -0.50144274873E+03  0.17290542862E+04  0.12699999809E+01 0. -1.
</event>
<event>
 5   0  0.6341535E-08  0.3401329E+04  0.7818609E-02  0.8137580E-01
       -1   -1    0    0    0  501  0.00000000000E+00  0.00000000000E+00  0.14065076127E+04  0.14065076127E+04  0.50400001928E-02 0.  1.
        1   -1    0    0  501    0  0.00000000000E+00  0.00000000000E+00 -0.20563409352E+04  0.20563409352E+04  0.50400001928E-02 0. -1.
    10030    2    1    2    0    0  0.00000000000E+00  0.00000000000E+00 -0.64983332244E+03  0.34628485479E+04  0.34013286696E+04 0.  0.
        5    1    3    3  502    0 -0.11272056745E+04 -0.62764936260E+03  0.80314062667E+03  0.15197346187E+04  0.46999998093E+01 0.  1.
       -5    1    3    3    0  502  0.11272056745E+04  0.62764936260E+03 -0.14529739491E+04  0.19431139292E+04  0.46999998093E+01 0. -1.
</event>
<event>
 5   0  0.1963852E-07  0.3406760E+04  0.7818609E-02  0.8136249E-01
        2   -1    0    0  501    0  0.00000000000E+00  0.00000000000E+00  0.16118061825E+04  0.16118061825E+04  0.25500000920E-02 0.  1.
       -2   -1    0    0    0  501  0.00000000000E+00  0.00000000000E+00 -0.18001561711E+04  0.18001561711E+04  0.25500000920E-02 0. -1.
    10030    2    1    2    0    0  0.00000000000E+00  0.00000000000E+00 -0.18834998855E+03  0.34119623536E+04  0.34067596605E+04 0.  0.
        4    1    3    3  502    0  0.14222507893E+04 -0.84784743472E+03 -0.49460886859E+03  0.17280862612E+04  0.12699999809E+01 0. -1.
       -4    1    3    3    0  502 -0.14222507893E+04  0.84784743472E+03  0.30625888004E+03  0.16838760924E+04  0.12699999809E+01 0.  1.
</event>
<event>
 5   0  0.6367111E-08  0.3389833E+04  0.7818609E-02  0.8140406E-01
       -1   -1    0    0    0  501  0.00000000000E+00  0.00000000000E+00  0.16450320417E+04  0.16450320417E+04  0.50400001928E-02 0.  1.
        1   -1    0    0  501    0  0.00000000000E+00  0.00000000000E+00 -0.17463139236E+04  0.17463139236E+04  0.50400001928E-02 0. -1.
    10030    2    1    2    0    0  0.00000000000E+00  0.00000000000E+00 -0.10128188195E+03  0.33913459653E+04  0.33898332462E+04 0.  0.
        3    1    3    3  502    0 -0.28307769000E+03  0.62377376256E+03  0.15003784943E+04  0.16493520915E+04  0.10100000352E+00 0.  1.
       -3    1    3    3    0  502  0.28307769000E+03 -0.62377376256E+03 -0.16016603762E+04  0.17419938738E+04  0.10100000352E+00 0. -1.
</event>
<event>
 5   0  0.1928004E-07  0.3400076E+04  0.7818609E-02  0.8137888E-01
        2   -1    0    0  501    0  0.00000000000E+00  0.00000000000E+00  0.14696180242E+04  0.14696180242E+04  0.25500000920E-02 0.  1.
       -2   -1    0    0    0  501  0.00000000000E+00  0.00000000000E+00 -0.19665853537E+04  0.19665853538E+04  0.25500000920E-02 0. -1.
    10030    2    1    2    0    0  0.00000000000E+00  0.00000000000E+00 -0.49696732952E+03  0.34362033780E+04  0.34000760474E+04 0.  0.
        2    1    3    3  502    0  0.13741825757E+04  0.81171756936E+03 -0.84025307940E+03  0.18036874455E+04  0.25500000920E-02 0. -1.
       -2    1    3    3    0  502 -0.13741825757E+04 -0.81171756936E+03  0.34328574988E+03  0.16325159325E+04  0.25500000920E-02 0.  1.
</event>
<event>
 5   0  0.1970449E-07  0.3397825E+04  0.7818609E-02  0.8138440E-01
       -2   -1    0    0    0  501  0.00000000000E+00  0.00000000000E+00  0.13285974697E+04  0.13285974697E+04  0.25500000920E-02 0. -1.
        2   -1    0    0  501    0  0.00000000000E+00  0.00000000000E+00 -0.21724437104E+04  0.21724437104E+04  0.25500000920E-02 0.  1.
    10030    2    1    2    0    0  0.00000000000E+00  0.00000000000E+00 -0.84384624070E+03  0.35010411801E+04  0.33978247257E+04 0.  0.
        1    1    3    3  502    0  0.15310639264E+04 -0.47139524840E+03 -0.10047314617E+04  0.18909932674E+04  0.50400001928E-02 0.  1.
       -1    1    3    3    0  502 -0.15310639264E+04  0.47139524840E+03  0.16088522103E+03  0.16100479127E+04  0.50400001928E-02 0. -1.
</event>
<event>
 5   0  0.6311750E-08  0.3389210E+04  0.7818609E-02  0.8140560E-01
       -1   -1    0    0    0  501  0.00000000000E+00  0.00000000000E+00  0.13338873166E+04  0.13338873166E+04  0.50400001928E-02 0.  1.
        1   -1    0    0  501    0  0.00000000000E+00  0.00000000000E+00 -0.21528698695E+04  0.21528698695E+04  0.50400001928E-02 0. -1.
    10030    2    1    2    0    0  0.00000000000E+00  0.00000000000E+00 -0.81898255294E+03  0.34867571861E+04  0.33892098272E+04 0.  0.
        4    1    3    3  502    0 -0.16117694668E+04 -0.50511389372E+03 -0.55033799893E+03  0.17764611974E+04  0.12699999809E+01 0. -1.
       -4    1    3    3    0  502  0.16117694668E+04  0.50511389372E+03 -0.26864455401E+03  0.17102959887E+04  0.12699999809E+01 0.  1.
</event>
<event>
 5   0  0.1970449E-07  0.3403269E+04  0.7818609E-02  0.8137105E-01
        2   -1    0    0  501    0  0.00000000000E+00  0.00000000000E+00  0.21102890330E+04  0.21102890330E+04  0.25500000920E-02 0.  1.
       -2   -1    0    0    0  501  0.00000000000E+00  0.00000000000E+00 -0.13721151219E+04  0.13721151219E+04  0.25500000920E-02 0. -1.
    10030    2    1    2    0    0  0.00000000000E+00  0.00000000000E+00  0.73817391111E+03  0.34824041550E+04  0.34032687192E+04 0.  0.
        1    1    3    3  502    0 -0.10112897538E+02  0.14250305404E+04 -0.58245294884E+03  0.15395017861E+04  0.50400001928E-02 0. -1.
       -1    1    3    3    0  502  0.10112897538E+02 -0.14250305404E+04  0.13206268600E+04  0.19429023689E+04  0.50400001928E-02 0.  1.
</event>
<event>
 5   0  0.6788600E-08  0.3389246E+04  0.7818609E-02  0.8140551E-01
        1   -1    0    0  501    0  0.00000000000E+00  0.00000000000E+00  0.16441721943E+04  0.16441721943E+04  0.50400001928E-02 0.  1.
       -1   -1    0    0    0  501  0.00000000000E+00  0.00000000000E+00 -0.17466220873E+04  0.17466220873E+04  0.50400001928E-02 0. -1.
    10030    2    1    2    0    0  0.00000000000E+00  0.00000000000E+00 -0.10244989302E+03  0.33907942817E+04  0.33892462112E+04 0.  0.
        2    1    3    3  502    0  0.14325359608E+04  0.64860558303E+03  0.58064804196E+03  0.16763056494E+04  0.25500000920E-02 0.  1.
       -2    1    3    3    0  502 -0.14325359608E+04 -0.64860558303E+03 -0.68309793498E+03  0.17144886323E+04  0.25500000920E-02 0. -1.
</event>
<event>
 5   0  0.1963852E-07  0.3399140E+04  0.7818609E-02  0.8138117E-01
        2   -1    0    0  501    0  0.00000000000E+00  0.00000000000E+00  0.26906167176E+04  0.26906167176E+04  0.25500000920E-02 0. -1.
       -2   -1    0    0    0  501  0.00000000000E+00  0.00000000000E+00 -0.10735598390E+04  0.10735598390E+04  0.25500000920E-02 0.  1.
    10030    2    1    2    0    0  0.00000000000E+00  0.00000000000E+00  0.16170568786E+04  0.37641765566E+04  0.33991399207E+04 0.  0.
        4    1    3    3  502    0  0.16772265581E+04 -0.19711920746E+03  0.10203602692E+04  0.19730893545E+04  0.12699999809E+01 0.  1.
       -4    1    3    3    0  502 -0.16772265581E+04  0.19711920746E+03  0.59669660949E+03  0.17910872021E+04  0.12699999809E+01 0. -1.
</event>
<event>
 5   0  0.1897313E-07  0.3402218E+04  0.7818609E-02  0.8137362E-01
       -2   -1    0    0    0  501  0.00000000000E+00  0.00000000000E+00  0.11534705949E+04  0.11534705949E+04  0.25500000920E-02 0. -1.
        2   -1    0    0  501    0  0.00000000000E+00  0.00000000000E+00 -0.25087523345E+04  0.25087523345E+04  0.25500000920E-02 0.  1.
    10030    2    1    2    0    0  0.00000000000E+00  0.00000000000E+00 -0.13552817396E+04  0.36622229295E+04  0.34022181282E+04 0.  0.
        3    1    3    3  502    0 -0.37131653413E+03 -0.66987545339E+03  0.95737419005E+03  0.12260401468E+04  0.10100000352E+00 0. -1.
       -3    1    3    3    0  502  0.37131653413E+03  0.66987545339E+03 -0.23126559296E+04  0.24361827827E+04  0.10100000352E+00 0.  1.
</event>
<event>
 5   0  0.6788600E-08  0.3407359E+04  0.7818609E-02  0.8136103E-01
        1   -1    0    0  501    0  0.00000000000E+00  0.00000000000E+00  0.26082390240E+04  0.26082390240E+04  0.50400001928E-02 0. -1.
       -1   -1    0    0    0  501  0.00000000000E+00  0.00000000000E+00 -0.11128286299E+04  0.11128286299E+04  0.50400001928E-02 0.  1.
    10030    2    1    2    0    0  0.00000000000E+00  0.00000000000E+00  0.14954103941E+04  0.37210676540E+04  0.34073585427E+04 0.  0.
        2    1    3    3  502    0  0.13181853592E+04 -0.10160338130E+04  0.35005785003E+03  0.17007286229E+04  0.25500000920E-02 0.  1.
       -2    1    3    3    0  502 -0.13181853592E+04  0.10160338130E+04  0.11453525441E+04  0.20203390311E+04  0.25500000920E-02 0. -1.
</event>
<event>
 5   0  0.6311750E-08  0.3400258E+04  0.7818609E-02  0.8137843E-01
        1   -1    0    0  501    0  0.00000000000E+00  0.00000000000E+00  0.15086644395E+04  0.15086644395E+04  0.50400001928E-02 0.  1.
       -1   -1    0    0    0  501  0.00000000000E+00  0.00000000000E+00 -0.19158920394E+04  0.19158920394E+04  0.50400001928E-02 0. -1.
    10030    2    1    2    0    0  0.00000000000E+00  0.00000000000E+00 -0.40722759993E+03  0.34245564789E+04  0.34002577489E+04 0.  0.
        4    1    3    3  502    0  0.99569864063E+03 -0.12082225369E+04 -0.87108587447E+03  0.17916499924E+04  0.12699999809E+01 0. -1.
       -4    1    3    3    0  502 -0.99569864063E+03  0.12082225369E+04  0.46385827454E+03  0.16329064864E+04  0.12699999809E+01 0.  1.
</event>
<event>
 5   0  0.6367111E-08  0.3390870E+04  0.7818609E-02  0.8140151E-01
        1   -1    0    0  501    0  0.00000000000E+00  0.00000000000E+00  0.20786344512E+04  0.20786344512E+04  0.50400001928E-02 0. -1.
       -1   -1    0    0    0  501  0.00000000000E+00  0.00000000000E+00 -0.13828786033E+04  0.13828786033E+04  0.50400001928E-02 0.  1.
    10030    2    1    2    0    0  0.00000000000E+00  0.00000000000E+00  0.69575584788E+03  0.34615130545E+04  0.33908695680E+04 0.  0.
        3    1    3    3  502    0 -0.62536644185E+03 -0.14624389047E+04  0.94721093338E+03  0.18512210292E+04  0.10100000352E+00 0. -1.
       -3    1    3    3    0  502  0.62536644185E+03  0.14624389047E+04 -0.25145508550E+03  0.16102920253E+04  0.10100000352E+00 0.  1.
</event>
<event>
 5   0  0.6367111E-08  0.3400229E+04  0.7818609E-02  0.8137850E-01
       -1   -1    0    0    0  501  0.00000000000E+00  0.00000000000E+00  0.12848641173E+04  0.12848641173E+04  0.50400001928E-02 0.  1.
        1   -1    0    0  501    0  0.00000000000E+00  0.00000000000E+00 -0.22495674770E+04  0.22495674770E+04  0.50400001928E-02 0. -1.
    10030    2    1    2    0    0  0.00000000000E+00  0.00000000000E+00 -0.96470335970E+03  0.35344315942E+04  0.34002285397E+04 0.  0.
        3    1    3    3  502    0 -0.15328743111E+03 -0.16511547759E+04 -0.92614086187E+02  0.16608390981E+04  0.10100000352E+00 0.  1.
       -3    1    3    3    0  502  0.15328743111E+03  0.16511547759E+04 -0.87208927352E+03  0.18735924962E+04  0.10100000352E+00 0. -1.
</event>
<event>
 5   0  0.1970449E-07  0.3398289E+04  0.7818609E-02  0.8138326E-01
        2   -1    0    0  501    0  0.00000000000E+00  0.00000000000E+00  0.12857208225E+04  0.12857208225E+04  0.25500000920E-02 0. -1.
       -2   -1    0    0    0  501  0.00000000000E+00  0.00000000000E+00 -0.22455048011E+04  0.22455048011E+04  0.25500000920E-02 0.  1.
    10030    2    1    2    0    0  0.00000000000E+00  0.00000000000E+00 -0.95978397855E+03  0.35312256236E+04  0.33982891459E+04 0.  0.
        1    1    3    3  502    0 -0.26210879667E+02 -0.16410562106E+04 -0.22987155611E+02  0.16414264851E+04  0.50400001928E-02 0. -1.
       -1    1    3    3    0  502  0.26210879667E+02  0.16410562106E+04 -0.93679682294E+03  0.18897991385E+04  0.50400001928E-02 0.  1.
</event>
<event>
 5   0  0.1986613E-07  0.3332622E+04  0.7818609E-02  0.8154644E-01
        2   -1    0    0  501    0  0.00000000000E+00  0.00000000000E+00  0.19624520631E+04  0.19624520631E+04  0.25500000920E-02 0.  1.
       -2   -1    0    0    0  501  0.00000000000E+00  0.00000000000E+00 -0.14148585285E+04  0.14148585285E+04  0.25500000920E-02 0. -1.
    10030    2    1    2    0    0  0.00000000000E+00  0.00000000000E+00  0.54759353464E+03  0.33773105916E+04  0.33326218137E+04 0.  0.
        5    1    3    3  502    0  0.11235668275E+04  0.10797468579E+04 -0.32429881391E+03  0.15916807166E+04  0.46999998093E+01 0. -1.
       -5    1    3    3    0  502 -0.11235668275E+04 -0.10797468579E+04  0.87189234855E+03  0.17856298750E+04  0.46999998093E+01 0.  1.
</event>
<event>
 5   0  0.1928004E-07  0.3415227E+04  0.7818609E-02  0.8134179E-01
        2   -1    0    0  501    0  0.00000000000E+00  0.00000000000E+00  0.19115007939E+04  0.19115007939E+04  0.25500000920E-02 0. -1.
       -2   -1    0    0    0  501  0.00000000000E+00  0.00000000000E+00 -0.15254734555E+04  0.15254734555E+04  0.25500000920E-02 0.  1.
    10030    2    1    2    0    0  0.00000000000E+00  0.00000000000E+00  0.38602733838E+03  0.34369742494E+04  0.34152269156E+04 0.  0.
        2    1    3    3  502    0 -0.55928395503E+03  0.16112219061E+04  0.27786633722E+03  0.17280174404E+04  0.25500000920E-02 0. -1.
       -2    1    3    3    0  502  0.55928395503E+03 -0.16112219061E+04  0.10816100117E+03  0.17089568090E+04  0.25500000920E-02 0.  1.
</event>
<event>
 5   0  0.6584420E-08  0.3400540E+04  0.7818609E-02  0.8137774E-01
       -1   -1    0    0    0  501  0.00000000000E+00  0.00000000000E+00  0.27976890971E+04  0.27976890971E+04  0.50400001928E-02 0.  1.
        1   -1    0    0  501    0  0.00000000000E+00  0.00000000000E+00 -0.10333235457E+04  0.10333235457E+04  0.50400001928E-02 0. -1.
    10030    2    1    2    0    0  0.00000000000E+00  0.00000000000E+00  0.17643655515E+04  0.38310126428E+04  0.34005399675E+04 0.  0.
        1    1    3    3  502    0 -0.11428442299E+04 -0.12424679048E+04  0.65379168530E+03  0.18103212412E+04  0.50400001928E-02 0. -1.
       -1    1    3    3    0  502  0.11428442299E+04  0.12424679048E+04  0.11105738662E+04  0.20206914016E+04  0.50400001928E-02 0.  1.
</event>
<event>
 5   0  0.1928004E-07  0.3392570E+04  0.7818609E-02  0.8139732E-01
       -2   -1    0    0    0  501  0.00000000000E+00  0.00000000000E+00  0.13911330286E+04  0.13911330286E+04  0.25500000920E-02 0. -1.
        2   -1    0    0  501    0  0.00000000000E+00  0.00000000000E+00 -0.20683736993E+04  0.20683736993E+04  0.25500000920E-02 0.  1.
    10030    2    1    2    0    0  0.00000000000E+00  0.00000000000E+00 -0.67724067070E+03  0.34595067279E+04  0.33925700986E+04 0.  0.
        2    1    3    3  502    0  0.13440225283E+03 -0.59356582952E+03 -0.19532108473E+04  0.20458291653E+04  0.25500000920E-02 0.  1.
       -2    1    3    3    0  502 -0.13440225283E+03  0.59356582952E+03  0.12759701766E+04  0.14136775626E+04  0.25500000920E-02 0. -1.
</event>
<event>
 5   0  0.6584420E-08  0.3401471E+04  0.7818609E-02  0.8137545E-01
        1   -1    0    0  501    0  0.00000000000E+00  0.00000000000E+00  0.22285307689E+04  0.22285307689E+04  0.50400001928E-02 0.  1.
       -1   -1    0    0    0  501  0.00000000000E+00  0.00000000000E+00 -0.12979406302E+04  0.12979406302E+04  0.50400001928E-02 0. -1.
    10030    2    1    2    0    0  0.00000000000E+00  0.00000000000E+00  0.93059013875E+03  0.35264713991E+04  0.34014706411E+04 0.  0.
        1    1    3    3  502    0  0.81748621499E+03  0.14675012504E+04  0.18971282479E+03  0.16905131137E+04  0.50400001928E-02 0.  1.
       -1    1    3    3    0  502 -0.81748621499E+03 -0.14675012504E+04  0.74087731397E+03  0.18359582855E+04  0.50400001928E-02 0. -1.
</event>
<event>
 5   0  0.6341535E-08  0.3395451E+04  0.7818609E-02  0.8139024E-01
       -1   -1    0    0    0  501  0.00000000000E+00  0.00000000000E+00  0.13375954759E+04  0.13375954759E+04  0.50400001928E-02 0. -1.
        1   -1    0    0  501    0  0.00000000000E+00  0.00000000000E+00 -0.21548155194E+04  0.21548155194E+04  0.50400001928E-02 0.  1.
    10030    2    1    2    0    0  0.00000000000E+00  0.00000000000E+00 -0.81722004342E+03  0.34924109953E+04  0.33954507743E+04 0.  0.
        5    1    3    3  502    0  0.59313864510E+03 -0.36136750464E+03  0.11847719880E+04  0.13733559914E+04  0.46999998093E+01 0. -1.
       -5    1    3    3    0  502 -0.59313864510E+03  0.36136750464E+03 -0.20019920314E+04  0.21190550039E+04  0.46999998093E+01 0.  1.
</event>
<event>
 5   0  0.1963852E-07  0.3398462E+04  0.7818609E-02  0.8138284E-01
       -2   -1    0    0    0  501  0.00000000000E+00  0.00000000000E+00  0.13221113497E+04  0.13221113497E+04  0.25500000920E-02 0.  1.
        2   -1    0    0  501    0  0.00000000000E+00  0.00000000000E+00 -0.21839200168E+04  0.21839200168E+04  0.25500000920E-02 0. -1.
    10030    2    1    2    0    0  0.00000000000E+00  0.00000000000E+00 -0.86180866713E+03  0.35060313665E+04  0.33984616761E+04 0.  0.
        4    1    3    3  502    0 -0.91634410601E+03 -0.13566077104E+04 -0.90063239753E+03  0.18684783458E+04  0.12699999809E+01 0. -1.
       -4    1    3    3    0  502  0.91634410601E+03  0.13566077104E+04  0.38823730401E+02  0.16375530206E+04  0.12699999809E+01 0.  1.
</event>
<event>
 5   0  0.6367111E-08  0.3386761E+04  0.7818609E-02  0.8141163E-01
        1   -1    0    0  501    0  0.00000000000E+00  0.00000000000E+00  0.18185298850E+04  0.18185298850E+04  0.50400001928E-02 0.  1.
       -1   -1    0    0    0  501  0.00000000000E+00  0.00000000000E+00 -0.15768436969E+04  0.15768436969E+04  0.50400001928E-02 0. -1.
    10030    2    1    2    0    0  0.00000000000E+00  0.00000000000E+00  0.24168618811E+03  0.33953735819E+04  0.33867609226E+04 0.  0.
        3    1    3    3  502    0  0.15237080037E+03 -0.50465690897E+02 -0.15691999766E+04  0.15773877848E+04  0.10100000352E+00 0. -1.
       -3    1    3    3    0  502 -0.15237080037E+03  0.50465690897E+02  0.18108861647E+04  0.18179857971E+04  0.10100000352E+00 0.  1.
</event>
<event>
 5   0  0.6311750E-08  0.3392409E+04  0.7818609E-02  0.8139772E-01
        3   -1    0    0  501    0  0.00000000000E+00  0.00000000000E+00  0.17804510991E+04  0.17804511020E+04  0.10100000352E+00 0.  1.
       -3   -1    0    0    0  501  0.00000000000E+00  0.00000000000E+00 -0.16159441881E+04  0.16159441912E+04  0.10100000352E+00 0. -1.
    10030    2    1    2    0    0  0.00000000000E+00  0.00000000000E+00  0.16450691107E+03  0.33963952932E+04  0.33924089471E+04 0.  0.
        3    1    3    3  502    0  0.24436833353E+03  0.11746026063E+04  0.12827047255E+04  0.17563423893E+04  0.10100000352E+00 0.  1.
       -3    1    3    3    0  502 -0.24436833353E+03 -0.11746026063E+04 -0.11181978145E+04  0.16400529040E+04  0.10100000352E+00 0. -1.
</event>
<event>
 5   0  0.6584420E-08  0.3400864E+04  0.7818609E-02  0.8137694E-01
        1   -1    0    0  501    0  0.00000000000E+00  0.00000000000E+00  0.23603162928E+04  0.23603162928E+04  0.50400001928E-02 0. -1.
       -1   -1    0    0    0  501  0.00000000000E+00  0.00000000000E+00 -0.12250345876E+04  0.12250345876E+04  0.50400001928E-02 0.  1.
    10030    2    1    2    0    0  0.00000000000E+00  0.00000000000E+00  0.11352817052E+04  0.35853508804E+04  0.34008640645E+04 0.  0.
        1    1    3    3  502    0 -0.23750673640E+03  0.23500883635E+03 -0.11900866517E+04  0.12361006599E+04  0.50400001928E-02 0.  1.
       -1    1    3    3    0  502  0.23750673640E+03 -0.23500883635E+03  0.23253683569E+04  0.23492502205E+04  0.50400001928E-02 0. -1.
</event>
<event>
 5   0  0.6788600E-08  0.3400415E+04  0.7818609E-02  0.8137804E-01
       -1   -1    0    0    0  501  0.00000000000E+00  0.00000000000E+00  0.19017137752E+04  0.19017137753E+04  0.50400001928E-02 0. -1.
        1   -1    0    0  501    0  0.00000000000E+00  0.00000000000E+00 -0.15200531003E+04  0.15200531003E+04  0.50400001928E-02 0.  1.
    10030    2    1    2    0    0  0.00000000000E+00  0.00000000000E+00  0.38166067492E+03  0.34217668756E+04  0.34004152217E+04 0.  0.
        2    1    3    3  502    0 -0.20612423840E+03 -0.10403770328E+04  0.15280213418E+04  0.18600324710E+04  0.25500000920E-02 0. -1.
       -2    1    3    3    0  502  0.20612423840E+03  0.10403770328E+04 -0.11463606669E+04  0.15617344046E+04  0.25500000920E-02 0.  1.
</event>
<event>
 5   0  0.6311750E-08  0.3402165E+04  0.7818609E-02  0.8137375E-01
       -1   -1    0    0    0  501  0.00000000000E+00  0.00000000000E+00  0.12214483293E+04  0.12214483293E+04  0.50400001928E-02 0. -1.
        1   -1    0    0  501    0  0.00000000000E+00  0.00000000000E+00 -0.23690573681E+04  0.23690573681E+04  0.50400001928E-02 0.  1.
    10030    2    1    2    0    0  0.00000000000E+00  0.00000000000E+00 -0.11476090388E+04  0.35905056973E+04  0.34021647016E+04 0.  0.
        4    1    3    3  502    0 -0.12670718523E+04 -0.17630288774E+03 -0.17570903102E+04  0.21734584786E+04  0.12699999809E+01 0.  1.
       -4    1    3    3    0  502  0.12670718523E+04  0.17630288774E+03  0.60948127137E+03  0.14170472188E+04  0.12699999809E+01 0. -1.
</event>
<event>
 5   0  0.6341535E-08  0.3415045E+04  0.7818609E-02  0.8134224E-01
       -1   -1    0    0    0  501  0.00000000000E+00  0.00000000000E+00  0.14586857982E+04  0.14586857982E+04  0.50400001928E-02 0.  1.
        1   -1    0    0  501    0  0.00000000000E+00  0.00000000000E+00 -0.19988076229E+04  0.19988076229E+04  0.50400001928E-02 0. -1.
    10030    2    1    2    0    0  0.00000000000E+00  0.00000000000E+00 -0.54012182470E+03  0.34574934211E+04  0.34150445343E+04 0.  0.
        5    1    3    3  502    0 -0.11680496216E+04  0.30343511061E+03  0.95292658473E+03  0.15376943619E+04  0.46999998093E+01 0.  1.
       -5    1    3    3    0  502  0.11680496216E+04 -0.30343511061E+03 -0.14930484094E+04  0.19197990592E+04  0.46999998093E+01 0. -1.
</event>
<event>
 5   0  0.1970449E-07  0.3404804E+04  0.7818609E-02  0.8136728E-01
        2   -1    0    0  501    0  0.00000000000E+00  0.00000000000E+00  0.20191899372E+04  0.20191899372E+04  0.25500000920E-02 0.  1.
       -2   -1    0    0    0  501  0.00000000000E+00  0.00000000000E+00 -0.14353142706E+04  0.14353142706E+04  0.25500000920E-02 0. -1.
    10030    2    1    2    0    0  0.00000000000E+00  0.00000000000E+00  0.58387566659E+03  0.34545042079E+04  0.34048037430E+04 0.  0.
        1    1    3    3  502    0 -0.70206405774E+03  0.11945490624E+04 -0.71160633037E+03  0.15576344158E+04  0.50400001928E-02 0. -1.
       -1    1    3    3    0  502  0.70206405774E+03 -0.11945490624E+04  0.12954819970E+04  0.18968697921E+04  0.50400001928E-02 0.  1.
</event>
<event>
 5   0  0.6788600E-08  0.3400113E+04  0.7818609E-02  0.8137879E-01
        1   -1    0    0  501    0  0.00000000000E+00  0.00000000000E+00  0.20820930336E+04  0.20820930336E+04  0.50400001928E-02 0. -1.
       -1   -1    0    0    0  501  0.00000000000E+00  0.00000000000E+00 -0.13881185253E+04  0.13881185253E+04  0.50400001928E-02 0.  1.
    10030    2    1    2    0    0  0.00000000000E+00  0.00000000000E+00  0.69397450823E+03  0.34702115589E+04  0.34001128872E+04 0.  0.
        2    1    3    3  502    0 -0.59615423342E+03  0.84281903897E+03 -0.10315813184E+04  0.14594190004E+04  0.25500000920E-02 0.  1.
       -2    1    3    3    0  502  0.59615423342E+03 -0.84281903897E+03  0.17255558266E+04  0.20107925585E+04  0.25500000920E-02 0. -1.
</event>
<event>
 5   0  0.1897313E-07  0.3402106E+04  0.7818609E-02  0.8137390E-01
       -2   -1    0    0    0  501  0.00000000000E+00  0.00000000000E+00  0.22649815691E+04  0.22649815691E+04  0.25500000920E-02 0. -1.
        2   -1    0    0  501    0  0.00000000000E+00  0.00000000000E+00 -0.12775296468E+04  0.12775296468E+04  0.25500000920E-02 0.  1.
    10030    2    1    2    0    0  0.00000000000E+00  0.00000000000E+00  0.98745192237E+03  0.35425112159E+04  0.34021058796E+04 0.  0.
        3    1    3    3  502    0  0.90555110249E+03 -0.11728380250E+04  0.13636753773E+04  0.20137483401E+04  0.10100000352E+00 0. -1.
       -3    1    3    3    0  502 -0.90555110249E+03  0.11728380250E+04 -0.37622345497E+03  0.15287628758E+04  0.10100000352E+00 0.  1.
</event>
<event>
 5   0  0.6311750E-08  0.3405998E+04  0.7818609E-02  0.8136436E-01
        1   -1    0    0  501    0  0.00000000000E+00  0.00000000000E+00  0.12587746472E+04  0.12587746472E+04  0.50400001928E-02 0.  1.
       -1   -1    0    0    0  501  0.00000000000E+00  0.00000000000E+00 -0.23039910806E+04  0.23039910806E+04  0.50400001928E-02 0. -1.
    10030    2    1    2    0    0  0.00000000000E+00  0.00000000000E+00 -0.10452164334E+04  0.35627657279E+04  0.34059979799E+04 0.  0.
        4    1    3    3  502    0 -0.41734590294E+02  0.16085669261E+04  0.60709744873E+02  0.16102535880E+04  0.12699999809E+01 0.  1.
       -4    1    3    3    0  502  0.41734590294E+02 -0.16085669261E+04 -0.11059261783E+04  0.19525121399E+04  0.12699999809E+01 0. -1.
</event>
<event>
 5   0  0.1970449E-07  0.3412963E+04  0.7818609E-02  0.8134732E-01
       -2   -1    0    0    0  501  0.00000000000E+00  0.00000000000E+00  0.17574614746E+04  0.17574614746E+04  0.25500000920E-02 0.  1.
        2   -1    0    0  501    0  0.00000000000E+00  0.00000000000E+00 -0.16569802427E+04  0.16569802427E+04  0.25500000920E-02 0. -1.
    10030    2    1    2    0    0  0.00000000000E+00  0.00000000000E+00  0.10048123185E+03  0.34144417173E+04  0.34129629009E+04 0.  0.
        1    1    3    3  502    0 -0.13510619058E+04 -0.46952354943E+03 -0.88089264817E+03  0.16798191851E+04  0.50400001928E-02 0. -1.
       -1    1    3    3    0  502  0.13510619058E+04  0.46952354943E+03  0.98137388002E+03  0.17346225322E+04  0.50400001928E-02 0.  1.
</event>
<event>
 5   0  0.6367111E-08  0.3398345E+04  0.7818609E-02  0.8138313E-01
       -1   -1    0    0    0  501  0.00000000000E+00  0.00000000000E+00  0.19618600461E+04  0.19618600462E+04  0.50400001928E-02 0. -1.
        1   -1    0    0  501    0  0.00000000000E+00  0.00000000000E+00 -0.14716580906E+04  0.14716580906E+04  0.50400001928E-02 0.  1.
    10030    2    1    2    0    0  0.00000000000E+00  0.00000000000E+00  0.49020195552E+03  0.34335181368E+04  0.33983450146E+04 0.  0.
        3    1    3    3  502    0  0.25141308658E+03  0.15401491143E+04 -0.43410633523E+03  0.16197889230E+04  0.10100000352E+00 0. -1.
       -3    1    3    3    0  502 -0.25141308658E+03 -0.15401491143E+04  0.92430829075E+03  0.18137292138E+04  0.10100000352E+00 0.  1.
</event>
<event>
 5   0  0.1963852E-07  0.3412027E+04  0.7818609E-02  0.8134961E-01
        2   -1    0    0  501    0  0.00000000000E+00  0.00000000000E+00  0.19125720772E+04  0.19125720772E+04  0.25500000920E-02 0.  1.
       -2   -1    0    0    0  501  0.00000000000E+00  0.00000000000E+00 -0.15217635949E+04  0.15217635949E+04  0.25500000920E-02 0. -1.
    10030    2    1    2    0    0  0.00000000000E+00  0.00000000000E+00  0.39080848224E+03  0.34343356721E+04  0.34120272916E+04 0.  0.
        4    1    3    3  502    0 -0.35407816789E+03 -0.14732724068E+04  0.98448009531E+03  0.18069603218E+04  0.12699999809E+01 0.  1.
       -4    1    3    3    0  502  0.35407816789E+03  0.14732724068E+04 -0.59367161307E+03  0.16273753503E+04  0.12699999809E+01 0. -1.
</event>
<event>
 5   0  0.1928004E-07  0.3403496E+04  0.7818609E-02  0.8137049E-01
        2   -1    0    0  501    0  0.00000000000E+00  0.00000000000E+00  0.12043842822E+04  0.12043842822E+04  0.25500000920E-02 0.  1.
       -2   -1    0    0    0  501  0.00000000000E+00  0.00000000000E+00 -0.24045031377E+04  0.24045031377E+04  0.25500000920E-02 0. -1.
    10030    2    1    2    0    0  0.00000000000E+00  0.00000000000E+00 -0.12001188555E+04  0.36088874199E+04  0.34034957239E+04 0.  0.
        2    1    3    3  502    0 -0.14587126778E+03 -0.15910599422E+03 -0.23899283439E+04  0.23996563573E+04  0.25500000920E-02 0. -1.
       -2    1    3    3    0  502  0.14587126778E+03  0.15910599422E+03  0.11898094884E+04  0.12092310626E+04  0.25500000920E-02 0.  1.
</event>
<event>
 5   0  0.1986613E-07  0.3402492E+04  0.7818609E-02  0.8137295E-01
       -2   -1    0    0    0  501  0.00000000000E+00  0.00000000000E+00  0.12185454211E+04  0.12185454211E+04  0.25500000920E-02 0.  1.
        2   -1    0    0  501    0  0.00000000000E+00  0.00000000000E+00 -0.23751584093E+04  0.23751584093E+04  0.25500000920E-02 0. -1.
    10030    2    1    2    0    0  0.00000000000E+00  0.00000000000E+00 -0.11566129881E+04  0.35937038304E+04  0.34024922655E+04 0.  0.
        5    1    3    3  502    0  0.15783538469E+04  0.60525909201E+03 -0.37603190598E+03  0.17317509979E+04  0.46999998093E+01 0.  1.
       -5    1    3    3    0  502 -0.15783538469E+04 -0.60525909201E+03 -0.78058108216E+03  0.18619528325E+04  0.46999998093E+01 0. -1.
</event>
<event>
 5   0  0.1928004E-07  0.3404790E+04  0.7818609E-02  0.8136732E-01
        2   -1    0    0  501    0  0.00000000000E+00  0.00000000000E+00  0.18905445125E+04  0.18905445125E+04  0.25500000920E-02 0. -1.
       -2   -1    0    0    0  501  0.00000000000E+00  0.00000000000E+00 -0.15329705894E+04  0.15329705894E+04  0.25500000920E-02 0.  1.
    10030    2    1    2    0    0  0.00000000000E+00  0.00000000000E+00  0.35757392313E+03  0.34235151019E+04  0.34047902348E+04 0.  0.
        2    1    3    3  502    0 -0.26908196647E+03  0.16558006666E+04 -0.11275274921E+03  0.16813072696E+04  0.25500000920E-02 0.  1.
       -2    1    3    3    0  502  0.26908196647E+03 -0.16558006666E+04  0.47032667234E+03  0.17422078323E+04  0.25500000920E-02 0. -1.
</event>
<event>
 5   0  0.1897313E-07  0.3357448E+04  0.7818609E-02  0.8148430E-01
        2   -1    0    0  501    0  0.00000000000E+00  0.00000000000E+00  0.17760550684E+04  0.17760550684E+04  0.25500000920E-02 0. -1.
       -2   -1    0    0    0  501  0.00000000000E+00  0.00000000000E+00 -0.15867271882E+04  0.15867271882E+04  0.25500000920E-02 0.  1.
    10030    2    1    2    0    0  0.00000000000E+00  0.00000000000E+00  0.18932788020E+03  0.33627822566E+04  0.33574483553E+04 0.  0.
        3    1    3    3  502    0 -0.16379321507E+04 -0.55312674880E+02  0.45888107185E+03  0.17018969036E+04  0.10100000352E+00 0.  1.
       -3    1    3    3    0  502  0.16379321507E+04  0.55312674880E+02 -0.26955319166E+03  0.16608853529E+04  0.10100000352E+00 0. -1.
</event>
<event>
 5   0  0.1897313E-07  0.3403631E+04  0.7818609E-02  0.8137016E-01
       -2   -1    0    0    0  501  0.00000000000E+00  0.00000000000E+00  0.11865536064E+04  0.11865536064E+04  0.25500000920E-02 0. -1.
        2   -1    0    0  501    0  0.00000000000E+00  0.00000000000E+00 -0.24408297411E+04  0.24408297411E+04  0.25500000920E-02 0.  1.
    10030    2    1    2    0    0  0.00000000000E+00  0.00000000000E+00 -0.12542761346E+04  0.36273833475E+04  0.34036306098E+04 0.  0.
        3    1    3    3  502    0  0.75740306101E+03 -0.15233884901E+04 -0.67239666175E+03  0.18293411846E+04  0.10100000352E+00 0.  1.
       -3    1    3    3    0  502 -0.75740306101E+03  0.15233884901E+04 -0.58187947287E+03  0.17980421630E+04  0.10100000352E+00 0. -1.
</event>
<event>
 5   0  0.1928004E-07  0.3401051E+04  0.7818609E-02  0.8137648E-01
       -2   -1    0    0    0  501  0.00000000000E+00  0.00000000000E+00  0.11838022770E+04  0.11838022770E+04  0.25500000920E-02 0. -1.
        2   -1    0    0  501    0  0.00000000000E+00  0.00000000000E+00 -0.24427962056E+04  0.24427962056E+04  0.25500000920E-02 0.  1.
    10030    2    1    2    0    0  0.00000000000E+00  0.00000000000E+00 -0.12589939286E+04  0.36265984826E+04  0.34010514318E+04 0.  0.
        2    1    3    3  502    0 -0.15775626910E+04 -0.39982217380E+03 -0.10361148187E+03  0.16307351575E+04  0.25500000920E-02 0. -1.
       -2    1    3    3    0  502  0.15775626910E+04  0.39982217380E+03 -0.11553824467E+04  0.19958633252E+04  0.25500000920E-02 0.  1.
</event>
<event>
 5   0  0.1986613E-07  0.3401839E+04  0.7818609E-02  0.8137455E-01
        2   -1    0    0  501    0  0.00000000000E+00  0.00000000000E+00  0.14591068388E+04  0.14591068388E+04  0.25500000920E-02 0. -1.
       -2   -1    0    0    0  501  0.00000000000E+00  0.00000000000E+00 -0.19828067173E+04  0.19828067173E+04  0.25500000920E-02 0.  1.
    10030    2    1    2    0    0  0.00000000000E+00  0.00000000000E+00 -0.52369987854E+03  0.34419135561E+04  0.34018388211E+04 0.  0.
        5    1    3    3  502    0 -0.12789395206E+04  0.75835434253E+03  0.57390580070E+03  0.15937934509E+04  0.46999998093E+01 0. -1.
       -5    1    3    3    0  502  0.12789395206E+04 -0.75835434253E+03 -0.10976056792E+04  0.18481201052E+04  0.46999998093E+01 0.  1.
</event>
<event>
 5   0  0.1897313E-07  0.3394066E+04  0.7818609E-02  0.8139364E-01
       -2   -1    0    0    0  501  0.00000000000E+00  0.00000000000E+00  0.16503829217E+04  0.16503829217E+04  0.25500000920E-02 0. -1.
        2   -1    0    0  501    0  0.00000000000E+00  0.00000000000E+00 -0.17450019339E+04  0.17450019339E+04  0.25500000920E-02 0.  1.
    10030    2    1    2    0    0  0.00000000000E+00  0.00000000000E+00 -0.94619012205E+02  0.33953848557E+04  0.33940662281E+04 0.  0.
        3    1    3    3  502    0 -0.20123323256E+03  0.47941522230E+03  0.15687399067E+04  0.16526580634E+04  0.10100000352E+00 0. -1.
       -3    1    3    3    0  502  0.20123323256E+03 -0.47941522230E+03 -0.16633589189E+04  0.17427267923E+04  0.10100000352E+00 0.  1.
</event>
<event>
 5   0  0.6311750E-08  0.3399939E+04  0.7818609E-02  0.8137921E-01
       -1   -1    0    0    0  501  0.00000000000E+00  0.00000000000E+00  0.13032792993E+04  0.13032792993E+04  0.50400001928E-02 0.  1.
        1   -1    0    0  501    0  0.00000000000E+00  0.00000000000E+00 -0.22174042170E+04  0.22174042170E+04  0.50400001928E-02 0. -1.
    10030    2    1    2    0    0  0.00000000000E+00  0.00000000000E+00 -0.91412491766E+03  0.35206835163E+04  0.33999394196E+04 0.  0.
        4    1    3    3  502    0  0.63176154397E+03  0.76362826146E+03 -0.18872880526E+04  0.21316914825E+04  0.12699999809E+01 0. -1.
       -4    1    3    3    0  502 -0.63176154397E+03 -0.76362826146E+03  0.97316313489E+03  0.13889920339E+04  0.12699999809E+01 0.  1.
</event>
<event>
 5   0  0.1970449E-07  0.3404548E+04  0.7818609E-02  0.8136791E-01
       -2   -1    0    0    0  501  0.00000000000E+00  0.00000000000E+00  0.21221176335E+04  0.21221176335E+04  0.25500000920E-02 0.  1.
        2   -1    0    0  501    0  0.00000000000E+00  0.00000000000E+00 -0.13654932127E+04  0.13654932127E+04  0.25500000920E-02 0. -1.
    10030    2    1    2    0    0  0.00000000000E+00  0.00000000000E+00  0.75662442079E+03  0.34876108462E+04  0.34045482667E+04 0.  0.
        1    1    3    3  502    0  0.82352847201E+02  0.38484473797E+03 -0.13182490029E+04  0.13757426713E+04  0.50400001928E-02 0. -1.
       -1    1    3    3    0  502 -0.82352847201E+02 -0.38484473797E+03  0.20748734237E+04  0.21118681749E+04  0.50400001928E-02 0.  1.
</event>
<event>
 5   0  0.1928004E-07  0.3401733E+04  0.7818609E-02  0.8137481E-01
       -2   -1    0    0    0  501  0.00000000000E+00  0.00000000000E+00  0.14092836523E+04  0.14092836523E+04  0.25500000920E-02 0. -1.
        2   -1    0    0  501    0  0.00000000000E+00  0.00000000000E+00 -0.20527781969E+04  0.20527781969E+04  0.25500000920E-02 0.  1.
    10030    2    1    2    0    0  0.00000000000E+00  0.00000000000E+00 -0.64349454456E+03  0.34620618492E+04  0.34017329435E+04 0.  0.
        2    1    3    3  502    0  0.11926737734E+04 -0.67814064568E+03 -0.13448624570E+04  0.19211976716E+04  0.25500000920E-02 0.  1.
       -2    1    3    3    0  502 -0.11926737734E+04  0.67814064568E+03  0.70136791247E+03  0.15408641776E+04  0.25500000920E-02 0. -1.
</event>
<event>
 5   0  0.6788600E-08  0.3397865E+04  0.7818609E-02  0.8138430E-01
        1   -1    0    0  501    0  0.00000000000E+00  0.00000000000E+00  0.17407243204E+04  0.17407243204E+04  0.50400001928E-02 0. -1.
       -1   -1    0    0    0  501  0.00000000000E+00  0.00000000000E+00 -0.16581441263E+04  0.16581441263E+04  0.50400001928E-02 0.  1.
    10030    2    1    2    0    0  0.00000000000E+00  0.00000000000E+00  0.82580194168E+02  0.33988684467E+04  0.33978650988E+04 0.  0.
        2    1    3    3  502    0 -0.12919203222E+03  0.15113799276E+03 -0.16464658256E+04  0.16584278667E+04  0.25500000920E-02 0.  1.
       -2    1    3    3    0  502  0.12919203222E+03 -0.15113799276E+03  0.17290460198E+04  0.17404405800E+04  0.25500000920E-02 0. -1.
</event>
<event>
 5   0  0.1986613E-07  0.3395702E+04  0.7818609E-02  0.8138962E-01
       -2   -1    0    0    0  501  0.00000000000E+00  0.00000000000E+00  0.20989005532E+04  0.20989005532E+04  0.25500000920E-02 0.  1.
        2   -1    0    0  501    0  0.00000000000E+00  0.00000000000E+00 -0.13734327850E+04  0.13734327850E+04  0.25500000920E-02 0. -1.
    10030    2    1    2    0    0  0.00000000000E+00  0.00000000000E+00  0.72546776820E+03  0.34723333382E+04  0.33957024794E+04 0.  0.
        5    1    3    3  502    0 -0.12585695526E+02 -0.48930509354E+03 -0.12997156962E+04  0.13888343512E+04  0.46999998093E+01 0. -1.
       -5    1    3    3    0  502  0.12585695526E+02  0.48930509354E+03  0.20251834644E+04  0.20834989869E+04  0.46999998093E+01 0.  1.
</event>
<event>
 5   0  0.6367111E-08  0.3389972E+04  0.7818609E-02  0.8140372E-01
       -1   -1    0    0    0  501  0.00000000000E+00  0.00000000000E+00  0.10332882855E+04  0.10332882855E+04  0.50400001928E-02 0. -1.
        1   -1    0    0  501    0  0.00000000000E+00  0.00000000000E+00 -0.27804215259E+04  0.27804215259E+04  0.50400001928E-02 0.  1.
    10030    2    1    2    0    0  0.00000000000E+00  0.00000000000E+00 -0.17471332404E+04  0.38137098115E+04  0.33899716763E+04 0.  0.
        3    1    3    3  502    0  0.15569452641E+04  0.32096601662E+03 -0.15351945405E+04  0.22099592816E+04  0.10100000352E+00 0.  1.
       -3    1    3    3    0  502 -0.15569452641E+04 -0.32096601662E+03 -0.21193869995E+03  0.16037505298E+04  0.10100000352E+00 0. -1.
</event>
<event>
 5   0  0.6367111E-08  0.3400478E+04  0.7818609E-02  0.8137789E-01
        1   -1    0    0  501    0  0.00000000000E+00  0.00000000000E+00  0.15060058413E+04  0.15060058413E+04  0.50400001928E-02 0. -1.
       -1   -1    0    0    0  501  0.00000000000E+00  0.00000000000E+00 -0.19195229626E+04  0.19195229626E+04  0.50400001928E-02 0.  1.
    10030    2    1    2    0    0  0.00000000000E+00  0.00000000000E+00 -0.41351712135E+03  0.34255288039E+04  0.34004780806E+04 0.  0.
        3    1    3    3  502    0 -0.47762462702E+03 -0.13022481972E+04  0.78376384736E+03  0.15931922138E+04  0.10100000352E+00 0. -1.
       -3    1    3    3    0  502  0.47762462702E+03  0.13022481972E+04 -0.11972809687E+04  0.18323365902E+04  0.10100000352E+00 0.  1.
</event>
<event>
 5   0  0.6311750E-08  0.3398855E+04  0.7818609E-02  0.8138187E-01
       -1   -1    0    0    0  501  0.00000000000E+00  0.00000000000E+00  0.16784383322E+04  0.16784383322E+04  0.50400001928E-02 0. -1.
        1   -1    0    0  501    0  0.00000000000E+00  0.00000000000E+00 -0.17206792107E+04  0.17206792107E+04  0.50400001928E-02 0.  1.
    10030    2    1    2    0    0  0.00000000000E+00  0.00000000000E+00 -0.42240878542E+02  0.33991175430E+04  0.33988550688E+04 0.  0.
        4    1    3    3  502    0  0.51595145730E+03  0.12274346668E+04 -0.10772562354E+04  0.17126833849E+04  0.12699999809E+01 0.  1.
       -4    1    3    3    0  502 -0.51595145730E+03 -0.12274346668E+04  0.10350153568E+04  0.16864341580E+04  0.12699999809E+01 0. -1.
</event>
<event>
 5   0  0.1963852E-07  0.3398605E+04  0.7818609E-02  0.8138249E-01
       -2   -1    0    0    0  501  0.00000000000E+00  0.00000000000E+00  0.10904931630E+04  0.10904931630E+04  0.25500000920E-02 0.  1.
        2   -1    0    0  501    0  0.00000000000E+00  0.00000000000E+00 -0.26480031862E+04  0.26480031862E+04  0.25500000920E-02 0. -1.
    10030    2    1    2    0    0  0.00000000000E+00  0.00000000000E+00 -0.15575100232E+04  0.37384963493E+04  0.33986052259E+04 0.  0.
        4    1    3    3  502    0  0.10781850761E+04 -0.13015903120E+04 -0.97245456829E+03  0.19499461272E+04  0.12699999809E+01 0.  1.
       -4    1    3    3    0  502 -0.10781850761E+04  0.13015903120E+04 -0.58505545492E+03  0.17885502221E+04  0.12699999809E+01 0. -1.
</event>
<event>
 5   0  0.1928004E-07  0.3402998E+04  0.7818609E-02  0.8137171E-01
        2   -1    0    0  501    0  0.00000000000E+00  0.00000000000E+00  0.22920455807E+04  0.22920455807E+04  0.25500000920E-02 0. -1.
       -2   -1    0    0    0  501  0.00000000000E+00  0.00000000000E+00 -0.12631072527E+04  0.12631072527E+04  0.25500000920E-02 0.  1.
    10030    2    1    2    0    0  0.00000000000E+00  0.00000000000E+00  0.10289383280E+04  0.35551528333E+04  0.34029983229E+04 0.  0.
        2    1    3    3  502    0  0.15642322841E+04  0.56968385988E+03  0.14697839651E+03  0.16712166191E+04  0.25500000920E-02 0. -1.
       -2    1    3    3    0  502 -0.15642322841E+04 -0.56968385988E+03  0.88195993149E+03  0.18839362143E+04  0.25500000920E-02 0.  1.
</event>
<event>
 5   0  0.1963852E-07  0.3396335E+04  0.7818609E-02  0.8138806E-01
        2   -1    0    0  501    0  0.00000000000E+00  0.00000000000E+00  0.23967579811E+04  0.23967579811E+04  0.25500000920E-02 0. -1.
       -2   -1    0    0    0  501  0.00000000000E+00  0.00000000000E+00 -0.12031972195E+04  0.12031972195E+04  0.25500000920E-02 0.  1.
    10030    2    1    2    0    0  0.00000000000E+00  0.00000000000E+00  0.11935607616E+04  0.35999552006E+04  0.33963348119E+04 0.  0.
        4    1    3    3  502    0  0.57351700933E+03  0.14628569012E+03 -0.10903270548E+04  0.12406191851E+04  0.12699999809E+01 0.  1.
       -4    1    3    3    0  502 -0.57351700933E+03 -0.14628569012E+03  0.22838878164E+04  0.23593360155E+04  0.12699999809E+01 0. -1.
</event>
<event>
 5   0  0.1970449E-07  0.3358145E+04  0.7818609E-02  0.8148256E-01
        2   -1    0    0  501    0  0.00000000000E+00  0.00000000000E+00  0.20549167090E+04  0.20549167090E+04  0.25500000920E-02 0.  1.
       -2   -1    0    0    0  501  0.00000000000E+00  0.00000000000E+00 -0.13719703919E+04  0.13719703919E+04  0.25500000920E-02 0. -1.
    10030    2    1    2    0    0  0.00000000000E+00  0.00000000000E+00  0.68294631711E+03  0.34268871010E+04  0.33581452516E+04 0.  0.
        1    1    3    3  502    0  0.15043432790E+04  0.55496642220E+03  0.84991770592E+03  0.18147717591E+04  0.50400001928E-02 0. -1.
       -1    1    3    3    0  502 -0.15043432790E+04 -0.55496642220E+03 -0.16697138881E+03  0.16121153419E+04  0.50400001928E-02 0.  1.
</event>
<event>
 5   0  0.1897313E-07  0.3383914E+04  0.7818609E-02  0.8141866E-01
       -2   -1    0    0    0  501  0.00000000000E+00  0.00000000000E+00  0.16846399606E+04  0.16846399606E+04  0.25500000920E-02 0.  1.
        2   -1    0    0  501    0  0.00000000000E+00  0.00000000000E+00 -0.16993057315E+04  0.16993057315E+04  0.25500000920E-02 0. -1.
    10030    2    1    2    0    0  0.00000000000E+00  0.00000000000E+00 -0.14665770920E+02  0.33839456921E+04  0.33839139118E+04 0.  0.
        3    1    3    3  502    0  0.15701555269E+04 -0.60829672964E+03 -0.17257680645E+03  0.16926890010E+04  0.10100000352E+00 0.  1.
       -3    1    3    3    0  502 -0.15701555269E+04  0.60829672964E+03  0.15791103553E+03  0.16912566911E+04  0.10100000352E+00 0. -1.
</event>
<event>
 5   0  0.6584420E-08  0.3400210E+04  0.7818609E-02  0.8137855E-01
       -1   -1    0    0    0  501  0.00000000000E+00  0.00000000000E+00  0.24291871250E+04  0.24291871250E+04  0.50400001928E-02 0. -1.
        1   -1    0    0  501    0  0.00000000000E+00  0.00000000000E+00 -0.11898455504E+04  0.11898455504E+04  0.50400001928E-02 0.  1.
    10030    2    1    2    0    0  0.00000000000E+00  0.00000000000E+00  0.12393415747E+04  0.36190326754E+04  0.34002102827E+04 0.  0.
        1    1    3    3  502    0 -0.16930103885E+04  0.15394869371E+03  0.59911147623E+03  0.18024757798E+04  0.50400001928E-02 0. -1.
       -1    1    3    3    0  502  0.16930103885E+04 -0.15394869371E+03  0.64023009842E+03  0.18165568956E+04  0.50400001928E-02 0.  1.
</event>
<event>
 5   0  0.1928004E-07  0.3402533E+04  0.7818609E-02  0.8137285E-01
       -2   -1    0    0    0  501  0.00000000000E+00  0.00000000000E+00  0.21989046735E+04  0.21989046735E+04  0.25500000920E-02 0. -1.
        2   -1    0    0  501    0  0.00000000000E+00  0.00000000000E+00 -0.13162499755E+04  0.13162499755E+04  0.25500000920E-02 0.  1.
    10030    2    1    2    0    0  0.00000000000E+00  0.00000000000E+00  0.88265469805E+03  0.35151546490E+04  0.34025333048E+04 0.  0.
        2    1    3    3  502    0 -0.10009162433E+04 -0.12656159273E+04  0.99833095880E+03  0.18974408304E+04  0.25500000920E-02 0. -1.
       -2    1    3    3    0  502  0.10009162433E+04  0.12656159273E+04 -0.11567626075E+03  0.16177138186E+04  0.25500000920E-02 0.  1.
</event>
<event>
 5   0  0.6788600E-08  0.3411617E+04  0.7818609E-02  0.8135061E-01
       -1   -1    0    0    0  501  0.00000000000E+00  0.00000000000E+00  0.14503146220E+04  0.14503146220E+04  0.50400001928E-02 0.  1.
        1   -1    0    0  501    0  0.00000000000E+00  0.00000000000E+00 -0.20063114493E+04  0.20063114493E+04  0.50400001928E-02 0. -1.
    10030    2    1    2    0    0  0.00000000000E+00  0.00000000000E+00 -0.55599682733E+03  0.34566260713E+04  0.34116171129E+04 0.  0.
        2    1    3    3  502    0 -0.92706858554E+03  0.41844297982E+02 -0.17281657806E+04  0.19615718373E+04  0.25500000920E-02 0. -1.
       -2    1    3    3    0  502  0.92706858554E+03 -0.41844297982E+02  0.11721689533E+04  0.14950542340E+04  0.25500000920E-02 0.  1.
</event>
<event>
 5   0  0.1928004E-07  0.3410874E+04  0.7818609E-02  0.8135243E-01
       -2   -1    0    0    0  501  0.00000000000E+00  0.00000000000E+00  0.20407063097E+04  0.20407063097E+04  0.25500000920E-02 0. -1.
        2   -1    0    0  501    0  0.00000000000E+00  0.00000000000E+00 -0.14252490535E+04  0.14252490535E+04  0.25500000920E-02 0.  1.
    10030    2    1    2    0    0  0.00000000000E+00  0.00000000000E+00  0.61545725622E+03  0.34659553632E+04  0.34108736338E+04 0.  0.
        2    1    3    3  502    0 -0.14103736065E+03  0.15203881787E+04 -0.46417204274E+03  0.15959095953E+04  0.25500000920E-02 0. -1.
       -2    1    3    3    0  502  0.14103736065E+03 -0.15203881787E+04  0.10796292990E+04  0.18700457679E+04  0.25500000920E-02 0.  1.
</event>
<event>
 5   0  0.1963852E-07  0.3394533E+04  0.7818609E-02  0.8139249E-01
        2   -1    0    0  501    0  0.00000000000E+00  0.00000000000E+00  0.17502964504E+04  0.17502964504E+04  0.25500000920E-02 0. -1.
       -2   -1    0    0    0  501  0.00000000000E+00  0.00000000000E+00 -0.16458428942E+04  0.16458428942E+04  0.25500000920E-02 0.  1.
    10030    2    1    2    0    0  0.00000000000E+00  0.00000000000E+00  0.10445355622E+03  0.33961393446E+04  0.33945326486E+04 0.  0.
        4    1    3    3  502    0 -0.26268658774E+03  0.30761549630E+03 -0.15969101247E+04  0.16473478978E+04  0.12699999809E+01 0.  1.
       -4    1    3    3    0  502  0.26268658774E+03 -0.30761549630E+03  0.17013636809E+04  0.17487914469E+04  0.12699999809E+01 0. -1.
</event>
<event>
 5   0  0.6584420E-08  0.3407530E+04  0.7818609E-02  0.8136061E-01
        1   -1    0    0  501    0  0.00000000000E+00  0.00000000000E+00  0.21025572062E+04  0.21025572062E+04  0.50400001928E-02 0. -1.
       -1   -1    0    0    0  501  0.00000000000E+00  0.00000000000E+00 -0.13806114296E+04  0.13806114296E+04  0.50400001928E-02 0.  1.
    10030    2    1    2    0    0  0.00000000000E+00  0.00000000000E+00  0.72194577656E+03  0.34831686358E+04  0.34075296097E+04 0.  0.
        1    1    3    3  502    0  0.99841877450E+03  0.86487276720E+03  0.14609494564E+04  0.19695731180E+04  0.50400001928E-02 0. -1.
       -1    1    3    3    0  502 -0.99841877450E+03 -0.86487276720E+03 -0.73900367989E+03  0.15135955178E+04  0.50400001928E-02 0.  1.
</event>
<event>
 5   0  0.6367111E-08  0.3393905E+04  0.7818609E-02  0.8139404E-01
        1   -1    0    0  501    0  0.00000000000E+00  0.00000000000E+00  0.21275870982E+04  0.21275870982E+04  0.50400001928E-02 0.  1.
       -1   -1    0    0    0  501  0.00000000000E+00  0.00000000000E+00 -0.13534806642E+04  0.13534806642E+04  0.50400001928E-02 0. -1.
    10030    2    1    2    0    0  0.00000000000E+00  0.00000000000E+00  0.77410643397E+03  0.34810677624E+04  0.33939051247E+04 0.  0.
        3    1    3    3  502    0  0.64265746465E+03 -0.55782859996E+03 -0.11188027391E+04  0.14056674368E+04  0.10100000352E+00 0. -1.
       -3    1    3    3    0  502 -0.64265746465E+03  0.55782859996E+03  0.18929091731E+04  0.20754003256E+04  0.10100000352E+00 0.  1.
</event>
<event>
 5   0  0.1897313E-07  0.3399979E+04  0.7818609E-02  0.8137911E-01
       -2   -1    0    0    0  501  0.00000000000E+00  0.00000000000E+00  0.14261621766E+04  0.14261621766E+04  0.25500000920E-02 0.  1.
        2   -1    0    0  501    0  0.00000000000E+00  0.00000000000E+00 -0.20263925679E+04  0.20263925679E+04  0.25500000920E-02 0. -1.
    10030    2    1    2    0    0  0.00000000000E+00  0.00000000000E+00 -0.60023039131E+03  0.34525547445E+04  0.33999790795E+04 0.  0.
        3    1    3    3  502    0  0.74772835312E+03 -0.12633577569E+04  0.57034136685E+03  0.15749475537E+04  0.10100000352E+00 0.  1.
       -3    1    3    3    0  502 -0.74772835312E+03  0.12633577569E+04 -0.11705717582E+04  0.18776071908E+04  0.10100000352E+00 0. -1.
</event>
<event>
 5   0  0.6341535E-08  0.3393503E+04  0.7818609E-02  0.8139503E-01
        1   -1    0    0  501    0  0.00000000000E+00  0.00000000000E+00  0.16163428588E+04  0.16163428588E+04  0.50400001928E-02 0. -1.
       -1   -1    0    0    0  501  0.00000000000E+00  0.00000000000E+00 -0.17811602163E+04  0.17811602163E+04  0.50400001928E-02 0.  1.
    10030    2    1    2    0    0  0.00000000000E+00  0.00000000000E+00 -0.16481735754E+03  0.33975030751E+04  0.33935029666E+04 0.  0.
        5    1    3    3  502    0  0.36851160263E+02  0.83485107870E+03  0.13960205594E+04  0.16270309843E+04  0.46999998093E+01 0. -1.
       -5    1    3    3    0  502 -0.36851160263E+02 -0.83485107870E+03 -0.15608379169E+04  0.17704720908E+04  0.46999998093E+01 0.  1.
</event>
<event>
 5   0  0.6311750E-08  0.3377516E+04  0.7818609E-02  0.8143447E-01
        1   -1    0    0  501    0  0.00000000000E+00  0.00000000000E+00  0.16190836836E+04  0.16190836836E+04  0.50400001928E-02 0.  1.
       -1   -1    0    0    0  501  0.00000000000E+00  0.00000000000E+00 -0.17614305424E+04  0.17614305424E+04  0.50400001928E-02 0. -1.
    10030    2    1    2    0    0  0.00000000000E+00  0.00000000000E+00 -0.14234685882E+03  0.33805142260E+04  0.33775159221E+04 0.  0.
        4    1    3    3  502    0 -0.13268278498E+04  0.78484707698E+03  0.61896370451E+03  0.16611967847E+04  0.12699999809E+01 0.  1.
       -4    1    3    3    0  502  0.13268278498E+04 -0.78484707698E+03 -0.76131056333E+03  0.17193174413E+04  0.12699999809E+01 0. -1.
</event>
<event>
 5   0  0.1963852E-07  0.3403887E+04  0.7818609E-02  0.8136953E-01
        2   -1    0    0  501    0  0.00000000000E+00  0.00000000000E+00  0.17195832745E+04  0.17195832745E+04  0.25500000920E-02 0.  1.
       -2   -1    0    0    0  501  0.00000000000E+00  0.00000000000E+00 -0.16844847512E+04  0.16844847512E+04  0.25500000920E-02 0. -1.
    10030    2    1    2    0    0  0.00000000000E+00  0.00000000000E+00  0.35098523353E+02  0.34040680257E+04  0.34038870747E+04 0.  0.
        4    1    3    3  502    0  0.10502548153E+04  0.12675896632E+04 -0.41466748986E+03  0.16975775303E+04  0.12699999809E+01 0. -1.
       -4    1    3    3    0  502 -0.10502548153E+04 -0.12675896632E+04  0.44976601321E+03  0.17064904954E+04  0.12699999809E+01 0.  1.
</event>
<event>
 5   0  0.1970449E-07  0.3400085E+04  0.7818609E-02  0.8137885E-01
       -2   -1    0    0    0  501  0.00000000000E+00  0.00000000000E+00  0.10821598297E+04  0.10821598297E+04  0.25500000920E-02 0.  1.
        2   -1    0    0  501    0  0.00000000000E+00  0.00000000000E+00 -0.26707188508E+04  0.26707188508E+04  0.25500000920E-02 0. -1.
    10030    2    1    2    0    0  0.00000000000E+00  0.00000000000E+00 -0.15885590211E+04  0.37528786805E+04  0.34000850912E+04 0.  0.
        1    1    3    3  502    0  0.13631930919E+04  0.97776884117E+03 -0.10981993305E+04  0.20050858042E+04  0.50400001928E-02 0.  1.
       -1    1    3    3    0  502 -0.13631930919E+04 -0.97776884117E+03 -0.49035969059E+03  0.17477928764E+04  0.50400001928E-02 0. -1.
</event>
<event>
 5   0  0.6788600E-08  0.3401484E+04  0.7818609E-02  0.8137542E-01
        1   -1    0    0  501    0  0.00000000000E+00  0.00000000000E+00  0.24149326403E+04  0.24149326403E+04  0.50400001928E-02 0. -1.
       -1   -1    0    0    0  501  0.00000000000E+00  0.00000000000E+00 -0.11977654316E+04  0.11977654316E+04  0.50400001928E-02 0.  1.
    10030    2    1    2    0    0  0.00000000000E+00  0.00000000000E+00  0.12171672087E+04  0.36126980719E+04  0.34014836975E+04 0.  0.
        2    1    3    3  502    0 -0.35006856730E+03 -0.42786567195E+03 -0.10996748581E+04  0.12308134824E+04  0.25500000920E-02 0.  1.
       -2    1    3    3    0  502  0.35006856730E+03  0.42786567195E+03  0.23168420668E+04  0.23818845895E+04  0.25500000920E-02 0. -1.
</event>
<event>
 5   0  0.1928004E-07  0.3389567E+04  0.7818609E-02  0.8140472E-01
       -2   -1    0    0    0  501  0.00000000000E+00  0.00000000000E+00  0.13741129783E+04  0.13741129783E+04  0.25500000920E-02 0.  1.
        2   -1    0    0  501    0  0.00000000000E+00  0.00000000000E+00 -0.20902872659E+04  0.20902872659E+04  0.25500000920E-02 0. -1.
    10030    2    1    2    0    0  0.00000000000E+00  0.00000000000E+00 -0.71617428760E+03  0.34644002442E+04  0.33895668516E+04 0.  0.
        2    1    3    3  502    0 -0.79334295968E+03  0.10156755553E+04 -0.14829767141E+04  0.19647416675E+04  0.25500000920E-02 0. -1.
       -2    1    3    3    0  502  0.79334295968E+03 -0.10156755553E+04  0.76680242652E+03  0.14996585767E+04  0.25500000920E-02 0.  1.
</event>
<event>
 5   0  0.1970449E-07  0.3388247E+04  0.7818609E-02  0.8140797E-01
       -2   -1    0    0    0  501  0.00000000000E+00  0.00000000000E+00  0.17395782470E+04  0.17395782470E+04  0.25500000920E-02 0.  1.
        2   -1    0    0  501    0  0.00000000000E+00  0.00000000000E+00 -0.16498560589E+04  0.16498560589E+04  0.25500000920E-02 0. -1.
    10030    2    1    2    0    0  0.00000000000E+00  0.00000000000E+00  0.89722188132E+02  0.33894343059E+04  0.33882465735E+04 0.  0.
        1    1    3    3  502    0 -0.44353927997E+03  0.52917064747E+03  0.15924344394E+04  0.17356831828E+04  0.50400001928E-02 0.  1.
       -1    1    3    3    0  502  0.44353927997E+03 -0.52917064747E+03 -0.15027122513E+04  0.16537511231E+04  0.50400001928E-02 0. -1.
</event>
<event>
 5   0  0.1897313E-07  0.3424569E+04  0.7818609E-02  0.8131903E-01
        2   -1    0    0  501    0  0.00000000000E+00  0.00000000000E+00  0.14417880004E+04  0.14417880004E+04  0.25500000920E-02 0. -1.
       -2   -1    0    0    0  501  0.00000000000E+00  0.00000000000E+00 -0.20335292363E+04  0.20335292363E+04  0.25500000920E-02 0.  1.
    10030    2    1    2    0    0  0.00000000000E+00  0.00000000000E+00 -0.59174123596E+03  0.34753172367E+04  0.34245689079E+04 0.  0.
        3    1    3    3  502    0 -0.94403213437E+03 -0.11009431450E+03 -0.17412665268E+04  0.19837657514E+04  0.10100000352E+00 0.  1.
       -3    1    3    3    0  502  0.94403213437E+03  0.11009431450E+03  0.11495252908E+04  0.14915514853E+04  0.10100000352E+00 0. -1.
</event>
<event>
 5   0  0.1928004E-07  0.3390501E+04  0.7818609E-02  0.8140242E-01
       -2   -1    0    0    0  501  0.00000000000E+00  0.00000000000E+00  0.13680672050E+04  0.13680672050E+04  0.25500000920E-02 0. -1.
        2   -1    0    0  501    0  0.00000000000E+00  0.00000000000E+00 -0.21006819325E+04  0.21006819325E+04  0.25500000920E-02 0.  1.
    10030    2    1    2    0    0  0.00000000000E+00  0.00000000000E+00 -0.73261472744E+03  0.34687491375E+04  0.33905008834E+04 0.  0.
        2    1    3    3  502    0 -0.11839780252E+04  0.89833715191E+03  0.46802596775E+03  0.15581597830E+04  0.25500000920E-02 0. -1.
       -2    1    3    3    0  502  0.11839780252E+04 -0.89833715191E+03 -0.12006406952E+04  0.19105893545E+04  0.25500000920E-02 0.  1.
</event>
<event>
 5   0  0.6341535E-08  0.3398852E+04  0.7818609E-02  0.8138188E-01
       -1   -1    0    0    0  501  0.00000000000E+00  0.00000000000E+00  0.11414395842E+04  0.11414395842E+04  0.50400001928E-02 0. -1.
        1   -1    0    0  501    0  0.00000000000E+00  0.00000000000E+00 -0.25301811089E+04  0.25301811089E+04  0.50400001928E-02 0.  1.
    10030    2    1    2    0    0  0.00000000000E+00  0.00000000000E+00 -0.13887415248E+04  0.36716206931E+04  0.33988520844E+04 0.  0.
        5    1    3    3  502    0  0.15877930614E+04 -0.59032106104E+03 -0.54759531472E+03  0.17802944924E+04  0.46999998093E+01 0.  1.
       -5    1    3    3    0  502 -0.15877930614E+04  0.59032106104E+03 -0.84114621004E+03  0.18913262007E+04  0.46999998093E+01 0. -1.
</event>
<event>
 5   0  0.1963852E-07  0.3397235E+04  0.7818609E-02  0.8138585E-01
        2   -1    0    0  501    0  0.00000000000E+00  0.00000000000E+00  0.20224083091E+04  0.20224083091E+04  0.25500000920E-02 0. -1.
       -2   -1    0    0    0  501  0.00000000000E+00  0.00000000000E+00 -0.14266663275E+04  0.14266663275E+04  0.25500000920E-02 0.  1.
    10030    2    1    2    0    0  0.00000000000E+00  0.00000000000E+00  0.59574198158E+03  0.34490746366E+04  0.33972352495E+04 0.  0.
        4    1    3    3  502    0  0.11053021323E+04 -0.89138260907E+03  0.12443216306E+04  0.18880131601E+04  0.12699999809E+01 0. -1.
       -4    1    3    3    0  502 -0.11053021323E+04  0.89138260907E+03 -0.64857964898E+03  0.15610614765E+04  0.12699999809E+01 0.  1.
</event>
<event>
 5   0  0.6367111E-08  0.3402765E+04  0.7818609E-02  0.8137228E-01
       -1   -1    0    0    0  501  0.00000000000E+00  0.00000000000E+00  0.18459356092E+04  0.18459356092E+04  0.50400001928E-02 0. -1.
        1   -1    0    0  501    0  0.00000000000E+00  0.00000000000E+00 -0.15681495406E+04  0.15681495406E+04  0.50400001928E-02 0.  1.
    10030    2    1    2    0    0  0.00000000000E+00  0.00000000000E+00  0.27778606860E+03  0.34140851498E+04  0.34027653916E+04 0.  0.
        3    1    3    3  502    0 -0.10712682065E+04 -0.13029025002E+03 -0.11808198117E+04  0.15996645140E+04  0.10100000352E+00 0.  1.
       -3    1    3    3    0  502  0.10712682065E+04  0.13029025002E+03  0.14586058803E+04  0.18144206358E+04  0.10100000352E+00 0. -1.
</event>
<event>
 5   0  0.6367111E-08  0.3398767E+04  0.7818609E-02  0.8138209E-01
       -1   -1    0    0    0  501  0.00000000000E+00  0.00000000000E+00  0.11545356188E+04  0.11545356189E+04  0.50400001928E-02 0. -1.
        1   -1    0    0  501    0  0.00000000000E+00  0.00000000000E+00 -0.25013561720E+04  0.25013561720E+04  0.50400001928E-02 0.  1.
    10030    2    1    2    0    0  0.00000000000E+00  0.00000000000E+00 -0.13468205531E+04  0.36558917908E+04  0.33987673036E+04 0.  0.
        3    1    3    3  502    0  0.23191321439E+03  0.62024162978E+03 -0.23568735730E+04  0.24481291770E+04  0.10100000352E+00 0.  1.
       -3    1    3    3    0  502 -0.23191321439E+03 -0.62024162978E+03  0.10100530198E+04  0.12077626138E+04  0.10100000352E+00 0. -1.
</event>
<event>
 5   0  0.1897313E-07  0.3402149E+04  0.7818609E-02  0.8137379E-01
        2   -1    0    0  501    0  0.00000000000E+00  0.00000000000E+00  0.19908559017E+04  0.19908559017E+04  0.25500000920E-02 0.  1.
       -2   -1    0    0    0  501  0.00000000000E+00  0.00000000000E+00 -0.14534725651E+04  0.14534725651E+04  0.25500000920E-02 0. -1.
    10030    2    1    2    0    0  0.00000000000E+00  0.00000000000E+00  0.53738333662E+03  0.34443284668E+04  0.34021489880E+04 0.  0.
        3    1    3    3  502    0 -0.41607197827E+03  0.11191328764E+04  0.14953570643E+04  0.19135482868E+04  0.10100000352E+00 0.  1.
       -3    1    3    3    0  502  0.41607197827E+03 -0.11191328764E+04 -0.95797372770E+03  0.15307801799E+04  0.10100000352E+00 0. -1.
</event>
<event>
 5   0  0.6311750E-08  0.3442889E+04  0.7818609E-02  0.8127459E-01
        3   -1    0    0  501    0  0.00000000000E+00  0.00000000000E+00  0.25475620136E+04  0.25475620156E+04  0.10100000352E+00 0.  1.
       -3   -1    0    0    0  501  0.00000000000E+00  0.00000000000E+00 -0.11632187618E+04  0.11632187661E+04  0.10100000352E+00 0. -1.
    10030    2    1    2    0    0  0.00000000000E+00  0.00000000000E+00  0.13843432518E+04  0.37107807818E+04  0.34428894509E+04 0.  0.
        1    1    3    3  502    0  0.13840170269E+04 -0.16424355521E+03  0.17811827231E+04  0.22616566869E+04  0.50400001928E-02 0.  1.
       -1    1    3    3    0  502 -0.13840170269E+04  0.16424355521E+03 -0.39683947129E+03  0.14491240948E+04  0.50400001928E-02 0. -1.
</event>
<event>
 5   0  0.6367111E-08  0.3406163E+04  0.7818609E-02  0.8136395E-01
        1   -1    0    0  501    0  0.00000000000E+00  0.00000000000E+00  0.19820648672E+04  0.19820648672E+04  0.50400001928E-02 0.  1.
       -1   -1    0    0    0  501  0.00000000000E+00  0.00000000000E+00 -0.14633657550E+04  0.14633657550E+04  0.50400001928E-02 0. -1.
    10030    2    1    2    0    0  0.00000000000E+00  0.00000000000E+00  0.51869911213E+03  0.34454306222E+04  0.34061625627E+04 0.  0.
        3    1    3    3  502    0 -0.34745724520E+03 -0.14030720159E+04 -0.65167115057E+03  0.15855639116E+04  0.10100000352E+00 0. -1.
       -3    1    3    3    0  502  0.34745724520E+03  0.14030720159E+04  0.11703702627E+04  0.18598667106E+04  0.10100000352E+00 0.  1.
</event>
<event>
 5   0  0.6311750E-08  0.3503439E+04  0.7818609E-02  0.8112976E-01
        1   -1    0    0  501    0  0.00000000000E+00  0.00000000000E+00  0.13398014475E+04  0.13398014475E+04  0.50400001928E-02 0. -1.
       -1   -1    0    0    0  501  0.00000000000E+00  0.00000000000E+00 -0.22902799348E+04  0.22902799348E+04  0.50400001928E-02 0.  1.
    10030    2    1    2    0    0  0.00000000000E+00  0.00000000000E+00 -0.95047848731E+03  0.36300813824E+04  0.35034385235E+04 0.  0.
        4    1    3    3  502    0 -0.25307900639E+03  0.15227474891E+04 -0.13332486669E+04  0.20396966735E+04  0.12699999809E+01 0.  1.
       -4    1    3    3    0  502  0.25307900639E+03 -0.15227474891E+04  0.38277017956E+03  0.15903847089E+04  0.12699999809E+01 0. -1.
</event>
<event>
 5   0  0.6341535E-08  0.3400854E+04  0.7818609E-02  0.8137697E-01
        1   -1    0    0  501    0  0.00000000000E+00  0.00000000000E+00  0.12568421514E+04  0.12568421514E+04  0.50400001928E-02 0. -1.
       -1   -1    0    0    0  501  0.00000000000E+00  0.00000000000E+00 -0.23005683355E+04  0.23005683355E+04  0.50400001928E-02 0.  1.
    10030    2    1    2    0    0  0.00000000000E+00  0.00000000000E+00 -0.10437261841E+04  0.35574104869E+04  0.34008535730E+04 0.  0.
        5    1    3    3  502    0 -0.16478069436E+03  0.53156076356E+03  0.11588771063E+04  0.12855845985E+04  0.46999998093E+01 0. -1.
       -5    1    3    3    0  502  0.16478069436E+03 -0.53156076356E+03 -0.22026032903E+04  0.22718258884E+04  0.46999998093E+01 0.  1.
</event>
<event>
 5   0  0.6311750E-08  0.3412874E+04  0.7818609E-02  0.8134754E-01
       -1   -1    0    0    0  501  0.00000000000E+00  0.00000000000E+00  0.13341474468E+04  0.13341474468E+04  0.50400001928E-02 0.  1.
        1   -1    0    0  501    0  0.00000000000E+00  0.00000000000E+00 -0.21826133184E+04  0.21826133185E+04  0.50400001928E-02 0. -1.
    10030    2    1    2    0    0  0.00000000000E+00  0.00000000000E+00 -0.84846587167E+03  0.35167607652E+04  0.34128744402E+04 0.  0.
        4    1    3    3  502    0 -0.11257140384E+04 -0.11751632694E+04 -0.95336696761E+03  0.18860410901E+04  0.12699999809E+01 0. -1.
       -4    1    3    3    0  502  0.11257140384E+04  0.11751632694E+04  0.10490109595E+03  0.16307196751E+04  0.12699999809E+01 0.  1.
</event>
<event>
 5   0  0.1970449E-07  0.3399242E+04  0.7818609E-02  0.8138092E-01
        2   -1    0    0  501    0  0.00000000000E+00  0.00000000000E+00  0.20521028786E+04  0.20521028786E+04  0.25500000920E-02 0.  1.
       -2   -1    0    0    0  501  0.00000000000E+00  0.00000000000E+00 -0.14076839117E+04  0.14076839117E+04  0.25500000920E-02 0. -1.
    10030    2    1    2    0    0  0.00000000000E+00  0.00000000000E+00  0.64441896688E+03  0.34597867903E+04  0.33992423905E+04 0.  0.
        1    1    3    3  502    0 -0.12391355675E+04 -0.11438360096E+04  0.10655253224E+03  0.16897251888E+04  0.50400001928E-02 0.  1.
       -1    1    3    3    0  502  0.12391355675E+04  0.11438360096E+04  0.53786643464E+03  0.17700616015E+04  0.50400001928E-02 0. -1.
</event>
<event>
 5   0  0.6584420E-08  0.3399734E+04  0.7818609E-02  0.8137972E-01
       -1   -1    0    0    0  501  0.00000000000E+00  0.00000000000E+00  0.19553885643E+04  0.19553885643E+04  0.50400001928E-02 0. -1.
        1   -1    0    0  501    0  0.00000000000E+00  0.00000000000E+00 -0.14777355547E+04  0.14777355547E+04  0.50400001928E-02 0.  1.
    10030    2    1    2    0    0  0.00000000000E+00  0.00000000000E+00  0.47765300959E+03  0.34331241189E+04  0.33997336393E+04 0.  0.
        1    1    3    3  502    0 -0.11872853846E+04  0.93794771107E+03 -0.54347870473E+03  0.16077193772E+04  0.50400001928E-02 0.  1.
       -1    1    3    3    0  502  0.11872853846E+04 -0.93794771107E+03  0.10211317143E+04  0.18254047418E+04  0.50400001928E-02 0. -1.
</event>
<event>
 5   0  0.1897313E-07  0.3412029E+04  0.7818609E-02  0.8134960E-01
       -2   -1    0    0    0  501  0.00000000000E+00  0.00000000000E+00  0.16978103833E+04  0.16978103833E+04  0.25500000920E-02 0. -1.
        2   -1    0    0  501    0  0.00000000000E+00  0.00000000000E+00 -0.17142583313E+04  0.17142583313E+04  0.25500000920E-02 0.  1.
    10030    2    1    2    0    0  0.00000000000E+00  0.00000000000E+00 -0.16447947960E+02  0.34120687146E+04  0.34120290706E+04 0.  0.
        3    1    3    3  502    0  0.14097087830E+04 -0.95698319435E+03 -0.94189483947E+02  0.17064487558E+04  0.10100000352E+00 0. -1.
       -3    1    3    3    0  502 -0.14097087830E+04  0.95698319435E+03  0.77741535986E+02  0.17056199588E+04  0.10100000352E+00 0.  1.
</event>
<event>
 5   0  0.1963852E-07  0.3391223E+04  0.7818609E-02  0.8140064E-01
        2   -1    0    0  501    0  0.00000000000E+00  0.00000000000E+00  0.20922860361E+04  0.20922860361E+04  0.25500000920E-02 0. -1.
       -2   -1    0    0    0  501  0.00000000000E+00  0.00000000000E+00 -0.13741419782E+04  0.13741419783E+04  0.25500000920E-02 0.  1.
    10030    2    1    2    0    0  0.00000000000E+00  0.00000000000E+00  0.71814405784E+03  0.34664280143E+04  0.33912228312E+04 0.  0.
        4    1    3    3  502    0  0.24206626768E+03 -0.10640683911E+04  0.16856423486E+04  0.20080411746E+04  0.12699999809E+01 0. -1.
       -4    1    3    3    0  502 -0.24206626768E+03  0.10640683911E+04 -0.96749829072E+03  0.14583868397E+04  0.12699999809E+01 0.  1.
</event>
<event>
 5   0  0.6311750E-08  0.3400877E+04  0.7818609E-02  0.8137691E-01
        1   -1    0    0  501    0  0.00000000000E+00  0.00000000000E+00  0.16071671871E+04  0.16071671871E+04  0.50400001928E-02 0.  1.
       -1   -1    0    0    0  501  0.00000000000E+00  0.00000000000E+00 -0.17991225380E+04  0.17991225380E+04  0.50400001928E-02 0. -1.
    10030    2    1    2    0    0  0.00000000000E+00  0.00000000000E+00 -0.19195535085E+03  0.34062897251E+04  0.34008767744E+04 0.  0.
        4    1    3    3  502    0  0.17070232142E+03 -0.15336557539E+04 -0.81143235349E+03  0.17434630283E+04  0.12699999809E+01 0. -1.
       -4    1    3    3    0  502 -0.17070232142E+03  0.15336557539E+04  0.61947700265E+03  0.16628266968E+04  0.12699999809E+01 0.  1.
</event>
<event>
 5   0  0.6584420E-08  0.3401960E+04  0.7818609E-02  0.8137425E-01
       -1   -1    0    0    0  501  0.00000000000E+00  0.00000000000E+00  0.10740648559E+04  0.10740648559E+04  0.50400001928E-02 0.  1.
        1   -1    0    0  501    0  0.00000000000E+00  0.00000000000E+00 -0.26938162319E+04  0.26938162319E+04  0.50400001928E-02 0. -1.
    10030    2    1    2    0    0  0.00000000000E+00  0.00000000000E+00 -0.16197513760E+04  0.37678810878E+04  0.34019602249E+04 0.  0.
        1    1    3    3  502    0  0.11497811402E+03 -0.16052760253E+03  0.10613282937E+04  0.10795400988E+04  0.50400001928E-02 0.  1.
       -1    1    3    3    0  502 -0.11497811402E+03  0.16052760253E+03 -0.26810796697E+04  0.26883409890E+04  0.50400001928E-02 0. -1.
</event>
<event>
 5   0  0.1928004E-07  0.3399570E+04  0.7818609E-02  0.8138012E-01
        2   -1    0    0  501    0  0.00000000000E+00  0.00000000000E+00  0.17177266289E+04  0.17177266289E+04  0.25500000920E-02 0.  1.
       -2   -1    0    0    0  501  0.00000000000E+00  0.00000000000E+00 -0.16820308163E+04  0.16820308163E+04  0.25500000920E-02 0. -1.
    10030    2    1    2    0    0  0.00000000000E+00  0.00000000000E+00  0.35695812546E+02  0.33997574452E+04  0.33995700457E+04 0.  0.
        2    1    3    3  502    0  0.84415370490E+03 -0.32329757075E+03  0.14574245059E+04  0.17149935822E+04  0.25500000920E-02 0.  1.
       -2    1    3    3    0  502 -0.84415370490E+03  0.32329757075E+03 -0.14217286933E+04  0.16847638630E+04  0.25500000920E-02 0. -1.
</event>
<event>
 5   0  0.1897313E-07  0.3403461E+04  0.7818609E-02  0.8137057E-01
        2   -1    0    0  501    0  0.00000000000E+00  0.00000000000E+00  0.22936242645E+04  0.22936242645E+04  0.25500000920E-02 0. -1.
       -2   -1    0    0    0  501  0.00000000000E+00  0.00000000000E+00 -0.12625812816E+04  0.12625812816E+04  0.25500000920E-02 0.  1.
    10030    2    1    2    0    0  0.00000000000E+00  0.00000000000E+00  0.10310429829E+04  0.35562055461E+04  0.34034612168E+04 0.  0.
        3    1    3    3  502    0 -0.14055138248E+04 -0.41952747545E+03  0.14170376210E+04  0.20394773948E+04  0.10100000352E+00 0. -1.
       -3    1    3    3    0  502  0.14055138248E+04  0.41952747545E+03 -0.38599463817E+03  0.15167281514E+04  0.10100000352E+00 0.  1.
</event>
<event>
 5   0  0.6311750E-08  0.3415392E+04  0.7818609E-02  0.8134139E-01
       -1   -1    0    0    0  501  0.00000000000E+00  0.00000000000E+00  0.11258107388E+04  0.11258107388E+04  0.50400001928E-02 0.  1.
        1   -1    0    0  501    0  0.00000000000E+00  0.00000000000E+00 -0.25903333545E+04  0.25903333545E+04  0.50400001928E-02 0. -1.
    10030    2    1    2    0    0  0.00000000000E+00  0.00000000000E+00 -0.14645226158E+04  0.37161440933E+04  0.34153916950E+04 0.  0.
        4    1    3    3  502    0  0.70224159256E+03  0.13509353454E+04 -0.15736994657E+04  0.21896806121E+04  0.12699999809E+01 0. -1.
       -4    1    3    3    0  502 -0.70224159256E+03 -0.13509353454E+04  0.10917684994E+03  0.15264634812E+04  0.12699999809E+01 0.  1.
</event>
<event>
 5   0  0.6788600E-08  0.3398275E+04  0.7818609E-02  0.8138330E-01
        1   -1    0    0  501    0  0.00000000000E+00  0.00000000000E+00  0.22298623336E+04  0.22298623336E+04  0.50400001928E-02 0.  1.
       -1   -1    0    0    0  501  0.00000000000E+00  0.00000000000E+00 -0.12947293296E+04  0.12947293296E+04  0.50400001928E-02 0. -1.
    10030    2    1    2    0    0  0.00000000000E+00  0.00000000000E+00  0.93513300404E+03  0.35245916632E+04  0.33982749531E+04 0.  0.
        2    1    3    3  502    0  0.16660639032E+04 -0.20537822392E+03  0.74024386223E+03  0.18346416870E+04  0.25500000920E-02 0.  1.
       -2    1    3    3    0  502 -0.16660639032E+04  0.20537822392E+03  0.19488914180E+03  0.16899499761E+04  0.25500000920E-02 0. -1.
</event>
<event>
 5   0  0.6584420E-08  0.3374484E+04  0.7818609E-02  0.8144197E-01
        1   -1    0    0  501    0  0.00000000000E+00  0.00000000000E+00  0.25044008164E+04  0.25044008164E+04  0.50400001928E-02 0.  1.
       -1   -1    0    0    0  501  0.00000000000E+00  0.00000000000E+00 -0.11367131932E+04  0.11367131932E+04  0.50400001928E-02 0. -1.
    10030    2    1    2    0    0  0.00000000000E+00  0.00000000000E+00  0.13676876232E+04  0.36411140095E+04  0.33744839303E+04 0.  0.
        1    1    3    3  502    0 -0.80053968531E+03  0.14831734714E+04  0.76824250615E+03  0.18522591294E+04  0.50400001928E-02 0.  1.
       -1    1    3    3    0  502  0.80053968531E+03 -0.14831734714E+04  0.59944511704E+03  0.17888548802E+04  0.50400001928E-02 0. -1.
</event>
<event>
 5   0  0.1928004E-07  0.3398935E+04  0.7818609E-02  0.8138168E-01
       -2   -1    0    0    0  501  0.00000000000E+00  0.00000000000E+00  0.28457837406E+04  0.28457837406E+04  0.25500000920E-02 0.  1.
        2   -1    0    0  501    0  0.00000000000E+00  0.00000000000E+00 -0.10149015649E+04  0.10149015649E+04  0.25500000920E-02 0. -1.
    10030    2    1    2    0    0  0.00000000000E+00  0.00000000000E+00  0.18308821757E+04  0.38606853055E+04  0.33989353461E+04 0.  0.
        2    1    3    3  502    0 -0.65767732656E+03 -0.15669752374E+04  0.89786248643E+03  0.19220062188E+04  0.25500000920E-02 0.  1.
       -2    1    3    3    0  502  0.65767732656E+03  0.15669752374E+04  0.93301968922E+03  0.19386790867E+04  0.25500000920E-02 0. -1.
</event>
<event>
 5   0  0.6341535E-08  0.3398917E+04  0.7818609E-02  0.8138172E-01
        1   -1    0    0  501    0  0.00000000000E+00  0.00000000000E+00  0.14198661066E+04  0.14198661066E+04  0.50400001928E-02 0. -1.
       -1   -1    0    0    0  501  0.00000000000E+00  0.00000000000E+00 -0.20341065293E+04  0.20341065293E+04  0.50400001928E-02 0.  1.
    10030    2    1    2    0    0  0.00000000000E+00  0.00000000000E+00 -0.61424042272E+03  0.34539726359E+04  0.33989168382E+04 0.  0.
        5    1    3    3  502    0 -0.72228193818E+03  0.72671130584E+03 -0.16849349819E+04  0.19720112838E+04  0.46999998093E+01 0.  1.
       -5    1    3    3    0  502  0.72228193818E+03 -0.72671130584E+03  0.10706945592E+04  0.14819613521E+04  0.46999998093E+01 0. -1.
</event>
<event>
 5   0  0.6367111E-08  0.3397431E+04  0.7818609E-02  0.8138537E-01
        1   -1    0    0  501    0  0.00000000000E+00  0.00000000000E+00  0.16023195098E+04  0.16023195099E+04  0.50400001928E-02 0. -1.
       -1   -1    0    0    0  501  0.00000000000E+00  0.00000000000E+00 -0.18009102670E+04  0.18009102670E+04  0.50400001928E-02 0.  1.
    10030    2    1    2    0    0  0.00000000000E+00  0.00000000000E+00 -0.19859075712E+03  0.34032297768E+04  0.33974305916E+04 0.  0.
        3    1    3    3  502    0  0.14701260798E+04 -0.84996015600E+03 -0.14330998245E+03  0.17041832996E+04  0.10100000352E+00 0.  1.
       -3    1    3    3    0  502 -0.14701260798E+04  0.84996015600E+03 -0.55280774672E+02  0.16990464772E+04  0.10100000352E+00 0. -1.
</event>
<event>
 5   0  0.1897313E-07  0.3434797E+04  0.7818609E-02  0.8129418E-01
        2   -1    0    0  501    0  0.00000000000E+00  0.00000000000E+00  0.21153215771E+04  0.21153215771E+04  0.25500000920E-02 0.  1.
       -2   -1    0    0    0  501  0.00000000000E+00  0.00000000000E+00 -0.13943306263E+04  0.13943306263E+04  0.25500000920E-02 0. -1.
    10030    2    1    2    0    0  0.00000000000E+00  0.00000000000E+00  0.72099095084E+03  0.35096522034E+04  0.34347970300E+04 0.  0.
        3    1    3    3  502    0  0.45815414708E+03  0.13938437052E+04  0.12725580287E+04  0.19421919173E+04  0.10100000352E+00 0.  1.
       -3    1    3    3    0  502 -0.45815414708E+03 -0.13938437052E+04 -0.55156707782E+03  0.15674602861E+04  0.10100000352E+00 0. -1.
</event>
<event>
 5   0  0.1897313E-07  0.3395311E+04  0.7818609E-02  0.8139058E-01
       -2   -1    0    0    0  501  0.00000000000E+00  0.00000000000E+00  0.12422372635E+04  0.12422372635E+04  0.25500000920E-02 0. -1.
        2   -1    0    0  501    0  0.00000000000E+00  0.00000000000E+00 -0.23200356654E+04  0.23200356654E+04  0.25500000920E-02 0.  1.
    10030    2    1    2    0    0  0.00000000000E+00  0.00000000000E+00 -0.10777984019E+04  0.35622729289E+04  0.33953113296E+04 0.  0.
        3    1    3    3  502    0 -0.50280975009E+03  0.12399973850E+04 -0.16350846763E+04  0.21127974509E+04  0.10100000352E+00 0.  1.
       -3    1    3    3    0  502  0.50280975009E+03 -0.12399973850E+04  0.55728627435E+03  0.14494754780E+04  0.10100000352E+00 0. -1.
</event>
<event>
 5   0  0.6584420E-08  0.3401828E+04  0.7818609E-02  0.8137458E-01
        1   -1    0    0  501    0  0.00000000000E+00  0.00000000000E+00  0.17109739030E+04  0.17109739030E+04  0.50400001928E-02 0. -1.
       -1   -1    0    0    0  501  0.00000000000E+00  0.00000000000E+00 -0.16909134537E+04  0.16909134537E+04  0.50400001928E-02 0.  1.
    10030    2    1    2    0    0  0.00000000000E+00  0.00000000000E+00  0.20060449303E+02  0.34018873566E+04  0.34018282093E+04 0.  0.
        1    1    3    3  502    0  0.11553914771E+04  0.30487033640E+03  0.12205195291E+04  0.17080817628E+04  0.50400001928E-02 0. -1.
       -1    1    3    3    0  502 -0.11553914771E+04 -0.30487033640E+03 -0.12004590798E+04  0.16938055938E+04  0.50400001928E-02 0.  1.
</event>
<event>
 5   0  0.1970449E-07  0.3402665E+04  0.7818609E-02  0.8137253E-01
        2   -1    0    0  501    0  0.00000000000E+00  0.00000000000E+00  0.23652840593E+04  0.23652840593E+04  0.25500000920E-02 0.  1.
       -2   -1    0    0    0  501  0.00000000000E+00  0.00000000000E+00 -0.12237565167E+04  0.12237565167E+04  0.25500000920E-02 0. -1.
    10030    2    1    2    0    0  0.00000000000E+00  0.00000000000E+00  0.11415275426E+04  0.35890405759E+04  0.34026647095E+04 0.  0.
        1    1    3    3  502    0  0.11548416911E+04 -0.65492368521E+03  0.16929691286E+04  0.21514480787E+04  0.50400001928E-02 0.  1.
       -1    1    3    3    0  502 -0.11548416911E+04  0.65492368521E+03 -0.55144158602E+03  0.14375924972E+04  0.50400001928E-02 0. -1.
</event>
<event>
 5   0  0.6788600E-08  0.3404957E+04  0.7818609E-02  0.8136691E-01
        1   -1    0    0  501    0  0.00000000000E+00  0.00000000000E+00  0.13271456492E+04  0.13271456492E+04  0.50400001928E-02 0.  1.
       -1   -1    0    0    0  501  0.00000000000E+00  0.00000000000E+00 -0.21839604727E+04  0.21839604727E+04  0.50400001928E-02 0. -1.
    10030    2    1    2    0    0  0.00000000000E+00  0.00000000000E+00 -0.85681482345E+03  0.35111061219E+04  0.34049573504E+04 0.  0.
        2    1    3    3  502    0 -0.54077212389E+03 -0.68966073409E+03  0.10766723475E+04  0.13882686203E+04  0.25500000920E-02 0.  1.
       -2    1    3    3    0  502  0.54077212389E+03  0.68966073409E+03 -0.19334871710E+04  0.21228375017E+04  0.25500000920E-02 0. -1.
</event>
<event>
 5   0  0.6584420E-08  0.3405901E+04  0.7818609E-02  0.8136460E-01
        1   -1    0    0  501    0  0.00000000000E+00  0.00000000000E+00  0.16980795240E+04  0.16980795240E+04  0.50400001928E-02 0. -1.
       -1   -1    0    0    0  501  0.00000000000E+00  0.00000000000E+00 -0.17078354158E+04  0.17078354158E+04  0.50400001928E-02 0.  1.
    10030    2    1    2    0    0  0.00000000000E+00  0.00000000000E+00 -0.97558918431E+01  0.34059149398E+04  0.34059009674E+04 0.  0.
        1    1    3    3  502    0 -0.54906823732E+03  0.11145185171E+04  0.11597782372E+04  0.16996214325E+04  0.50400001928E-02 0. -1.
       -1    1    3    3    0  502  0.54906823732E+03 -0.11145185171E+04 -0.11695341290E+04  0.17062935074E+04  0.50400001928E-02 0.  1.
</event>
<event>
 5   0  0.1986613E-07  0.3406432E+04  0.7818609E-02  0.8136329E-01
        2   -1    0    0  501    0  0.00000000000E+00  0.00000000000E+00  0.24077502715E+04  0.24077502715E+04  0.25500000920E-02 0. -1.
       -2   -1    0    0    0  501  0.00000000000E+00  0.00000000000E+00 -0.12048364084E+04  0.12048364084E+04  0.25500000920E-02 0.  1.
    10030    2    1    2    0    0  0.00000000000E+00  0.00000000000E+00  0.12029138631E+04  0.36125866799E+04  0.34064322623E+04 0.  0.
        5    1    3    3  502    0 -0.13072951620E+03  0.12082513585E+03 -0.11949367416E+04  0.12081327850E+04  0.46999998093E+01 0.  1.
       -5    1    3    3    0  502  0.13072951620E+03 -0.12082513585E+03  0.23978506047E+04  0.24044538948E+04  0.46999998093E+01 0. -1.
</event>
<event>
 5   0  0.1970449E-07  0.3405787E+04  0.7818609E-02  0.8136488E-01
       -2   -1    0    0    0  501  0.00000000000E+00  0.00000000000E+00  0.19999802117E+04  0.19999802117E+04  0.25500000920E-02 0. -1.
        2   -1    0    0  501    0  0.00000000000E+00  0.00000000000E+00 -0.14499372508E+04  0.14499372508E+04  0.25500000920E-02 0.  1.
    10030    2    1    2    0    0  0.00000000000E+00  0.00000000000E+00  0.55004296093E+03  0.34499174625E+04  0.34057867284E+04 0.  0.
        1    1    3    3  502    0 -0.55836397195E+03  0.83198180013E+03  0.16697731223E+04  0.19473331304E+04  0.50400001928E-02 0. -1.
       -1    1    3    3    0  502  0.55836397195E+03 -0.83198180013E+03 -0.11197301613E+04  0.15025843321E+04  0.50400001928E-02 0.  1.
</event>
<event>
 5   0  0.6311750E-08  0.3395769E+04  0.7818609E-02  0.8138945E-01
        1   -1    0    0  501    0  0.00000000000E+00  0.00000000000E+00  0.20566364855E+04  0.20566364855E+04  0.50400001928E-02 0. -1.
       -1   -1    0    0    0  501  0.00000000000E+00  0.00000000000E+00 -0.14017121174E+04  0.14017121174E+04  0.50400001928E-02 0.  1.
    10030    2    1    2    0    0  0.00000000000E+00  0.00000000000E+00  0.65492436808E+03  0.34583486030E+04  0.33957692990E+04 0.  0.
        4    1    3    3  502    0 -0.94854733586E+02 -0.12884313562E+04 -0.79454754736E+03  0.15166938379E+04  0.12699999809E+01 0.  1.
       -4    1    3    3    0  502  0.94854733586E+02  0.12884313562E+04  0.14494719154E+04  0.19416547650E+04  0.12699999809E+01 0. -1.
</event>
<event>
 5   0  0.6788600E-08  0.3397126E+04  0.7818609E-02  0.8138612E-01
        1   -1    0    0  501    0  0.00000000000E+00  0.00000000000E+00  0.16094972008E+04  0.16094972008E+04  0.50400001928E-02 0. -1.
       -1   -1    0    0    0  501  0.00000000000E+00  0.00000000000E+00 -0.17925575596E+04  0.17925575596E+04  0.50400001928E-02 0.  1.
    10030    2    1    2    0    0  0.00000000000E+00  0.00000000000E+00 -0.18306035879E+03  0.34020547605E+04  0.33971260645E+04 0.  0.
        2    1    3    3  502    0 -0.10361141467E+04  0.13173270402E+04  0.18497422219E+03  0.16861490204E+04  0.25500000920E-02 0. -1.
       -2    1    3    3    0  502  0.10361141467E+04 -0.13173270402E+04 -0.36803458098E+03  0.17159057401E+04  0.25500000920E-02 0.  1.
</event>
<event>
 5   0  0.1928004E-07  0.3401069E+04  0.7818609E-02  0.8137644E-01
        2   -1    0    0  501    0  0.00000000000E+00  0.00000000000E+00  0.25995218406E+04  0.25995218406E+04  0.25500000920E-02 0.  1.
       -2   -1    0    0    0  501  0.00000000000E+00  0.00000000000E+00 -0.11124421075E+04  0.11124421075E+04  0.25500000920E-02 0. -1.
    10030    2    1    2    0    0  0.00000000000E+00  0.00000000000E+00  0.14870797331E+04  0.37119639481E+04  0.34010689819E+04 0.  0.
        2    1    3    3  502    0  0.34017238685E+02  0.16914175872E+04  0.93184203381E+03  0.19314192198E+04  0.25500000920E-02 0.  1.
       -2    1    3    3    0  502 -0.34017238685E+02 -0.16914175872E+04  0.55523769926E+03  0.17805447283E+04  0.25500000920E-02 0. -1.
</event>
<event>
 5   0  0.6367111E-08  0.3402955E+04  0.7818609E-02  0.8137181E-01
       -1   -1    0    0    0  501  0.00000000000E+00  0.00000000000E+00  0.13408840014E+04  0.13408840014E+04  0.50400001928E-02 0. -1.
        1   -1    0    0  501    0  0.00000000000E+00  0.00000000000E+00 -0.21590423989E+04  0.21590423989E+04  0.50400001928E-02 0.  1.
    10030    2    1    2    0    0  0.00000000000E+00  0.00000000000E+00 -0.81815839754E+03  0.34999264003E+04  0.34029548401E+04 0.  0.
        3    1    3    3  502    0  0.54776482458E+03  0.91707539202E+03 -0.17711872377E+04  0.20683756474E+04  0.10100000352E+00 0.  1.
       -3    1    3    3    0  502 -0.54776482458E+03 -0.91707539202E+03  0.95302884014E+03  0.14315507529E+04  0.10100000352E+00 0. -1.
</event>
<event>
 5   0  0.1986613E-07  0.3398653E+04  0.7818609E-02  0.8138237E-01
        2   -1    0    0  501    0  0.00000000000E+00  0.00000000000E+00  0.17964714440E+04  0.17964714440E+04  0.25500000920E-02 0. -1.
       -2   -1    0    0    0  501  0.00000000000E+00  0.00000000000E+00 -0.16074346823E+04  0.16074346823E+04  0.25500000920E-02 0.  1.
    10030    2    1    2    0    0  0.00000000000E+00  0.00000000000E+00  0.18903676164E+03  0.34039061263E+04  0.33986529713E+04 0.  0.
        5    1    3    3  502    0  0.39484864302E+03 -0.59370037011E+03 -0.14503646877E+04  0.16161576030E+04  0.46999998093E+01 0.  1.
       -5    1    3    3    0  502 -0.39484864302E+03  0.59370037011E+03  0.16394014494E+04  0.17877485233E+04  0.46999998093E+01 0. -1.
</event>
<event>
 5   0  0.6367111E-08  0.3403308E+04  0.7818609E-02  0.8137095E-01
        1   -1    0    0  501    0  0.00000000000E+00  0.00000000000E+00  0.16474646527E+04  0.16474646527E+04  0.50400001928E-02 0. -1.
       -1   -1    0    0    0  501  0.00000000000E+00  0.00000000000E+00 -0.17576256585E+04  0.17576256585E+04  0.50400001928E-02 0.  1.
    10030    2    1    2    0    0  0.00000000000E+00  0.00000000000E+00 -0.11016100584E+03  0.34050903112E+04  0.34033078880E+04 0.  0.
        3    1    3    3  502    0 -0.15973937026E+03 -0.15674993721E+04 -0.69811079860E+03  0.17233483819E+04  0.10100000352E+00 0.  1.
       -3    1    3    3    0  502  0.15973937026E+03  0.15674993721E+04  0.58794979275E+03  0.16817419294E+04  0.10100000352E+00 0. -1.
</event>
<event>
 5   0  0.1928004E-07  0.3409684E+04  0.7818609E-02  0.8135534E-01
        2   -1    0    0  501    0  0.00000000000E+00  0.00000000000E+00  0.28773440044E+04  0.28773440044E+04  0.25500000920E-02 0.  1.
       -2   -1    0    0    0  501  0.00000000000E+00  0.00000000000E+00 -0.10101279504E+04  0.10101279504E+04  0.25500000920E-02 0. -1.
    10030    2    1    2    0    0  0.00000000000E+00  0.00000000000E+00  0.18672160540E+04  0.38874719548E+04  0.34096836227E+04 0.  0.
        2    1    3    3  502    0 -0.16058802911E+04 -0.55665386729E+03  0.78162195324E+03  0.18707345924E+04  0.25500000920E-02 0. -1.
       -2    1    3    3    0  502  0.16058802911E+04  0.55665386729E+03  0.10855941008E+04  0.20167373624E+04  0.25500000920E-02 0.  1.
</event>
<event>
 5   0  0.1928004E-07  0.3398218E+04  0.7818609E-02  0.8138344E-01
        2   -1    0    0  501    0  0.00000000000E+00  0.00000000000E+00  0.24182892341E+04  0.24182892341E+04  0.25500000920E-02 0.  1.
       -2   -1    0    0    0  501  0.00000000000E+00  0.00000000000E+00 -0.11938073590E+04  0.11938073590E+04  0.25500000920E-02 0. -1.
    10030    2    1    2    0    0  0.00000000000E+00  0.00000000000E+00  0.12244818750E+04  0.36120965931E+04  0.33982180530E+04 0.  0.
        2    1    3    3  502    0 -0.61826622332E+03 -0.14815870334E+04  0.20786397360E+02  0.16055482973E+04  0.25500000920E-02 0. -1.
       -2    1    3    3    0  502  0.61826622332E+03  0.14815870334E+04  0.12036954777E+04  0.20065482958E+04  0.25500000920E-02 0.  1.
</event>
<event>
 5   0  0.6584420E-08  0.3394198E+04  0.7818609E-02  0.8139332E-01
        1   -1    0    0  501    0  0.00000000000E+00  0.00000000000E+00  0.21613211810E+04  0.21613211810E+04  0.50400001928E-02 0.  1.
       -1   -1    0    0    0  501  0.00000000000E+00  0.00000000000E+00 -0.13325854528E+04  0.13325854528E+04  0.50400001928E-02 0. -1.
    10030    2    1    2    0    0  0.00000000000E+00  0.00000000000E+00  0.82873572819E+03  0.34939066339E+04  0.33941980878E+04 0.  0.
        1    1    3    3  502    0 -0.10593140046E+04  0.99163409654E+03  0.13203714307E+04  0.19618524554E+04  0.50400001928E-02 0.  1.
       -1    1    3    3    0  502  0.10593140046E+04 -0.99163409654E+03 -0.49163570251E+03  0.15320541785E+04  0.50400001928E-02 0. -1.
</event>
<event>
 5   0  0.1897313E-07  0.3402068E+04  0.7818609E-02  0.8137399E-01
        2   -1    0    0  501    0  0.00000000000E+00  0.00000000000E+00  0.23147546555E+04  0.23147546555E+04  0.25500000920E-02 0. -1.
       -2   -1    0    0    0  501  0.00000000000E+00  0.00000000000E+00 -0.12500316567E+04  0.12500316567E+04  0.25500000920E-02 0.  1.
    10030    2    1    2    0    0  0.00000000000E+00  0.00000000000E+00  0.10647229988E+04  0.35647863122E+04  0.34020679575E+04 0.  0.
        3    1    3    3  502    0 -0.58173823029E+03 -0.56883233783E+03  0.20976398875E+04  0.22499072659E+04  0.10100000352E+00 0. -1.
       -3    1    3    3    0  502  0.58173823029E+03  0.56883233783E+03 -0.10329168887E+04  0.13148790463E+04  0.10100000352E+00 0.  1.
</event>
<event>
 5   0  0.1928004E-07  0.3400413E+04  0.7818609E-02  0.8137805E-01
        2   -1    0    0  501    0  0.00000000000E+00  0.00000000000E+00  0.11691102782E+04  0.11691102782E+04  0.25500000920E-02 0. -1.
       -2   -1    0    0    0  501  0.00000000000E+00  0.00000000000E+00 -0.24725661771E+04  0.24725661771E+04  0.25500000920E-02 0.  1.
    10030    2    1    2    0    0  0.00000000000E+00  0.00000000000E+00 -0.13034558988E+04  0.36416764553E+04  0.34004132286E+04 0.  0.
        2    1    3    3  502    0 -0.11086227280E+04  0.11061239512E+04 -0.13606199400E+04  0.20745701168E+04  0.25500000920E-02 0.  1.
       -2    1    3    3    0  502  0.11086227280E+04 -0.11061239512E+04  0.57164041142E+02  0.15671063385E+04  0.25500000920E-02 0. -1.
</event>
<event>
 5   0  0.6367111E-08  0.3398639E+04  0.7818609E-02  0.8138241E-01
       -1   -1    0    0    0  501  0.00000000000E+00  0.00000000000E+00  0.16033108733E+04  0.16033108734E+04  0.50400001928E-02 0. -1.
        1   -1    0    0  501    0  0.00000000000E+00  0.00000000000E+00 -0.18010769080E+04  0.18010769080E+04  0.50400001928E-02 0.  1.
    10030    2    1    2    0    0  0.00000000000E+00  0.00000000000E+00 -0.19776603460E+03  0.34043877813E+04  0.33986386629E+04 0.  0.
        3    1    3    3  502    0 -0.10015291752E+04 -0.40326549452E+03 -0.14133537166E+04  0.17785534814E+04  0.10100000352E+00 0.  1.
       -3    1    3    3    0  502  0.10015291752E+04  0.40326549452E+03  0.12155876820E+04  0.16258342999E+04  0.10100000352E+00 0. -1.
</event>
<event>
 5   0  0.6367111E-08  0.3403836E+04  0.7818609E-02  0.8136965E-01
       -1   -1    0    0    0  501  0.00000000000E+00  0.00000000000E+00  0.16910247280E+04  0.16910247280E+04  0.50400001928E-02 0.  1.
        1   -1    0    0  501    0  0.00000000000E+00  0.00000000000E+00 -0.17128813967E+04  0.17128813967E+04  0.50400001928E-02 0. -1.
    10030    2    1    2    0    0  0.00000000000E+00  0.00000000000E+00 -0.21856668784E+02  0.34039061247E+04  0.34038359525E+04 0.  0.
        3    1    3    3  502    0 -0.42624270451E+03 -0.87596614117E+03 -0.14064947297E+04  0.17109140711E+04  0.10100000352E+00 0. -1.
       -3    1    3    3    0  502  0.42624270451E+03  0.87596614117E+03  0.13846380610E+04  0.16929920536E+04  0.10100000352E+00 0.  1.
</event>
<event>
 5   0  0.6311750E-08  0.3400898E+04  0.7818609E-02  0.8137686E-01
       -1   -1    0    0    0  501  0.00000000000E+00  0.00000000000E+00  0.18316565118E+04  0.18316565118E+04  0.50400001928E-02 0.  1.
        1   -1    0    0  501    0  0.00000000000E+00  0.00000000000E+00 -0.15786404321E+04  0.15786404321E+04  0.50400001928E-02 0. -1.
    10030    2    1    2    0    0  0.00000000000E+00  0.00000000000E+00  0.25301607978E+03  0.34102969439E+04  0.34008981327E+04 0.  0.
        4    1    3    3  502    0 -0.12009284234E+04  0.25928840197E+03 -0.10523538873E+04  0.16176865798E+04  0.12699999809E+01 0. -1.
       -4    1    3    3    0  502  0.12009284234E+04 -0.25928840197E+03  0.13053699671E+04  0.17926103641E+04  0.12699999809E+01 0.  1.
</event>
<event>
 5   0  0.1897313E-07  0.3403378E+04  0.7818609E-02  0.8137078E-01
       -2   -1    0    0    0  501  0.00000000000E+00  0.00000000000E+00  0.92429577584E+03  0.92429577584E+03  0.25500000920E-02 0. -1.
        2   -1    0    0  501    0  0.00000000000E+00  0.00000000000E+00 -0.31329201848E+04  0.31329201848E+04  0.25500000920E-02 0.  1.
    10030    2    1    2    0    0  0.00000000000E+00  0.00000000000E+00 -0.22086244090E+04  0.40572159607E+04  0.34033776710E+04 0.  0.
        3    1    3    3  502    0  0.92394766758E+03  0.12531919384E+03  0.59266635794E+03  0.11048246987E+04  0.10100000352E+00 0. -1.
       -3    1    3    3    0  502 -0.92394766758E+03 -0.12531919384E+03 -0.28012907669E+04  0.29523912620E+04  0.10100000352E+00 0.  1.
</event>
<event>
 5   0  0.1928004E-07  0.3393250E+04  0.7818609E-02  0.8139565E-01
        2   -1    0    0  501    0  0.00000000000E+00  0.00000000000E+00  0.21061487882E+04  0.21061487882E+04  0.25500000920E-02 0.  1.
       -2   -1    0    0    0  501  0.00000000000E+00  0.00000000000E+00 -0.13667300638E+04  0.13667300638E+04  0.25500000920E-02 0. -1.
    10030    2    1    2    0    0  0.00000000000E+00  0.00000000000E+00  0.73941872436E+03  0.34728788520E+04  0.33932502812E+04 0.  0.
        2    1    3    3  502    0 -0.12112704755E+03  0.15048201927E+04  0.11620744506E+04  0.19051437223E+04  0.25500000920E-02 0.  1.
       -2    1    3    3    0  502  0.12112704755E+03 -0.15048201927E+04 -0.42265572623E+03  0.15677351297E+04  0.25500000920E-02 0. -1.
</event>
<event>
 5   0  0.1963852E-07  0.3395825E+04  0.7818609E-02  0.8138932E-01
       -2   -1    0    0    0  501  0.00000000000E+00  0.00000000000E+00  0.32001614965E+04  0.32001614965E+04  0.25500000920E-02 0. -1.
        2   -1    0    0  501    0  0.00000000000E+00  0.00000000000E+00 -0.90086291485E+03  0.90086291486E+03  0.25500000920E-02 0.  1.
    10030    2    1    2    0    0  0.00000000000E+00  0.00000000000E+00  0.22992985817E+04  0.41010244114E+04  0.33958249742E+04 0.  0.
        4    1    3    3  502    0  0.12048786941E+04  0.66562649399E+03  0.23501172183E+04  0.27235718918E+04  0.12699999809E+01 0. -1.
       -4    1    3    3    0  502 -0.12048786941E+04 -0.66562649399E+03 -0.50818636658E+02  0.13774525196E+04  0.12699999809E+01 0.  1.
</event>
<event>
 5   0  0.6788600E-08  0.3400043E+04  0.7818609E-02  0.8137896E-01
        1   -1    0    0  501    0  0.00000000000E+00  0.00000000000E+00  0.23564693756E+04  0.23564693756E+04  0.50400001928E-02 0.  1.
       -1   -1    0    0    0  501  0.00000000000E+00  0.00000000000E+00 -0.12264416828E+04  0.12264416828E+04  0.50400001928E-02 0. -1.
    10030    2    1    2    0    0  0.00000000000E+00  0.00000000000E+00  0.11300276928E+04  0.35829110584E+04  0.34000425094E+04 0.  0.
        2    1    3    3  502    0  0.11317130700E+04 -0.12408771682E+04  0.28716301105E+03  0.17038231171E+04  0.25500000920E-02 0.  1.
       -2    1    3    3    0  502 -0.11317130700E+04  0.12408771682E+04  0.84286468178E+03  0.18790879413E+04  0.25500000920E-02 0. -1.
</event>
<event>
 5   0  0.6311750E-08  0.3399277E+04  0.7818609E-02  0.8138084E-01
       -3   -1    0    0    0  501  0.00000000000E+00  0.00000000000E+00  0.22183171074E+04  0.22183171097E+04  0.10100000352E+00 0.  1.
        3   -1    0    0  501    0  0.00000000000E+00  0.00000000000E+00 -0.13022351280E+04  0.13022351319E+04  0.10100000352E+00 0. -1.
    10030    2    1    2    0    0  0.00000000000E+00  0.00000000000E+00  0.91608197936E+03  0.35205522416E+04  0.33992766720E+04 0.  0.
        5    1    3    3  502    0 -0.86455043153E+03  0.59760454897E+03  0.18414237644E+04  0.21202457913E+04  0.46999998093E+01 0.  1.
       -5    1    3    3    0  502  0.86455043153E+03 -0.59760454897E+03 -0.92534178500E+03  0.14003064503E+04  0.46999998093E+01 0. -1.
</event>
<event>
 5   0  0.1970449E-07  0.3381268E+04  0.7818609E-02  0.8142519E-01
        2   -1    0    0  501    0  0.00000000000E+00  0.00000000000E+00  0.17452545087E+04  0.17452545087E+04  0.25500000920E-02 0.  1.
       -2   -1    0    0    0  501  0.00000000000E+00  0.00000000000E+00 -0.16377227864E+04  0.16377227864E+04  0.25500000920E-02 0. -1.
    10030    2    1    2    0    0  0.00000000000E+00  0.00000000000E+00  0.10753172225E+03  0.33829772951E+04  0.33812678551E+04 0.  0.
        1    1    3    3  502    0  0.10513707231E+04  0.96570358992E+03  0.95991643883E+03  0.17202916586E+04  0.50400001928E-02 0.  1.
       -1    1    3    3    0  502 -0.10513707231E+04 -0.96570358992E+03 -0.85238471658E+03  0.16626856366E+04  0.50400001928E-02 0. -1.
</event>
<event>
 5   0  0.1928004E-07  0.3397277E+04  0.7818609E-02  0.8138575E-01
        2   -1    0    0  501    0  0.00000000000E+00  0.00000000000E+00  0.14614887627E+04  0.14614887627E+04  0.25500000920E-02 0. -1.
       -2   -1    0    0    0  501  0.00000000000E+00  0.00000000000E+00 -0.19742691425E+04  0.19742691425E+04  0.25500000920E-02 0.  1.
    10030    2    1    2    0    0  0.00000000000E+00  0.00000000000E+00 -0.51278037980E+03  0.34357579053E+04  0.33972766543E+04 0.  0.
        2    1    3    3  502    0 -0.11805117884E+04 -0.11852646812E+04  0.41757061825E+02  0.16733810383E+04  0.25500000920E-02 0. -1.
       -2    1    3    3    0  502  0.11805117884E+04  0.11852646812E+04 -0.55453744163E+03  0.17623768670E+04  0.25500000920E-02 0.  1.
</event>
<event>
 5   0  0.6584420E-08  0.3399045E+04  0.7818609E-02  0.8138141E-01
        1   -1    0    0  501    0  0.00000000000E+00  0.00000000000E+00  0.13256308620E+04  0.13256308620E+04  0.50400001928E-02 0. -1.
       -1   -1    0    0    0  501  0.00000000000E+00  0.00000000000E+00 -0.21788692173E+04  0.21788692173E+04  0.50400001928E-02 0.  1.
    10030    2    1    2    0    0  0.00000000000E+00  0.00000000000E+00 -0.85323835527E+03  0.35045000793E+04  0.33990447356E+04 0.  0.
        1    1    3    3  502    0  0.71561417429E+03 -0.53221922112E+03  0.10649912082E+04  0.13890886290E+04  0.50400001928E-02 0. -1.
       -1    1    3    3    0  502 -0.71561417429E+03  0.53221922112E+03 -0.19182295634E+04  0.21154114503E+04  0.50400001928E-02 0.  1.
</event>
<event>
 5   0  0.6367111E-08  0.3410610E+04  0.7818609E-02  0.8135307E-01
       -1   -1    0    0    0  501  0.00000000000E+00  0.00000000000E+00  0.21821331985E+04  0.21821331985E+04  0.50400001928E-02 0.  1.
        1   -1    0    0  501    0  0.00000000000E+00  0.00000000000E+00 -0.13326709047E+04  0.13326709047E+04  0.50400001928E-02 0. -1.
    10030    2    1    2    0    0  0.00000000000E+00  0.00000000000E+00  0.84946229381E+03  0.35148041033E+04  0.34106101647E+04 0.  0.
        3    1    3    3  502    0 -0.52699784705E+03 -0.49887534584E+03 -0.11656121301E+04  0.13730458803E+04  0.10100000352E+00 0. -1.
       -3    1    3    3    0  502  0.52699784705E+03  0.49887534584E+03  0.20150744239E+04  0.21417582229E+04  0.10100000352E+00 0.  1.
</event>
<event>
 5   0  0.6311750E-08  0.3451997E+04  0.7818609E-02  0.8125261E-01
        1   -1    0    0  501    0  0.00000000000E+00  0.00000000000E+00  0.27067193541E+04  0.27067193541E+04  0.50400001928E-02 0.  1.
       -1   -1    0    0    0  501  0.00000000000E+00  0.00000000000E+00 -0.11006204750E+04  0.11006204751E+04  0.50400001928E-02 0. -1.
    10030    2    1    2    0    0  0.00000000000E+00  0.00000000000E+00  0.16060988791E+04  0.38073398292E+04  0.34519969533E+04 0.  0.
        4    1    3    3  502    0 -0.15485896834E+04  0.29570936877E+03  0.28244008266E+02  0.15768238251E+04  0.12699999809E+01 0. -1.
       -4    1    3    3    0  502  0.15485896834E+04 -0.29570936877E+03  0.15778548708E+04  0.22305160041E+04  0.12699999809E+01 0.  1.
</event>
<event>
 5   0  0.6367111E-08  0.3397331E+04  0.7818609E-02  0.8138562E-01
        1   -1    0    0  501    0  0.00000000000E+00  0.00000000000E+00  0.24938022501E+04  0.24938022501E+04  0.50400001928E-02 0.  1.
       -1   -1    0    0    0  501  0.00000000000E+00  0.00000000000E+00 -0.11570540537E+04  0.11570540537E+04  0.50400001928E-02 0. -1.
    10030    2    1    2    0    0  0.00000000000E+00  0.00000000000E+00  0.13367481965E+04  0.36508563038E+04  0.33973307184E+04 0.  0.
        3    1    3    3  502    0  0.65507660354E+03 -0.96769350172E+03  0.19932205686E+04  0.23105160278E+04  0.10100000352E+00 0.  1.
       -3    1    3    3    0  502 -0.65507660354E+03  0.96769350172E+03 -0.65647237209E+03  0.13403402759E+04  0.10100000352E+00 0. -1.
</event>
<event>
 5   0  0.1897313E-07  0.3375106E+04  0.7818609E-02  0.8144043E-01
       -2   -1    0    0    0  501  0.00000000000E+00  0.00000000000E+00  0.10128906192E+04  0.10128906192E+04  0.25500000920E-02 0.  1.
        2   -1    0    0  501    0  0.00000000000E+00  0.00000000000E+00 -0.28115913871E+04  0.28115913871E+04  0.25500000920E-02 0. -1.
    10030    2    1    2    0    0  0.00000000000E+00  0.00000000000E+00 -0.17987007679E+04  0.38244820063E+04  0.33751056523E+04 0.  0.
        3    1    3    3  502    0  0.67463393248E+03  0.21026520485E+02  0.85327691814E+03  0.10879588993E+04  0.10100000352E+00 0.  1.
       -3    1    3    3    0  502 -0.67463393248E+03 -0.21026520485E+02 -0.26519776860E+04  0.27365231069E+04  0.10100000352E+00 0. -1.
</event>
<event>
 5   0  0.6788600E-08  0.3320631E+04  0.7818609E-02  0.8157666E-01
       -1   -1    0    0    0  501  0.00000000000E+00  0.00000000000E+00  0.11664936809E+04  0.11664936809E+04  0.50400001928E-02 0. -1.
        1   -1    0    0  501    0  0.00000000000E+00  0.00000000000E+00 -0.23631915117E+04  0.23631915117E+04  0.50400001928E-02 0.  1.
    10030    2    1    2    0    0  0.00000000000E+00  0.00000000000E+00 -0.11966978308E+04  0.35296851926E+04  0.33206312443E+04 0.  0.
        2    1    3    3  502    0  0.49048935393E+03 -0.15598345161E+04 -0.90455488978E+03  0.18686580941E+04  0.25500000920E-02 0.  1.
       -2    1    3    3    0  502 -0.49048935393E+03  0.15598345161E+04 -0.29214294105E+03  0.16610270985E+04  0.25500000920E-02 0. -1.
</event>
<event>
 5   0  0.1970449E-07  0.3402440E+04  0.7818609E-02  0.8137308E-01
       -2   -1    0    0    0  501  0.00000000000E+00  0.00000000000E+00  0.10463856175E+04  0.10463856175E+04  0.25500000920E-02 0.  1.
        2   -1    0    0  501    0  0.00000000000E+00  0.00000000000E+00 -0.27658543310E+04  0.27658543310E+04  0.25500000920E-02 0. -1.
    10030    2    1    2    0    0  0.00000000000E+00  0.00000000000E+00 -0.17194687135E+04  0.38122399485E+04  0.34024404136E+04 0.  0.
        1    1    3    3  502    0 -0.95448046925E+01  0.16310691318E+04 -0.14013529601E+04  0.21504110618E+04  0.50400001928E-02 0. -1.
       -1    1    3    3    0  502  0.95448046925E+01 -0.16310691318E+04 -0.31811575348E+03  0.16618288867E+04  0.50400001928E-02 0.  1.
</event>
<event>
 5   0  0.6788600E-08  0.3397899E+04  0.7818609E-02  0.8138422E-01
        1   -1    0    0  501    0  0.00000000000E+00  0.00000000000E+00  0.24315271412E+04  0.24315271412E+04  0.50400001928E-02 0. -1.
       -1   -1    0    0    0  501  0.00000000000E+00  0.00000000000E+00 -0.11870851376E+04  0.11870851376E+04  0.50400001928E-02 0.  1.
    10030    2    1    2    0    0  0.00000000000E+00  0.00000000000E+00  0.12444420036E+04  0.36186122789E+04  0.33978991928E+04 0.  0.
        2    1    3    3  502    0 -0.10681937561E+04  0.27738195975E+03  0.19978087554E+04  0.22823712396E+04  0.25500000920E-02 0. -1.
       -2    1    3    3    0  502  0.10681937561E+04 -0.27738195975E+03 -0.75336675178E+03  0.13362410392E+04  0.25500000920E-02 0.  1.
</event>
<event>
 5   0  0.6367111E-08  0.3397698E+04  0.7818609E-02  0.8138472E-01
       -1   -1    0    0    0  501  0.00000000000E+00  0.00000000000E+00  0.15486270582E+04  0.15486270582E+04  0.50400001928E-02 0. -1.
        1   -1    0    0  501    0  0.00000000000E+00  0.00000000000E+00 -0.18636427140E+04  0.18636427140E+04  0.50400001928E-02 0.  1.
    10030    2    1    2    0    0  0.00000000000E+00  0.00000000000E+00 -0.31501565582E+03  0.34122697722E+04  0.33976977698E+04 0.  0.
        3    1    3    3  502    0 -0.11384541748E+04 -0.39454949955E+02  0.11082359110E+04  0.15892833120E+04  0.10100000352E+00 0. -1.
       -3    1    3    3    0  502  0.11384541748E+04  0.39454949955E+02 -0.14232515668E+04  0.18229864601E+04  0.10100000352E+00 0.  1.
</event>
<event>
 5   0  0.1963852E-07  0.3401302E+04  0.7818609E-02  0.8137587E-01
        2   -1    0    0  501    0  0.00000000000E+00  0.00000000000E+00  0.20701034603E+04  0.20701034603E+04  0.25500000920E-02 0.  1.
       -2   -1    0    0    0  501  0.00000000000E+00  0.00000000000E+00 -0.13971345107E+04  0.13971345107E+04  0.25500000920E-02 0. -1.
    10030    2    1    2    0    0  0.00000000000E+00  0.00000000000E+00  0.67296894957E+03  0.34672379711E+04  0.34013015069E+04 0.  0.
        4    1    3    3  502    0  0.91293051472E+03  0.48843482293E+03  0.17117867256E+04  0.20005564495E+04  0.12699999809E+01 0.  1.
       -4    1    3    3    0  502 -0.91293051472E+03 -0.48843482293E+03 -0.10388177760E+04  0.14666815215E+04  0.12699999809E+01 0. -1.
</event>
<event>
 5   0  0.6311750E-08  0.3404006E+04  0.7818609E-02  0.8136924E-01
        1   -1    0    0  501    0  0.00000000000E+00  0.00000000000E+00  0.19859556621E+04  0.19859556622E+04  0.50400001928E-02 0.  1.
       -1   -1    0    0    0  501  0.00000000000E+00  0.00000000000E+00 -0.14586500509E+04  0.14586500509E+04  0.50400001928E-02 0. -1.
    10030    2    1    2    0    0  0.00000000000E+00  0.00000000000E+00  0.52730561124E+03  0.34446057131E+04  0.34040060680E+04 0.  0.
        4    1    3    3  502    0  0.11118458557E+04  0.71447179072E+02  0.15656638782E+04  0.19216167408E+04  0.12699999809E+01 0.  1.
       -4    1    3    3    0  502 -0.11118458557E+04 -0.71447179072E+02 -0.10383582669E+04  0.15229889723E+04  0.12699999809E+01 0. -1.
</event>
<event>
 5   0  0.1928004E-07  0.3404634E+04  0.7818609E-02  0.8136770E-01
       -2   -1    0    0    0  501  0.00000000000E+00  0.00000000000E+00  0.27904591360E+04  0.27904591360E+04  0.25500000920E-02 0. -1.
        2   -1    0    0  501    0  0.00000000000E+00  0.00000000000E+00 -0.10384971797E+04  0.10384971797E+04  0.25500000920E-02 0.  1.
    10030    2    1    2    0    0  0.00000000000E+00  0.00000000000E+00  0.17519619563E+04  0.38289563156E+04  0.34046344548E+04 0.  0.
        2    1    3    3  502    0 -0.16118138202E+04  0.54756540259E+03  0.86406405138E+03  0.19090254964E+04  0.25500000920E-02 0. -1.
       -2    1    3    3    0  502  0.16118138202E+04 -0.54756540259E+03  0.88789790493E+03  0.19199308192E+04  0.25500000920E-02 0.  1.
</event>
<event>
 5   0  0.6341535E-08  0.3464134E+04  0.7818609E-02  0.8122343E-01
        1   -1    0    0  501    0  0.00000000000E+00  0.00000000000E+00  0.18844671587E+04  0.18844671587E+04  0.50400001928E-02 0. -1.
       -1   -1    0    0    0  501  0.00000000000E+00  0.00000000000E+00 -0.15919912568E+04  0.15919912568E+04  0.50400001928E-02 0.  1.
    10030    2    1    2    0    0  0.00000000000E+00  0.00000000000E+00  0.29247590195E+03  0.34764584155E+04  0.34641335080E+04 0.  0.
        5    1    3    3  502    0 -0.10126350305E+04  0.28559657090E+03  0.15270103223E+04  0.18543941654E+04  0.46999998093E+01 0. -1.
       -5    1    3    3    0  502  0.10126350305E+04 -0.28559657090E+03 -0.12345344204E+04  0.16220642501E+04  0.46999998093E+01 0.  1.
</event>
<event>
 5   0  0.1897313E-07  0.3397784E+04  0.7818609E-02  0.8138450E-01
       -2   -1    0    0    0  501  0.00000000000E+00  0.00000000000E+00  0.21481248696E+04  0.21481248696E+04  0.25500000920E-02 0. -1.
        2   -1    0    0  501    0  0.00000000000E+00  0.00000000000E+00 -0.13436064246E+04  0.13436064246E+04  0.25500000920E-02 0.  1.
    10030    2    1    2    0    0  0.00000000000E+00  0.00000000000E+00  0.80451844494E+03  0.34917312942E+04  0.33977842048E+04 0.  0.
        3    1    3    3  502    0  0.19496964230E+03  0.14772481548E+04  0.12408861416E+04  0.19390909465E+04  0.10100000352E+00 0. -1.
       -3    1    3    3    0  502 -0.19496964230E+03 -0.14772481548E+04 -0.43636769667E+03  0.15526403477E+04  0.10100000352E+00 0.  1.
</event>
<event>
 5   0  0.6788600E-08  0.3408555E+04  0.7818609E-02  0.8135810E-01
       -1   -1    0    0    0  501  0.00000000000E+00  0.00000000000E+00  0.16908872985E+04  0.16908872985E+04  0.50400001928E-02 0. -1.
        1   -1    0    0  501    0  0.00000000000E+00  0.00000000000E+00 -0.17177739479E+04  0.17177739479E+04  0.50400001928E-02 0.  1.
    10030    2    1    2    0    0  0.00000000000E+00  0.00000000000E+00 -0.26886649384E+02  0.34086612464E+04  0.34085552072E+04 0.  0.
        2    1    3    3  502    0  0.10496154930E+04  0.71916578438E+03  0.11204658589E+04  0.16953866371E+04  0.25500000920E-02 0. -1.
       -2    1    3    3    0  502 -0.10496154930E+04 -0.71916578438E+03 -0.11473525083E+04  0.17132746093E+04  0.25500000920E-02 0.  1.
</event>
<event>
 5   0  0.1928004E-07  0.3387397E+04  0.7818609E-02  0.8141006E-01
       -2   -1    0    0    0  501  0.00000000000E+00  0.00000000000E+00  0.10803203231E+04  0.10803203231E+04  0.25500000920E-02 0. -1.
        2   -1    0    0  501    0  0.00000000000E+00  0.00000000000E+00 -0.26553374846E+04  0.26553374846E+04  0.25500000920E-02 0.  1.
    10030    2    1    2    0    0  0.00000000000E+00  0.00000000000E+00 -0.15750171615E+04  0.37356578078E+04  0.33873972601E+04 0.  0.
        2    1    3    3  502    0 -0.70108560537E+03  0.96563291473E+03  0.53799785300E+03  0.13089727430E+04  0.25500000920E-02 0. -1.
       -2    1    3    3    0  502  0.70108560537E+03 -0.96563291473E+03 -0.21130150145E+04  0.24266850648E+04  0.25500000920E-02 0.  1.
</event>
<event>
 5   0  0.1970449E-07  0.3405111E+04  0.7818609E-02  0.8136653E-01
       -2   -1    0    0    0  501  0.00000000000E+00  0.00000000000E+00  0.12104514212E+04  0.12104514212E+04  0.25500000920E-02 0.  1.
        2   -1    0    0  501    0  0.00000000000E+00  0.00000000000E+00 -0.23947224376E+04  0.23947224376E+04  0.25500000920E-02 0. -1.
    10030    2    1    2    0    0  0.00000000000E+00  0.00000000000E+00 -0.11842710164E+04  0.36051738587E+04  0.34051109690E+04 0.  0.
        1    1    3    3  502    0 -0.50262660563E+00  0.12693340080E+04 -0.17934762846E+04  0.21972178454E+04  0.50400001928E-02 0. -1.
       -1    1    3    3    0  502  0.50262660563E+00 -0.12693340080E+04  0.60920526824E+03  0.14079560133E+04  0.50400001928E-02 0.  1.
</event>
<event>
 5   0  0.6367111E-08  0.3396564E+04  0.7818609E-02  0.8138750E-01
        1   -1    0    0  501    0  0.00000000000E+00  0.00000000000E+00  0.11672449246E+04  0.11672449246E+04  0.50400001928E-02 0.  1.
       -1   -1    0    0    0  501  0.00000000000E+00  0.00000000000E+00 -0.24709142840E+04  0.24709142840E+04  0.50400001928E-02 0. -1.
    10030    2    1    2    0    0  0.00000000000E+00  0.00000000000E+00 -0.13036693595E+04  0.36381592086E+04  0.33965642388E+04 0.  0.
        3    1    3    3  502    0  0.15904702187E+04  0.37819756462E+03 -0.15919297948E+03  0.16425502517E+04  0.10100000352E+00 0.  1.
       -3    1    3    3    0  502 -0.15904702187E+04 -0.37819756462E+03 -0.11444763800E+04  0.19956089569E+04  0.10100000352E+00 0. -1.
</event>
<event>
 5   0  0.6311750E-08  0.3402072E+04  0.7818609E-02  0.8137398E-01
        1   -1    0    0  501    0  0.00000000000E+00  0.00000000000E+00  0.11133718023E+04  0.11133718023E+04  0.50400001928E-02 0. -1.
       -1   -1    0    0    0  501  0.00000000000E+00  0.00000000000E+00 -0.25988836413E+04  0.25988836413E+04  0.50400001928E-02 0.  1.
    10030    2    1    2    0    0  0.00000000000E+00  0.00000000000E+00 -0.14855118390E+04  0.37122554437E+04  0.34020721708E+04 0.  0.
        4    1    3    3  502    0  0.14240221425E+04  0.88169434026E+03 -0.10669986170E+04  0.19858780510E+04  0.12699999809E+01 0.  1.
       -4    1    3    3    0  502 -0.14240221425E+04 -0.88169434026E+03 -0.41851322205E+03  0.17263773927E+04  0.12699999809E+01 0. -1.
</event>
<event>
 5   0  0.1928004E-07  0.3404363E+04  0.7818609E-02  0.8136836E-01
       -2   -1    0    0    0  501  0.00000000000E+00  0.00000000000E+00  0.17873264314E+04  0.17873264314E+04  0.25500000920E-02 0. -1.
        2   -1    0    0  501    0  0.00000000000E+00  0.00000000000E+00 -0.16210928006E+04  0.16210928006E+04  0.25500000920E-02 0.  1.
    10030    2    1    2    0    0  0.00000000000E+00  0.00000000000E+00  0.16623363078E+03  0.34084192321E+04  0.34043630890E+04 0.  0.
        2    1    3    3  502    0 -0.15531669959E+04 -0.66598324390E+03 -0.12099027935E+03  0.16942550121E+04  0.25500000920E-02 0. -1.
       -2    1    3    3    0  502  0.15531669959E+04  0.66598324390E+03  0.28722391013E+03  0.17141642199E+04  0.25500000920E-02 0.  1.
</event>
<event>
 5   0  0.1963852E-07  0.3404997E+04  0.7818609E-02  0.8136681E-01
       -2   -1    0    0    0  501  0.00000000000E+00  0.00000000000E+00  0.12771485937E+04  0.12771485937E+04  0.25500000920E-02 0. -1.
        2   -1    0    0  501    0  0.00000000000E+00  0.00000000000E+00 -0.22695097334E+04  0.22695097334E+04  0.25500000920E-02 0.  1.
    10030    2    1    2    0    0  0.00000000000E+00  0.00000000000E+00 -0.99236113977E+03  0.35466583271E+04  0.34049970129E+04 0.  0.
        4    1    3    3  502    0 -0.11162188247E+04 -0.11803317149E+04 -0.10266547753E+04  0.19217567646E+04  0.12699999809E+01 0.  1.
       -4    1    3    3    0  502  0.11162188247E+04  0.11803317149E+04  0.34293635498E+02  0.16249015626E+04  0.12699999809E+01 0. -1.
</event>
<event>
 5   0  0.1897313E-07  0.3447257E+04  0.7818609E-02  0.8126404E-01
       -2   -1    0    0    0  501  0.00000000000E+00  0.00000000000E+00  0.19169467151E+04  0.19169467151E+04  0.25500000920E-02 0. -1.
        2   -1    0    0  501    0  0.00000000000E+00  0.00000000000E+00 -0.15498054952E+04  0.15498054952E+04  0.25500000920E-02 0.  1.
    10030    2    1    2    0    0  0.00000000000E+00  0.00000000000E+00  0.36714121984E+03  0.34667522103E+04  0.34472566212E+04 0.  0.
        3    1    3    3  502    0 -0.54717217791E+03 -0.98498599941E+02  0.18242982847E+04  0.19071349213E+04  0.10100000352E+00 0. -1.
       -3    1    3    3    0  502  0.54717217791E+03  0.98498599941E+02 -0.14571570648E+04  0.15596172890E+04  0.10100000352E+00 0.  1.
</event>
<event>
 5   0  0.1986613E-07  0.3403986E+04  0.7818609E-02  0.8136929E-01
       -2   -1    0    0    0  501  0.00000000000E+00  0.00000000000E+00  0.11839779400E+04  0.11839779400E+04  0.25500000920E-02 0. -1.
        2   -1    0    0  501    0  0.00000000000E+00  0.00000000000E+00 -0.24466511786E+04  0.24466511786E+04  0.25500000920E-02 0.  1.
    10030    2    1    2    0    0  0.00000000000E+00  0.00000000000E+00 -0.12626732386E+04  0.36306291186E+04  0.34039864996E+04 0.  0.
        5    1    3    3  502    0 -0.75906474157E+03 -0.80178745259E+03 -0.20128444452E+04  0.22957803144E+04  0.46999998093E+01 0.  1.
       -5    1    3    3    0  502  0.75906474157E+03  0.80178745259E+03  0.75017120661E+03  0.13348488043E+04  0.46999998093E+01 0. -1.
</event>
<event>
 5   0  0.6311750E-08  0.3398266E+04  0.7818609E-02  0.8138332E-01
        1   -1    0    0  501    0  0.00000000000E+00  0.00000000000E+00  0.18189002257E+04  0.18189002257E+04  0.50400001928E-02 0. -1.
       -1   -1    0    0    0  501  0.00000000000E+00  0.00000000000E+00 -0.15872520167E+04  0.15872520167E+04  0.50400001928E-02 0.  1.
    10030    2    1    2    0    0  0.00000000000E+00  0.00000000000E+00  0.23164820900E+03  0.34061522425E+04  0.33982660588E+04 0.  0.
        4    1    3    3  502    0 -0.52045017584E+03  0.60459930864E+03 -0.13878715943E+04  0.16008116331E+04  0.12699999809E+01 0.  1.
       -4    1    3    3    0  502  0.52045017584E+03 -0.60459930864E+03  0.16195198033E+04  0.18053406094E+04  0.12699999809E+01 0. -1.
</event>
<event>
 5   0  0.6341535E-08  0.3394870E+04  0.7818609E-02  0.8139167E-01
        1   -1    0    0  501    0  0.00000000000E+00  0.00000000000E+00  0.19352881742E+04  0.19352881742E+04  0.50400001928E-02 0. -1.
       -1   -1    0    0    0  501  0.00000000000E+00  0.00000000000E+00 -0.14888145753E+04  0.14888145753E+04  0.50400001928E-02 0.  1.
    10030    2    1    2    0    0  0.00000000000E+00  0.00000000000E+00  0.44647359892E+03  0.34241027496E+04  0.33948698009E+04 0.  0.
        5    1    3    3  502    0  0.12836151840E+04  0.39788474591E+03  0.12691244693E+04  0.18484261469E+04  0.46999998093E+01 0. -1.
       -5    1    3    3    0  502 -0.12836151840E+04 -0.39788474591E+03 -0.82265087043E+03  0.15756766027E+04  0.46999998093E+01 0.  1.
</event>
<event>
 5   0  0.6584420E-08  0.3401228E+04  0.7818609E-02  0.8137605E-01
        1   -1    0    0  501    0  0.00000000000E+00  0.00000000000E+00  0.17531574787E+04  0.17531574787E+04  0.50400001928E-02 0.  1.
       -1   -1    0    0    0  501  0.00000000000E+00  0.00000000000E+00 -0.16496449339E+04  0.16496449339E+04  0.50400001928E-02 0. -1.
    10030    2    1    2    0    0  0.00000000000E+00  0.00000000000E+00  0.10351254481E+03  0.34028024125E+04  0.34012276330E+04 0.  0.
        1    1    3    3  502    0 -0.13960990347E+04  0.87995171369E+03 -0.35914037474E+03  0.16889018153E+04  0.50400001928E-02 0. -1.
       -1    1    3    3    0  502  0.13960990347E+04 -0.87995171369E+03  0.46265291954E+03  0.17139005972E+04  0.50400001928E-02 0.  1.
</event>
<event>
 5   0  0.1963852E-07  0.3485522E+04  0.7818609E-02  0.8117230E-01
        2   -1    0    0  501    0  0.00000000000E+00  0.00000000000E+00  0.21571109602E+04  0.21571109602E+04  0.25500000920E-02 0. -1.
       -2   -1    0    0    0  501  0.00000000000E+00  0.00000000000E+00 -0.14080017677E+04  0.14080017677E+04  0.25500000920E-02 0.  1.
    10030    2    1    2    0    0  0.00000000000E+00  0.00000000000E+00  0.74910919250E+03  0.35651127279E+04  0.34855220814E+04 0.  0.
        4    1    3    3  502    0 -0.45922559412E+03 -0.15512823858E+04  0.10373082288E+04  0.19218155898E+04  0.12699999809E+01 0. -1.
       -4    1    3    3    0  502  0.45922559412E+03  0.15512823858E+04 -0.28819903630E+03  0.16432971381E+04  0.12699999809E+01 0.  1.
</event>
<event>
 5   0  0.1963852E-07  0.3396581E+04  0.7818609E-02  0.8138746E-01
       -2   -1    0    0    0  501  0.00000000000E+00  0.00000000000E+00  0.16054811473E+04  0.16054811473E+04  0.25500000920E-02 0.  1.
        2   -1    0    0  501    0  0.00000000000E+00  0.00000000000E+00 -0.17964653492E+04  0.17964653492E+04  0.25500000920E-02 0. -1.
    10030    2    1    2    0    0  0.00000000000E+00  0.00000000000E+00 -0.19098420186E+03  0.34019464964E+04  0.33965813695E+04 0.  0.
        4    1    3    3  502    0 -0.31070540498E+03  0.71768146397E+03 -0.16053828832E+04  0.17857380399E+04  0.12699999809E+01 0. -1.
       -4    1    3    3    0  502  0.31070540498E+03 -0.71768146397E+03  0.14143986814E+04  0.16162084566E+04  0.12699999809E+01 0.  1.
</event>
<event>
 5   0  0.6311750E-08  0.3400224E+04  0.7818609E-02  0.8137851E-01
        3   -1    0    0  501    0  0.00000000000E+00  0.00000000000E+00  0.14869523638E+04  0.14869523672E+04  0.10100000352E+00 0. -1.
       -3   -1    0    0    0  501  0.00000000000E+00  0.00000000000E+00 -0.19438288118E+04  0.19438288144E+04  0.10100000352E+00 0.  1.
    10030    2    1    2    0    0  0.00000000000E+00  0.00000000000E+00 -0.45687644807E+03  0.34307811816E+04  0.34002240261E+04 0.  0.
        4    1    3    3  502    0  0.14823321031E+04 -0.45241448590E+03 -0.93356908009E+03  0.18092927268E+04  0.12699999809E+01 0.  1.
       -4    1    3    3    0  502 -0.14823321031E+04  0.45241448590E+03  0.47669263202E+03  0.16214884549E+04  0.12699999809E+01 0. -1.
</event>
<event>
 5   0  0.1928004E-07  0.3397642E+04  0.7818609E-02  0.8138485E-01
       -2   -1    0    0    0  501  0.00000000000E+00  0.00000000000E+00  0.14710788953E+04  0.14710788954E+04  0.25500000920E-02 0.  1.
        2   -1    0    0  501    0  0.00000000000E+00  0.00000000000E+00 -0.19618210730E+04  0.19618210730E+04  0.25500000920E-02 0. -1.
    10030    2    1    2    0    0  0.00000000000E+00  0.00000000000E+00 -0.49074217764E+03  0.34328999683E+04  0.33976424632E+04 0.  0.
        2    1    3    3  502    0  0.10672406870E+04  0.55254949413E+03  0.96778840751E+03  0.15430256087E+04  0.25500000920E-02 0.  1.
       -2    1    3    3    0  502 -0.10672406870E+04 -0.55254949413E+03 -0.14585305852E+04  0.18898743596E+04  0.25500000920E-02 0. -1.
</event>
<event>
 5   0  0.6788600E-08  0.3411173E+04  0.7818609E-02  0.8135169E-01
        1   -1    0    0  501    0  0.00000000000E+00  0.00000000000E+00  0.21851789949E+04  0.21851789949E+04  0.50400001928E-02 0.  1.
       -1   -1    0    0    0  501  0.00000000000E+00  0.00000000000E+00 -0.13312527874E+04  0.13312527874E+04  0.50400001928E-02 0. -1.
    10030    2    1    2    0    0  0.00000000000E+00  0.00000000000E+00  0.85392620750E+03  0.35164317823E+04  0.34111731870E+04 0.  0.
        2    1    3    3  502    0 -0.69355403539E+03  0.12291951769E+04 -0.56023394576E+03  0.15184861069E+04  0.25500000920E-02 0. -1.
       -2    1    3    3    0  502  0.69355403539E+03 -0.12291951769E+04  0.14141601533E+04  0.19979456754E+04  0.25500000920E-02 0.  1.
</event>
<event>
 5   0  0.6367111E-08  0.3403675E+04  0.7818609E-02  0.8137005E-01
        1   -1    0    0  501    0  0.00000000000E+00  0.00000000000E+00  0.21722234282E+04  0.21722234282E+04  0.50400001928E-02 0. -1.
       -1   -1    0    0    0  501  0.00000000000E+00  0.00000000000E+00 -0.13333113722E+04  0.13333113723E+04  0.50400001928E-02 0.  1.
    10030    2    1    2    0    0  0.00000000000E+00  0.00000000000E+00  0.83891205594E+03  0.35055348004E+04  0.34036746025E+04 0.  0.
        3    1    3    3  502    0  0.76832092856E+03 -0.79570036965E+03  0.17515273787E+04  0.20715463538E+04  0.10100000352E+00 0. -1.
       -3    1    3    3    0  502 -0.76832092856E+03  0.79570036965E+03 -0.91261532275E+03  0.14339884466E+04  0.10100000352E+00 0.  1.
</event>
<event>
 5   0  0.1986613E-07  0.3399191E+04  0.7818609E-02  0.8138105E-01
        2   -1    0    0  501    0  0.00000000000E+00  0.00000000000E+00  0.23537737802E+04  0.23537737802E+04  0.25500000920E-02 0.  1.
       -2   -1    0    0    0  501  0.00000000000E+00  0.00000000000E+00 -0.12272314161E+04  0.12272314161E+04  0.25500000920E-02 0. -1.
    10030    2    1    2    0    0  0.00000000000E+00  0.00000000000E+00  0.11265423641E+04  0.35810051963E+04  0.33991911564E+04 0.  0.
        5    1    3    3  502    0  0.14392474729E+03 -0.98760997666E+03 -0.88599799516E+03  0.13345794605E+04  0.46999998093E+01 0. -1.
       -5    1    3    3    0  502 -0.14392474729E+03  0.98760997666E+03  0.20125403593E+04  0.22464257358E+04  0.46999998093E+01 0.  1.
</event>
<event>
 5   0  0.1970449E-07  0.3400612E+04  0.7818609E-02  0.8137756E-01
        2   -1    0    0  501    0  0.00000000000E+00  0.00000000000E+00  0.23844554464E+04  0.23844554464E+04  0.25500000920E-02 0.  1.
       -2   -1    0    0    0  501  0.00000000000E+00  0.00000000000E+00 -0.12124533595E+04  0.12124533595E+04  0.25500000920E-02 0. -1.
    10030    2    1    2    0    0  0.00000000000E+00  0.00000000000E+00  0.11720020869E+04  0.35969088059E+04  0.34006123075E+04 0.  0.
        1    1    3    3  502    0 -0.30037723328E+03  0.36643703913E+03 -0.11412132702E+04  0.12356659395E+04  0.50400001928E-02 0. -1.
       -1    1    3    3    0  502  0.30037723328E+03 -0.36643703913E+03  0.23132153571E+04  0.23612428664E+04  0.50400001928E-02 0.  1.
</event>
<event>
 5   0  0.6311750E-08  0.3406087E+04  0.7818609E-02  0.8136414E-01
        1   -1    0    0  501    0  0.00000000000E+00  0.00000000000E+00  0.17920358382E+04  0.17920358382E+04  0.50400001928E-02 0. -1.
       -1   -1    0    0    0  501  0.00000000000E+00  0.00000000000E+00 -0.16184704329E+04  0.16184704329E+04  0.50400001928E-02 0.  1.
    10030    2    1    2    0    0  0.00000000000E+00  0.00000000000E+00  0.17356540529E+03  0.34105062711E+04  0.34060869154E+04 0.  0.
        4    1    3    3  502    0  0.16792281424E+04 -0.11914515537E+02  0.37071065769E+03  0.17197026239E+04  0.12699999809E+01 0. -1.
       -4    1    3    3    0  502 -0.16792281424E+04  0.11914515537E+02 -0.19714525240E+03  0.16908036472E+04  0.12699999809E+01 0.  1.
</event>
<event>
 5   0  0.6311750E-08  0.3390778E+04  0.7818609E-02  0.8140173E-01
       -1   -1    0    0    0  501  0.00000000000E+00  0.00000000000E+00  0.10989563903E+04  0.10989563903E+04  0.50400001928E-02 0. -1.
        1   -1    0    0  501    0  0.00000000000E+00  0.00000000000E+00 -0.26155220476E+04  0.26155220476E+04  0.50400001928E-02 0.  1.
    10030    2    1    2    0    0  0.00000000000E+00  0.00000000000E+00 -0.15165656573E+04  0.37144784379E+04  0.33907784760E+04 0.  0.
        4    1    3    3  502    0 -0.47491944628E+03  0.13751261718E+04  0.19535220327E+03  0.14678843841E+04  0.12699999809E+01 0. -1.
       -4    1    3    3    0  502  0.47491944628E+03 -0.13751261718E+04 -0.17119178606E+04  0.22465940539E+04  0.12699999809E+01 0.  1.
</event>
<event>
 5   0  0.6341535E-08  0.3400073E+04  0.7818609E-02  0.8137888E-01
        1   -1    0    0  501    0  0.00000000000E+00  0.00000000000E+00  0.25509397247E+04  0.25509397247E+04  0.50400001928E-02 0.  1.
       -1   -1    0    0    0  501  0.00000000000E+00  0.00000000000E+00 -0.11329646651E+04  0.11329646651E+04  0.50400001928E-02 0. -1.
    10030    2    1    2    0    0  0.00000000000E+00  0.00000000000E+00  0.14179750596E+04  0.36839043897E+04  0.34000732761E+04 0.  0.
        5    1    3    3  502    0 -0.16807831984E+04  0.10077431659E+03  0.45508618278E+03  0.17442227916E+04  0.46999998093E+01 0. -1.
       -5    1    3    3    0  502  0.16807831984E+04 -0.10077431659E+03  0.96288887682E+03  0.19396815981E+04  0.46999998093E+01 0.  1.
</event>
<event>
 5   0  0.1963852E-07  0.3400890E+04  0.7818609E-02  0.8137688E-01
        2   -1    0    0  501    0  0.00000000000E+00  0.00000000000E+00  0.22028222083E+04  0.22028222083E+04  0.25500000920E-02 0. -1.
       -2   -1    0    0    0  501  0.00000000000E+00  0.00000000000E+00 -0.13126405990E+04  0.13126405990E+04  0.25500000920E-02 0.  1.
    10030    2    1    2    0    0  0.00000000000E+00  0.00000000000E+00  0.89018160936E+03  0.35154628073E+04  0.34008903910E+04 0.  0.
        4    1    3    3  502    0 -0.38158584606E+03 -0.11941454222E+04  0.16326735394E+04  0.20584497921E+04  0.12699999809E+01 0. -1.
       -4    1    3    3    0  502  0.38158584606E+03  0.11941454222E+04 -0.74249193006E+03  0.14570130152E+04  0.12699999809E+01 0.  1.
</event>
<event>
 5   0  0.6341535E-08  0.3400066E+04  0.7818609E-02  0.8137890E-01
       -1   -1    0    0    0  501  0.00000000000E+00  0.00000000000E+00  0.15805466769E+04  0.15805466770E+04  0.50400001928E-02 0. -1.
        1   -1    0    0  501    0  0.00000000000E+00  0.00000000000E+00 -0.18285519981E+04  0.18285519981E+04  0.50400001928E-02 0.  1.
    10030    2    1    2    0    0  0.00000000000E+00  0.00000000000E+00 -0.24800532115E+03  0.34090986751E+04  0.34000657548E+04 0.  0.
        5    1    3    3  502    0 -0.15806394035E+04  0.38048166674E+03  0.37421024649E+03  0.16683053142E+04  0.46999998093E+01 0. -1.
       -5    1    3    3    0  502  0.15806394035E+04 -0.38048166674E+03 -0.62221556764E+03  0.17407933609E+04  0.46999998093E+01 0.  1.
</event>
<event>
 5   0  0.1897313E-07  0.3395582E+04  0.7818609E-02  0.8138991E-01
       -2   -1    0    0    0  501  0.00000000000E+00  0.00000000000E+00  0.11536965982E+04  0.11536965982E+04  0.25500000920E-02 0. -1.
        2   -1    0    0  501    0  0.00000000000E+00  0.00000000000E+00 -0.24984862100E+04  0.24984862100E+04  0.25500000920E-02 0.  1.
    10030    2    1    2    0    0  0.00000000000E+00  0.00000000000E+00 -0.13447896118E+04  0.36521828083E+04  0.33955824486E+04 0.  0.
        3    1    3    3  502    0  0.13654851844E+04 -0.20071178466E+03 -0.17358817336E+04  0.22176835691E+04  0.10100000352E+00 0.  1.
       -3    1    3    3    0  502 -0.13654851844E+04  0.20071178466E+03  0.39109212181E+03  0.14344992392E+04  0.10100000352E+00 0. -1.
</event>
<event>
 5   0  0.1897313E-07  0.3391958E+04  0.7818609E-02  0.8139883E-01
        2   -1    0    0  501    0  0.00000000000E+00  0.00000000000E+00  0.13588219591E+04  0.13588219591E+04  0.25500000920E-02 0.  1.
       -2   -1    0    0    0  501  0.00000000000E+00  0.00000000000E+00 -0.21167924233E+04  0.21167924233E+04  0.25500000920E-02 0. -1.
    10030    2    1    2    0    0  0.00000000000E+00  0.00000000000E+00 -0.75797046418E+03  0.34756143824E+04  0.33919575632E+04 0.  0.
        3    1    3    3  502    0  0.11118170658E+04 -0.69152560072E+03  0.72556147447E+03  0.14969249506E+04  0.10100000352E+00 0.  1.
       -3    1    3    3    0  502 -0.11118170658E+04  0.69152560072E+03 -0.14835319386E+04  0.19786894318E+04  0.10100000352E+00 0. -1.
</event>
<event>
 5   0  0.6311750E-08  0.3391276E+04  0.7818609E-02  0.8140051E-01
        3   -1    0    0  501    0  0.00000000000E+00  0.00000000000E+00  0.16929481781E+04  0.16929481811E+04  0.10100000352E+00 0.  1.
       -3   -1    0    0    0  501  0.00000000000E+00  0.00000000000E+00 -0.16983317449E+04  0.16983317479E+04  0.10100000352E+00 0. -1.
    10030    2    1    2    0    0  0.00000000000E+00  0.00000000000E+00 -0.53835667901E+01  0.33912799289E+04  0.33912756558E+04 0.  0.
        3    1    3    3  502    0  0.10343573180E+04 -0.90593748101E+03  0.98956440007E+03  0.16940647841E+04  0.10100000352E+00 0.  1.
       -3    1    3    3    0  502 -0.10343573180E+04  0.90593748101E+03 -0.99494796686E+03  0.16972151448E+04  0.10100000352E+00 0. -1.
</event>
<event>
 5   0  0.6341535E-08  0.3402645E+04  0.7818609E-02  0.8137257E-01
        1   -1    0    0  501    0  0.00000000000E+00  0.00000000000E+00  0.27530444228E+04  0.27530444228E+04  0.50400001928E-02 0.  1.
       -1   -1    0    0    0  501  0.00000000000E+00  0.00000000000E+00 -0.10513808842E+04  0.10513808842E+04  0.50400001928E-02 0. -1.
    10030    2    1    2    0    0  0.00000000000E+00  0.00000000000E+00  0.17016635387E+04  0.38044253070E+04  0.34026450179E+04 0.  0.
        5    1    3    3  502    0  0.11795687984E+04  0.92903059462E+03  0.17452918812E+04  0.23022915186E+04  0.46999998093E+01 0.  1.
       -5    1    3    3    0  502 -0.11795687984E+04 -0.92903059462E+03 -0.43628342568E+02  0.15021337884E+04  0.46999998093E+01 0. -1.
</event>
<event>
 5   0  0.1897313E-07  0.3454583E+04  0.7818609E-02  0.8124638E-01
       -2   -1    0    0    0  501  0.00000000000E+00  0.00000000000E+00  0.15958912031E+04  0.15958912031E+04  0.25500000920E-02 0. -1.
        2   -1    0    0  501    0  0.00000000000E+00  0.00000000000E+00 -0.18695107295E+04  0.18695107295E+04  0.25500000920E-02 0.  1.
    10030    2    1    2    0    0  0.00000000000E+00  0.00000000000E+00 -0.27361952640E+03  0.34654019326E+04  0.34545828850E+04 0.  0.
        3    1    3    3  502    0 -0.65991147557E+03  0.42054624354E+03 -0.16815003025E+04  0.18546658933E+04  0.10100000352E+00 0.  1.
       -3    1    3    3    0  502  0.65991147557E+03 -0.42054624354E+03  0.14078807761E+04  0.16107360393E+04  0.10100000352E+00 0. -1.
</event>
<event>
 5   0  0.1928004E-07  0.3402300E+04  0.7818609E-02  0.8137342E-01
       -2   -1    0    0    0  501  0.00000000000E+00  0.00000000000E+00  0.97678919805E+03  0.97678919805E+03  0.25500000920E-02 0. -1.
        2   -1    0    0  501    0  0.00000000000E+00  0.00000000000E+00 -0.29626772261E+04  0.29626772261E+04  0.25500000920E-02 0.  1.
    10030    2    1    2    0    0  0.00000000000E+00  0.00000000000E+00 -0.19858880281E+04  0.39394664242E+04  0.34022998761E+04 0.  0.
        2    1    3    3  502    0  0.12155151229E+04  0.97031687071E+03 -0.17908922317E+04  0.23719795170E+04  0.25500000920E-02 0.  1.
       -2    1    3    3    0  502 -0.12155151229E+04 -0.97031687071E+03 -0.19499579637E+03  0.15674869072E+04  0.25500000920E-02 0. -1.
</event>
<event>
 5   0  0.1970449E-07  0.3400313E+04  0.7818609E-02  0.8137829E-01
       -2   -1    0    0    0  501  0.00000000000E+00  0.00000000000E+00  0.10773984345E+04  0.10773984345E+04  0.25500000920E-02 0. -1.
        2   -1    0    0  501    0  0.00000000000E+00  0.00000000000E+00 -0.26828817009E+04  0.26828817009E+04  0.25500000920E-02 0.  1.
    10030    2    1    2    0    0  0.00000000000E+00  0.00000000000E+00 -0.16054832664E+04  0.37602801355E+04  0.34003132471E+04 0.  0.
        1    1    3    3  502    0  0.31429172805E+03 -0.11275785391E+04 -0.21662843941E+04  0.24623161309E+04  0.50400001928E-02 0.  1.
       -1    1    3    3    0  502 -0.31429172805E+03  0.11275785391E+04  0.56080112773E+03  0.12979640046E+04  0.50400001928E-02 0. -1.
</event>
<event>
 5   0  0.6584420E-08  0.3398363E+04  0.7818609E-02  0.8138308E-01
       -1   -1    0    0    0  501  0.00000000000E+00  0.00000000000E+00  0.15411739384E+04  0.15411739384E+04  0.50400001928E-02 0. -1.
        1   -1    0    0  501    0  0.00000000000E+00  0.00000000000E+00 -0.18733888046E+04  0.18733888046E+04  0.50400001928E-02 0.  1.
    10030    2    1    2    0    0  0.00000000000E+00  0.00000000000E+00 -0.33221486626E+03  0.34145627430E+04  0.33983631366E+04 0.  0.
        1    1    3    3  502    0  0.56351165287E+03  0.41617341067E+02 -0.17762257900E+04  0.18639354718E+04  0.50400001928E-02 0.  1.
       -1    1    3    3    0  502 -0.56351165287E+03 -0.41617341067E+02  0.14440109238E+04  0.15506272711E+04  0.50400001928E-02 0. -1.
</event>
<event>
 5   0  0.1963852E-07  0.3400946E+04  0.7818609E-02  0.8137674E-01
        2   -1    0    0  501    0  0.00000000000E+00  0.00000000000E+00  0.19391781224E+04  0.19391781224E+04  0.25500000920E-02 0.  1.
       -2   -1    0    0    0  501  0.00000000000E+00  0.00000000000E+00 -0.14911514564E+04  0.14911514564E+04  0.25500000920E-02 0. -1.
    10030    2    1    2    0    0  0.00000000000E+00  0.00000000000E+00  0.44802666607E+03  0.34303295788E+04  0.34009459163E+04 0.  0.
        4    1    3    3  502    0  0.13899214722E+04  0.51329448575E+02  0.12107756822E+04  0.18440433229E+04  0.12699999809E+01 0. -1.
       -4    1    3    3    0  502 -0.13899214722E+04 -0.51329448575E+02 -0.76274901610E+03  0.15862862559E+04  0.12699999809E+01 0.  1.
</event>
<event>
 5   0  0.1963852E-07  0.3398262E+04  0.7818609E-02  0.8138333E-01
        2   -1    0    0  501    0  0.00000000000E+00  0.00000000000E+00  0.17827179953E+04  0.17827179953E+04  0.25500000920E-02 0.  1.
       -2   -1    0    0    0  501  0.00000000000E+00  0.00000000000E+00 -0.16194631819E+04  0.16194631819E+04  0.25500000920E-02 0. -1.
    10030    2    1    2    0    0  0.00000000000E+00  0.00000000000E+00  0.16325481338E+03  0.34021811773E+04  0.33982620012E+04 0.  0.
        4    1    3    3  502    0 -0.39499446934E+03  0.44317815677E+03  0.16755115602E+04  0.17775736583E+04  0.12699999809E+01 0.  1.
       -4    1    3    3    0  502  0.39499446934E+03 -0.44317815677E+03 -0.15122567468E+04  0.16246075190E+04  0.12699999809E+01 0. -1.
</event>
<event>
 5   0  0.1897313E-07  0.3407977E+04  0.7818609E-02  0.8135951E-01
        2   -1    0    0  501    0  0.00000000000E+00  0.00000000000E+00  0.17154873111E+04  0.17154873111E+04  0.25500000920E-02 0. -1.
       -2   -1    0    0    0  501  0.00000000000E+00  0.00000000000E+00 -0.16925671310E+04  0.16925671310E+04  0.25500000920E-02 0.  1.
    10030    2    1    2    0    0  0.00000000000E+00  0.00000000000E+00  0.22920180150E+02  0.34080544421E+04  0.34079773687E+04 0.  0.
        3    1    3    3  502    0  0.13078724668E+03  0.86770581734E+02 -0.16853231041E+04  0.16926158492E+04  0.10100000352E+00 0.  1.
       -3    1    3    3    0  502 -0.13078724668E+03 -0.86770581734E+02  0.17082432842E+04  0.17154385929E+04  0.10100000352E+00 0. -1.
</event>
<event>
 5   0  0.6311750E-08  0.3392091E+04  0.7818609E-02  0.8139850E-01
       -1   -1    0    0    0  501  0.00000000000E+00  0.00000000000E+00  0.16157058014E+04  0.16157058014E+04  0.50400001928E-02 0.  1.
        1   -1    0    0  501    0  0.00000000000E+00  0.00000000000E+00 -0.17803805150E+04  0.17803805150E+04  0.50400001928E-02 0. -1.
    10030    2    1    2    0    0  0.00000000000E+00  0.00000000000E+00 -0.16467471361E+03  0.33960863164E+04  0.33920914650E+04 0.  0.
        4    1    3    3  502    0 -0.34760417878E+03 -0.13941591658E+04  0.81986822795E+03  0.16542956110E+04  0.12699999809E+01 0.  1.
       -4    1    3    3    0  502  0.34760417878E+03  0.13941591658E+04 -0.98454294156E+03  0.17417907054E+04  0.12699999809E+01 0. -1.
</event>
<event>
 5   0  0.6788600E-08  0.3402954E+04  0.7818609E-02  0.8137182E-01
        1   -1    0    0  501    0  0.00000000000E+00  0.00000000000E+00  0.22710360578E+04  0.22710360578E+04  0.50400001928E-02 0. -1.
       -1   -1    0    0    0  501  0.00000000000E+00  0.00000000000E+00 -0.12747590952E+04  0.12747590952E+04  0.50400001928E-02 0.  1.
    10030    2    1    2    0    0  0.00000000000E+00  0.00000000000E+00  0.99627696261E+03  0.35457951530E+04  0.34029539346E+04 0.  0.
        2    1    3    3  502    0  0.14245999899E+04  0.10222327428E+03  0.14616641026E+04  0.20436234188E+04  0.25500000920E-02 0. -1.
       -2    1    3    3    0  502 -0.14245999899E+04 -0.10222327428E+03 -0.46538714000E+03  0.15021717342E+04  0.25500000920E-02 0.  1.
</event>
<event>
 5   0  0.1897313E-07  0.3382659E+04  0.7818609E-02  0.8142176E-01
       -2   -1    0    0    0  501  0.00000000000E+00  0.00000000000E+00  0.12458814389E+04  0.12458814389E+04  0.25500000920E-02 0.  1.
        2   -1    0    0  501    0  0.00000000000E+00  0.00000000000E+00 -0.22960412412E+04  0.22960412412E+04  0.25500000920E-02 0. -1.
    10030    2    1    2    0    0  0.00000000000E+00  0.00000000000E+00 -0.10501598023E+04  0.35419226801E+04  0.33826588155E+04 0.  0.
        3    1    3    3  502    0 -0.45865586339E+03 -0.12192249672E+04  0.60446945038E+03  0.14360564224E+04  0.10100000352E+00 0.  1.
       -3    1    3    3    0  502  0.45865586339E+03  0.12192249672E+04 -0.16546292527E+04  0.21058662578E+04  0.10100000352E+00 0. -1.
</event>
<event>
 5   0  0.1963852E-07  0.3398677E+04  0.7818609E-02  0.8138231E-01
       -2   -1    0    0    0  501  0.00000000000E+00  0.00000000000E+00  0.12629541554E+04  0.12629541554E+04  0.25500000920E-02 0. -1.
        2   -1    0    0  501    0  0.00000000000E+00  0.00000000000E+00 -0.22865051229E+04  0.22865051229E+04  0.25500000920E-02 0.  1.
    10030    2    1    2    0    0  0.00000000000E+00  0.00000000000E+00 -0.10235509674E+04  0.35494592783E+04  0.33986768874E+04 0.  0.
        4    1    3    3  502    0 -0.92651419277E+03  0.14989438203E+03  0.96770780469E+03  0.13480937962E+04  0.12699999809E+01 0. -1.
       -4    1    3    3    0  502  0.92651419277E+03 -0.14989438203E+03 -0.19912587721E+04  0.22013654821E+04  0.12699999809E+01 0.  1.
</event>
<event>
 5   0  0.1963852E-07  0.3397083E+04  0.7818609E-02  0.8138623E-01
        2   -1    0    0  501    0  0.00000000000E+00  0.00000000000E+00  0.13861658244E+04  0.13861658244E+04  0.25500000920E-02 0.  1.
       -2   -1    0    0    0  501  0.00000000000E+00  0.00000000000E+00 -0.20813116392E+04  0.20813116392E+04  0.25500000920E-02 0. -1.
    10030    2    1    2    0    0  0.00000000000E+00  0.00000000000E+00 -0.69514581483E+03  0.34674774637E+04  0.33970829041E+04 0.  0.
        4    1    3    3  502    0 -0.88086566548E+03 -0.13738739781E+03  0.11281532290E+04  0.14378911428E+04  0.12699999809E+01 0.  1.
       -4    1    3    3    0  502  0.88086566548E+03  0.13738739781E+03 -0.18232990438E+04  0.20295863208E+04  0.12699999809E+01 0. -1.
</event>
<event>
 5   0  0.6367111E-08  0.3396140E+04  0.7818609E-02  0.8138854E-01
        1   -1    0    0  501    0  0.00000000000E+00  0.00000000000E+00  0.27080021248E+04  0.27080021248E+04  0.50400001928E-02 0. -1.
       -1   -1    0    0    0  501  0.00000000000E+00  0.00000000000E+00 -0.10647854183E+04  0.10647854183E+04  0.50400001928E-02 0.  1.
    10030    2    1    2    0    0  0.00000000000E+00  0.00000000000E+00  0.16432167064E+04  0.37727875431E+04  0.33961396763E+04 0.  0.
        3    1    3    3  502    0 -0.16057474404E+04  0.38689346951E+03  0.38377973045E+03  0.16956999413E+04  0.10100000352E+00 0. -1.
       -3    1    3    3    0  502  0.16057474404E+04 -0.38689346951E+03  0.12594369760E+04  0.20770876019E+04  0.10100000352E+00 0.  1.
</event>
<event>
 5   0  0.6584420E-08  0.3401440E+04  0.7818609E-02  0.8137553E-01
       -1   -1    0    0    0  501  0.00000000000E+00  0.00000000000E+00  0.11933431026E+04  0.11933431026E+04  0.50400001928E-02 0. -1.
        1   -1    0    0  501    0  0.00000000000E+00  0.00000000000E+00 -0.24238197406E+04  0.24238197406E+04  0.50400001928E-02 0.  1.
    10030    2    1    2    0    0  0.00000000000E+00  0.00000000000E+00 -0.12304766380E+04  0.36171628431E+04  0.34014400299E+04 0.  0.
        1    1    3    3  502    0  0.65068096643E+03 -0.15306124062E+04 -0.99314725758E+03  0.19371374585E+04  0.50400001928E-02 0. -1.
       -1    1    3    3    0  502 -0.65068096643E+03  0.15306124062E+04 -0.23732938041E+03  0.16800253846E+04  0.50400001928E-02 0.  1.
</event>
<event>
 5   0  0.6311750E-08  0.3400235E+04  0.7818609E-02  0.8137849E-01
        1   -1    0    0  501    0  0.00000000000E+00  0.00000000000E+00  0.17276407633E+04  0.17276407633E+04  0.50400001928E-02 0.  1.
       -1   -1    0    0    0  501  0.00000000000E+00  0.00000000000E+00 -0.16730328914E+04  0.16730328914E+04  0.50400001928E-02 0. -1.
    10030    2    1    2    0    0  0.00000000000E+00  0.00000000000E+00  0.54607871876E+02  0.34006736547E+04  0.34002351810E+04 0.  0.
        4    1    3    3  502    0 -0.72056411884E+03  0.91079693825E+03  0.12690897959E+04  0.17202773715E+04  0.12699999809E+01 0.  1.
       -4    1    3    3    0  502  0.72056411884E+03 -0.91079693825E+03 -0.12144819240E+04  0.16803962832E+04  0.12699999809E+01 0. -1.
</event>
<event>
 5   0  0.1970449E-07  0.3402109E+04  0.7818609E-02  0.8137389E-01
        2   -1    0    0  501    0  0.00000000000E+00  0.00000000000E+00  0.14962889776E+04  0.14962889776E+04  0.25500000920E-02 0.  1.
       -2   -1    0    0    0  501  0.00000000000E+00  0.00000000000E+00 -0.19338422040E+04  0.19338422040E+04  0.25500000920E-02 0. -1.
    10030    2    1    2    0    0  0.00000000000E+00  0.00000000000E+00 -0.43755322643E+03  0.34301311816E+04  0.34021092130E+04 0.  0.
        1    1    3    3  502    0 -0.15816046444E+04  0.40329865677E+02  0.41125999150E+03  0.16346970759E+04  0.50400001928E-02 0.  1.
       -1    1    3    3    0  502  0.15816046444E+04 -0.40329865677E+02 -0.84881321793E+03  0.17954341058E+04  0.50400001928E-02 0. -1.
</event>
<event>
 5   0  0.1963852E-07  0.3400051E+04  0.7818609E-02  0.8137894E-01
        2   -1    0    0  501    0  0.00000000000E+00  0.00000000000E+00  0.10797754101E+04  0.10797754101E+04  0.25500000920E-02 0.  1.
       -2   -1    0    0    0  501  0.00000000000E+00  0.00000000000E+00 -0.26765631345E+04  0.26765631345E+04  0.25500000920E-02 0. -1.
    10030    2    1    2    0    0  0.00000000000E+00  0.00000000000E+00 -0.15967877244E+04  0.37563385446E+04  0.34000512091E+04 0.  0.
        4    1    3    3  502    0 -0.29851477037E+03  0.13264569125E+04 -0.19258666724E+04  0.23574484218E+04  0.12699999809E+01 0. -1.
       -4    1    3    3    0  502  0.29851477037E+03 -0.13264569125E+04  0.32907894799E+03  0.13988901228E+04  0.12699999809E+01 0.  1.
</event>
<event>
 5   0  0.6341535E-08  0.3394169E+04  0.7818609E-02  0.8139339E-01
        1   -1    0    0  501    0  0.00000000000E+00  0.00000000000E+00  0.26294380276E+04  0.26294380276E+04  0.50400001928E-02 0.  1.
       -1   -1    0    0    0  501  0.00000000000E+00  0.00000000000E+00 -0.10953273294E+04  0.10953273294E+04  0.50400001928E-02 0. -1.
    10030    2    1    2    0    0  0.00000000000E+00  0.00000000000E+00  0.15341106983E+04  0.37247653570E+04  0.33941687245E+04 0.  0.
        5    1    3    3  502    0 -0.12446421651E+04  0.88794908397E+03  0.15753311533E+04  0.21952854091E+04  0.46999998093E+01 0. -1.
       -5    1    3    3    0  502  0.12446421651E+04 -0.88794908397E+03 -0.41220455083E+02  0.15294799478E+04  0.46999998093E+01 0.  1.
</event>
<event>
 5   0  0.1970449E-07  0.3402431E+04  0.7818609E-02  0.8137310E-01
       -2   -1    0    0    0  501  0.00000000000E+00  0.00000000000E+00  0.18957455975E+04  0.18957455975E+04  0.25500000920E-02 0. -1.
        2   -1    0    0  501    0  0.00000000000E+00  0.00000000000E+00 -0.15266472658E+04  0.15266472658E+04  0.25500000920E-02 0.  1.
    10030    2    1    2    0    0  0.00000000000E+00  0.00000000000E+00  0.36909833168E+03  0.34223928633E+04  0.34024313854E+04 0.  0.
        1    1    3    3  502    0  0.46896488903E+03  0.14286295252E+04  0.98497172804E+03  0.17975204290E+04  0.50400001928E-02 0. -1.
       -1    1    3    3    0  502 -0.46896488903E+03 -0.14286295252E+04 -0.61587339636E+03  0.16248724343E+04  0.50400001928E-02 0.  1.
</event>
<event>
 5   0  0.6367111E-08  0.3398487E+04  0.7818609E-02  0.8138278E-01
        1   -1    0    0  501    0  0.00000000000E+00  0.00000000000E+00  0.15326179108E+04  0.15326179108E+04  0.50400001928E-02 0.  1.
       -1   -1    0    0    0  501  0.00000000000E+00  0.00000000000E+00 -0.18839850012E+04  0.18839850012E+04  0.50400001928E-02 0. -1.
    10030    2    1    2    0    0  0.00000000000E+00  0.00000000000E+00 -0.35136709042E+03  0.34166029120E+04  0.33984874026E+04 0.  0.
        3    1    3    3  502    0  0.16597637456E+04 -0.12595413961E+03 -0.51919042949E+03  0.17436280706E+04  0.10100000352E+00 0. -1.
       -3    1    3    3    0  502 -0.16597637456E+04  0.12595413961E+03  0.16782333907E+03  0.16729748413E+04  0.10100000352E+00 0.  1.
</event>
<event>
 5   0  0.6341535E-08  0.3396742E+04  0.7818609E-02  0.8138706E-01
        1   -1    0    0  501    0  0.00000000000E+00  0.00000000000E+00  0.89930717645E+03  0.89930717647E+03  0.50400001928E-02 0. -1.
       -1   -1    0    0    0  501  0.00000000000E+00  0.00000000000E+00 -0.32074300666E+04  0.32074300666E+04  0.50400001928E-02 0.  1.
    10030    2    1    2    0    0  0.00000000000E+00  0.00000000000E+00 -0.23081228901E+04  0.41067372431E+04  0.33967424847E+04 0.  0.
        5    1    3    3  502    0  0.14297234067E+04 -0.60761862484E+03 -0.19839241140E+04  0.25197790365E+04  0.46999998093E+01 0.  1.
       -5    1    3    3    0  502 -0.14297234067E+04  0.60761862484E+03 -0.32419877616E+03  0.15869582065E+04  0.46999998093E+01 0. -1.
</event>
<event>
 5   0  0.6341535E-08  0.3398968E+04  0.7818609E-02  0.8138160E-01
        1   -1    0    0  501    0  0.00000000000E+00  0.00000000000E+00  0.21236840373E+04  0.21236840373E+04  0.50400001928E-02 0. -1.
       -1   -1    0    0    0  501  0.00000000000E+00  0.00000000000E+00 -0.13600165535E+04  0.13600165535E+04  0.50400001928E-02 0.  1.
    10030    2    1    2    0    0  0.00000000000E+00  0.00000000000E+00  0.76366748382E+03  0.34837005908E+04  0.33989677522E+04 0.  0.
        5    1    3    3  502    0 -0.28334500090E+03  0.73373069944E+03  0.19259015057E+04  0.20803278176E+04  0.46999998093E+01 0. -1.
       -5    1    3    3    0  502  0.28334500090E+03 -0.73373069944E+03 -0.11622340219E+04  0.14033727732E+04  0.46999998093E+01 0.  1.
</event>
<event>
 5   0  0.1986613E-07  0.3394225E+04  0.7818609E-02  0.8139325E-01
        2   -1    0    0  501    0  0.00000000000E+00  0.00000000000E+00  0.20021413373E+04  0.20021413373E+04  0.25500000920E-02 0.  1.
       -2   -1    0    0    0  501  0.00000000000E+00  0.00000000000E+00 -0.14385551917E+04  0.14385551917E+04  0.25500000920E-02 0. -1.
    10030    2    1    2    0    0  0.00000000000E+00  0.00000000000E+00  0.56358614560E+03  0.34406965289E+04  0.33942249867E+04 0.  0.
        5    1    3    3  502    0 -0.84941183647E+03  0.68324463644E+03 -0.10367248339E+04  0.15043750106E+04  0.46999998093E+01 0. -1.
       -5    1    3    3    0  502  0.84941183647E+03 -0.68324463644E+03  0.16003109795E+04  0.19363215183E+04  0.46999998093E+01 0.  1.
</event>
<event>
 5   0  0.1986613E-07  0.3397515E+04  0.7818609E-02  0.8138516E-01
       -2   -1    0    0    0  501  0.00000000000E+00  0.00000000000E+00  0.17426415363E+04  0.17426415363E+04  0.25500000920E-02 0. -1.
        2   -1    0    0  501    0  0.00000000000E+00  0.00000000000E+00 -0.16559788843E+04  0.16559788843E+04  0.25500000920E-02 0.  1.
    10030    2    1    2    0    0  0.00000000000E+00  0.00000000000E+00  0.86662651958E+02  0.33986204206E+04  0.33975153198E+04 0.  0.
        5    1    3    3  502    0 -0.11202438459E+04  0.29207829095E+03 -0.12002542397E+04  0.16675995719E+04  0.46999998093E+01 0.  1.
       -5    1    3    3    0  502  0.11202438459E+04 -0.29207829095E+03  0.12869168917E+04  0.17310208487E+04  0.46999998093E+01 0. -1.
</event>
<event>
 5   0  0.1928004E-07  0.3402356E+04  0.7818609E-02  0.8137328E-01
        2   -1    0    0  501    0  0.00000000000E+00  0.00000000000E+00  0.16974211073E+04  0.16974211073E+04  0.25500000920E-02 0.  1.
       -2   -1    0    0    0  501  0.00000000000E+00  0.00000000000E+00 -0.17049434282E+04  0.17049434282E+04  0.25500000920E-02 0. -1.
    10030    2    1    2    0    0  0.00000000000E+00  0.00000000000E+00 -0.75223208496E+01  0.34023645355E+04  0.34023562199E+04 0.  0.
        2    1    3    3  502    0  0.15846956981E+04  0.36509358904E+03 -0.50321525924E+03  0.17022865157E+04  0.25500000920E-02 0.  1.
       -2    1    3    3    0  502 -0.15846956981E+04 -0.36509358904E+03  0.49569293839E+03  0.17000780198E+04  0.25500000920E-02 0. -1.
</event>
<event>
 5   0  0.6584420E-08  0.3387961E+04  0.7818609E-02  0.8140867E-01
        1   -1    0    0  501    0  0.00000000000E+00  0.00000000000E+00  0.10962425707E+04  0.10962425707E+04  0.50400001928E-02 0. -1.
       -1   -1    0    0    0  501  0.00000000000E+00  0.00000000000E+00 -0.26176416908E+04  0.26176416908E+04  0.50400001928E-02 0.  1.
    10030    2    1    2    0    0  0.00000000000E+00  0.00000000000E+00 -0.15213991201E+04  0.37138842615E+04  0.33879611901E+04 0.  0.
        1    1    3    3  502    0 -0.72969353067E+03  0.25641107039E+03  0.89139147341E+03  0.11801601775E+04  0.50400001928E-02 0. -1.
       -1    1    3    3    0  502  0.72969353067E+03 -0.25641107039E+03 -0.24127905935E+04  0.25337240840E+04  0.50400001928E-02 0.  1.
</event>
<event>
 5   0  0.1986613E-07  0.3398436E+04  0.7818609E-02  0.8138290E-01
        2   -1    0    0  501    0  0.00000000000E+00  0.00000000000E+00  0.17984777522E+04  0.17984777522E+04  0.25500000920E-02 0. -1.
       -2   -1    0    0    0  501  0.00000000000E+00  0.00000000000E+00 -0.16054366710E+04  0.16054366710E+04  0.25500000920E-02 0.  1.
    10030    2    1    2    0    0  0.00000000000E+00  0.00000000000E+00  0.19304108122E+03  0.34039144232E+04  0.33984361906E+04 0.  0.
        5    1    3    3  502    0 -0.14322441550E+03  0.15622943768E+04  0.75029248150E+03  0.17390335968E+04  0.46999998093E+01 0. -1.
       -5    1    3    3    0  502  0.14322441550E+03 -0.15622943768E+04 -0.55725140028E+03  0.16648808264E+04  0.46999998093E+01 0.  1.
</event>
<event>
 5   0  0.6341535E-08  0.3400190E+04  0.7818609E-02  0.8137860E-01
       -1   -1    0    0    0  501  0.00000000000E+00  0.00000000000E+00  0.23928735923E+04  0.23928735923E+04  0.50400001928E-02 0.  1.
        1   -1    0    0  501    0  0.00000000000E+00  0.00000000000E+00 -0.12078875705E+04  0.12078875705E+04  0.50400001928E-02 0. -1.
    10030    2    1    2    0    0  0.00000000000E+00  0.00000000000E+00  0.11849860217E+04  0.36007611628E+04  0.34001895653E+04 0.  0.
        5    1    3    3  502    0  0.42536328812E+03  0.13782586172E+04 -0.36046085495E+03  0.14867699421E+04  0.46999998093E+01 0. -1.
       -5    1    3    3    0  502 -0.42536328812E+03 -0.13782586172E+04  0.15454468767E+04  0.21139912207E+04  0.46999998093E+01 0.  1.
</event>
<event>
 5   0  0.1897313E-07  0.3388761E+04  0.7818609E-02  0.8140670E-01
        2   -1    0    0  501    0  0.00000000000E+00  0.00000000000E+00  0.19941377503E+04  0.19941377503E+04  0.25500000920E-02 0. -1.
       -2   -1    0    0    0  501  0.00000000000E+00  0.00000000000E+00 -0.14396825430E+04  0.14396825430E+04  0.25500000920E-02 0.  1.
    10030    2    1    2    0    0  0.00000000000E+00  0.00000000000E+00  0.55445520727E+03  0.34338202934E+04  0.33887610170E+04 0.  0.
        3    1    3    3  502    0  0.27822903694E+02 -0.12405908293E+04  0.14462951630E+04  0.19056782069E+04  0.10100000352E+00 0. -1.
       -3    1    3    3    0  502 -0.27822903694E+02  0.12405908293E+04 -0.89183995569E+03  0.15281420865E+04  0.10100000352E+00 0.  1.
</event>
<event>
 5   0  0.1986613E-07  0.3410058E+04  0.7818609E-02  0.8135442E-01
       -2   -1    0    0    0  501  0.00000000000E+00  0.00000000000E+00  0.19552824542E+04  0.19552824542E+04  0.25500000920E-02 0.  1.
        2   -1    0    0  501    0  0.00000000000E+00  0.00000000000E+00 -0.14868054505E+04  0.14868054505E+04  0.25500000920E-02 0. -1.
    10030    2    1    2    0    0  0.00000000000E+00  0.00000000000E+00  0.46847700376E+03  0.34420879047E+04  0.34100584219E+04 0.  0.
        5    1    3    3  502    0 -0.11738833877E+04 -0.92192695070E+03 -0.59760822700E+03  0.16078274762E+04  0.46999998093E+01 0. -1.
       -5    1    3    3    0  502  0.11738833877E+04  0.92192695070E+03  0.10660852308E+04  0.18342604285E+04  0.46999998093E+01 0.  1.
</event>
<event>
 5   0  0.6311750E-08  0.3403016E+04  0.7818609E-02  0.8137167E-01
       -1   -1    0    0    0  501  0.00000000000E+00  0.00000000000E+00  0.13973059227E+04  0.13973059228E+04  0.50400001928E-02 0. -1.
        1   -1    0    0  501    0  0.00000000000E+00  0.00000000000E+00 -0.20719361786E+04  0.20719361786E+04  0.50400001928E-02 0.  1.
    10030    2    1    2    0    0  0.00000000000E+00  0.00000000000E+00 -0.67463025582E+03  0.34692421013E+04  0.34030155415E+04 0.  0.
        4    1    3    3  502    0  0.83745214374E+03  0.10794253342E+04 -0.13712728677E+04  0.19356849010E+04  0.12699999809E+01 0.  1.
       -4    1    3    3    0  502 -0.83745214374E+03 -0.10794253342E+04  0.69664261185E+03  0.15335572004E+04  0.12699999809E+01 0. -1.
</event>
<event>
 5   0  0.1897313E-07  0.3397557E+04  0.7818609E-02  0.8138506E-01
       -2   -1    0    0    0  501  0.00000000000E+00  0.00000000000E+00  0.13052031851E+04  0.13052031851E+04  0.25500000920E-02 0.  1.
        2   -1    0    0  501    0  0.00000000000E+00  0.00000000000E+00 -0.22110334410E+04  0.22110334410E+04  0.25500000920E-02 0. -1.
    10030    2    1    2    0    0  0.00000000000E+00  0.00000000000E+00 -0.90583025584E+03  0.35162366261E+04  0.33975567042E+04 0.  0.
        3    1    3    3  502    0  0.28258461663E+03 -0.16609266182E+04 -0.67803719377E+03  0.18161128112E+04  0.10100000352E+00 0. -1.
       -3    1    3    3    0  502 -0.28258461663E+03  0.16609266182E+04 -0.22779306207E+03  0.17001238149E+04  0.10100000352E+00 0.  1.
</event>
<event>
 5   0  0.1928004E-07  0.3399766E+04  0.7818609E-02  0.8137964E-01
       -2   -1    0    0    0  501  0.00000000000E+00  0.00000000000E+00  0.14256608195E+04  0.14256608195E+04  0.25500000920E-02 0. -1.
        2   -1    0    0  501    0  0.00000000000E+00  0.00000000000E+00 -0.20268506731E+04  0.20268506731E+04  0.25500000920E-02 0.  1.
    10030    2    1    2    0    0  0.00000000000E+00  0.00000000000E+00 -0.60118985356E+03  0.34525114926E+04  0.33997656340E+04 0.  0.
        2    1    3    3  502    0  0.16341954395E+04  0.46730077767E+03 -0.32622214557E+03  0.17307182438E+04  0.25500000920E-02 0. -1.
       -2    1    3    3    0  502 -0.16341954395E+04 -0.46730077767E+03 -0.27496770799E+03  0.17217932488E+04  0.25500000920E-02 0.  1.
</event>
<event>
 5   0  0.1963852E-07  0.3396835E+04  0.7818609E-02  0.8138684E-01
       -2   -1    0    0    0  501  0.00000000000E+00  0.00000000000E+00  0.15037011452E+04  0.15037011452E+04  0.25500000920E-02 0. -1.
        2   -1    0    0  501    0  0.00000000000E+00  0.00000000000E+00 -0.19183475619E+04  0.19183475619E+04  0.25500000920E-02 0.  1.
    10030    2    1    2    0    0  0.00000000000E+00  0.00000000000E+00 -0.41464641671E+03  0.34220487071E+04  0.33968346593E+04 0.  0.
        4    1    3    3  502    0  0.11633622576E+04  0.14413265466E+03  0.10307964901E+04  0.15610025565E+04  0.12699999809E+01 0. -1.
       -4    1    3    3    0  502 -0.11633622576E+04 -0.14413265466E+03 -0.14454429069E+04  0.18610461505E+04  0.12699999809E+01 0.  1.
</event>
<event>
 5   0  0.1897313E-07  0.3400976E+04  0.7818609E-02  0.8137667E-01
        2   -1    0    0  501    0  0.00000000000E+00  0.00000000000E+00  0.20369904255E+04  0.20369904255E+04  0.25500000920E-02 0. -1.
       -2   -1    0    0    0  501  0.00000000000E+00  0.00000000000E+00 -0.14195740410E+04  0.14195740410E+04  0.25500000920E-02 0.  1.
    10030    2    1    2    0    0  0.00000000000E+00  0.00000000000E+00  0.61741638456E+03  0.34565644665E+04  0.34009755835E+04 0.  0.
        3    1    3    3  502    0  0.13426972663E+04  0.99757625242E+03  0.61975690254E+03  0.17838421894E+04  0.10100000352E+00 0. -1.
       -3    1    3    3    0  502 -0.13426972663E+04 -0.99757625242E+03 -0.23405179788E+01  0.16727222771E+04  0.10100000352E+00 0.  1.
</event>
<event>
 5   0  0.1970449E-07  0.3396103E+04  0.7818609E-02  0.8138863E-01
        2   -1    0    0  501    0  0.00000000000E+00  0.00000000000E+00  0.22012652152E+04  0.22012652152E+04  0.25500000920E-02 0. -1.
       -2   -1    0    0    0  501  0.00000000000E+00  0.00000000000E+00 -0.13098737082E+04  0.13098737082E+04  0.25500000920E-02 0.  1.
    10030    2    1    2    0    0  0.00000000000E+00  0.00000000000E+00  0.89139150706E+03  0.35111389234E+04  0.33961033142E+04 0.  0.
        1    1    3    3  502    0  0.11677496494E+04  0.22996975497E+03 -0.80646641679E+03  0.14376763938E+04  0.50400001928E-02 0.  1.
       -1    1    3    3    0  502 -0.11677496494E+04 -0.22996975497E+03  0.16978579238E+04  0.20734625296E+04  0.50400001928E-02 0. -1.
</event>
<event>
 5   0  0.1970449E-07  0.3402122E+04  0.7818609E-02  0.8137386E-01
        2   -1    0    0  501    0  0.00000000000E+00  0.00000000000E+00  0.14165675482E+04  0.14165675482E+04  0.25500000920E-02 0. -1.
       -2   -1    0    0    0  501  0.00000000000E+00  0.00000000000E+00 -0.20426901767E+04  0.20426901767E+04  0.25500000920E-02 0.  1.
    10030    2    1    2    0    0  0.00000000000E+00  0.00000000000E+00 -0.62612262842E+03  0.34592577249E+04  0.34021220527E+04 0.  0.
        1    1    3    3  502    0 -0.19482813827E+03  0.29199521913E+03 -0.20054629565E+04  0.20359520823E+04  0.50400001928E-02 0.  1.
       -1    1    3    3    0  502  0.19482813827E+03 -0.29199521913E+03  0.13793403281E+04  0.14233056426E+04  0.50400001928E-02 0. -1.
</event>
<event>
 5   0  0.6584420E-08  0.3407784E+04  0.7818609E-02  0.8135998E-01
        1   -1    0    0  501    0  0.00000000000E+00  0.00000000000E+00  0.14485492720E+04  0.14485492720E+04  0.50400001928E-02 0.  1.
       -1   -1    0    0    0  501  0.00000000000E+00  0.00000000000E+00 -0.20042454551E+04  0.20042454551E+04  0.50400001928E-02 0. -1.
    10030    2    1    2    0    0  0.00000000000E+00  0.00000000000E+00 -0.55569618312E+03  0.34527947271E+04  0.34077842038E+04 0.  0.
        1    1    3    3  502    0  0.14422549610E+04 -0.40254905749E+03 -0.11016699235E+04  0.18589840604E+04  0.50400001928E-02 0. -1.
       -1    1    3    3    0  502 -0.14422549610E+04  0.40254905749E+03  0.54597374039E+03  0.15938106668E+04  0.50400001928E-02 0.  1.
</event>
<event>
 5   0  0.6788600E-08  0.3400203E+04  0.7818609E-02  0.8137857E-01
       -1   -1    0    0    0  501  0.00000000000E+00  0.00000000000E+00  0.14443923209E+04  0.14443923209E+04  0.50400001928E-02 0. -1.
        1   -1    0    0  501    0  0.00000000000E+00  0.00000000000E+00 -0.20010802249E+04  0.20010802249E+04  0.50400001928E-02 0.  1.
    10030    2    1    2    0    0  0.00000000000E+00  0.00000000000E+00 -0.55668790400E+03  0.34454725458E+04  0.34002028824E+04 0.  0.
        2    1    3    3  502    0  0.15447694398E+04 -0.26863421734E+03 -0.94425994891E+03  0.18303288819E+04  0.25500000920E-02 0.  1.
       -2    1    3    3    0  502 -0.15447694398E+04  0.26863421734E+03  0.38757204490E+03  0.16151436639E+04  0.25500000920E-02 0. -1.
</event>
<event>
 5   0  0.1970449E-07  0.3396087E+04  0.7818609E-02  0.8138867E-01
       -2   -1    0    0    0  501  0.00000000000E+00  0.00000000000E+00  0.18756062561E+04  0.18756062561E+04  0.25500000920E-02 0.  1.
        2   -1    0    0  501    0  0.00000000000E+00  0.00000000000E+00 -0.15372907959E+04  0.15372907960E+04  0.25500000920E-02 0. -1.
    10030    2    1    2    0    0  0.00000000000E+00  0.00000000000E+00  0.33831546014E+03  0.34128970520E+04  0.33960872982E+04 0.  0.
        1    1    3    3  502    0  0.24024425150E+03  0.84372787037E+03  0.16302310050E+04  0.18512825687E+04  0.50400001928E-02 0.  1.
       -1    1    3    3    0  502 -0.24024425150E+03 -0.84372787037E+03 -0.12919155448E+04  0.15616144833E+04  0.50400001928E-02 0. -1.
</event>
<event>
 5   0  0.6341535E-08  0.3404040E+04  0.7818609E-02  0.8136916E-01
        1   -1    0    0  501    0  0.00000000000E+00  0.00000000000E+00  0.18105569246E+04  0.18105569246E+04  0.50400001928E-02 0.  1.
       -1   -1    0    0    0  501  0.00000000000E+00  0.00000000000E+00 -0.15999892187E+04  0.15999892187E+04  0.50400001928E-02 0. -1.
    10030    2    1    2    0    0  0.00000000000E+00  0.00000000000E+00  0.21056770592E+03  0.34105461433E+04  0.34040396938E+04 0.  0.
        5    1    3    3  502    0  0.21962541772E+03  0.39962592958E+03  0.17482087485E+04  0.18067075375E+04  0.46999998093E+01 0.  1.
       -5    1    3    3    0  502 -0.21962541772E+03 -0.39962592958E+03 -0.15376410426E+04  0.16038386058E+04  0.46999998093E+01 0. -1.
</event>
<event>
 5   0  0.1986613E-07  0.3394423E+04  0.7818609E-02  0.8139276E-01
       -2   -1    0    0    0  501  0.00000000000E+00  0.00000000000E+00  0.10547351746E+04  0.10547351746E+04  0.25500000920E-02 0.  1.
        2   -1    0    0  501    0  0.00000000000E+00  0.00000000000E+00 -0.27310424515E+04  0.27310424515E+04  0.25500000920E-02 0. -1.
    10030    2    1    2    0    0  0.00000000000E+00  0.00000000000E+00 -0.16763072769E+04  0.37857776262E+04  0.33944228004E+04 0.  0.
        5    1    3    3  502    0  0.12454681241E+04 -0.98057990356E+03 -0.15145188184E+04  0.21923770517E+04  0.46999998093E+01 0. -1.
       -5    1    3    3    0  502 -0.12454681241E+04  0.98057990356E+03 -0.16178845857E+03  0.15934005745E+04  0.46999998093E+01 0.  1.
</event>
<event>
 5   0  0.6367111E-08  0.3397839E+04  0.7818609E-02  0.8138437E-01
       -1   -1    0    0    0  501  0.00000000000E+00  0.00000000000E+00  0.15443321571E+04  0.15443321571E+04  0.50400001928E-02 0. -1.
        1   -1    0    0  501    0  0.00000000000E+00  0.00000000000E+00 -0.18689804612E+04  0.18689804612E+04  0.50400001928E-02 0.  1.
    10030    2    1    2    0    0  0.00000000000E+00  0.00000000000E+00 -0.32464830408E+03  0.34133126182E+04  0.33978385054E+04 0.  0.
        3    1    3    3  502    0  0.55831136837E+03 -0.90621234175E+02  0.14469711555E+04  0.15535923942E+04  0.10100000352E+00 0. -1.
       -3    1    3    3    0  502 -0.55831136837E+03  0.90621234175E+02 -0.17716194596E+04  0.18597202241E+04  0.10100000352E+00 0.  1.
</event>
<event>
 5   0  0.1928004E-07  0.3395571E+04  0.7818609E-02  0.8138994E-01
        2   -1    0    0  501    0  0.00000000000E+00  0.00000000000E+00  0.25655139573E+04  0.25655139573E+04  0.25500000920E-02 0. -1.
       -2   -1    0    0    0  501  0.00000000000E+00  0.00000000000E+00 -0.11235468526E+04  0.11235468526E+04  0.25500000920E-02 0.  1.
    10030    2    1    2    0    0  0.00000000000E+00  0.00000000000E+00  0.14419671047E+04  0.36890608098E+04  0.33955707219E+04 0.  0.
        2    1    3    3  502    0  0.10927797984E+04 -0.93248144676E+03 -0.26209491514E+03  0.14602681538E+04  0.25500000920E-02 0.  1.
       -2    1    3    3    0  502 -0.10927797984E+04  0.93248144676E+03  0.17040620198E+04  0.22287926561E+04  0.25500000920E-02 0. -1.
</event>
<event>
 5   0  0.6311750E-08  0.3397767E+04  0.7818609E-02  0.8138454E-01
        1   -1    0    0  501    0  0.00000000000E+00  0.00000000000E+00  0.16315388917E+04  0.16315388917E+04  0.50400001928E-02 0. -1.
       -1   -1    0    0    0  501  0.00000000000E+00  0.00000000000E+00 -0.17690082601E+04  0.17690082601E+04  0.50400001928E-02 0.  1.
    10030    2    1    2    0    0  0.00000000000E+00  0.00000000000E+00 -0.13746936840E+03  0.34005471519E+04  0.33977673706E+04 0.  0.
        4    1    3    3  502    0 -0.68320800695E+03 -0.60423606729E+03 -0.15032006158E+04  0.17582628103E+04  0.12699999809E+01 0.  1.
       -4    1    3    3    0  502  0.68320800695E+03  0.60423606729E+03  0.13657312474E+04  0.16422843416E+04  0.12699999809E+01 0. -1.
</event>
<event>
 5   0  0.6341535E-08  0.3402071E+04  0.7818609E-02  0.8137398E-01
        1   -1    0    0  501    0  0.00000000000E+00  0.00000000000E+00  0.14899697376E+04  0.14899697376E+04  0.50400001928E-02 0.  1.
       -1   -1    0    0    0  501  0.00000000000E+00  0.00000000000E+00 -0.19420000687E+04  0.19420000687E+04  0.50400001928E-02 0. -1.
    10030    2    1    2    0    0  0.00000000000E+00  0.00000000000E+00 -0.45203033118E+03  0.34319698063E+04  0.34020707416E+04 0.  0.
        5    1    3    3  502    0 -0.33550114851E+03 -0.15872311882E+04 -0.74201356225E+03  0.17839478921E+04  0.46999998093E+01 0. -1.
       -5    1    3    3    0  502  0.33550114851E+03  0.15872311882E+04  0.28998323107E+03  0.16480219142E+04  0.46999998093E+01 0.  1.
</event>
<event>
 5   0  0.6584420E-08  0.3410282E+04  0.7818609E-02  0.8135387E-01
       -1   -1    0    0    0  501  0.00000000000E+00  0.00000000000E+00  0.19344764881E+04  0.19344764881E+04  0.50400001928E-02 0. -1.
        1   -1    0    0  501    0  0.00000000000E+00  0.00000000000E+00 -0.15029933442E+04  0.15029933442E+04  0.50400001928E-02 0.  1.
    10030    2    1    2    0    0  0.00000000000E+00  0.00000000000E+00  0.43148314388E+03  0.34374698323E+04  0.34102816811E+04 0.  0.
        1    1    3    3  502    0  0.91471314516E+03 -0.12355013277E+04  0.95941867959E+03  0.18120838478E+04  0.50400001928E-02 0. -1.
       -1    1    3    3    0  502 -0.91471314516E+03  0.12355013277E+04 -0.52793553571E+03  0.16253859845E+04  0.50400001928E-02 0.  1.
</event>
<event>
 5   0  0.6788600E-08  0.3403373E+04  0.7818609E-02  0.8137079E-01
        1   -1    0    0  501    0  0.00000000000E+00  0.00000000000E+00  0.17481159049E+04  0.17481159049E+04  0.50400001928E-02 0. -1.
       -1   -1    0    0    0  501  0.00000000000E+00  0.00000000000E+00 -0.16564901485E+04  0.16564901485E+04  0.50400001928E-02 0.  1.
    10030    2    1    2    0    0  0.00000000000E+00  0.00000000000E+00  0.91625756416E+02  0.34046060533E+04  0.34033729004E+04 0.  0.
        2    1    3    3  502    0 -0.54363295345E+03 -0.77539506914E+03 -0.13685460983E+04  0.16642393832E+04  0.25500000920E-02 0.  1.
       -2    1    3    3    0  502  0.54363295345E+03  0.77539506914E+03  0.14601718547E+04  0.17403666702E+04  0.25500000920E-02 0. -1.
</event>
<event>
 5   0  0.1897313E-07  0.3401402E+04  0.7818609E-02  0.8137562E-01
        2   -1    0    0  501    0  0.00000000000E+00  0.00000000000E+00  0.18562154385E+04  0.18562154386E+04  0.25500000920E-02 0.  1.
       -2   -1    0    0    0  501  0.00000000000E+00  0.00000000000E+00 -0.15582158383E+04  0.15582158383E+04  0.25500000920E-02 0. -1.
    10030    2    1    2    0    0  0.00000000000E+00  0.00000000000E+00  0.29799960020E+03  0.34144312769E+04  0.34014022377E+04 0.  0.
        3    1    3    3  502    0  0.74810912016E+02 -0.67746202663E+03 -0.14151191275E+04  0.15707048180E+04  0.10100000352E+00 0. -1.
       -3    1    3    3    0  502 -0.74810912016E+02  0.67746202663E+03  0.17131187277E+04  0.18437264589E+04  0.10100000352E+00 0.  1.
</event>
<event>
 5   0  0.1970449E-07  0.3387998E+04  0.7818609E-02  0.8140858E-01
       -2   -1    0    0    0  501  0.00000000000E+00  0.00000000000E+00  0.14244921320E+04  0.14244921320E+04  0.25500000920E-02 0. -1.
        2   -1    0    0  501    0  0.00000000000E+00  0.00000000000E+00 -0.20144952899E+04  0.20144952899E+04  0.25500000920E-02 0.  1.
    10030    2    1    2    0    0  0.00000000000E+00  0.00000000000E+00 -0.59000315785E+03  0.34389874219E+04  0.33879980463E+04 0.  0.
        1    1    3    3  502    0 -0.51163361169E+03 -0.32954167525E+03  0.13096977782E+04  0.14441866010E+04  0.50400001928E-02 0. -1.
       -1    1    3    3    0  502  0.51163361169E+03  0.32954167525E+03 -0.18997009361E+04  0.19948008209E+04  0.50400001928E-02 0.  1.
</event>
<event>
 5   0  0.6788600E-08  0.3401861E+04  0.7818609E-02  0.8137450E-01
       -1   -1    0    0    0  501  0.00000000000E+00  0.00000000000E+00  0.11503636181E+04  0.11503636181E+04  0.50400001928E-02 0.  1.
        1   -1    0    0  501    0  0.00000000000E+00  0.00000000000E+00 -0.25149997715E+04  0.25149997715E+04  0.50400001928E-02 0. -1.
    10030    2    1    2    0    0  0.00000000000E+00  0.00000000000E+00 -0.13646361534E+04  0.36653633896E+04  0.34018608064E+04 0.  0.
        2    1    3    3  502    0 -0.17294540561E+03  0.14242984554E+04 -0.16666622657E+04  0.21991587736E+04  0.25500000920E-02 0. -1.
       -2    1    3    3    0  502  0.17294540561E+03 -0.14242984554E+04  0.30202611224E+03  0.14662046160E+04  0.25500000920E-02 0.  1.
</event>
<event>
 5   0  0.6311750E-08  0.3399494E+04  0.7818609E-02  0.8138031E-01
        1   -1    0    0  501    0  0.00000000000E+00  0.00000000000E+00  0.15879709600E+04  0.15879709600E+04  0.50400001928E-02 0. -1.
       -1   -1    0    0    0  501  0.00000000000E+00  0.00000000000E+00 -0.18193906663E+04  0.18193906663E+04  0.50400001928E-02 0.  1.
    10030    2    1    2    0    0  0.00000000000E+00  0.00000000000E+00 -0.23141970632E+03  0.34073616263E+04  0.33994938111E+04 0.  0.
        4    1    3    3  502    0  0.86448774895E+03 -0.79709348085E+03 -0.13459220101E+04  0.17872338278E+04  0.12699999809E+01 0.  1.
       -4    1    3    3    0  502 -0.86448774895E+03  0.79709348085E+03  0.11145023037E+04  0.16201277984E+04  0.12699999809E+01 0. -1.
</event>
<event>
 5   0  0.6367111E-08  0.3386287E+04  0.7818609E-02  0.8141280E-01
        1   -1    0    0  501    0  0.00000000000E+00  0.00000000000E+00  0.16387256715E+04  0.16387256715E+04  0.50400001928E-02 0.  1.
       -1   -1    0    0    0  501  0.00000000000E+00  0.00000000000E+00 -0.17493682641E+04  0.17493682641E+04  0.50400001928E-02 0. -1.
    10030    2    1    2    0    0  0.00000000000E+00  0.00000000000E+00 -0.11064259262E+03  0.33880939356E+04  0.33862868652E+04 0.  0.
        3    1    3    3  502    0 -0.32519717472E+03  0.12700738476E+04  0.10166485502E+04  0.16590404050E+04  0.10100000352E+00 0.  1.
       -3    1    3    3    0  502  0.32519717472E+03 -0.12700738476E+04 -0.11272911428E+04  0.17290535306E+04  0.10100000352E+00 0. -1.
</event>
<event>
 5   0  0.6311750E-08  0.3392586E+04  0.7818609E-02  0.8139728E-01
       -1   -1    0    0    0  501  0.00000000000E+00  0.00000000000E+00  0.13749954983E+04  0.13749954983E+04  0.50400001928E-02 0.  1.
        1   -1    0    0  501    0  0.00000000000E+00  0.00000000000E+00 -0.20926689566E+04  0.20926689566E+04  0.50400001928E-02 0. -1.
    10030    2    1    2    0    0  0.00000000000E+00  0.00000000000E+00 -0.71767345823E+03  0.34676644549E+04  0.33925862670E+04 0.  0.
        4    1    3    3  502    0 -0.11026134778E+04  0.73263530011E+03 -0.14429201534E+04  0.19581958907E+04  0.12699999809E+01 0. -1.
       -4    1    3    3    0  502  0.11026134778E+04 -0.73263530011E+03  0.72524669519E+03  0.15094685642E+04  0.12699999809E+01 0.  1.
</event>
<event>
 5   0  0.1928004E-07  0.3398022E+04  0.7818609E-02  0.8138392E-01
       -2   -1    0    0    0  501  0.00000000000E+00  0.00000000000E+00  0.10583425262E+04  0.10583425262E+04  0.25500000920E-02 0. -1.
        2   -1    0    0  501    0  0.00000000000E+00  0.00000000000E+00 -0.27275092403E+04  0.27275092403E+04  0.25500000920E-02 0.  1.
    10030    2    1    2    0    0  0.00000000000E+00  0.00000000000E+00 -0.16691667141E+04  0.37858517666E+04  0.33980223777E+04 0.  0.
        2    1    3    3  502    0  0.62151158770E+03 -0.76021465238E+03 -0.23793515601E+04  0.25740079289E+04  0.25500000920E-02 0.  1.
       -2    1    3    3    0  502 -0.62151158770E+03  0.76021465238E+03  0.71018484605E+03  0.12118438377E+04  0.25500000920E-02 0. -1.
</event>
<event>
 5   0  0.1970449E-07  0.3396688E+04  0.7818609E-02  0.8138720E-01
       -2   -1    0    0    0  501  0.00000000000E+00  0.00000000000E+00  0.23008222550E+04  0.23008222550E+04  0.25500000920E-02 0. -1.
        2   -1    0    0  501    0  0.00000000000E+00  0.00000000000E+00 -0.12536270446E+04  0.12536270446E+04  0.25500000920E-02 0.  1.
    10030    2    1    2    0    0  0.00000000000E+00  0.00000000000E+00  0.10471952103E+04  0.35544492996E+04  0.33966883895E+04 0.  0.
        1    1    3    3  502    0 -0.89147223513E+03  0.13357871138E+04  0.11018219987E+04  0.19475784133E+04  0.50400001928E-02 0.  1.
       -1    1    3    3    0  502  0.89147223513E+03 -0.13357871138E+04 -0.54626788315E+02  0.16068708863E+04  0.50400001928E-02 0. -1.
</event>
<event>
 5   0  0.6584420E-08  0.3394406E+04  0.7818609E-02  0.8139281E-01
       -1   -1    0    0    0  501  0.00000000000E+00  0.00000000000E+00  0.13552873186E+04  0.13552873186E+04  0.50400001928E-02 0.  1.
        1   -1    0    0  501    0  0.00000000000E+00  0.00000000000E+00 -0.21253784700E+04  0.21253784700E+04  0.50400001928E-02 0. -1.
    10030    2    1    2    0    0  0.00000000000E+00  0.00000000000E+00 -0.77009115144E+03  0.34806657887E+04  0.33944062737E+04 0.  0.
        1    1    3    3  502    0  0.94054128368E+02 -0.14124976533E+04  0.57496303693E+03  0.15279326862E+04  0.50400001928E-02 0.  1.
       -1    1    3    3    0  502 -0.94054128368E+02  0.14124976533E+04 -0.13450541884E+04  0.19527331025E+04  0.50400001928E-02 0. -1.
</event>
<event>
 5   0  0.1928004E-07  0.3396211E+04  0.7818609E-02  0.8138837E-01
        2   -1    0    0  501    0  0.00000000000E+00  0.00000000000E+00  0.28556539473E+04  0.28556539473E+04  0.25500000920E-02 0.  1.
       -2   -1    0    0    0  501  0.00000000000E+00  0.00000000000E+00 -0.10097727922E+04  0.10097727922E+04  0.25500000920E-02 0. -1.
    10030    2    1    2    0    0  0.00000000000E+00  0.00000000000E+00  0.18458811552E+04  0.38654267395E+04  0.33962106294E+04 0.  0.
        2    1    3    3  502    0 -0.39445200667E+03 -0.11363094999E+04 -0.44131725081E+03  0.12812308852E+04  0.25500000920E-02 0. -1.
       -2    1    3    3    0  502  0.39445200667E+03  0.11363094999E+04  0.22871984060E+04  0.25841958543E+04  0.25500000920E-02 0.  1.
</event>
<event>
 5   0  0.6367111E-08  0.3389871E+04  0.7818609E-02  0.8140397E-01
       -1   -1    0    0    0  501  0.00000000000E+00  0.00000000000E+00  0.16051529952E+04  0.16051529952E+04  0.50400001928E-02 0. -1.
        1   -1    0    0  501    0  0.00000000000E+00  0.00000000000E+00 -0.17897403967E+04  0.17897403967E+04  0.50400001928E-02 0.  1.
    10030    2    1    2    0    0  0.00000000000E+00  0.00000000000E+00 -0.18458740152E+03  0.33948933919E+04  0.33898714775E+04 0.  0.
        3    1    3    3  502    0  0.90674904713E+03  0.75947890508E+03 -0.13080959334E+04  0.17635523874E+04  0.10100000352E+00 0.  1.
       -3    1    3    3    0  502 -0.90674904713E+03 -0.75947890508E+03  0.11235085319E+04  0.16313410046E+04  0.10100000352E+00 0. -1.
</event>
<event>
 5   0  0.1970449E-07  0.3399164E+04  0.7818609E-02  0.8138112E-01
       -2   -1    0    0    0  501  0.00000000000E+00  0.00000000000E+00  0.14036245477E+04  0.14036245477E+04  0.25500000920E-02 0. -1.
        2   -1    0    0  501    0  0.00000000000E+00  0.00000000000E+00 -0.20579428133E+04  0.20579428133E+04  0.25500000920E-02 0.  1.
    10030    2    1    2    0    0  0.00000000000E+00  0.00000000000E+00 -0.65431826562E+03  0.34615673609E+04  0.33991640445E+04 0.  0.
        1    1    3    3  502    0 -0.11564169328E+04 -0.19521745020E+03  0.92553311974E+03  0.14939951577E+04  0.50400001928E-02 0. -1.
       -1    1    3    3    0  502  0.11564169328E+04  0.19521745020E+03 -0.15798513854E+04  0.19675722033E+04  0.50400001928E-02 0.  1.
</event>
<event>
 5   0  0.6367111E-08  0.3393486E+04  0.7818609E-02  0.8139507E-01
        1   -1    0    0  501    0  0.00000000000E+00  0.00000000000E+00  0.16742858726E+04  0.16742858726E+04  0.50400001928E-02 0.  1.
       -1   -1    0    0    0  501  0.00000000000E+00  0.00000000000E+00 -0.17195009594E+04  0.17195009594E+04  0.50400001928E-02 0. -1.
    10030    2    1    2    0    0  0.00000000000E+00  0.00000000000E+00 -0.45215086840E+02  0.33937868320E+04  0.33934856205E+04 0.  0.
        3    1    3    3  502    0  0.14177581989E+04  0.90134740304E+02  0.90525364573E+03  0.16845316130E+04  0.10100000352E+00 0.  1.
       -3    1    3    3    0  502 -0.14177581989E+04 -0.90134740304E+02 -0.95046873257E+03  0.17092552190E+04  0.10100000352E+00 0. -1.
</event>
<event>
 5   0  0.1986613E-07  0.3400539E+04  0.7818609E-02  0.8137774E-01
        2   -1    0    0  501    0  0.00000000000E+00  0.00000000000E+00  0.29925220828E+04  0.29925220828E+04  0.25500000920E-02 0. -1.
       -2   -1    0    0    0  501  0.00000000000E+00  0.00000000000E+00 -0.96604671275E+03  0.96604671276E+03  0.25500000920E-02 0.  1.
    10030    2    1    2    0    0  0.00000000000E+00  0.00000000000E+00  0.20264753700E+04  0.39585687955E+04  0.34005388519E+04 0.  0.
        5    1    3    3  502    0 -0.22181349917E+03  0.11562380370E+04  0.24412461149E+04  0.27103122163E+04  0.46999998093E+01 0. -1.
       -5    1    3    3    0  502  0.22181349917E+03 -0.11562380370E+04 -0.41477074487E+03  0.12482565792E+04  0.46999998093E+01 0.  1.
</event>
<event>
 5   0  0.1970449E-07  0.3407500E+04  0.7818609E-02  0.8136068E-01
        2   -1    0    0  501    0  0.00000000000E+00  0.00000000000E+00  0.22351822039E+04  0.22351822039E+04  0.25500000920E-02 0.  1.
       -2   -1    0    0    0  501  0.00000000000E+00  0.00000000000E+00 -0.12986700475E+04  0.12986700476E+04  0.25500000920E-02 0. -1.
    10030    2    1    2    0    0  0.00000000000E+00  0.00000000000E+00  0.93651215634E+03  0.35338522514E+04  0.34075000684E+04 0.  0.
        1    1    3    3  502    0 -0.76724363621E+03  0.31536634915E+03  0.20116067619E+04  0.21759320982E+04  0.50400001928E-02 0.  1.
       -1    1    3    3    0  502  0.76724363621E+03 -0.31536634915E+03 -0.10750946056E+04  0.13579201532E+04  0.50400001928E-02 0. -1.
</event>
<event>
 5   0  0.6788600E-08  0.3404920E+04  0.7818609E-02  0.8136700E-01
        1   -1    0    0  501    0  0.00000000000E+00  0.00000000000E+00  0.19234025924E+04  0.19234025924E+04  0.50400001928E-02 0. -1.
       -1   -1    0    0    0  501  0.00000000000E+00  0.00000000000E+00 -0.15068976041E+04  0.15068976041E+04  0.50400001928E-02 0.  1.
    10030    2    1    2    0    0  0.00000000000E+00  0.00000000000E+00  0.41650498827E+03  0.34303001965E+04  0.34049204151E+04 0.  0.
        2    1    3    3  502    0 -0.13539445851E+03  0.15113146828E+04  0.98599579591E+03  0.18095832226E+04  0.25500000920E-02 0.  1.
       -2    1    3    3    0  502  0.13539445851E+03 -0.15113146828E+04 -0.56949080764E+03  0.16207169740E+04  0.25500000920E-02 0. -1.
</event>
<event>
 5   0  0.1928004E-07  0.3404194E+04  0.7818609E-02  0.8136878E-01
        2   -1    0    0  501    0  0.00000000000E+00  0.00000000000E+00  0.15095734392E+04  0.15095734392E+04  0.25500000920E-02 0. -1.
       -2   -1    0    0    0  501  0.00000000000E+00  0.00000000000E+00 -0.19191740345E+04  0.19191740345E+04  0.25500000920E-02 0.  1.
    10030    2    1    2    0    0  0.00000000000E+00  0.00000000000E+00 -0.40960059531E+03  0.34287474736E+04  0.34041939707E+04 0.  0.
        2    1    3    3  502    0 -0.15415728894E+04 -0.24806302034E+03 -0.88729518297E+03  0.17959050579E+04  0.25500000920E-02 0.  1.
       -2    1    3    3    0  502  0.15415728894E+04  0.24806302034E+03  0.47769458766E+03  0.16328424157E+04  0.25500000920E-02 0. -1.
</event>
<event>
 5   0  0.1970449E-07  0.3399952E+04  0.7818609E-02  0.8137918E-01
       -2   -1    0    0    0  501  0.00000000000E+00  0.00000000000E+00  0.16156171694E+04  0.16156171694E+04  0.25500000920E-02 0. -1.
        2   -1    0    0  501    0  0.00000000000E+00  0.00000000000E+00 -0.17887397682E+04  0.17887397682E+04  0.25500000920E-02 0.  1.
    10030    2    1    2    0    0  0.00000000000E+00  0.00000000000E+00 -0.17312259879E+03  0.34043569375E+04  0.33999521649E+04 0.  0.
        1    1    3    3  502    0  0.99758714919E+02  0.10203518119E+04  0.12712371943E+04  0.16331300087E+04  0.50400001928E-02 0. -1.
       -1    1    3    3    0  502 -0.99758714919E+02 -0.10203518119E+04 -0.14443597931E+04  0.17712269288E+04  0.50400001928E-02 0.  1.
</event>
<event>
 5   0  0.6788600E-08  0.3400752E+04  0.7818609E-02  0.8137722E-01
        1   -1    0    0  501    0  0.00000000000E+00  0.00000000000E+00  0.16072916959E+04  0.16072916959E+04  0.50400001928E-02 0.  1.
       -1   -1    0    0    0  501  0.00000000000E+00  0.00000000000E+00 -0.17988515173E+04  0.17988515173E+04  0.50400001928E-02 0. -1.
    10030    2    1    2    0    0  0.00000000000E+00  0.00000000000E+00 -0.19155982138E+03  0.34061432133E+04  0.34007523321E+04 0.  0.
        2    1    3    3  502    0 -0.14797712967E+04 -0.32714171822E+03 -0.86806270889E+03  0.17465044119E+04  0.25500000920E-02 0. -1.
       -2    1    3    3    0  502  0.14797712967E+04  0.32714171822E+03  0.67650288750E+03  0.16596388014E+04  0.25500000920E-02 0.  1.
</event>
<event>
 5   0  0.6311750E-08  0.3356331E+04  0.7818609E-02  0.8148708E-01
        1   -1    0    0  501    0  0.00000000000E+00  0.00000000000E+00  0.18818331063E+04  0.18818331063E+04  0.50400001928E-02 0. -1.
       -1   -1    0    0    0  501  0.00000000000E+00  0.00000000000E+00 -0.14965406604E+04  0.14965406604E+04  0.50400001928E-02 0.  1.
    10030    2    1    2    0    0  0.00000000000E+00  0.00000000000E+00  0.38529244596E+03  0.33783737667E+04  0.33563311873E+04 0.  0.
        4    1    3    3  502    0 -0.13177498487E+04  0.16679717550E+03  0.12250293258E+04  0.18069267897E+04  0.12699999809E+01 0. -1.
       -4    1    3    3    0  502  0.13177498487E+04 -0.16679717550E+03 -0.83973687983E+03  0.15714469770E+04  0.12699999809E+01 0.  1.
</event>
<event>
 5   0  0.1986613E-07  0.3398600E+04  0.7818609E-02  0.8138250E-01
        2   -1    0    0  501    0  0.00000000000E+00  0.00000000000E+00  0.15023727232E+04  0.15023727232E+04  0.25500000920E-02 0. -1.
       -2   -1    0    0    0  501  0.00000000000E+00  0.00000000000E+00 -0.19220402886E+04  0.19220402886E+04  0.25500000920E-02 0.  1.
    10030    2    1    2    0    0  0.00000000000E+00  0.00000000000E+00 -0.41966756538E+03  0.34244130118E+04  0.33986002427E+04 0.  0.
        5    1    3    3  502    0  0.16176723412E+03 -0.13569489091E+04 -0.12275147442E+04  0.18369250168E+04  0.46999998093E+01 0.  1.
       -5    1    3    3    0  502 -0.16176723412E+03  0.13569489091E+04  0.80784717884E+03  0.15874879950E+04  0.46999998093E+01 0. -1.
</event>
<event>
 5   0  0.6367111E-08  0.3394825E+04  0.7818609E-02  0.8139178E-01
        1   -1    0    0  501    0  0.00000000000E+00  0.00000000000E+00  0.23527169068E+04  0.23527169068E+04  0.50400001928E-02 0. -1.
       -1   -1    0    0    0  501  0.00000000000E+00  0.00000000000E+00 -0.12246308433E+04  0.12246308433E+04  0.50400001928E-02 0.  1.
    10030    2    1    2    0    0  0.00000000000E+00  0.00000000000E+00  0.11280860635E+04  0.35773477501E+04  0.33948252913E+04 0.  0.
        3    1    3    3  502    0  0.22389299497E+03  0.27438657730E+03 -0.11852681617E+04  0.12370435288E+04  0.10100000352E+00 0.  1.
       -3    1    3    3    0  502 -0.22389299497E+03 -0.27438657730E+03  0.23133542251E+04  0.23403042213E+04  0.10100000352E+00 0. -1.
</event>
<event>
 5   0  0.6367111E-08  0.3401828E+04  0.7818609E-02  0.8137458E-01
       -1   -1    0    0    0  501  0.00000000000E+00  0.00000000000E+00  0.21273849437E+04  0.21273849437E+04  0.50400001928E-02 0. -1.
        1   -1    0    0  501    0  0.00000000000E+00  0.00000000000E+00 -0.13599368684E+04  0.13599368684E+04  0.50400001928E-02 0.  1.
    10030    2    1    2    0    0  0.00000000000E+00  0.00000000000E+00  0.76744807532E+03  0.34873218121E+04  0.34018284602E+04 0.  0.
        3    1    3    3  502    0  0.15310646880E+04 -0.72500489529E+03  0.54026411822E+03  0.17781103747E+04  0.10100000352E+00 0. -1.
       -3    1    3    3    0  502 -0.15310646880E+04  0.72500489529E+03  0.22718395710E+03  0.17092114374E+04  0.10100000352E+00 0.  1.
</event>
<event>
 5   0  0.1897313E-07  0.3397704E+04  0.7818609E-02  0.8138470E-01
        2   -1    0    0  501    0  0.00000000000E+00  0.00000000000E+00  0.16896939194E+04  0.16896939194E+04  0.25500000920E-02 0. -1.
       -2   -1    0    0    0  501  0.00000000000E+00  0.00000000000E+00 -0.17080601915E+04  0.17080601915E+04  0.25500000920E-02 0.  1.
    10030    2    1    2    0    0  0.00000000000E+00  0.00000000000E+00 -0.18366272074E+02  0.33977541108E+04  0.33977044718E+04 0.  0.
        3    1    3    3  502    0 -0.16399207313E+04  0.28801934894E+03  0.32816991958E+03  0.16970535220E+04  0.10100000352E+00 0. -1.
       -3    1    3    3    0  502  0.16399207313E+04 -0.28801934894E+03 -0.34653619165E+03  0.17007005888E+04  0.10100000352E+00 0.  1.
</event>
<event>
 5   0  0.1986613E-07  0.3398072E+04  0.7818609E-02  0.8138380E-01
        2   -1    0    0  501    0  0.00000000000E+00  0.00000000000E+00  0.22612595856E+04  0.22612595856E+04  0.25500000920E-02 0. -1.
       -2   -1    0    0    0  501  0.00000000000E+00  0.00000000000E+00 -0.12765994490E+04  0.12765994490E+04  0.25500000920E-02 0.  1.
    10030    2    1    2    0    0  0.00000000000E+00  0.00000000000E+00  0.98466013661E+03  0.35378590345E+04  0.33980716537E+04 0.  0.
        5    1    3    3  502    0 -0.34249682952E+03 -0.16593005692E+04  0.62451019971E+03  0.18057180114E+04  0.46999998093E+01 0.  1.
       -5    1    3    3    0  502  0.34249682952E+03  0.16593005692E+04  0.36014993690E+03  0.17321410232E+04  0.46999998093E+01 0. -1.
</event>
<event>
 5   0  0.6341535E-08  0.3407376E+04  0.7818609E-02  0.8136098E-01
       -1   -1    0    0    0  501  0.00000000000E+00  0.00000000000E+00  0.12671684762E+04  0.12671684762E+04  0.50400001928E-02 0.  1.
        1   -1    0    0  501    0  0.00000000000E+00  0.00000000000E+00 -0.22905817782E+04  0.22905817782E+04  0.50400001928E-02 0. -1.
    10030    2    1    2    0    0  0.00000000000E+00  0.00000000000E+00 -0.10234133020E+04  0.35577502545E+04  0.34073761293E+04 0.  0.
        5    1    3    3  502    0  0.97422073174E+03 -0.13956638727E+04 -0.43393983289E+03  0.17565049240E+04  0.46999998093E+01 0. -1.
       -5    1    3    3    0  502 -0.97422073174E+03  0.13956638727E+04 -0.58947346913E+03  0.18012453304E+04  0.46999998093E+01 0.  1.
</event>
<event>
 5   0  0.6788600E-08  0.3401071E+04  0.7818609E-02  0.8137643E-01
        1   -1    0    0  501    0  0.00000000000E+00  0.00000000000E+00  0.27739233187E+04  0.27739233187E+04  0.50400001928E-02 0. -1.
       -1   -1    0    0    0  501  0.00000000000E+00  0.00000000000E+00 -0.10425021688E+04  0.10425021689E+04  0.50400001928E-02 0.  1.
    10030    2    1    2    0    0  0.00000000000E+00  0.00000000000E+00  0.17314211499E+04  0.38164254876E+04  0.34010710525E+04 0.  0.
        2    1    3    3  502    0  0.89198887701E+03  0.89153342035E+03 -0.41437003694E+03  0.13274707243E+04  0.25500000920E-02 0.  1.
       -2    1    3    3    0  502 -0.89198887701E+03 -0.89153342035E+03  0.21457911868E+04  0.24889547633E+04  0.25500000920E-02 0. -1.
</event>
<event>
 5   0  0.1963852E-07  0.3401976E+04  0.7818609E-02  0.8137421E-01
       -2   -1    0    0    0  501  0.00000000000E+00  0.00000000000E+00  0.20149092264E+04  0.20149092264E+04  0.25500000920E-02 0.  1.
        2   -1    0    0  501    0  0.00000000000E+00  0.00000000000E+00 -0.14359758356E+04  0.14359758356E+04  0.25500000920E-02 0. -1.
    10030    2    1    2    0    0  0.00000000000E+00  0.00000000000E+00  0.57893339083E+03  0.34508850620E+04  0.34019764609E+04 0.  0.
        4    1    3    3  502    0 -0.12171736617E+04  0.11498744079E+04  0.59316443830E+03  0.17763920008E+04  0.12699999809E+01 0.  1.
       -4    1    3    3    0  502  0.12171736617E+04 -0.11498744079E+04 -0.14231047473E+02  0.16744930613E+04  0.12699999809E+01 0. -1.
</event>
<event>
 5   0  0.1986613E-07  0.3399947E+04  0.7818609E-02  0.8137919E-01
        2   -1    0    0  501    0  0.00000000000E+00  0.00000000000E+00  0.23630796810E+04  0.23630796810E+04  0.25500000920E-02 0. -1.
       -2   -1    0    0    0  501  0.00000000000E+00  0.00000000000E+00 -0.12229422836E+04  0.12229422836E+04  0.25500000920E-02 0.  1.
    10030    2    1    2    0    0  0.00000000000E+00  0.00000000000E+00  0.11401373974E+04  0.35860219646E+04  0.33999470946E+04 0.  0.
        5    1    3    3  502    0 -0.11576443489E+04 -0.36633257439E+03  0.18249512568E+04  0.21919874939E+04  0.46999998093E+01 0. -1.
       -5    1    3    3    0  502  0.11576443489E+04  0.36633257439E+03 -0.68481385940E+03  0.13940344708E+04  0.46999998093E+01 0.  1.
</event>
<event>
 5   0  0.6584420E-08  0.3397477E+04  0.7818609E-02  0.8138526E-01
        1   -1    0    0  501    0  0.00000000000E+00  0.00000000000E+00  0.17927552917E+04  0.17927552917E+04  0.50400001928E-02 0.  1.
       -1   -1    0    0    0  501  0.00000000000E+00  0.00000000000E+00 -0.16096524958E+04  0.16096524958E+04  0.50400001928E-02 0. -1.
    10030    2    1    2    0    0  0.00000000000E+00  0.00000000000E+00  0.18310279588E+03  0.34024077875E+04  0.33974773169E+04 0.  0.
        1    1    3    3  502    0  0.11588311534E+04 -0.74027573848E+03  0.10904030864E+04  0.17549577493E+04  0.50400001928E-02 0.  1.
       -1    1    3    3    0  502 -0.11588311534E+04  0.74027573848E+03 -0.90730029051E+03  0.16474500382E+04  0.50400001928E-02 0. -1.
</event>
<event>
 5   0  0.1928004E-07  0.3400985E+04  0.7818609E-02  0.8137665E-01
       -2   -1    0    0    0  501  0.00000000000E+00  0.00000000000E+00  0.14621488220E+04  0.14621488221E+04  0.25500000920E-02 0.  1.
        2   -1    0    0  501    0  0.00000000000E+00  0.00000000000E+00 -0.19776887757E+04  0.19776887757E+04  0.25500000920E-02 0. -1.
    10030    2    1    2    0    0  0.00000000000E+00  0.00000000000E+00 -0.51553995370E+03  0.34398375978E+04  0.34009853360E+04 0.  0.
        2    1    3    3  502    0  0.12968196269E+04  0.28921461645E+03 -0.13311613867E+04  0.18807915558E+04  0.25500000920E-02 0. -1.
       -2    1    3    3    0  502 -0.12968196269E+04 -0.28921461645E+03  0.81562143300E+03  0.15590460420E+04  0.25500000920E-02 0.  1.
</event>
<event>
 5   0  0.6788600E-08  0.3397588E+04  0.7818609E-02  0.8138498E-01
       -1   -1    0    0    0  501  0.00000000000E+00  0.00000000000E+00  0.18185876629E+04  0.18185876629E+04  0.50400001928E-02 0.  1.
        1   -1    0    0  501    0  0.00000000000E+00  0.00000000000E+00 -0.15868917709E+04  0.15868917709E+04  0.50400001928E-02 0. -1.
    10030    2    1    2    0    0  0.00000000000E+00  0.00000000000E+00  0.23169589204E+03  0.34054794338E+04  0.33975884371E+04 0.  0.
        2    1    3    3  502    0 -0.34030834155E+03 -0.10488474127E+04 -0.11794425390E+04  0.16146130698E+04  0.25500000920E-02 0. -1.
       -2    1    3    3    0  502  0.34030834155E+03  0.10488474127E+04  0.14111384310E+04  0.17908663641E+04  0.25500000920E-02 0.  1.
</event>
<event>
 5   0  0.1970449E-07  0.3384356E+04  0.7818609E-02  0.8141757E-01
       -2   -1    0    0    0  501  0.00000000000E+00  0.00000000000E+00  0.96281636748E+03  0.96281636749E+03  0.25500000920E-02 0. -1.
        2   -1    0    0  501    0  0.00000000000E+00  0.00000000000E+00 -0.29740527874E+04  0.29740527874E+04  0.25500000920E-02 0.  1.
    10030    2    1    2    0    0  0.00000000000E+00  0.00000000000E+00 -0.20112364199E+04  0.39368691549E+04  0.33843561878E+04 0.  0.
        1    1    3    3  502    0  0.98854221466E+03 -0.77004244508E+03  0.31726694108E+03  0.12926095270E+04  0.50400001928E-02 0. -1.
       -1    1    3    3    0  502 -0.98854221466E+03  0.77004244508E+03 -0.23285033610E+04  0.26442596279E+04  0.50400001928E-02 0.  1.
</event>
<event>
 5   0  0.6367111E-08  0.3394133E+04  0.7818609E-02  0.8139348E-01
       -1   -1    0    0    0  501  0.00000000000E+00  0.00000000000E+00  0.17718649427E+04  0.17718649427E+04  0.50400001928E-02 0. -1.
        1   -1    0    0  501    0  0.00000000000E+00  0.00000000000E+00 -0.16254255150E+04  0.16254255150E+04  0.50400001928E-02 0.  1.
    10030    2    1    2    0    0  0.00000000000E+00  0.00000000000E+00  0.14643942764E+03  0.33972904577E+04  0.33941328713E+04 0.  0.
        3    1    3    3  502    0  0.25895794768E+03 -0.13339429307E+04  0.10908127014E+04  0.17425083417E+04  0.10100000352E+00 0. -1.
       -3    1    3    3    0  502 -0.25895794768E+03  0.13339429307E+04 -0.94437327376E+03  0.16547821160E+04  0.10100000352E+00 0.  1.
</event>
<event>
 5   0  0.6367111E-08  0.3397702E+04  0.7818609E-02  0.8138471E-01
       -1   -1    0    0    0  501  0.00000000000E+00  0.00000000000E+00  0.12539816826E+04  0.12539816826E+04  0.50400001928E-02 0. -1.
        1   -1    0    0  501    0  0.00000000000E+00  0.00000000000E+00 -0.23015438960E+04  0.23015438960E+04  0.50400001928E-02 0.  1.
    10030    2    1    2    0    0  0.00000000000E+00  0.00000000000E+00 -0.10475622134E+04  0.35555255786E+04  0.33977015097E+04 0.  0.
        3    1    3    3  502    0  0.36479639076E+03  0.39065736400E+02 -0.22595929979E+04  0.22891839299E+04  0.10100000352E+00 0.  1.
       -3    1    3    3    0  502 -0.36479639076E+03 -0.39065736400E+02  0.12120307845E+04  0.12663416487E+04  0.10100000352E+00 0. -1.
</event>
<event>
 5   0  0.1963852E-07  0.3398927E+04  0.7818609E-02  0.8138170E-01
        2   -1    0    0  501    0  0.00000000000E+00  0.00000000000E+00  0.21111863584E+04  0.21111863584E+04  0.25500000920E-02 0. -1.
       -2   -1    0    0    0  501  0.00000000000E+00  0.00000000000E+00 -0.13680344790E+04  0.13680344790E+04  0.25500000920E-02 0.  1.
    10030    2    1    2    0    0  0.00000000000E+00  0.00000000000E+00  0.74315187944E+03  0.34792208375E+04  0.33989267306E+04 0.  0.
        4    1    3    3  502    0  0.90635290354E+03 -0.11312244133E+04 -0.53652849660E+03  0.15456418407E+04  0.12699999809E+01 0.  1.
       -4    1    3    3    0  502 -0.90635290354E+03  0.11312244133E+04  0.12796803760E+04  0.19335789968E+04  0.12699999809E+01 0. -1.
</event>
<event>
 5   0  0.1970449E-07  0.3401698E+04  0.7818609E-02  0.8137490E-01
       -2   -1    0    0    0  501  0.00000000000E+00  0.00000000000E+00  0.13620725442E+04  0.13620725442E+04  0.25500000920E-02 0.  1.
        2   -1    0    0  501    0  0.00000000000E+00  0.00000000000E+00 -0.21238863819E+04  0.21238863819E+04  0.25500000920E-02 0. -1.
    10030    2    1    2    0    0  0.00000000000E+00  0.00000000000E+00 -0.76181383768E+03  0.34859589262E+04  0.34016980042E+04 0.  0.
        1    1    3    3  502    0  0.29837868701E+03 -0.37862531734E+03 -0.20524138090E+04  0.21082669222E+04  0.50400001928E-02 0. -1.
       -1    1    3    3    0  502 -0.29837868701E+03  0.37862531734E+03  0.12905999713E+04  0.13776920040E+04  0.50400001928E-02 0.  1.
</event>
<event>
 5   0  0.1986613E-07  0.3400997E+04  0.7818609E-02  0.8137662E-01
        2   -1    0    0  501    0  0.00000000000E+00  0.00000000000E+00  0.23917499412E+04  0.23917499412E+04  0.25500000920E-02 0. -1.
       -2   -1    0    0    0  501  0.00000000000E+00  0.00000000000E+00 -0.12090292924E+04  0.12090292924E+04  0.25500000920E-02 0.  1.
    10030    2    1    2    0    0  0.00000000000E+00  0.00000000000E+00  0.11827206488E+04  0.36007792337E+04  0.34009973473E+04 0.  0.
        5    1    3    3  502    0  0.98511434736E+03 -0.61966930551E+03 -0.72132339001E+03  0.13692223518E+04  0.46999998093E+01 0.  1.
       -5    1    3    3    0  502 -0.98511434736E+03  0.61966930551E+03  0.19040440388E+04  0.22315568819E+04  0.46999998093E+01 0. -1.
</event>
<event>
 5   0  0.6311750E-08  0.3462443E+04  0.7818609E-02  0.8122748E-01
        1   -1    0    0  501    0  0.00000000000E+00  0.00000000000E+00  0.20129699387E+04  0.20129699387E+04  0.50400001928E-02 0.  1.
       -1   -1    0    0    0  501  0.00000000000E+00  0.00000000000E+00 -0.14889088427E+04  0.14889088427E+04  0.50400001928E-02 0. -1.
    10030    2    1    2    0    0  0.00000000000E+00  0.00000000000E+00  0.52406109595E+03  0.35018787814E+04  0.34624434967E+04 0.  0.
        4    1    3    3  502    0  0.16723683178E+04  0.44756100314E+03  0.26132470342E+03  0.17508337601E+04  0.12699999809E+01 0. -1.
       -4    1    3    3    0  502 -0.16723683178E+04 -0.44756100314E+03  0.26273639253E+03  0.17510450214E+04  0.12699999809E+01 0.  1.
</event>
<event>
 5   0  0.6341535E-08  0.3395558E+04  0.7818609E-02  0.8138997E-01
       -1   -1    0    0    0  501  0.00000000000E+00  0.00000000000E+00  0.23497855732E+04  0.23497855732E+04  0.50400001928E-02 0.  1.
        1   -1    0    0  501    0  0.00000000000E+00  0.00000000000E+00 -0.12266879548E+04  0.12266879548E+04  0.50400001928E-02 0. -1.
    10030    2    1    2    0    0  0.00000000000E+00  0.00000000000E+00  0.11230976184E+04  0.35764735281E+04  0.33955580744E+04 0.  0.
        5    1    3    3  502    0  0.11428977285E+04  0.11764593251E+04  0.99832590838E+02  0.16432469071E+04  0.46999998093E+01 0. -1.
       -5    1    3    3    0  502 -0.11428977285E+04 -0.11764593251E+04  0.10232650276E+04  0.19332266210E+04  0.46999998093E+01 0.  1.
</event>
<event>
 5   0  0.1928004E-07  0.3414634E+04  0.7818609E-02  0.8134324E-01
       -2   -1    0    0    0  501  0.00000000000E+00  0.00000000000E+00  0.27026528222E+04  0.27026528222E+04  0.25500000920E-02 0.  1.
        2   -1    0    0  501    0  0.00000000000E+00  0.00000000000E+00 -0.10785443061E+04  0.10785443061E+04  0.25500000920E-02 0. -1.
    10030    2    1    2    0    0  0.00000000000E+00  0.00000000000E+00  0.16241085161E+04  0.37811971283E+04  0.34146336920E+04 0.  0.
        2    1    3    3  502    0  0.45313939353E+03 -0.14752643147E+04  0.16206407519E+04  0.22379045009E+04  0.25500000920E-02 0.  1.
       -2    1    3    3    0  502 -0.45313939353E+03  0.14752643147E+04  0.34677641497E+01  0.15432926274E+04  0.25500000920E-02 0. -1.
</event>
<event>
 5   0  0.6311750E-08  0.3398164E+04  0.7818609E-02  0.8138357E-01
        1   -1    0    0  501    0  0.00000000000E+00  0.00000000000E+00  0.22158285699E+04  0.22158285699E+04  0.50400001928E-02 0. -1.
       -1   -1    0    0    0  501  0.00000000000E+00  0.00000000000E+00 -0.13028444549E+04  0.13028444549E+04  0.50400001928E-02 0.  1.
    10030    2    1    2    0    0  0.00000000000E+00  0.00000000000E+00  0.91298411497E+03  0.35186730248E+04  0.33981641899E+04 0.  0.
        4    1    3    3  502    0  0.52333906364E+03 -0.11839508010E+04  0.15960918408E+04  0.20550265331E+04  0.12699999809E+01 0. -1.
       -4    1    3    3    0  502 -0.52333906364E+03  0.11839508010E+04 -0.68310772578E+03  0.14636464917E+04  0.12699999809E+01 0.  1.
</event>
<event>
 5   0  0.1986613E-07  0.3408702E+04  0.7818609E-02  0.8135774E-01
       -2   -1    0    0    0  501  0.00000000000E+00  0.00000000000E+00  0.16729552317E+04  0.16729552317E+04  0.25500000920E-02 0.  1.
        2   -1    0    0  501    0  0.00000000000E+00  0.00000000000E+00 -0.17363362352E+04  0.17363362352E+04  0.25500000920E-02 0. -1.
    10030    2    1    2    0    0  0.00000000000E+00  0.00000000000E+00 -0.63381003493E+02  0.34092914670E+04  0.34087022685E+04 0.  0.
        5    1    3    3  502    0 -0.16809209772E+04 -0.13486749527E+03  0.21554875929E+03  0.17000493906E+04  0.46999998093E+01 0. -1.
       -5    1    3    3    0  502  0.16809209772E+04  0.13486749527E+03 -0.27892976278E+03  0.17092420763E+04  0.46999998093E+01 0.  1.
</event>
<event>
 5   0  0.6341535E-08  0.3398908E+04  0.7818609E-02  0.8138174E-01
        1   -1    0    0  501    0  0.00000000000E+00  0.00000000000E+00  0.21522679371E+04  0.21522679371E+04  0.50400001928E-02 0.  1.
       -1   -1    0    0    0  501  0.00000000000E+00  0.00000000000E+00 -0.13419070240E+04  0.13419070240E+04  0.50400001928E-02 0. -1.
    10030    2    1    2    0    0  0.00000000000E+00  0.00000000000E+00  0.81036091308E+03  0.34941749611E+04  0.33989077436E+04 0.  0.
        5    1    3    3  502    0  0.41825874148E+03 -0.48938719166E+03  0.20220580123E+04  0.21220699548E+04  0.46999998093E+01 0.  1.
       -5    1    3    3    0  502 -0.41825874148E+03  0.48938719166E+03 -0.12116970992E+04  0.13721050063E+04  0.46999998093E+01 0. -1.
</event>
<event>
 5   0  0.6584420E-08  0.3365623E+04  0.7818609E-02  0.8146395E-01
        1   -1    0    0  501    0  0.00000000000E+00  0.00000000000E+00  0.16925682607E+04  0.16925682607E+04  0.50400001928E-02 0.  1.
       -1   -1    0    0    0  501  0.00000000000E+00  0.00000000000E+00 -0.16731111808E+04  0.16731111808E+04  0.50400001928E-02 0. -1.
    10030    2    1    2    0    0  0.00000000000E+00  0.00000000000E+00  0.19457079892E+02  0.33656794415E+04  0.33656232001E+04 0.  0.
        1    1    3    3  502    0  0.15331495726E+04  0.68457946817E+03  0.12223917995E+03  0.16834901477E+04  0.50400001928E-02 0.  1.
       -1    1    3    3    0  502 -0.15331495726E+04 -0.68457946817E+03 -0.10278210006E+03  0.16821892938E+04  0.50400001928E-02 0. -1.
</event>
<event>
 5   0  0.1928004E-07  0.3406672E+04  0.7818609E-02  0.8136271E-01
        2   -1    0    0  501    0  0.00000000000E+00  0.00000000000E+00  0.17788624989E+04  0.17788624989E+04  0.25500000920E-02 0.  1.
       -2   -1    0    0    0  501  0.00000000000E+00  0.00000000000E+00 -0.16310159449E+04  0.16310159449E+04  0.25500000920E-02 0. -1.
    10030    2    1    2    0    0  0.00000000000E+00  0.00000000000E+00  0.14784655395E+03  0.34098784438E+04  0.34066717479E+04 0.  0.
        2    1    3    3  502    0 -0.25632880096E+03 -0.15856850146E+04  0.64124748047E+03  0.17295374385E+04  0.25500000920E-02 0.  1.
       -2    1    3    3    0  502  0.25632880096E+03  0.15856850146E+04 -0.49340092651E+03  0.16803410053E+04  0.25500000920E-02 0. -1.
</event>
<event>
 5   0  0.6341535E-08  0.3396617E+04  0.7818609E-02  0.8138737E-01
       -1   -1    0    0    0  501  0.00000000000E+00  0.00000000000E+00  0.30613378522E+04  0.30613378522E+04  0.50400001928E-02 0.  1.
        1   -1    0    0  501    0  0.00000000000E+00  0.00000000000E+00 -0.94215375445E+03  0.94215375446E+03  0.50400001928E-02 0. -1.
    10030    2    1    2    0    0  0.00000000000E+00  0.00000000000E+00  0.21191840978E+04  0.40034916067E+04  0.33966165230E+04 0.  0.
        5    1    3    3  502    0  0.12431810120E+04 -0.51382230283E+03  0.22815024382E+04  0.26485444782E+04  0.46999998093E+01 0.  1.
       -5    1    3    3    0  502 -0.12431810120E+04  0.51382230283E+03 -0.16231834042E+03  0.13549471285E+04  0.46999998093E+01 0. -1.
</event>
<event>
 5   0  0.1970449E-07  0.3389791E+04  0.7818609E-02  0.8140417E-01
       -2   -1    0    0    0  501  0.00000000000E+00  0.00000000000E+00  0.11340483955E+04  0.11340483955E+04  0.25500000920E-02 0. -1.
        2   -1    0    0  501    0  0.00000000000E+00  0.00000000000E+00 -0.25331108818E+04  0.25331108818E+04  0.25500000920E-02 0.  1.
    10030    2    1    2    0    0  0.00000000000E+00  0.00000000000E+00 -0.13990624863E+04  0.36671592773E+04  0.33897907494E+04 0.  0.
        1    1    3    3  502    0  0.45937327003E+03 -0.10265034344E+04  0.67227074654E+03  0.13102217594E+04  0.50400001928E-02 0. -1.
       -1    1    3    3    0  502 -0.45937327003E+03  0.10265034344E+04 -0.20713332328E+04  0.23569375179E+04  0.50400001928E-02 0.  1.
</event>
<event>
 5   0  0.6584420E-08  0.3418044E+04  0.7818609E-02  0.8133492E-01
       -1   -1    0    0    0  501  0.00000000000E+00  0.00000000000E+00  0.17969896346E+04  0.17969896346E+04  0.50400001928E-02 0. -1.
        1   -1    0    0  501    0  0.00000000000E+00  0.00000000000E+00 -0.16253607062E+04  0.16253607062E+04  0.50400001928E-02 0.  1.
    10030    2    1    2    0    0  0.00000000000E+00  0.00000000000E+00  0.17162892837E+03  0.34223503408E+04  0.34180440848E+04 0.  0.
        1    1    3    3  502    0  0.62966625752E+03 -0.13152732443E+04  0.97819095169E+03  0.17559273451E+04  0.50400001928E-02 0. -1.
       -1    1    3    3    0  502 -0.62966625752E+03  0.13152732443E+04 -0.80656202332E+03  0.16664229957E+04  0.50400001928E-02 0.  1.
</event>
<event>
 5   0  0.6788600E-08  0.3399254E+04  0.7818609E-02  0.8138089E-01
       -1   -1    0    0    0  501  0.00000000000E+00  0.00000000000E+00  0.12830022428E+04  0.12830022428E+04  0.50400001928E-02 0.  1.
        1   -1    0    0  501    0  0.00000000000E+00  0.00000000000E+00 -0.22515404884E+04  0.22515404884E+04  0.50400001928E-02 0. -1.
    10030    2    1    2    0    0  0.00000000000E+00  0.00000000000E+00 -0.96853824561E+03  0.35345427312E+04  0.33992537395E+04 0.  0.
        2    1    3    3  502    0 -0.76025166903E+03 -0.66080382162E+03  0.93918852580E+03  0.13772143544E+04  0.25500000920E-02 0.  1.
       -2    1    3    3    0  502  0.76025166903E+03  0.66080382162E+03 -0.19077267714E+04  0.21573283768E+04  0.25500000920E-02 0. -1.
</event>
<event>
 5   0  0.1963852E-07  0.3400155E+04  0.7818609E-02  0.8137868E-01
        2   -1    0    0  501    0  0.00000000000E+00  0.00000000000E+00  0.18903486657E+04  0.18903486657E+04  0.25500000920E-02 0. -1.
       -2   -1    0    0    0  501  0.00000000000E+00  0.00000000000E+00 -0.15289579420E+04  0.15289579420E+04  0.25500000920E-02 0.  1.
    10030    2    1    2    0    0  0.00000000000E+00  0.00000000000E+00  0.36139072368E+03  0.34193066076E+04  0.34001550585E+04 0.  0.
        4    1    3    3  502    0 -0.14277068907E+04 -0.81062763703E+03  0.62454044641E+03  0.17565638371E+04  0.12699999809E+01 0. -1.
       -4    1    3    3    0  502  0.14277068907E+04  0.81062763703E+03 -0.26314972273E+03  0.16627427706E+04  0.12699999809E+01 0.  1.
</event>
<event>
 5   0  0.1928004E-07  0.3397893E+04  0.7818609E-02  0.8138424E-01
       -2   -1    0    0    0  501  0.00000000000E+00  0.00000000000E+00  0.14304619498E+04  0.14304619498E+04  0.25500000920E-02 0. -1.
        2   -1    0    0  501    0  0.00000000000E+00  0.00000000000E+00 -0.20178229362E+04  0.20178229362E+04  0.25500000920E-02 0.  1.
    10030    2    1    2    0    0  0.00000000000E+00  0.00000000000E+00 -0.58736098633E+03  0.34482848860E+04  0.33978928363E+04 0.  0.
        2    1    3    3  502    0  0.16844404106E+04 -0.66637436879E+02 -0.79267974583E+02  0.16876206495E+04  0.25500000920E-02 0. -1.
       -2    1    3    3    0  502 -0.16844404106E+04  0.66637436879E+02 -0.50809301175E+03  0.17606642365E+04  0.25500000920E-02 0.  1.
</event>
<event>
 5   0  0.1963852E-07  0.3403661E+04  0.7818609E-02  0.8137008E-01
        2   -1    0    0  501    0  0.00000000000E+00  0.00000000000E+00  0.21123644402E+04  0.21123644402E+04  0.25500000920E-02 0. -1.
       -2   -1    0    0    0  501  0.00000000000E+00  0.00000000000E+00 -0.13710833204E+04  0.13710833204E+04  0.25500000920E-02 0.  1.
    10030    2    1    2    0    0  0.00000000000E+00  0.00000000000E+00  0.74128111980E+03  0.34834477607E+04  0.34036613525E+04 0.  0.
        4    1    3    3  502    0 -0.96277847924E+03  0.10328894083E+04  0.13428684208E+04  0.19486149282E+04  0.12699999809E+01 0. -1.
       -4    1    3    3    0  502  0.96277847924E+03 -0.10328894083E+04 -0.60158730099E+03  0.15348328325E+04  0.12699999809E+01 0.  1.
</event>
<event>
 5   0  0.6788600E-08  0.3397886E+04  0.7818609E-02  0.8138425E-01
       -1   -1    0    0    0  501  0.00000000000E+00  0.00000000000E+00  0.15373772985E+04  0.15373772985E+04  0.50400001928E-02 0. -1.
        1   -1    0    0  501    0  0.00000000000E+00  0.00000000000E+00 -0.18774873867E+04  0.18774873867E+04  0.50400001928E-02 0.  1.
    10030    2    1    2    0    0  0.00000000000E+00  0.00000000000E+00 -0.34011008821E+03  0.34148646853E+04  0.33978855111E+04 0.  0.
        2    1    3    3  502    0 -0.12784938490E+04 -0.51333260960E+03  0.82907047683E+03  0.16079224937E+04  0.25500000920E-02 0. -1.
       -2    1    3    3    0  502  0.12784938490E+04  0.51333260960E+03 -0.11691805650E+04  0.18069421916E+04  0.25500000920E-02 0.  1.
</event>
<event>
 5   0  0.1970449E-07  0.3397352E+04  0.7818609E-02  0.8138556E-01
        2   -1    0    0  501    0  0.00000000000E+00  0.00000000000E+00  0.26692001184E+04  0.26692001184E+04  0.25500000920E-02 0. -1.
       -2   -1    0    0    0  501  0.00000000000E+00  0.00000000000E+00 -0.10810356819E+04  0.10810356819E+04  0.25500000920E-02 0.  1.
    10030    2    1    2    0    0  0.00000000000E+00  0.00000000000E+00  0.15881644365E+04  0.37502358003E+04  0.33973522455E+04 0.  0.
        1    1    3    3  502    0  0.14177537273E+03  0.49270506607E+03  0.25817528520E+04  0.26321676100E+04  0.50400001928E-02 0. -1.
       -1    1    3    3    0  502 -0.14177537273E+03 -0.49270506607E+03 -0.99358841553E+03  0.11180681902E+04  0.50400001928E-02 0.  1.
</event>
<event>
 5   0  0.6311750E-08  0.3405702E+04  0.7818609E-02  0.8136508E-01
       -1   -1    0    0    0  501  0.00000000000E+00  0.00000000000E+00  0.14040516053E+04  0.14040516053E+04  0.50400001928E-02 0.  1.
        1   -1    0    0  501    0  0.00000000000E+00  0.00000000000E+00 -0.20652384554E+04  0.20652384554E+04  0.50400001928E-02 0. -1.
    10030    2    1    2    0    0  0.00000000000E+00  0.00000000000E+00 -0.66118685005E+03  0.34692900607E+04  0.34057019063E+04 0.  0.
        4    1    3    3  502    0 -0.64413316162E+03  0.63443141181E+03  0.11393630747E+04  0.14544966741E+04  0.12699999809E+01 0.  1.
       -4    1    3    3    0  502  0.64413316162E+03 -0.63443141181E+03 -0.18005499247E+04  0.20147933866E+04  0.12699999809E+01 0. -1.
</event>
<event>
 5   0  0.6788600E-08  0.3398074E+04  0.7818609E-02  0.8138379E-01
       -1   -1    0    0    0  501  0.00000000000E+00  0.00000000000E+00  0.12878774238E+04  0.12878774238E+04  0.50400001928E-02 0.  1.
        1   -1    0    0  501    0  0.00000000000E+00  0.00000000000E+00 -0.22414601441E+04  0.22414601441E+04  0.50400001928E-02 0. -1.
    10030    2    1    2    0    0  0.00000000000E+00  0.00000000000E+00 -0.95358272022E+03  0.35293375679E+04  0.33980735224E+04 0.  0.
        2    1    3    3  502    0  0.52185325912E+03  0.16026968407E+04 -0.25461716949E+03  0.17046401058E+04  0.25500000920E-02 0.  1.
       -2    1    3    3    0  502 -0.52185325912E+03 -0.16026968407E+04 -0.69896555073E+03  0.18246974621E+04  0.25500000920E-02 0. -1.
</event>
<event>
 5   0  0.6584420E-08  0.3399722E+04  0.7818609E-02  0.8137975E-01
       -1   -1    0    0    0  501  0.00000000000E+00  0.00000000000E+00  0.21641877413E+04  0.21641877413E+04  0.50400001928E-02 0. -1.
        1   -1    0    0  501    0  0.00000000000E+00  0.00000000000E+00 -0.13351554188E+04  0.13351554188E+04  0.50400001928E-02 0.  1.
    10030    2    1    2    0    0  0.00000000000E+00  0.00000000000E+00  0.82903232253E+03  0.34993431601E+04  0.33997217475E+04 0.  0.
        1    1    3    3  502    0  0.32362372718E+03 -0.85036979234E+03  0.18924408452E+04  0.20998079563E+04  0.50400001928E-02 0. -1.
       -1    1    3    3    0  502 -0.32362372718E+03  0.85036979234E+03 -0.10634085227E+04  0.13995352038E+04  0.50400001928E-02 0.  1.
</event>
<event>
 5   0  0.1970449E-07  0.3386188E+04  0.7818609E-02  0.8141304E-01
       -2   -1    0    0    0  501  0.00000000000E+00  0.00000000000E+00  0.13529183055E+04  0.13529183055E+04  0.25500000920E-02 0.  1.
        2   -1    0    0  501    0  0.00000000000E+00  0.00000000000E+00 -0.21188034308E+04  0.21188034308E+04  0.25500000920E-02 0. -1.
    10030    2    1    2    0    0  0.00000000000E+00  0.00000000000E+00 -0.76588512526E+03  0.34717217363E+04  0.33861883866E+04 0.  0.
        1    1    3    3  502    0  0.13164818344E+04  0.32526793396E+03  0.65639159623E+03  0.15065767743E+04  0.50400001928E-02 0.  1.
       -1    1    3    3    0  502 -0.13164818344E+04 -0.32526793396E+03 -0.14222767215E+04  0.19651449620E+04  0.50400001928E-02 0. -1.
</event>
<event>
 5   0  0.6367111E-08  0.3401040E+04  0.7818609E-02  0.8137651E-01
        1   -1    0    0  501    0  0.00000000000E+00  0.00000000000E+00  0.24899228553E+04  0.24899228553E+04  0.50400001928E-02 0. -1.
       -1   -1    0    0    0  501  0.00000000000E+00  0.00000000000E+00 -0.11613886285E+04  0.11613886285E+04  0.50400001928E-02 0.  1.
    10030    2    1    2    0    0  0.00000000000E+00  0.00000000000E+00  0.13285342268E+04  0.36513114837E+04  0.34010398938E+04 0.  0.
        3    1    3    3  502    0  0.77584116377E+03  0.77230395160E+03  0.20613270335E+04  0.23339777322E+04  0.10100000352E+00 0. -1.
       -3    1    3    3    0  502 -0.77584116377E+03 -0.77230395160E+03 -0.73279280675E+03  0.13173337515E+04  0.10100000352E+00 0.  1.
</event>
<event>
 5   0  0.6341535E-08  0.3407335E+04  0.7818609E-02  0.8136108E-01
       -1   -1    0    0    0  501  0.00000000000E+00  0.00000000000E+00  0.25359077172E+04  0.25359077172E+04  0.50400001928E-02 0. -1.
        1   -1    0    0  501    0  0.00000000000E+00  0.00000000000E+00 -0.11445539016E+04  0.11445539016E+04  0.50400001928E-02 0.  1.
    10030    2    1    2    0    0  0.00000000000E+00  0.00000000000E+00  0.13913538156E+04  0.36804616188E+04  0.34073350711E+04 0.  0.
        5    1    3    3  502    0  0.93507081406E+03  0.11572541609E+04 -0.20083268038E+03  0.15013162477E+04  0.46999998093E+01 0.  1.
       -5    1    3    3    0  502 -0.93507081406E+03 -0.11572541609E+04  0.15921864960E+04  0.21791453711E+04  0.46999998093E+01 0. -1.
</event>
<event>
 5   0  0.6367111E-08  0.3397387E+04  0.7818609E-02  0.8138548E-01
        1   -1    0    0  501    0  0.00000000000E+00  0.00000000000E+00  0.18201653280E+04  0.18201653280E+04  0.50400001928E-02 0.  1.
       -1   -1    0    0    0  501  0.00000000000E+00  0.00000000000E+00 -0.15853279537E+04  0.15853279537E+04  0.50400001928E-02 0. -1.
    10030    2    1    2    0    0  0.00000000000E+00  0.00000000000E+00  0.23483737430E+03  0.34054932816E+04  0.33973866278E+04 0.  0.
        3    1    3    3  502    0  0.16902094895E+04  0.12535455553E+03  0.23187117682E+03  0.17106391016E+04  0.10100000352E+00 0. -1.
       -3    1    3    3    0  502 -0.16902094895E+04 -0.12535455553E+03  0.29661974817E+01  0.16948541800E+04  0.10100000352E+00 0.  1.
</event>
<event>
 5   0  0.1928004E-07  0.3395838E+04  0.7818609E-02  0.8138929E-01
        2   -1    0    0  501    0  0.00000000000E+00  0.00000000000E+00  0.25500355804E+04  0.25500355804E+04  0.25500000920E-02 0.  1.
       -2   -1    0    0    0  501  0.00000000000E+00  0.00000000000E+00 -0.11305445234E+04  0.11305445234E+04  0.25500000920E-02 0. -1.
    10030    2    1    2    0    0  0.00000000000E+00  0.00000000000E+00  0.14194910570E+04  0.36805801038E+04  0.33958378994E+04 0.  0.
        2    1    3    3  502    0  0.63605096013E+03 -0.76684991434E+02 -0.99451647727E+03  0.11830065238E+04  0.25500000920E-02 0. -1.
       -2    1    3    3    0  502 -0.63605096013E+03  0.76684991434E+02  0.24140075343E+04  0.24975735800E+04  0.25500000920E-02 0.  1.
</event>
<event>
 5   0  0.1928004E-07  0.3400807E+04  0.7818609E-02  0.8137708E-01
        2   -1    0    0  501    0  0.00000000000E+00  0.00000000000E+00  0.16833924137E+04  0.16833924137E+04  0.25500000920E-02 0.  1.
       -2   -1    0    0    0  501  0.00000000000E+00  0.00000000000E+00 -0.17175864511E+04  0.17175864511E+04  0.25500000920E-02 0. -1.
    10030    2    1    2    0    0  0.00000000000E+00  0.00000000000E+00 -0.34194037434E+02  0.34009788648E+04  0.34008069641E+04 0.  0.
        2    1    3    3  502    0 -0.32313455908E+03  0.10240629523E+03  0.16492611963E+04  0.16837355749E+04  0.25500000920E-02 0.  1.
       -2    1    3    3    0  502  0.32313455908E+03 -0.10240629523E+03 -0.16834552338E+04  0.17172432899E+04  0.25500000920E-02 0. -1.
</event>
<event>
 5   0  0.1963852E-07  0.3402578E+04  0.7818609E-02  0.8137274E-01
       -2   -1    0    0    0  501  0.00000000000E+00  0.00000000000E+00  0.11727334040E+04  0.11727334040E+04  0.25500000920E-02 0. -1.
        2   -1    0    0  501    0  0.00000000000E+00  0.00000000000E+00 -0.24680661495E+04  0.24680661495E+04  0.25500000920E-02 0.  1.
    10030    2    1    2    0    0  0.00000000000E+00  0.00000000000E+00 -0.12953327455E+04  0.36407995536E+04  0.34025776211E+04 0.  0.
        4    1    3    3  502    0  0.56329990481E+03 -0.35619668911E+03  0.10272356979E+04  0.12244989408E+04  0.12699999809E+01 0. -1.
       -4    1    3    3    0  502 -0.56329990481E+03  0.35619668911E+03 -0.23225684434E+04  0.24163006128E+04  0.12699999809E+01 0.  1.
</event>
<event>
 5   0  0.6311750E-08  0.3398675E+04  0.7818609E-02  0.8138232E-01
       -3   -1    0    0    0  501  0.00000000000E+00  0.00000000000E+00  0.16022209508E+04  0.16022209540E+04  0.10100000352E+00 0.  1.
        3   -1    0    0  501    0  0.00000000000E+00  0.00000000000E+00 -0.18023407851E+04  0.18023407879E+04  0.10100000352E+00 0. -1.
    10030    2    1    2    0    0  0.00000000000E+00  0.00000000000E+00 -0.20011983433E+03  0.34045617419E+04  0.33986751399E+04 0.  0.
        1    1    3    3  502    0  0.11213131264E+04  0.63483175456E+03 -0.12098568068E+04  0.17675146328E+04  0.50400001928E-02 0. -1.
       -1    1    3    3    0  502 -0.11213131264E+04 -0.63483175456E+03  0.10097369725E+04  0.16370471092E+04  0.50400001928E-02 0.  1.
</event>
<event>
 5   0  0.6367111E-08  0.3405559E+04  0.7818609E-02  0.8136543E-01
        1   -1    0    0  501    0  0.00000000000E+00  0.00000000000E+00  0.23543616786E+04  0.23543616786E+04  0.50400001928E-02 0.  1.
       -1   -1    0    0    0  501  0.00000000000E+00  0.00000000000E+00 -0.12315258281E+04  0.12315258281E+04  0.50400001928E-02 0. -1.
    10030    2    1    2    0    0  0.00000000000E+00  0.00000000000E+00  0.11228358505E+04  0.35858875068E+04  0.34055585245E+04 0.  0.
        3    1    3    3  502    0  0.12109864093E+04 -0.11196448157E+04  0.10073581933E+04  0.19325793998E+04  0.10100000352E+00 0.  1.
       -3    1    3    3    0  502 -0.12109864093E+04  0.11196448157E+04  0.11547765723E+03  0.16533081069E+04  0.10100000352E+00 0. -1.
</event>
<event>
 5   0  0.6311750E-08  0.3375246E+04  0.7818609E-02  0.8144008E-01
        1   -1    0    0  501    0  0.00000000000E+00  0.00000000000E+00  0.16612651589E+04  0.16612651589E+04  0.50400001928E-02 0. -1.
       -1   -1    0    0    0  501  0.00000000000E+00  0.00000000000E+00 -0.17143995303E+04  0.17143995303E+04  0.50400001928E-02 0.  1.
    10030    2    1    2    0    0  0.00000000000E+00  0.00000000000E+00 -0.53134371414E+02  0.33756646892E+04  0.33752464847E+04 0.  0.
        4    1    3    3  502    0  0.13892637058E+04 -0.57435773000E+03  0.74042427492E+03  0.16757595788E+04  0.12699999809E+01 0. -1.
       -4    1    3    3    0  502 -0.13892637058E+04  0.57435773000E+03 -0.79355864634E+03  0.16999051104E+04  0.12699999809E+01 0.  1.
</event>
<event>
 5   0  0.1986613E-07  0.3396729E+04  0.7818609E-02  0.8138710E-01
        2   -1    0    0  501    0  0.00000000000E+00  0.00000000000E+00  0.26175330874E+04  0.26175330874E+04  0.25500000920E-02 0. -1.
       -2   -1    0    0    0  501  0.00000000000E+00  0.00000000000E+00 -0.11019695009E+04  0.11019695009E+04  0.25500000920E-02 0.  1.
    10030    2    1    2    0    0  0.00000000000E+00  0.00000000000E+00  0.15155635865E+04  0.37195025883E+04  0.33967287969E+04 0.  0.
        5    1    3    3  502    0  0.14567491740E+04  0.85475723135E+03  0.56284441950E+03  0.17803213225E+04  0.46999998093E+01 0.  1.
       -5    1    3    3    0  502 -0.14567491740E+04 -0.85475723135E+03  0.95271916701E+03  0.19391812658E+04  0.46999998093E+01 0. -1.
</event>
<event>
 5   0  0.6341535E-08  0.3396177E+04  0.7818609E-02  0.8138845E-01
        1   -1    0    0  501    0  0.00000000000E+00  0.00000000000E+00  0.14997986331E+04  0.14997986331E+04  0.50400001928E-02 0. -1.
       -1   -1    0    0    0  501  0.00000000000E+00  0.00000000000E+00 -0.19225946526E+04  0.19225946526E+04  0.50400001928E-02 0.  1.
    10030    2    1    2    0    0  0.00000000000E+00  0.00000000000E+00 -0.42279601947E+03  0.34223932857E+04  0.33961771638E+04 0.  0.
        5    1    3    3  502    0 -0.82147561947E+03 -0.14804806666E+04 -0.34215922675E+03  0.17273506373E+04  0.46999998093E+01 0. -1.
       -5    1    3    3    0  502  0.82147561947E+03  0.14804806666E+04 -0.80636792712E+02  0.16950426484E+04  0.46999998093E+01 0.  1.
</event>
<event>
 5   0  0.6788600E-08  0.3401819E+04  0.7818609E-02  0.8137460E-01
       -1   -1    0    0    0  501  0.00000000000E+00  0.00000000000E+00  0.13848081164E+04  0.13848081164E+04  0.50400001928E-02 0. -1.
        1   -1    0    0  501    0  0.00000000000E+00  0.00000000000E+00 -0.20891647744E+04  0.20891647744E+04  0.50400001928E-02 0.  1.
    10030    2    1    2    0    0  0.00000000000E+00  0.00000000000E+00 -0.70435665793E+03  0.34739728908E+04  0.34018185349E+04 0.  0.
        2    1    3    3  502    0 -0.13699500287E+04  0.84696379766E+03 -0.91056815734E+03  0.18502013742E+04  0.25500000920E-02 0.  1.
       -2    1    3    3    0  502  0.13699500287E+04 -0.84696379766E+03  0.20621149941E+03  0.16237715166E+04  0.25500000920E-02 0. -1.
</event>
<event>
 5   0  0.1897313E-07  0.3399846E+04  0.7818609E-02  0.8137944E-01
       -2   -1    0    0    0  501  0.00000000000E+00  0.00000000000E+00  0.13301169804E+04  0.13301169804E+04  0.25500000920E-02 0.  1.
        2   -1    0    0  501    0  0.00000000000E+00  0.00000000000E+00 -0.21725444404E+04  0.21725444404E+04  0.25500000920E-02 0. -1.
    10030    2    1    2    0    0  0.00000000000E+00  0.00000000000E+00 -0.84242745995E+03  0.35026614208E+04  0.33998460265E+04 0.  0.
        3    1    3    3  502    0 -0.66651108926E+03 -0.40103481453E+03  0.11360094751E+04  0.13768019074E+04  0.10100000352E+00 0.  1.
       -3    1    3    3    0  502  0.66651108926E+03  0.40103481453E+03 -0.19784369351E+04  0.21258595134E+04  0.10100000352E+00 0. -1.
</event>
<event>
 5   0  0.6367111E-08  0.3398250E+04  0.7818609E-02  0.8138336E-01
       -1   -1    0    0    0  501  0.00000000000E+00  0.00000000000E+00  0.13925200131E+04  0.13925200131E+04  0.50400001928E-02 0.  1.
        1   -1    0    0  501    0  0.00000000000E+00  0.00000000000E+00 -0.20732387410E+04  0.20732387410E+04  0.50400001928E-02 0. -1.
    10030    2    1    2    0    0  0.00000000000E+00  0.00000000000E+00 -0.68071872793E+03  0.34657587542E+04  0.33982503962E+04 0.  0.
        3    1    3    3  502    0  0.13657243295E+04 -0.38027636624E+03 -0.12955621352E+04  0.19204932480E+04  0.10100000352E+00 0. -1.
       -3    1    3    3    0  502 -0.13657243295E+04  0.38027636624E+03  0.61484340732E+03  0.15452655062E+04  0.10100000352E+00 0.  1.
</event>
<event>
 5   0  0.6367111E-08  0.3413419E+04  0.7818609E-02  0.8134621E-01
       -1   -1    0    0    0  501  0.00000000000E+00  0.00000000000E+00  0.19211801371E+04  0.19211801371E+04  0.50400001928E-02 0. -1.
        1   -1    0    0  501    0  0.00000000000E+00  0.00000000000E+00 -0.15161810845E+04  0.15161810845E+04  0.50400001928E-02 0.  1.
    10030    2    1    2    0    0  0.00000000000E+00  0.00000000000E+00  0.40499905257E+03  0.34373612216E+04  0.34134188045E+04 0.  0.
        3    1    3    3  502    0 -0.96005448656E+03  0.10470998187E+04  0.11550382630E+04  0.18309112613E+04  0.10100000352E+00 0. -1.
       -3    1    3    3    0  502  0.96005448656E+03 -0.10470998187E+04 -0.75003921044E+03  0.16064499603E+04  0.10100000352E+00 0.  1.
</event>
<event>
 5   0  0.6367111E-08  0.3396961E+04  0.7818609E-02  0.8138652E-01
       -1   -1    0    0    0  501  0.00000000000E+00  0.00000000000E+00  0.16613334903E+04  0.16613334903E+04  0.50400001928E-02 0.  1.
        1   -1    0    0  501    0  0.00000000000E+00  0.00000000000E+00 -0.17364586152E+04  0.17364586152E+04  0.50400001928E-02 0. -1.
    10030    2    1    2    0    0  0.00000000000E+00  0.00000000000E+00 -0.75125124857E+02  0.33977921055E+04  0.33969614963E+04 0.  0.
        3    1    3    3  502    0 -0.26867204646E+03  0.14950875978E+04 -0.79759389859E+03  0.17157003325E+04  0.10100000352E+00 0.  1.
       -3    1    3    3    0  502  0.26867204646E+03 -0.14950875978E+04  0.72246877373E+03  0.16820917730E+04  0.10100000352E+00 0. -1.
</event>
<event>
 5   0  0.6311750E-08  0.3433346E+04  0.7818609E-02  0.8129770E-01
        4   -1    0    0  501    0  0.00000000000E+00  0.00000000000E+00  0.13482274811E+04  0.13482280793E+04  0.12699999809E+01 0.  1.
       -4   -1    0    0    0  501  0.00000000000E+00  0.00000000000E+00 -0.21858062620E+04  0.21858066310E+04  0.12699999809E+01 0. -1.
    10030    2    1    2    0    0  0.00000000000E+00  0.00000000000E+00 -0.83757878089E+03  0.35340347102E+04  0.34333457616E+04 0.  0.
        2    1    3    3  502    0  0.14998602805E+03 -0.42097443117E+03  0.12873024233E+04  0.13626675344E+04  0.25500000920E-02 0.  1.
       -2    1    3    3    0  502 -0.14998602805E+03  0.42097443117E+03 -0.21248812042E+04  0.21713671758E+04  0.25500000920E-02 0. -1.
</event>
<event>
 5   0  0.6311750E-08  0.3400730E+04  0.7818609E-02  0.8137727E-01
       -1   -1    0    0    0  501  0.00000000000E+00  0.00000000000E+00  0.15543272464E+04  0.15543272464E+04  0.50400001928E-02 0.  1.
        1   -1    0    0  501    0  0.00000000000E+00  0.00000000000E+00 -0.18601238210E+04  0.18601238210E+04  0.50400001928E-02 0. -1.
    10030    2    1    2    0    0  0.00000000000E+00  0.00000000000E+00 -0.30579657456E+03  0.34144510674E+04  0.34007300020E+04 0.  0.
        4    1    3    3  502    0 -0.68809344710E+03 -0.83057701672E+03 -0.14727013821E+04  0.18254264561E+04  0.12699999809E+01 0. -1.
       -4    1    3    3    0  502  0.68809344710E+03  0.83057701672E+03  0.11669048076E+04  0.15890246113E+04  0.12699999809E+01 0.  1.
</event>
<event>
 5   0  0.6311750E-08  0.3395141E+04  0.7818609E-02  0.8139100E-01
        1   -1    0    0  501    0  0.00000000000E+00  0.00000000000E+00  0.11933590796E+04  0.11933590796E+04  0.50400001928E-02 0. -1.
       -1   -1    0    0    0  501  0.00000000000E+00  0.00000000000E+00 -0.24148183139E+04  0.24148183139E+04  0.50400001928E-02 0.  1.
    10030    2    1    2    0    0  0.00000000000E+00  0.00000000000E+00 -0.12214592343E+04  0.36081773936E+04  0.33951408575E+04 0.  0.
        4    1    3    3  502    0 -0.41112957568E+02  0.94192231858E+03  0.88952801358E+03  0.12962135740E+04  0.12699999809E+01 0. -1.
       -4    1    3    3    0  502  0.41112957568E+02 -0.94192231858E+03 -0.21109872479E+04  0.23119638196E+04  0.12699999809E+01 0.  1.
</event>
<event>
 5   0  0.1897313E-07  0.3398563E+04  0.7818609E-02  0.8138259E-01
       -2   -1    0    0    0  501  0.00000000000E+00  0.00000000000E+00  0.13351301478E+04  0.13351301478E+04  0.25500000920E-02 0.  1.
        2   -1    0    0  501    0  0.00000000000E+00  0.00000000000E+00 -0.21627541007E+04  0.21627541007E+04  0.25500000920E-02 0. -1.
    10030    2    1    2    0    0  0.00000000000E+00  0.00000000000E+00 -0.82762395288E+03  0.34978842486E+04  0.33985633449E+04 0.  0.
        3    1    3    3  502    0 -0.22883433286E+03 -0.13449133195E+03  0.13136623091E+04  0.13402095891E+04  0.10100000352E+00 0.  1.
       -3    1    3    3    0  502  0.22883433286E+03  0.13449133195E+03 -0.21412862619E+04  0.21576746595E+04  0.10100000352E+00 0. -1.
</event>
<event>
 5   0  0.1963852E-07  0.3393183E+04  0.7818609E-02  0.8139581E-01
       -2   -1    0    0    0  501  0.00000000000E+00  0.00000000000E+00  0.15846273167E+04  0.15846273167E+04  0.25500000920E-02 0. -1.
        2   -1    0    0  501    0  0.00000000000E+00  0.00000000000E+00 -0.18164670617E+04  0.18164670617E+04  0.25500000920E-02 0.  1.
    10030    2    1    2    0    0  0.00000000000E+00  0.00000000000E+00 -0.23183974497E+03  0.34010943784E+04  0.33931833583E+04 0.  0.
        4    1    3    3  502    0  0.12832828931E+04  0.11000882453E+04 -0.26259141903E+03  0.17105452340E+04  0.12699999809E+01 0. -1.
       -4    1    3    3    0  502 -0.12832828931E+04 -0.11000882453E+04  0.30751674056E+02  0.16905491444E+04  0.12699999809E+01 0.  1.
</event>
<event>
 5   0  0.1963852E-07  0.3399460E+04  0.7818609E-02  0.8138039E-01
        2   -1    0    0  501    0  0.00000000000E+00  0.00000000000E+00  0.23637733877E+04  0.23637733877E+04  0.25500000920E-02 0. -1.
       -2   -1    0    0    0  501  0.00000000000E+00  0.00000000000E+00 -0.12222333051E+04  0.12222333051E+04  0.25500000920E-02 0.  1.
    10030    2    1    2    0    0  0.00000000000E+00  0.00000000000E+00  0.11415400826E+04  0.35860066928E+04  0.33994602867E+04 0.  0.
        4    1    3    3  502    0  0.85573357930E+03 -0.12973358134E+04  0.12968130364E+04  0.20241259436E+04  0.12699999809E+01 0. -1.
       -4    1    3    3    0  502 -0.85573357930E+03  0.12973358134E+04 -0.15527295381E+03  0.15618807492E+04  0.12699999809E+01 0.  1.
</event>
<event>
 5   0  0.6341535E-08  0.3389437E+04  0.7818609E-02  0.8140504E-01
        1   -1    0    0  501    0  0.00000000000E+00  0.00000000000E+00  0.21934643419E+04  0.21934643419E+04  0.50400001928E-02 0.  1.
       -1   -1    0    0    0  501  0.00000000000E+00  0.00000000000E+00 -0.13093763195E+04  0.13093763195E+04  0.50400001928E-02 0. -1.
    10030    2    1    2    0    0  0.00000000000E+00  0.00000000000E+00  0.88408802237E+03  0.35028406614E+04  0.33894366888E+04 0.  0.
        5    1    3    3  502    0 -0.16078159393E+04 -0.41008417094E+03  0.85827560725E+02  0.16615142437E+04  0.46999998093E+01 0.  1.
       -5    1    3    3    0  502  0.16078159393E+04  0.41008417094E+03  0.79826046165E+03  0.18413264177E+04  0.46999998093E+01 0. -1.
</event>
<event>
 5   0  0.6367111E-08  0.3398062E+04  0.7818609E-02  0.8138382E-01
        1   -1    0    0  501    0  0.00000000000E+00  0.00000000000E+00  0.20839324260E+04  0.20839324261E+04  0.50400001928E-02 0.  1.
       -1   -1    0    0    0  501  0.00000000000E+00  0.00000000000E+00 -0.13852206509E+04  0.13852206509E+04  0.50400001928E-02 0. -1.
    10030    2    1    2    0    0  0.00000000000E+00  0.00000000000E+00  0.69871177513E+03  0.34691530770E+04  0.33980619369E+04 0.  0.
        3    1    3    3  502    0 -0.11713609215E+04  0.48121074160E+03 -0.80706249053E+03  0.15016657618E+04  0.10100000352E+00 0. -1.
       -3    1    3    3    0  502  0.11713609215E+04 -0.48121074160E+03  0.15057742657E+04  0.19674873152E+04  0.10100000352E+00 0.  1.
</event>
<event>
 5   0  0.1963852E-07  0.3389169E+04  0.7818609E-02  0.8140570E-01
        2   -1    0    0  501    0  0.00000000000E+00  0.00000000000E+00  0.16633623739E+04  0.16633623739E+04  0.25500000920E-02 0. -1.
       -2   -1    0    0    0  501  0.00000000000E+00  0.00000000000E+00 -0.17263931243E+04  0.17263931243E+04  0.25500000920E-02 0.  1.
    10030    2    1    2    0    0  0.00000000000E+00  0.00000000000E+00 -0.63030750319E+02  0.33897554982E+04  0.33891694354E+04 0.  0.
        4    1    3    3  502    0  0.10372237116E+04  0.13380501714E+04  0.42012394803E+02  0.16935105382E+04  0.12699999809E+01 0.  1.
       -4    1    3    3    0  502 -0.10372237116E+04 -0.13380501714E+04 -0.10504314512E+03  0.16962449600E+04  0.12699999809E+01 0. -1.
</event>
<event>
 5   0  0.1986613E-07  0.3398875E+04  0.7818609E-02  0.8138182E-01
        2   -1    0    0  501    0  0.00000000000E+00  0.00000000000E+00  0.21516337491E+04  0.21516337491E+04  0.25500000920E-02 0. -1.
       -2   -1    0    0    0  501  0.00000000000E+00  0.00000000000E+00 -0.13422770710E+04  0.13422770710E+04  0.25500000920E-02 0.  1.
    10030    2    1    2    0    0  0.00000000000E+00  0.00000000000E+00  0.80935667817E+03  0.34939108201E+04  0.33988754885E+04 0.  0.
        5    1    3    3  502    0  0.17137188794E+03 -0.14505958452E+04 -0.48821077264E+03  0.15401196313E+04  0.46999998093E+01 0.  1.
       -5    1    3    3    0  502 -0.17137188794E+03  0.14505958452E+04  0.12975674508E+04  0.19537911888E+04  0.46999998093E+01 0. -1.
</event>
<event>
 5   0  0.6341535E-08  0.3420933E+04  0.7818609E-02  0.8132788E-01
        1   -1    0    0  501    0  0.00000000000E+00  0.00000000000E+00  0.15981218835E+04  0.15981218835E+04  0.50400001928E-02 0. -1.
       -1   -1    0    0    0  501  0.00000000000E+00  0.00000000000E+00 -0.18307090986E+04  0.18307090986E+04  0.50400001928E-02 0.  1.
    10030    2    1    2    0    0  0.00000000000E+00  0.00000000000E+00 -0.23258721503E+03  0.34288309821E+04  0.34209333655E+04 0.  0.
        5    1    3    3  502    0  0.44055593599E+03  0.16445772031E+04 -0.28083859576E+03  0.17255770388E+04  0.46999998093E+01 0.  1.
       -5    1    3    3    0  502 -0.44055593599E+03 -0.16445772031E+04  0.48251380727E+02  0.17032539434E+04  0.46999998093E+01 0. -1.
</event>
<event>
 5   0  0.6367111E-08  0.3403921E+04  0.7818609E-02  0.8136945E-01
       -1   -1    0    0    0  501  0.00000000000E+00  0.00000000000E+00  0.15640541274E+04  0.15640541274E+04  0.50400001928E-02 0. -1.
        1   -1    0    0  501    0  0.00000000000E+00  0.00000000000E+00 -0.18520266436E+04  0.18520266436E+04  0.50400001928E-02 0.  1.
    10030    2    1    2    0    0  0.00000000000E+00  0.00000000000E+00 -0.28797251617E+03  0.34160807710E+04  0.34039212188E+04 0.  0.
        3    1    3    3  502    0 -0.13884893947E+03  0.24861007109E+03 -0.18279505107E+04  0.18499970474E+04  0.10100000352E+00 0.  1.
       -3    1    3    3    0  502  0.13884893947E+03 -0.24861007109E+03  0.15399779946E+04  0.15660837236E+04  0.10100000352E+00 0. -1.
</event>
<event>
 5   0  0.1928004E-07  0.3395258E+04  0.7818609E-02  0.8139071E-01
        2   -1    0    0  501    0  0.00000000000E+00  0.00000000000E+00  0.30841024255E+04  0.30841024255E+04  0.25500000920E-02 0. -1.
       -2   -1    0    0    0  501  0.00000000000E+00  0.00000000000E+00 -0.93445174746E+03  0.93445174746E+03  0.25500000920E-02 0.  1.
    10030    2    1    2    0    0  0.00000000000E+00  0.00000000000E+00  0.21496506781E+04  0.40185541730E+04  0.33952584001E+04 0.  0.
        2    1    3    3  502    0 -0.67769132208E+03  0.68167290666E+02  0.29152924889E+04  0.29938006953E+04  0.25500000920E-02 0. -1.
       -2    1    3    3    0  502  0.67769132208E+03 -0.68167290666E+02 -0.76564181081E+03  0.10247534777E+04  0.25500000920E-02 0.  1.
</event>
<event>
 5   0  0.1986613E-07  0.3399992E+04  0.7818609E-02  0.8137908E-01
       -2   -1    0    0    0  501  0.00000000000E+00  0.00000000000E+00  0.14991225820E+04  0.14991225820E+04  0.25500000920E-02 0.  1.
        2   -1    0    0  501    0  0.00000000000E+00  0.00000000000E+00 -0.19277852283E+04  0.19277852283E+04  0.25500000920E-02 0. -1.
    10030    2    1    2    0    0  0.00000000000E+00  0.00000000000E+00 -0.42866264626E+03  0.34269078103E+04  0.33999919818E+04 0.  0.
        5    1    3    3  502    0 -0.10744286765E+04 -0.49897474888E+03  0.10145794482E+04  0.15597327745E+04  0.46999998093E+01 0.  1.
       -5    1    3    3    0  502  0.10744286765E+04  0.49897474888E+03 -0.14432420945E+04  0.18671750358E+04  0.46999998093E+01 0. -1.
</event>
<event>
 5   0  0.1970449E-07  0.3398289E+04  0.7818609E-02  0.8138326E-01
       -2   -1    0    0    0  501  0.00000000000E+00  0.00000000000E+00  0.14247560403E+04  0.14247560403E+04  0.25500000920E-02 0.  1.
        2   -1    0    0  501    0  0.00000000000E+00  0.00000000000E+00 -0.20263759574E+04  0.20263759574E+04  0.25500000920E-02 0. -1.
    10030    2    1    2    0    0  0.00000000000E+00  0.00000000000E+00 -0.60161991706E+03  0.34511319977E+04  0.33982886194E+04 0.  0.
        1    1    3    3  502    0  0.14672260623E+04 -0.85431941725E+03 -0.36876384244E+03  0.17374120859E+04  0.50400001928E-02 0.  1.
       -1    1    3    3    0  502 -0.14672260623E+04  0.85431941725E+03 -0.23285607461E+03  0.17137199118E+04  0.50400001928E-02 0. -1.
</event>
<event>
 5   0  0.1963852E-07  0.3425562E+04  0.7818609E-02  0.8131661E-01
        2   -1    0    0  501    0  0.00000000000E+00  0.00000000000E+00  0.20134321836E+04  0.20134321836E+04  0.25500000920E-02 0.  1.
       -2   -1    0    0    0  501  0.00000000000E+00  0.00000000000E+00 -0.14570235919E+04  0.14570235919E+04  0.25500000920E-02 0. -1.
    10030    2    1    2    0    0  0.00000000000E+00  0.00000000000E+00  0.55640859172E+03  0.34704557754E+04  0.34255616719E+04 0.  0.
        4    1    3    3  502    0  0.31013418622E+03 -0.10462386530E+04 -0.10592555369E+04  0.15207966458E+04  0.12699999809E+01 0. -1.
       -4    1    3    3    0  502 -0.31013418622E+03  0.10462386530E+04  0.16156641286E+04  0.19496591297E+04  0.12699999809E+01 0.  1.
</event>
<event>
 5   0  0.1986613E-07  0.3399867E+04  0.7818609E-02  0.8137939E-01
       -2   -1    0    0    0  501  0.00000000000E+00  0.00000000000E+00  0.15595880367E+04  0.15595880367E+04  0.25500000920E-02 0. -1.
        2   -1    0    0  501    0  0.00000000000E+00  0.00000000000E+00 -0.18529081080E+04  0.18529081080E+04  0.25500000920E-02 0.  1.
    10030    2    1    2    0    0  0.00000000000E+00  0.00000000000E+00 -0.29332007135E+03  0.34124961447E+04  0.33998666552E+04 0.  0.
        5    1    3    3  502    0  0.13363172943E+04 -0.99586132710E+01 -0.12012332927E+04  0.17968935969E+04  0.46999998093E+01 0.  1.
       -5    1    3    3    0  502 -0.13363172943E+04  0.99586132710E+01  0.90791322136E+03  0.16156025478E+04  0.46999998093E+01 0. -1.
</event>
<event>
 5   0  0.1897313E-07  0.3398891E+04  0.7818609E-02  0.8138179E-01
       -2   -1    0    0    0  501  0.00000000000E+00  0.00000000000E+00  0.17410181599E+04  0.17410181599E+04  0.25500000920E-02 0.  1.
        2   -1    0    0  501    0  0.00000000000E+00  0.00000000000E+00 -0.16588651351E+04  0.16588651351E+04  0.25500000920E-02 0. -1.
    10030    2    1    2    0    0  0.00000000000E+00  0.00000000000E+00  0.82153024830E+02  0.33998832951E+04  0.33988905985E+04 0.  0.
        3    1    3    3  502    0  0.60695900994E+03  0.50274895721E+03 -0.14650054749E+04  0.16635494599E+04  0.10100000352E+00 0. -1.
       -3    1    3    3    0  502 -0.60695900994E+03 -0.50274895721E+03  0.15471584997E+04  0.17363338352E+04  0.10100000352E+00 0.  1.
</event>
<event>
 5   0  0.6311750E-08  0.3397440E+04  0.7818609E-02  0.8138535E-01
       -1   -1    0    0    0  501  0.00000000000E+00  0.00000000000E+00  0.15141088582E+04  0.15141088583E+04  0.50400001928E-02 0.  1.
        1   -1    0    0  501    0  0.00000000000E+00  0.00000000000E+00 -0.19058408132E+04  0.19058408132E+04  0.50400001928E-02 0. -1.
    10030    2    1    2    0    0  0.00000000000E+00  0.00000000000E+00 -0.39173195499E+03  0.34199496715E+04  0.33974404823E+04 0.  0.
        4    1    3    3  502    0 -0.10271066860E+04 -0.65437555405E+03 -0.13879812740E+04  0.18465235281E+04  0.12699999809E+01 0. -1.
       -4    1    3    3    0  502  0.10271066860E+04  0.65437555405E+03  0.99624931896E+03  0.15734261434E+04  0.12699999809E+01 0.  1.
</event>
<event>
 5   0  0.1986613E-07  0.3402223E+04  0.7818609E-02  0.8137361E-01
       -2   -1    0    0    0  501  0.00000000000E+00  0.00000000000E+00  0.12812585024E+04  0.12812585025E+04  0.25500000920E-02 0. -1.
        2   -1    0    0  501    0  0.00000000000E+00  0.00000000000E+00 -0.22585456919E+04  0.22585456919E+04  0.25500000920E-02 0.  1.
    10030    2    1    2    0    0  0.00000000000E+00  0.00000000000E+00 -0.97728718949E+03  0.35398041944E+04  0.34022233148E+04 0.  0.
        5    1    3    3  502    0 -0.16995584897E+04 -0.32334657877E+02 -0.42110165593E+03  0.17512547744E+04  0.46999998093E+01 0.  1.
       -5    1    3    3    0  502  0.16995584897E+04  0.32334657877E+02 -0.55618553356E+03  0.17885494200E+04  0.46999998093E+01 0. -1.
</event>
<event>
 5   0  0.6341535E-08  0.3421740E+04  0.7818609E-02  0.8132591E-01
       -1   -1    0    0    0  501  0.00000000000E+00  0.00000000000E+00  0.11535496021E+04  0.11535496021E+04  0.50400001928E-02 0.  1.
        1   -1    0    0  501    0  0.00000000000E+00  0.00000000000E+00 -0.25374512398E+04  0.25374512398E+04  0.50400001928E-02 0. -1.
    10030    2    1    2    0    0  0.00000000000E+00  0.00000000000E+00 -0.13839016377E+04  0.36910008419E+04  0.34217398311E+04 0.  0.
        5    1    3    3  502    0 -0.15627833602E+03 -0.66019787891E+03  0.10022366089E+04  0.12102828049E+04  0.46999998093E+01 0.  1.
       -5    1    3    3    0  502  0.15627833602E+03  0.66019787891E+03 -0.23861382465E+04  0.24807180370E+04  0.46999998093E+01 0. -1.
</event>
<event>
 5   0  0.6341535E-08  0.3401278E+04  0.7818609E-02  0.8137593E-01
       -1   -1    0    0    0  501  0.00000000000E+00  0.00000000000E+00  0.11888423448E+04  0.11888423448E+04  0.50400001928E-02 0.  1.
        1   -1    0    0  501    0  0.00000000000E+00  0.00000000000E+00 -0.24327640593E+04  0.24327640593E+04  0.50400001928E-02 0. -1.
    10030    2    1    2    0    0  0.00000000000E+00  0.00000000000E+00 -0.12439217145E+04  0.36216064040E+04  0.34012779531E+04 0.  0.
        5    1    3    3  502    0 -0.74064799720E+01  0.36101026078E+03  0.11475477871E+04  0.12030258841E+04  0.46999998093E+01 0.  1.
       -5    1    3    3    0  502  0.74064799720E+01 -0.36101026078E+03 -0.23914695016E+04  0.24185805199E+04  0.46999998093E+01 0. -1.
</event>
<event>
 5   0  0.6341535E-08  0.3395426E+04  0.7818609E-02  0.8139030E-01
       -1   -1    0    0    0  501  0.00000000000E+00  0.00000000000E+00  0.15401297536E+04  0.15401297536E+04  0.50400001928E-02 0. -1.
        1   -1    0    0  501    0  0.00000000000E+00  0.00000000000E+00 -0.18714194159E+04  0.18714194159E+04  0.50400001928E-02 0.  1.
    10030    2    1    2    0    0  0.00000000000E+00  0.00000000000E+00 -0.33128966235E+03  0.34115491695E+04  0.33954255838E+04 0.  0.
        5    1    3    3  502    0  0.84134401589E+03 -0.83757620937E+03  0.10537131324E+04  0.15873648336E+04  0.46999998093E+01 0. -1.
       -5    1    3    3    0  502 -0.84134401589E+03  0.83757620937E+03 -0.13850027948E+04  0.18241843358E+04  0.46999998093E+01 0.  1.
</event>
<event>
 5   0  0.6584420E-08  0.3402285E+04  0.7818609E-02  0.8137346E-01
       -1   -1    0    0    0  501  0.00000000000E+00  0.00000000000E+00  0.13759173329E+04  0.13759173329E+04  0.50400001928E-02 0.  1.
        1   -1    0    0  501    0  0.00000000000E+00  0.00000000000E+00 -0.21032404921E+04  0.21032404921E+04  0.50400001928E-02 0. -1.
    10030    2    1    2    0    0  0.00000000000E+00  0.00000000000E+00 -0.72732315923E+03  0.34791578249E+04  0.34022845550E+04 0.  0.
        1    1    3    3  502    0 -0.23655075351E+03 -0.15272685864E+04 -0.10906245465E+04  0.18915516106E+04  0.50400001928E-02 0. -1.
       -1    1    3    3    0  502  0.23655075351E+03  0.15272685864E+04  0.36330138726E+03  0.15876062144E+04  0.50400001928E-02 0.  1.
</event>
<event>
 5   0  0.1897313E-07  0.3400457E+04  0.7818609E-02  0.8137794E-01
       -2   -1    0    0    0  501  0.00000000000E+00  0.00000000000E+00  0.12551676273E+04  0.12551676273E+04  0.25500000920E-02 0. -1.
        2   -1    0    0  501    0  0.00000000000E+00  0.00000000000E+00 -0.23031006651E+04  0.23031006651E+04  0.25500000920E-02 0.  1.
    10030    2    1    2    0    0  0.00000000000E+00  0.00000000000E+00 -0.10479330378E+04  0.35582682924E+04  0.34004572617E+04 0.  0.
        3    1    3    3  502    0  0.11081036465E+03  0.19354879557E+03 -0.22877279387E+04  0.22985732977E+04  0.10100000352E+00 0.  1.
       -3    1    3    3    0  502 -0.11081036465E+03 -0.19354879557E+03  0.12397949009E+04  0.12596949947E+04  0.10100000352E+00 0. -1.
</event>
<event>
 5   0  0.1986613E-07  0.3401591E+04  0.7818609E-02  0.8137516E-01
        2   -1    0    0  501    0  0.00000000000E+00  0.00000000000E+00  0.12073033446E+04  0.12073033446E+04  0.25500000920E-02 0.  1.
       -2   -1    0    0    0  501  0.00000000000E+00  0.00000000000E+00 -0.23960052981E+04  0.23960052981E+04  0.25500000920E-02 0. -1.
    10030    2    1    2    0    0  0.00000000000E+00  0.00000000000E+00 -0.11887019535E+04  0.36033086427E+04  0.34015909278E+04 0.  0.
        5    1    3    3  502    0  0.16946927583E+03 -0.16791838160E+04 -0.37138133639E+03  0.17280984666E+04  0.46999998093E+01 0.  1.
       -5    1    3    3    0  502 -0.16946927583E+03  0.16791838160E+04 -0.81732061708E+03  0.18752101761E+04  0.46999998093E+01 0. -1.
</event>
<event>
 5   0  0.6311750E-08  0.3399992E+04  0.7818609E-02  0.8137908E-01
       -1   -1    0    0    0  501  0.00000000000E+00  0.00000000000E+00  0.16484375797E+04  0.16484375797E+04  0.50400001928E-02 0. -1.
        1   -1    0    0  501    0  0.00000000000E+00  0.00000000000E+00 -0.17531674388E+04  0.17531674388E+04  0.50400001928E-02 0.  1.
    10030    2    1    2    0    0  0.00000000000E+00  0.00000000000E+00 -0.10472985907E+03  0.34016050185E+04  0.33999924057E+04 0.  0.
        4    1    3    3  502    0 -0.68792220426E+03 -0.90817925524E+03  0.12099620666E+04  0.16619375242E+04  0.12699999809E+01 0. -1.
       -4    1    3    3    0  502  0.68792220426E+03  0.90817925524E+03 -0.13146919256E+04  0.17396674944E+04  0.12699999809E+01 0.  1.
</event>
<event>
 5   0  0.1928004E-07  0.3398736E+04  0.7818609E-02  0.8138217E-01
        2   -1    0    0  501    0  0.00000000000E+00  0.00000000000E+00  0.24309537110E+04  0.24309537110E+04  0.25500000920E-02 0.  1.
       -2   -1    0    0    0  501  0.00000000000E+00  0.00000000000E+00 -0.11879497421E+04  0.11879497422E+04  0.25500000920E-02 0. -1.
    10030    2    1    2    0    0  0.00000000000E+00  0.00000000000E+00  0.12430039689E+04  0.36189034532E+04  0.33987355497E+04 0.  0.
        2    1    3    3  502    0  0.16901580085E+03 -0.75084446997E+03 -0.99174137695E+03  0.12553424703E+04  0.25500000920E-02 0. -1.
       -2    1    3    3    0  502 -0.16901580085E+03  0.75084446997E+03  0.22347453458E+04  0.23635609829E+04  0.25500000920E-02 0.  1.
</event>
<event>
 5   0  0.1928004E-07  0.3404739E+04  0.7818609E-02  0.8136744E-01
       -2   -1    0    0    0  501  0.00000000000E+00  0.00000000000E+00  0.28190732395E+04  0.28190732395E+04  0.25500000920E-02 0.  1.
        2   -1    0    0  501    0  0.00000000000E+00  0.00000000000E+00 -0.10280193993E+04  0.10280193993E+04  0.25500000920E-02 0. -1.
    10030    2    1    2    0    0  0.00000000000E+00  0.00000000000E+00  0.17910538403E+04  0.38470926388E+04  0.34047390374E+04 0.  0.
        2    1    3    3  502    0  0.30416107885E+03 -0.19012339268E+03 -0.98483628887E+03  0.10481237438E+04  0.25500000920E-02 0. -1.
       -2    1    3    3    0  502 -0.30416107885E+03  0.19012339268E+03  0.27758901291E+04  0.27989688950E+04  0.25500000920E-02 0.  1.
</event>
<event>
 5   0  0.6584420E-08  0.3376187E+04  0.7818609E-02  0.8143776E-01
       -1   -1    0    0    0  501  0.00000000000E+00  0.00000000000E+00  0.12734670369E+04  0.12734670369E+04  0.50400001928E-02 0. -1.
        1   -1    0    0  501    0  0.00000000000E+00  0.00000000000E+00 -0.22377172896E+04  0.22377172896E+04  0.50400001928E-02 0.  1.
    10030    2    1    2    0    0  0.00000000000E+00  0.00000000000E+00 -0.96425025276E+03  0.35111843265E+04  0.33761867284E+04 0.  0.
        1    1    3    3  502    0 -0.75112424526E+03  0.50801721731E+03  0.99867290907E+03  0.13489316900E+04  0.50400001928E-02 0. -1.
       -1    1    3    3    0  502  0.75112424526E+03 -0.50801721731E+03 -0.19629231618E+04  0.21622526365E+04  0.50400001928E-02 0.  1.
</event>
<event>
 5   0  0.1986613E-07  0.3396169E+04  0.7818609E-02  0.8138847E-01
       -2   -1    0    0    0  501  0.00000000000E+00  0.00000000000E+00  0.19258205125E+04  0.19258205125E+04  0.25500000920E-02 0.  1.
        2   -1    0    0  501    0  0.00000000000E+00  0.00000000000E+00 -0.14972793063E+04  0.14972793063E+04  0.25500000920E-02 0. -1.
    10030    2    1    2    0    0  0.00000000000E+00  0.00000000000E+00  0.42854120616E+03  0.34230998188E+04  0.33961691366E+04 0.  0.
        5    1    3    3  502    0  0.12794542160E+04  0.97476652290E+03  0.76291800522E+03  0.17802356130E+04  0.46999998093E+01 0. -1.
       -5    1    3    3    0  502 -0.12794542160E+04 -0.97476652290E+03 -0.33437679906E+03  0.16428642058E+04  0.46999998093E+01 0.  1.
</event>
<event>
 5   0  0.6367111E-08  0.3400222E+04  0.7818609E-02  0.8137852E-01
       -1   -1    0    0    0  501  0.00000000000E+00  0.00000000000E+00  0.14233512874E+04  0.14233512874E+04  0.50400001928E-02 0. -1.
        1   -1    0    0  501    0  0.00000000000E+00  0.00000000000E+00 -0.20306849999E+04  0.20306849999E+04  0.50400001928E-02 0.  1.
    10030    2    1    2    0    0  0.00000000000E+00  0.00000000000E+00 -0.60733371249E+03  0.34540362873E+04  0.34002224097E+04 0.  0.
        3    1    3    3  502    0 -0.77610017700E+03  0.55075076812E+02  0.12318830696E+04  0.14570177268E+04  0.10100000352E+00 0. -1.
       -3    1    3    3    0  502  0.77610017700E+03 -0.55075076812E+02 -0.18392167821E+04  0.19970185604E+04  0.10100000352E+00 0.  1.
</event>
<event>
 5   0  0.1963852E-07  0.3406882E+04  0.7818609E-02  0.8136219E-01
        2   -1    0    0  501    0  0.00000000000E+00  0.00000000000E+00  0.13460344744E+04  0.13460344744E+04  0.25500000920E-02 0.  1.
       -2   -1    0    0    0  501  0.00000000000E+00  0.00000000000E+00 -0.21557484500E+04  0.21557484500E+04  0.25500000920E-02 0. -1.
    10030    2    1    2    0    0  0.00000000000E+00  0.00000000000E+00 -0.80971397555E+03  0.35017829244E+04  0.34068822885E+04 0.  0.
        4    1    3    3  502    0 -0.63970987891E+03 -0.15728279852E+04 -0.26432421260E+03  0.17183962007E+04  0.12699999809E+01 0.  1.
       -4    1    3    3    0  502  0.63970987891E+03  0.15728279852E+04 -0.54538976296E+03  0.17833867238E+04  0.12699999809E+01 0. -1.
</event>
<event>
 5   0  0.1986613E-07  0.3391071E+04  0.7818609E-02  0.8140101E-01
        2   -1    0    0  501    0  0.00000000000E+00  0.00000000000E+00  0.13916290109E+04  0.13916290109E+04  0.25500000920E-02 0. -1.
       -2   -1    0    0    0  501  0.00000000000E+00  0.00000000000E+00 -0.20658101677E+04  0.20658101677E+04  0.25500000920E-02 0.  1.
    10030    2    1    2    0    0  0.00000000000E+00  0.00000000000E+00 -0.67418115685E+03  0.34574391786E+04  0.33910714297E+04 0.  0.
        5    1    3    3  502    0 -0.28987717572E+03 -0.16672950068E+04 -0.23055706641E+03  0.17079461548E+04  0.46999998093E+01 0.  1.
       -5    1    3    3    0  502  0.28987717572E+03  0.16672950068E+04 -0.44362409044E+03  0.17494930238E+04  0.46999998093E+01 0. -1.
</event>
<event>
 5   0  0.6584420E-08  0.3364901E+04  0.7818609E-02  0.8146575E-01
        1   -1    0    0  501    0  0.00000000000E+00  0.00000000000E+00  0.27582386315E+04  0.27582386315E+04  0.50400001928E-02 0. -1.
       -1   -1    0    0    0  501  0.00000000000E+00  0.00000000000E+00 -0.10262490960E+04  0.10262490960E+04  0.50400001928E-02 0.  1.
    10030    2    1    2    0    0  0.00000000000E+00  0.00000000000E+00  0.17319895355E+04  0.37844877274E+04  0.33649011290E+04 0.  0.
        1    1    3    3  502    0 -0.66007062784E+03  0.64166838294E+03 -0.71787316103E+03  0.11673788686E+04  0.50400001928E-02 0.  1.
       -1    1    3    3    0  502  0.66007062784E+03 -0.64166838294E+03  0.24498626965E+04  0.26171088589E+04  0.50400001928E-02 0. -1.
</event>
<event>
 5   0  0.6584420E-08  0.3382981E+04  0.7818609E-02  0.8142096E-01
       -1   -1    0    0    0  501  0.00000000000E+00  0.00000000000E+00  0.13714994523E+04  0.13714994523E+04  0.50400001928E-02 0. -1.
        1   -1    0    0  501    0  0.00000000000E+00  0.00000000000E+00 -0.20861403769E+04  0.20861403769E+04  0.50400001928E-02 0.  1.
    10030    2    1    2    0    0  0.00000000000E+00  0.00000000000E+00 -0.71464092457E+03  0.34576398292E+04  0.33829811613E+04 0.  0.
        1    1    3    3  502    0 -0.14726022327E+04 -0.83066232486E+03 -0.30537411269E+03  0.17180834038E+04  0.50400001928E-02 0. -1.
       -1    1    3    3    0  502  0.14726022327E+04  0.83066232486E+03 -0.40926681188E+03  0.17395564254E+04  0.50400001928E-02 0.  1.
</event>
<event>
 5   0  0.6367111E-08  0.3466053E+04  0.7818609E-02  0.8121882E-01
       -1   -1    0    0    0  501  0.00000000000E+00  0.00000000000E+00  0.23244445423E+04  0.23244445423E+04  0.50400001928E-02 0.  1.
        1   -1    0    0  501    0  0.00000000000E+00  0.00000000000E+00 -0.12920856411E+04  0.12920856411E+04  0.50400001928E-02 0. -1.
    10030    2    1    2    0    0  0.00000000000E+00  0.00000000000E+00  0.10323589011E+04  0.36165301834E+04  0.34660533272E+04 0.  0.
        3    1    3    3  502    0 -0.17259902018E+04  0.15257210158E+03  0.55016632137E+03  0.18179668353E+04  0.10100000352E+00 0.  1.
       -3    1    3    3    0  502  0.17259902018E+04 -0.15257210158E+03  0.48219257976E+03  0.17985633481E+04  0.10100000352E+00 0. -1.
</event>
<event>
 5   0  0.1963852E-07  0.3399955E+04  0.7818609E-02  0.8137917E-01
        2   -1    0    0  501    0  0.00000000000E+00  0.00000000000E+00  0.23541704772E+04  0.23541704772E+04  0.25500000920E-02 0. -1.
       -2   -1    0    0    0  501  0.00000000000E+00  0.00000000000E+00 -0.12275762239E+04  0.12275762239E+04  0.25500000920E-02 0.  1.
    10030    2    1    2    0    0  0.00000000000E+00  0.00000000000E+00  0.11265942533E+04  0.35817467011E+04  0.33999551202E+04 0.  0.
        4    1    3    3  502    0  0.67566432926E+03  0.12869191353E+04 -0.36545316276E+03  0.14987464008E+04  0.12699999809E+01 0. -1.
       -4    1    3    3    0  502 -0.67566432926E+03 -0.12869191353E+04  0.14920474161E+04  0.20830003004E+04  0.12699999809E+01 0.  1.
</event>
<event>
 5   0  0.1970449E-07  0.3398198E+04  0.7818609E-02  0.8138349E-01
       -2   -1    0    0    0  501  0.00000000000E+00  0.00000000000E+00  0.10744237258E+04  0.10744237258E+04  0.25500000920E-02 0.  1.
        2   -1    0    0  501    0  0.00000000000E+00  0.00000000000E+00 -0.26869633738E+04  0.26869633738E+04  0.25500000920E-02 0. -1.
    10030    2    1    2    0    0  0.00000000000E+00  0.00000000000E+00 -0.16125396480E+04  0.37613870996E+04  0.33981978749E+04 0.  0.
        1    1    3    3  502    0  0.36832837915E+03  0.15506139467E+04 -0.14581703853E+04  0.21601690395E+04  0.50400001928E-02 0. -1.
       -1    1    3    3    0  502 -0.36832837915E+03 -0.15506139467E+04 -0.15436926261E+03  0.16012180601E+04  0.50400001928E-02 0.  1.
</event>
<event>
 5   0  0.1986613E-07  0.3450545E+04  0.7818609E-02  0.8125611E-01
        2   -1    0    0  501    0  0.00000000000E+00  0.00000000000E+00  0.26491880129E+04  0.26491880129E+04  0.25500000920E-02 0. -1.
       -2   -1    0    0    0  501  0.00000000000E+00  0.00000000000E+00 -0.11235765194E+04  0.11235765194E+04  0.25500000920E-02 0.  1.
    10030    2    1    2    0    0  0.00000000000E+00  0.00000000000E+00  0.15256114935E+04  0.37727645323E+04  0.34505451435E+04 0.  0.
        5    1    3    3  502    0  0.15720111987E+04 -0.58455174319E+03  0.12050831014E+04  0.20652281522E+04  0.46999998093E+01 0. -1.
       -5    1    3    3    0  502 -0.15720111987E+04  0.58455174319E+03  0.32052839211E+03  0.17075363802E+04  0.46999998093E+01 0.  1.
</event>
<event>
 5   0  0.6788600E-08  0.3412906E+04  0.7818609E-02  0.8134746E-01
       -1   -1    0    0    0  501  0.00000000000E+00  0.00000000000E+00  0.14713798417E+04  0.14713798418E+04  0.50400001928E-02 0.  1.
        1   -1    0    0  501    0  0.00000000000E+00  0.00000000000E+00 -0.19790822761E+04  0.19790822761E+04  0.50400001928E-02 0. -1.
    10030    2    1    2    0    0  0.00000000000E+00  0.00000000000E+00 -0.50770243431E+03  0.34504621178E+04  0.34129059560E+04 0.  0.
        2    1    3    3  502    0  0.16468921146E+04  0.29688639199E+03  0.83870480426E+02  0.16755385476E+04  0.25500000920E-02 0.  1.
       -2    1    3    3    0  502 -0.16468921146E+04 -0.29688639199E+03 -0.59157291473E+03  0.17749235703E+04  0.25500000920E-02 0. -1.
</event>
<event>
 5   0  0.6341535E-08  0.3399768E+04  0.7818609E-02  0.8137963E-01
        1   -1    0    0  501    0  0.00000000000E+00  0.00000000000E+00  0.23042349082E+04  0.23042349082E+04  0.50400001928E-02 0.  1.
       -1   -1    0    0    0  501  0.00000000000E+00  0.00000000000E+00 -0.12540409383E+04  0.12540409383E+04  0.50400001928E-02 0. -1.
    10030    2    1    2    0    0  0.00000000000E+00  0.00000000000E+00  0.10501939699E+04  0.35582758466E+04  0.33997675841E+04 0.  0.
        5    1    3    3  502    0  0.31105610168E+02  0.92949780537E+02  0.23012680376E+04  0.23033592623E+04  0.46999998093E+01 0.  1.
       -5    1    3    3    0  502 -0.31105610168E+02 -0.92949780537E+02 -0.12510740677E+04  0.12549165843E+04  0.46999998093E+01 0. -1.
</event>
<event>
 5   0  0.1963852E-07  0.3406846E+04  0.7818609E-02  0.8136228E-01
       -2   -1    0    0    0  501  0.00000000000E+00  0.00000000000E+00  0.12592411867E+04  0.12592411867E+04  0.25500000920E-02 0. -1.
        2   -1    0    0  501    0  0.00000000000E+00  0.00000000000E+00 -0.23042846767E+04  0.23042846767E+04  0.25500000920E-02 0.  1.
    10030    2    1    2    0    0  0.00000000000E+00  0.00000000000E+00 -0.10450434900E+04  0.35635258634E+04  0.34068461490E+04 0.  0.
        4    1    3    3  502    0  0.14431445228E+04 -0.18097334761E+03 -0.14499973613E+04  0.20537554448E+04  0.12699999809E+01 0. -1.
       -4    1    3    3    0  502 -0.14431445228E+04  0.18097334761E+03  0.40495387131E+03  0.15097704187E+04  0.12699999809E+01 0.  1.
</event>
<event>
 5   0  0.6367111E-08  0.3403658E+04  0.7818609E-02  0.8137009E-01
       -1   -1    0    0    0  501  0.00000000000E+00  0.00000000000E+00  0.20498280643E+04  0.20498280643E+04  0.50400001928E-02 0.  1.
        1   -1    0    0  501    0  0.00000000000E+00  0.00000000000E+00 -0.14129095228E+04  0.14129095228E+04  0.50400001928E-02 0. -1.
    10030    2    1    2    0    0  0.00000000000E+00  0.00000000000E+00  0.63691854148E+03  0.34627375871E+04  0.34036577926E+04 0.  0.
        3    1    3    3  502    0 -0.97648753435E+03  0.40025968921E+03 -0.10398126993E+04  0.14815350767E+04  0.10100000352E+00 0. -1.
       -3    1    3    3    0  502  0.97648753435E+03 -0.40025968921E+03  0.16767312408E+04  0.19812025105E+04  0.10100000352E+00 0.  1.
</event>
<event>
 5   0  0.1963852E-07  0.3419029E+04  0.7818609E-02  0.8133252E-01
        2   -1    0    0  501    0  0.00000000000E+00  0.00000000000E+00  0.23361269136E+04  0.23361269136E+04  0.25500000920E-02 0. -1.
       -2   -1    0    0    0  501  0.00000000000E+00  0.00000000000E+00 -0.12509763225E+04  0.12509763225E+04  0.25500000920E-02 0.  1.
    10030    2    1    2    0    0  0.00000000000E+00  0.00000000000E+00  0.10851505910E+04  0.35871032361E+04  0.34190287834E+04 0.  0.
        4    1    3    3  502    0  0.85631327233E+03  0.75350870975E+03 -0.79335829587E+03  0.13894123918E+04  0.12699999809E+01 0.  1.
       -4    1    3    3    0  502 -0.85631327233E+03 -0.75350870975E+03  0.18785088869E+04  0.21976908443E+04  0.12699999809E+01 0. -1.
</event>
<event>
 5   0  0.6367111E-08  0.3403649E+04  0.7818609E-02  0.8137011E-01
       -1   -1    0    0    0  501  0.00000000000E+00  0.00000000000E+00  0.13026259433E+04  0.13026259434E+04  0.50400001928E-02 0. -1.
        1   -1    0    0  501    0  0.00000000000E+00  0.00000000000E+00 -0.22233607799E+04  0.22233607799E+04  0.50400001928E-02 0.  1.
    10030    2    1    2    0    0  0.00000000000E+00  0.00000000000E+00 -0.92073483656E+03  0.35259867233E+04  0.34036494728E+04 0.  0.
        3    1    3    3  502    0 -0.16253998722E+04 -0.38261124160E+03 -0.12009316383E+03  0.16741381320E+04  0.10100000352E+00 0. -1.
       -3    1    3    3    0  502  0.16253998722E+04  0.38261124160E+03 -0.80064167274E+03  0.18518485913E+04  0.10100000352E+00 0.  1.
</event>
<event>
 5   0  0.6367111E-08  0.3398785E+04  0.7818609E-02  0.8138205E-01
       -1   -1    0    0    0  501  0.00000000000E+00  0.00000000000E+00  0.16515651073E+04  0.16515651073E+04  0.50400001928E-02 0.  1.
        1   -1    0    0  501    0  0.00000000000E+00  0.00000000000E+00 -0.17486049426E+04  0.17486049426E+04  0.50400001928E-02 0. -1.
    10030    2    1    2    0    0  0.00000000000E+00  0.00000000000E+00 -0.97039835281E+02  0.34001700499E+04  0.33987850239E+04 0.  0.
        3    1    3    3  502    0 -0.15131423496E+04  0.74766207872E+03 -0.24693516848E+03  0.17057477368E+04  0.10100000352E+00 0.  1.
       -3    1    3    3    0  502  0.15131423496E+04 -0.74766207872E+03  0.14989533320E+03  0.16944223131E+04  0.10100000352E+00 0. -1.
</event>
<event>
 5   0  0.1963852E-07  0.3398513E+04  0.7818609E-02  0.8138271E-01
       -2   -1    0    0    0  501  0.00000000000E+00  0.00000000000E+00  0.24588507356E+04  0.24588507356E+04  0.25500000920E-02 0. -1.
        2   -1    0    0  501    0  0.00000000000E+00  0.00000000000E+00 -0.11743179524E+04  0.11743179524E+04  0.25500000920E-02 0.  1.
    10030    2    1    2    0    0  0.00000000000E+00  0.00000000000E+00  0.12845327832E+04  0.36331686880E+04  0.33985129460E+04 0.  0.
        4    1    3    3  502    0  0.16090999416E+04 -0.27307336055E+03  0.13664095556E+03  0.16378168536E+04  0.12699999809E+01 0. -1.
       -4    1    3    3    0  502 -0.16090999416E+04  0.27307336055E+03  0.11478918277E+04  0.19953518344E+04  0.12699999809E+01 0.  1.
</event>
<event>
 5   0  0.1970449E-07  0.3398979E+04  0.7818609E-02  0.8138157E-01
       -2   -1    0    0    0  501  0.00000000000E+00  0.00000000000E+00  0.14456916924E+04  0.14456916924E+04  0.25500000920E-02 0. -1.
        2   -1    0    0  501    0  0.00000000000E+00  0.00000000000E+00 -0.19978425546E+04  0.19978425546E+04  0.25500000920E-02 0.  1.
    10030    2    1    2    0    0  0.00000000000E+00  0.00000000000E+00 -0.55215086216E+03  0.34435342470E+04  0.33989788960E+04 0.  0.
        1    1    3    3  502    0  0.16512797754E+03  0.16288247318E+04  0.18589216717E+03  0.16476932827E+04  0.50400001928E-02 0. -1.
       -1    1    3    3    0  502 -0.16512797754E+03 -0.16288247318E+04 -0.73804302934E+03  0.17958409643E+04  0.50400001928E-02 0.  1.
</event>
<event>
 5   0  0.1928004E-07  0.3406924E+04  0.7818609E-02  0.8136209E-01
        2   -1    0    0  501    0  0.00000000000E+00  0.00000000000E+00  0.21106039950E+04  0.21106039950E+04  0.25500000920E-02 0.  1.
       -2   -1    0    0    0  501  0.00000000000E+00  0.00000000000E+00 -0.13748586473E+04  0.13748586473E+04  0.25500000920E-02 0. -1.
    10030    2    1    2    0    0  0.00000000000E+00  0.00000000000E+00  0.73574534777E+03  0.34854626423E+04  0.34069236290E+04 0.  0.
        2    1    3    3  502    0 -0.11475259434E+04 -0.70932465003E+03  0.14319581642E+04  0.19673488338E+04  0.25500000920E-02 0.  1.
       -2    1    3    3    0  502  0.11475259434E+04  0.70932465003E+03 -0.69621281640E+03  0.15181138085E+04  0.25500000920E-02 0. -1.
</event>
<event>
 5   0  0.1963852E-07  0.3401128E+04  0.7818609E-02  0.8137630E-01
       -2   -1    0    0    0  501  0.00000000000E+00  0.00000000000E+00  0.13076533165E+04  0.13076533165E+04  0.25500000920E-02 0.  1.
        2   -1    0    0  501    0  0.00000000000E+00  0.00000000000E+00 -0.22115321082E+04  0.22115321082E+04  0.25500000920E-02 0. -1.
    10030    2    1    2    0    0  0.00000000000E+00  0.00000000000E+00 -0.90387879170E+03  0.35191854248E+04  0.34011276342E+04 0.  0.
        4    1    3    3  502    0 -0.16732067637E+04 -0.20808126452E+02 -0.76554713304E+03  0.18401407223E+04  0.12699999809E+01 0. -1.
       -4    1    3    3    0  502  0.16732067637E+04  0.20808126452E+02 -0.13833165865E+03  0.16790447025E+04  0.12699999809E+01 0.  1.
</event>
<event>
 5   0  0.6584420E-08  0.3400156E+04  0.7818609E-02  0.8137868E-01
        1   -1    0    0  501    0  0.00000000000E+00  0.00000000000E+00  0.22724290094E+04  0.22724290094E+04  0.50400001928E-02 0. -1.
       -1   -1    0    0    0  501  0.00000000000E+00  0.00000000000E+00 -0.12718839421E+04  0.12718839421E+04  0.50400001928E-02 0.  1.
    10030    2    1    2    0    0  0.00000000000E+00  0.00000000000E+00  0.10005450673E+04  0.35443129515E+04  0.34001564474E+04 0.  0.
        1    1    3    3  502    0 -0.36397655672E+03 -0.30617686253E+03 -0.12011170019E+04  0.12918611602E+04  0.50400001928E-02 0.  1.
       -1    1    3    3    0  502  0.36397655672E+03  0.30617686253E+03  0.22016620692E+04  0.22524517913E+04  0.50400001928E-02 0. -1.
</event>
<event>
 5   0  0.6367111E-08  0.3401874E+04  0.7818609E-02  0.8137447E-01
        1   -1    0    0  501    0  0.00000000000E+00  0.00000000000E+00  0.10168531338E+04  0.10168531338E+04  0.50400001928E-02 0.  1.
       -1   -1    0    0    0  501  0.00000000000E+00  0.00000000000E+00 -0.28452355387E+04  0.28452355387E+04  0.50400001928E-02 0. -1.
    10030    2    1    2    0    0  0.00000000000E+00  0.00000000000E+00 -0.18283824049E+04  0.38620886724E+04  0.34018739976E+04 0.  0.
        3    1    3    3  502    0 -0.52707030186E+03  0.17915635341E+03 -0.27388863180E+04  0.27948879003E+04  0.10100000352E+00 0. -1.
       -3    1    3    3    0  502  0.52707030186E+03 -0.17915635341E+03  0.91050391312E+03  0.10672007721E+04  0.10100000352E+00 0.  1.
</event>
<event>
 5   0  0.1928004E-07  0.3402430E+04  0.7818609E-02  0.8137310E-01
        2   -1    0    0  501    0  0.00000000000E+00  0.00000000000E+00  0.13264750400E+04  0.13264750400E+04  0.25500000920E-02 0. -1.
       -2   -1    0    0    0  501  0.00000000000E+00  0.00000000000E+00 -0.21818219573E+04  0.21818219573E+04  0.25500000920E-02 0.  1.
    10030    2    1    2    0    0  0.00000000000E+00  0.00000000000E+00 -0.85534691735E+03  0.35082969973E+04  0.34024299365E+04 0.  0.
        2    1    3    3  502    0  0.73424543460E+02 -0.81974145066E+03  0.11075337618E+04  0.13798544282E+04  0.25500000920E-02 0. -1.
       -2    1    3    3    0  502 -0.73424543460E+02  0.81974145066E+03 -0.19628806792E+04  0.21284425691E+04  0.25500000920E-02 0.  1.
</event>
<event>
 5   0  0.6788600E-08  0.3399380E+04  0.7818609E-02  0.8138059E-01
       -1   -1    0    0    0  501  0.00000000000E+00  0.00000000000E+00  0.19373161979E+04  0.19373161979E+04  0.50400001928E-02 0.  1.
        1   -1    0    0  501    0  0.00000000000E+00  0.00000000000E+00 -0.14912102730E+04  0.14912102730E+04  0.50400001928E-02 0. -1.
    10030    2    1    2    0    0  0.00000000000E+00  0.00000000000E+00  0.44610592490E+03  0.34285264710E+04  0.33993798355E+04 0.  0.
        2    1    3    3  502    0 -0.15440951507E+03 -0.12603003672E+03 -0.14793830640E+04  0.14927491814E+04  0.25500000920E-02 0. -1.
       -2    1    3    3    0  502  0.15440951507E+03  0.12603003672E+03  0.19254889889E+04  0.19357772896E+04  0.25500000920E-02 0.  1.
</event>
<event>
 5   0  0.6311750E-08  0.3395129E+04  0.7818609E-02  0.8139103E-01
        1   -1    0    0  501    0  0.00000000000E+00  0.00000000000E+00  0.20172604400E+04  0.20172604400E+04  0.50400001928E-02 0.  1.
       -1   -1    0    0    0  501  0.00000000000E+00  0.00000000000E+00 -0.14285344622E+04  0.14285344622E+04  0.50400001928E-02 0. -1.
    10030    2    1    2    0    0  0.00000000000E+00  0.00000000000E+00  0.58872597780E+03  0.34457949023E+04  0.33951294867E+04 0.  0.
        4    1    3    3  502    0 -0.71564702649E+03 -0.78922605298E+03 -0.10469858773E+04  0.14937233577E+04  0.12699999809E+01 0. -1.
       -4    1    3    3    0  502  0.71564702649E+03  0.78922605298E+03  0.16357118551E+04  0.19520715445E+04  0.12699999809E+01 0.  1.
</event>
<event>
 5   0  0.6311750E-08  0.3403229E+04  0.7818609E-02  0.8137114E-01
       -1   -1    0    0    0  501  0.00000000000E+00  0.00000000000E+00  0.17219428843E+04  0.17219428843E+04  0.50400001928E-02 0. -1.
        1   -1    0    0  501    0  0.00000000000E+00  0.00000000000E+00 -0.16815261322E+04  0.16815261322E+04  0.50400001928E-02 0.  1.
    10030    2    1    2    0    0  0.00000000000E+00  0.00000000000E+00  0.40416752063E+02  0.34034690165E+04  0.34032290303E+04 0.  0.
        4    1    3    3  502    0  0.13857939600E+04 -0.14829306180E+03 -0.95611587058E+03  0.16901404979E+04  0.12699999809E+01 0.  1.
       -4    1    3    3    0  502 -0.13857939600E+04  0.14829306180E+03  0.99653262264E+03  0.17133285186E+04  0.12699999809E+01 0. -1.
</event>
<event>
 5   0  0.1928004E-07  0.3387641E+04  0.7818609E-02  0.8140946E-01
       -2   -1    0    0    0  501  0.00000000000E+00  0.00000000000E+00  0.12550845033E+04  0.12550845033E+04  0.25500000920E-02 0. -1.
        2   -1    0    0  501    0  0.00000000000E+00  0.00000000000E+00 -0.22859245658E+04  0.22859245658E+04  0.25500000920E-02 0.  1.
    10030    2    1    2    0    0  0.00000000000E+00  0.00000000000E+00 -0.10308400625E+04  0.35410090690E+04  0.33876413613E+04 0.  0.
        2    1    3    3  502    0 -0.82180960540E+02  0.15617831273E+04  0.16449612273E+03  0.15725708955E+04  0.25500000920E-02 0. -1.
       -2    1    3    3    0  502  0.82180960540E+02 -0.15617831273E+04 -0.11953361853E+04  0.19684381735E+04  0.25500000920E-02 0.  1.
</event>
<event>
 5   0  0.6584420E-08  0.3399769E+04  0.7818609E-02  0.8137963E-01
        1   -1    0    0  501    0  0.00000000000E+00  0.00000000000E+00  0.19675987809E+04  0.19675987809E+04  0.50400001928E-02 0.  1.
       -1   -1    0    0    0  501  0.00000000000E+00  0.00000000000E+00 -0.14685960582E+04  0.14685960582E+04  0.50400001928E-02 0. -1.
    10030    2    1    2    0    0  0.00000000000E+00  0.00000000000E+00  0.49900272270E+03  0.34361948392E+04  0.33997692944E+04 0.  0.
        1    1    3    3  502    0  0.96531768583E+03  0.79119375338E+03  0.14158943714E+04  0.18874805061E+04  0.50400001928E-02 0.  1.
       -1    1    3    3    0  502 -0.96531768583E+03 -0.79119375338E+03 -0.91689164869E+03  0.15487143331E+04  0.50400001928E-02 0. -1.
</event>
<event>
 5   0  0.1928004E-07  0.3385142E+04  0.7818609E-02  0.8141563E-01
       -2   -1    0    0    0  501  0.00000000000E+00  0.00000000000E+00  0.10473480894E+04  0.10473480894E+04  0.25500000920E-02 0. -1.
        2   -1    0    0  501    0  0.00000000000E+00  0.00000000000E+00 -0.27352862489E+04  0.27352862489E+04  0.25500000920E-02 0.  1.
    10030    2    1    2    0    0  0.00000000000E+00  0.00000000000E+00 -0.16879381595E+04  0.37826343383E+04  0.33851421398E+04 0.  0.
        2    1    3    3  502    0 -0.12393578443E+04 -0.77727190477E+03 -0.17951821478E+04  0.23157803056E+04  0.25500000920E-02 0.  1.
       -2    1    3    3    0  502  0.12393578443E+04  0.77727190477E+03  0.10724398831E+03  0.14668540327E+04  0.25500000920E-02 0. -1.
</event>
<event>
 5   0  0.1928004E-07  0.3414647E+04  0.7818609E-02  0.8134321E-01
        2   -1    0    0  501    0  0.00000000000E+00  0.00000000000E+00  0.21179302800E+04  0.21179302800E+04  0.25500000920E-02 0. -1.
       -2   -1    0    0    0  501  0.00000000000E+00  0.00000000000E+00 -0.13763221348E+04  0.13763221348E+04  0.25500000920E-02 0.  1.
    10030    2    1    2    0    0  0.00000000000E+00  0.00000000000E+00  0.74160814515E+03  0.34942524148E+04  0.34146474631E+04 0.  0.
        2    1    3    3  502    0 -0.88122557753E+03  0.12982197657E+04 -0.31795556089E+03  0.16009462256E+04  0.25500000920E-02 0.  1.
       -2    1    3    3    0  502  0.88122557753E+03 -0.12982197657E+04  0.10595637060E+04  0.18933061891E+04  0.25500000920E-02 0. -1.
</event>
<event>
 5   0  0.1928004E-07  0.3436929E+04  0.7818609E-02  0.8128902E-01
       -2   -1    0    0    0  501  0.00000000000E+00  0.00000000000E+00  0.11546480447E+04  0.11546480447E+04  0.25500000920E-02 0. -1.
        2   -1    0    0  501    0  0.00000000000E+00  0.00000000000E+00 -0.25575935000E+04  0.25575935000E+04  0.25500000920E-02 0.  1.
    10030    2    1    2    0    0  0.00000000000E+00  0.00000000000E+00 -0.14029454553E+04  0.37122415447E+04  0.34369290559E+04 0.  0.
        2    1    3    3  502    0  0.10823126727E+04  0.51898426123E+03  0.62682489880E+03  0.13541251193E+04  0.25500000920E-02 0. -1.
       -2    1    3    3    0  502 -0.10823126727E+04 -0.51898426123E+03 -0.20297703541E+04  0.23581164253E+04  0.25500000920E-02 0.  1.
</event>
<event>
 5   0  0.1970449E-07  0.3401280E+04  0.7818609E-02  0.8137592E-01
        2   -1    0    0  501    0  0.00000000000E+00  0.00000000000E+00  0.16899381182E+04  0.16899381182E+04  0.25500000920E-02 0. -1.
       -2   -1    0    0    0  501  0.00000000000E+00  0.00000000000E+00 -0.17114098962E+04  0.17114098962E+04  0.25500000920E-02 0.  1.
    10030    2    1    2    0    0  0.00000000000E+00  0.00000000000E+00 -0.21471777940E+02  0.34013480144E+04  0.34012802410E+04 0.  0.
        1    1    3    3  502    0 -0.16418876331E+03  0.13166480889E+04 -0.10745506183E+04  0.17073895781E+04  0.50400001928E-02 0.  1.
       -1    1    3    3    0  502  0.16418876331E+03 -0.13166480889E+04  0.10530788404E+04  0.16939584363E+04  0.50400001928E-02 0. -1.
</event>
<event>
 5   0  0.6788600E-08  0.3412678E+04  0.7818609E-02  0.8134802E-01
       -1   -1    0    0    0  501  0.00000000000E+00  0.00000000000E+00  0.91750429890E+03  0.91750429891E+03  0.50400001928E-02 0.  1.
        1   -1    0    0  501    0  0.00000000000E+00  0.00000000000E+00 -0.31733837557E+04  0.31733837557E+04  0.50400001928E-02 0. -1.
    10030    2    1    2    0    0  0.00000000000E+00  0.00000000000E+00 -0.22558794568E+04  0.40908880546E+04  0.34126782666E+04 0.  0.
        2    1    3    3  502    0 -0.11034341464E+04 -0.13304133687E+03 -0.26799748016E+04  0.29012983042E+04  0.25500000920E-02 0. -1.
       -2    1    3    3    0  502  0.11034341464E+04  0.13304133687E+03  0.42409534482E+03  0.11895897504E+04  0.25500000920E-02 0.  1.
</event>
<event>
 5   0  0.1963852E-07  0.3406276E+04  0.7818609E-02  0.8136368E-01
        2   -1    0    0  501    0  0.00000000000E+00  0.00000000000E+00  0.15459093542E+04  0.15459093542E+04  0.25500000920E-02 0. -1.
       -2   -1    0    0    0  501  0.00000000000E+00  0.00000000000E+00 -0.18763573873E+04  0.18763573873E+04  0.25500000920E-02 0.  1.
    10030    2    1    2    0    0  0.00000000000E+00  0.00000000000E+00 -0.33044803309E+03  0.34222667414E+04  0.34062756417E+04 0.  0.
        4    1    3    3  502    0 -0.15248451309E+04 -0.52415942627E+03 -0.71623378837E+03  0.17643379012E+04  0.12699999809E+01 0.  1.
       -4    1    3    3    0  502  0.15248451309E+04  0.52415942627E+03  0.38578575528E+03  0.16579288402E+04  0.12699999809E+01 0. -1.
</event>
<event>
 5   0  0.1986613E-07  0.3399010E+04  0.7818609E-02  0.8138149E-01
       -2   -1    0    0    0  501  0.00000000000E+00  0.00000000000E+00  0.15804126052E+04  0.15804126052E+04  0.25500000920E-02 0. -1.
        2   -1    0    0  501    0  0.00000000000E+00  0.00000000000E+00 -0.18275712434E+04  0.18275712434E+04  0.25500000920E-02 0.  1.
    10030    2    1    2    0    0  0.00000000000E+00  0.00000000000E+00 -0.24715863819E+03  0.34079838487E+04  0.33990096382E+04 0.  0.
        5    1    3    3  502    0  0.20472707234E+03  0.14953429075E+04 -0.90687878497E+03  0.17607994791E+04  0.46999998093E+01 0.  1.
       -5    1    3    3    0  502 -0.20472707234E+03 -0.14953429075E+04  0.65972014678E+03  0.16471843695E+04  0.46999998093E+01 0. -1.
</event>
<event>
 5   0  0.6367111E-08  0.3398056E+04  0.7818609E-02  0.8138384E-01
       -1   -1    0    0    0  501  0.00000000000E+00  0.00000000000E+00  0.17271879356E+04  0.17271879356E+04  0.50400001928E-02 0.  1.
        1   -1    0    0  501    0  0.00000000000E+00  0.00000000000E+00 -0.16713273446E+04  0.16713273446E+04  0.50400001928E-02 0. -1.
    10030    2    1    2    0    0  0.00000000000E+00  0.00000000000E+00  0.55860591037E+02  0.33985152802E+04  0.33980561656E+04 0.  0.
        3    1    3    3  502    0 -0.16483324586E+03 -0.14479003278E+04 -0.84575001275E+03  0.16848971637E+04  0.10100000352E+00 0. -1.
       -3    1    3    3    0  502  0.16483324586E+03  0.14479003278E+04  0.90161060379E+03  0.17136181165E+04  0.10100000352E+00 0.  1.
</event>
<event>
 5   0  0.1986613E-07  0.3407454E+04  0.7818609E-02  0.8136079E-01
        2   -1    0    0  501    0  0.00000000000E+00  0.00000000000E+00  0.11542678916E+04  0.11542678916E+04  0.25500000920E-02 0.  1.
       -2   -1    0    0    0  501  0.00000000000E+00  0.00000000000E+00 -0.25147423354E+04  0.25147423354E+04  0.25500000920E-02 0. -1.
    10030    2    1    2    0    0  0.00000000000E+00  0.00000000000E+00 -0.13604744438E+04  0.36690102270E+04  0.34074543773E+04 0.  0.
        5    1    3    3  502    0  0.15212307768E+03 -0.98315693306E+03  0.80901368518E+03  0.12822886643E+04  0.46999998093E+01 0.  1.
       -5    1    3    3    0  502 -0.15212307768E+03  0.98315693306E+03 -0.21694881290E+04  0.23867215627E+04  0.46999998093E+01 0. -1.
</event>
<event>
 5   0  0.6341535E-08  0.3401353E+04  0.7818609E-02  0.8137574E-01
        1   -1    0    0  501    0  0.00000000000E+00  0.00000000000E+00  0.21914979245E+04  0.21914979245E+04  0.50400001928E-02 0. -1.
       -1   -1    0    0    0  501  0.00000000000E+00  0.00000000000E+00 -0.13197821103E+04  0.13197821103E+04  0.50400001928E-02 0.  1.
    10030    2    1    2    0    0  0.00000000000E+00  0.00000000000E+00  0.87171581419E+03  0.35112800347E+04  0.34013525283E+04 0.  0.
        5    1    3    3  502    0  0.87281827128E+03 -0.92585248877E+03 -0.72899985378E+03  0.14664506273E+04  0.46999998093E+01 0.  1.
       -5    1    3    3    0  502 -0.87281827128E+03  0.92585248877E+03  0.16007156680E+04  0.20448294074E+04  0.46999998093E+01 0. -1.
</event>
<event>
 5   0  0.1986613E-07  0.3401638E+04  0.7818609E-02  0.8137504E-01
       -2   -1    0    0    0  501  0.00000000000E+00  0.00000000000E+00  0.16693626279E+04  0.16693626279E+04  0.25500000920E-02 0.  1.
        2   -1    0    0  501    0  0.00000000000E+00  0.00000000000E+00 -0.17328684678E+04  0.17328684678E+04  0.25500000920E-02 0. -1.
    10030    2    1    2    0    0  0.00000000000E+00  0.00000000000E+00 -0.63505839880E+02  0.34022310956E+04  0.34016383459E+04 0.  0.
        5    1    3    3  502    0 -0.31925988744E+03 -0.89116139764E+03 -0.14450342695E+04  0.17274957720E+04  0.46999998093E+01 0. -1.
       -5    1    3    3    0  502  0.31925988744E+03  0.89116139764E+03  0.13815284296E+04  0.16747353236E+04  0.46999998093E+01 0.  1.
</event>
<event>
 5   0  0.1928004E-07  0.3400802E+04  0.7818609E-02  0.8137709E-01
       -2   -1    0    0    0  501  0.00000000000E+00  0.00000000000E+00  0.22547273393E+04  0.22547273394E+04  0.25500000920E-02 0. -1.
        2   -1    0    0  501    0  0.00000000000E+00  0.00000000000E+00 -0.12823565517E+04  0.12823565517E+04  0.25500000920E-02 0.  1.
    10030    2    1    2    0    0  0.00000000000E+00  0.00000000000E+00  0.97237078767E+03  0.35370838910E+04  0.34008024793E+04 0.  0.
        2    1    3    3  502    0 -0.21768864929E+03  0.28505381566E+03 -0.12425654898E+04  0.12932954119E+04  0.25500000920E-02 0.  1.
       -2    1    3    3    0  502  0.21768864929E+03 -0.28505381566E+03  0.22149362775E+04  0.22437884792E+04  0.25500000920E-02 0. -1.
</event>
<event>
 5   0  0.6584420E-08  0.3400726E+04  0.7818609E-02  0.8137728E-01
       -1   -1    0    0    0  501  0.00000000000E+00  0.00000000000E+00  0.11606046152E+04  0.11606046152E+04  0.50400001928E-02 0.  1.
        1   -1    0    0  501    0  0.00000000000E+00  0.00000000000E+00 -0.24911450815E+04  0.24911450815E+04  0.50400001928E-02 0. -1.
    10030    2    1    2    0    0  0.00000000000E+00  0.00000000000E+00 -0.13305404663E+04  0.36517496968E+04  0.34007260865E+04 0.  0.
        1    1    3    3  502    0 -0.59167765221E+03  0.10646737187E+04  0.60873836113E+03  0.13616809332E+04  0.50400001928E-02 0.  1.
       -1    1    3    3    0  502  0.59167765221E+03 -0.10646737187E+04 -0.19392788274E+04  0.22900687636E+04  0.50400001928E-02 0. -1.
</event>
<event>
 5   0  0.6367111E-08  0.3398098E+04  0.7818609E-02  0.8138373E-01
       -1   -1    0    0    0  501  0.00000000000E+00  0.00000000000E+00  0.17422916833E+04  0.17422916833E+04  0.50400001928E-02 0.  1.
        1   -1    0    0  501    0  0.00000000000E+00  0.00000000000E+00 -0.16568792830E+04  0.16568792830E+04  0.50400001928E-02 0. -1.
    10030    2    1    2    0    0  0.00000000000E+00  0.00000000000E+00  0.85412400323E+02  0.33991709663E+04  0.33980977002E+04 0.  0.
        3    1    3    3  502    0 -0.13503523777E+04 -0.94586902017E+03  0.45350272703E+03  0.17099077405E+04  0.10100000352E+00 0.  1.
       -3    1    3    3    0  502  0.13503523777E+04  0.94586902017E+03 -0.36809032671E+03  0.16892632258E+04  0.10100000352E+00 0. -1.
</event>
<event>
 5   0  0.1963852E-07  0.3399844E+04  0.7818609E-02  0.8137945E-01
        2   -1    0    0  501    0  0.00000000000E+00  0.00000000000E+00  0.20360115657E+04  0.20360115657E+04  0.25500000920E-02 0. -1.
       -2   -1    0    0    0  501  0.00000000000E+00  0.00000000000E+00 -0.14193112369E+04  0.14193112369E+04  0.25500000920E-02 0.  1.
    10030    2    1    2    0    0  0.00000000000E+00  0.00000000000E+00  0.61670032880E+03  0.34553228027E+04  0.33998435810E+04 0.  0.
        4    1    3    3  502    0 -0.88418623849E+03  0.39852522598E+03 -0.11105424090E+04  0.14744197893E+04  0.12699999809E+01 0.  1.
       -4    1    3    3    0  502  0.88418623849E+03 -0.39852522598E+03  0.17272427378E+04  0.19809030133E+04  0.12699999809E+01 0. -1.
</event>
<event>
 5   0  0.1963852E-07  0.3403069E+04  0.7818609E-02  0.8137153E-01
        2   -1    0    0  501    0  0.00000000000E+00  0.00000000000E+00  0.17220918275E+04  0.17220918276E+04  0.25500000920E-02 0. -1.
       -2   -1    0    0    0  501  0.00000000000E+00  0.00000000000E+00 -0.16812226846E+04  0.16812226846E+04  0.25500000920E-02 0.  1.
    10030    2    1    2    0    0  0.00000000000E+00  0.00000000000E+00  0.40869142926E+02  0.34033145122E+04  0.34030691121E+04 0.  0.
        4    1    3    3  502    0  0.16281432053E+04  0.52372987575E+02 -0.47115454046E+03  0.16957539446E+04  0.12699999809E+01 0.  1.
       -4    1    3    3    0  502 -0.16281432053E+04 -0.52372987575E+02  0.51202368339E+03  0.17075605676E+04  0.12699999809E+01 0. -1.
</event>
<event>
 5   0  0.1970449E-07  0.3394802E+04  0.7818609E-02  0.8139183E-01
       -2   -1    0    0    0  501  0.00000000000E+00  0.00000000000E+00  0.16428816110E+04  0.16428816110E+04  0.25500000920E-02 0.  1.
        2   -1    0    0  501    0  0.00000000000E+00  0.00000000000E+00 -0.17537298250E+04  0.17537298250E+04  0.25500000920E-02 0. -1.
    10030    2    1    2    0    0  0.00000000000E+00  0.00000000000E+00 -0.11084821404E+03  0.33966114360E+04  0.33948021917E+04 0.  0.
        1    1    3    3  502    0 -0.10469165617E+04 -0.11696187359E+04 -0.70162294433E+03  0.17193943790E+04  0.50400001928E-02 0. -1.
       -1    1    3    3    0  502  0.10469165617E+04  0.11696187359E+04  0.59077473029E+03  0.16772170570E+04  0.50400001928E-02 0.  1.
</event>
<event>
 5   0  0.1986613E-07  0.3396604E+04  0.7818609E-02  0.8138740E-01
       -2   -1    0    0    0  501  0.00000000000E+00  0.00000000000E+00  0.12619506461E+04  0.12619506461E+04  0.25500000920E-02 0. -1.
        2   -1    0    0  501    0  0.00000000000E+00  0.00000000000E+00 -0.22855328134E+04  0.22855328134E+04  0.25500000920E-02 0.  1.
    10030    2    1    2    0    0  0.00000000000E+00  0.00000000000E+00 -0.10235821673E+04  0.35474834595E+04  0.33966039573E+04 0.  0.
        5    1    3    3  502    0 -0.11099156700E+04 -0.12837975553E+04 -0.44443960604E+03  0.17543082998E+04  0.46999998093E+01 0.  1.
       -5    1    3    3    0  502  0.11099156700E+04  0.12837975553E+04 -0.57914256124E+03  0.17931751597E+04  0.46999998093E+01 0. -1.
</event>
<event>
 5   0  0.6367111E-08  0.3395236E+04  0.7818609E-02  0.8139077E-01
        1   -1    0    0  501    0  0.00000000000E+00  0.00000000000E+00  0.20396432294E+04  0.20396432294E+04  0.50400001928E-02 0.  1.
       -1   -1    0    0    0  501  0.00000000000E+00  0.00000000000E+00 -0.14129466230E+04  0.14129466230E+04  0.50400001928E-02 0. -1.
    10030    2    1    2    0    0  0.00000000000E+00  0.00000000000E+00  0.62669660647E+03  0.34525898524E+04  0.33952360820E+04 0.  0.
        3    1    3    3  502    0 -0.12744761735E+04  0.37093499178E+03 -0.76284135866E+03  0.15309504347E+04  0.10100000352E+00 0. -1.
       -3    1    3    3    0  502  0.12744761735E+04 -0.37093499178E+03  0.13895379651E+04  0.19216394177E+04  0.10100000352E+00 0.  1.
</event>
<event>
 5   0  0.6584420E-08  0.3400300E+04  0.7818609E-02  0.8137833E-01
       -1   -1    0    0    0  501  0.00000000000E+00  0.00000000000E+00  0.16453066006E+04  0.16453066006E+04  0.50400001928E-02 0.  1.
        1   -1    0    0  501    0  0.00000000000E+00  0.00000000000E+00 -0.17568216234E+04  0.17568216234E+04  0.50400001928E-02 0. -1.
    10030    2    1    2    0    0  0.00000000000E+00  0.00000000000E+00 -0.11151502279E+03  0.34021282240E+04  0.34003001121E+04 0.  0.
        1    1    3    3  502    0  0.43244456961E+03 -0.98332976844E+03 -0.13742537164E+04  0.17442818054E+04  0.50400001928E-02 0. -1.
       -1    1    3    3    0  502 -0.43244456961E+03  0.98332976844E+03  0.12627386937E+04  0.16578464186E+04  0.50400001928E-02 0.  1.
</event>
<event>
 5   0  0.1928004E-07  0.3395875E+04  0.7818609E-02  0.8138920E-01
       -2   -1    0    0    0  501  0.00000000000E+00  0.00000000000E+00  0.12072106148E+04  0.12072106148E+04  0.25500000920E-02 0. -1.
        2   -1    0    0  501    0  0.00000000000E+00  0.00000000000E+00 -0.23881424584E+04  0.23881424584E+04  0.25500000920E-02 0.  1.
    10030    2    1    2    0    0  0.00000000000E+00  0.00000000000E+00 -0.11809318436E+04  0.35953530732E+04  0.33958745121E+04 0.  0.
        2    1    3    3  502    0 -0.75835950661E+03 -0.60879716566E+02 -0.21975836222E+04  0.23255513879E+04  0.25500000920E-02 0.  1.
       -2    1    3    3    0  502  0.75835950661E+03  0.60879716566E+02  0.10166517786E+04  0.12698016854E+04  0.25500000920E-02 0. -1.
</event>
<event>
 5   0  0.6341535E-08  0.3398214E+04  0.7818609E-02  0.8138345E-01
       -1   -1    0    0    0  501  0.00000000000E+00  0.00000000000E+00  0.13185954048E+04  0.13185954048E+04  0.50400001928E-02 0.  1.
        1   -1    0    0  501    0  0.00000000000E+00  0.00000000000E+00 -0.21894235011E+04  0.21894235011E+04  0.50400001928E-02 0. -1.
    10030    2    1    2    0    0  0.00000000000E+00  0.00000000000E+00 -0.87082809635E+03  0.35080189059E+04  0.33982135117E+04 0.  0.
        5    1    3    3  502    0 -0.10972882974E+03  0.54346125355E+02 -0.21848559764E+04  0.21882896621E+04  0.46999998093E+01 0. -1.
       -5    1    3    3    0  502  0.10972882974E+03 -0.54346125355E+02  0.13140278801E+04  0.13197292438E+04  0.46999998093E+01 0.  1.
</event>
<event>
 5   0  0.6367111E-08  0.3388784E+04  0.7818609E-02  0.8140665E-01
        1   -1    0    0  501    0  0.00000000000E+00  0.00000000000E+00  0.21062916480E+04  0.21062916480E+04  0.50400001928E-02 0.  1.
       -1   -1    0    0    0  501  0.00000000000E+00  0.00000000000E+00 -0.13630422752E+04  0.13630422752E+04  0.50400001928E-02 0. -1.
    10030    2    1    2    0    0  0.00000000000E+00  0.00000000000E+00  0.74324937280E+03  0.34693339232E+04  0.33887841832E+04 0.  0.
        3    1    3    3  502    0  0.63248513867E+03  0.12736555269E+03 -0.12323660475E+04  0.13910375695E+04  0.10100000352E+00 0. -1.
       -3    1    3    3    0  502 -0.63248513867E+03 -0.12736555269E+03  0.19756154203E+04  0.20782963537E+04  0.10100000352E+00 0.  1.
</event>
<event>
 5   0  0.6788600E-08  0.3400040E+04  0.7818609E-02  0.8137896E-01
       -1   -1    0    0    0  501  0.00000000000E+00  0.00000000000E+00  0.17776686698E+04  0.17776686698E+04  0.50400001928E-02 0.  1.
        1   -1    0    0  501    0  0.00000000000E+00  0.00000000000E+00 -0.16257630954E+04  0.16257630954E+04  0.50400001928E-02 0. -1.
    10030    2    1    2    0    0  0.00000000000E+00  0.00000000000E+00  0.15190557445E+03  0.34034317652E+04  0.34000400699E+04 0.  0.
        2    1    3    3  502    0 -0.87184170832E+03 -0.81778410214E+03 -0.11340496827E+04  0.16477097696E+04  0.25500000920E-02 0. -1.
       -2    1    3    3    0  502  0.87184170832E+03  0.81778410214E+03  0.12859552572E+04  0.17557219955E+04  0.25500000920E-02 0.  1.
</event>
<event>
 5   0  0.1928004E-07  0.3403606E+04  0.7818609E-02  0.8137022E-01
        2   -1    0    0  501    0  0.00000000000E+00  0.00000000000E+00  0.19921676026E+04  0.19921676026E+04  0.25500000920E-02 0.  1.
       -2   -1    0    0    0  501  0.00000000000E+00  0.00000000000E+00 -0.14537602614E+04  0.14537602614E+04  0.25500000920E-02 0. -1.
    10030    2    1    2    0    0  0.00000000000E+00  0.00000000000E+00  0.53840734122E+03  0.34459278640E+04  0.34036063784E+04 0.  0.
        2    1    3    3  502    0  0.31081383312E+03 -0.67065271098E+03  0.18211547704E+04  0.19654477849E+04  0.25500000920E-02 0.  1.
       -2    1    3    3    0  502 -0.31081383312E+03  0.67065271098E+03 -0.12827474292E+04  0.14804800791E+04  0.25500000920E-02 0. -1.
</event>
<event>
 5   0  0.1897313E-07  0.3402615E+04  0.7818609E-02  0.8137265E-01
       -2   -1    0    0    0  501  0.00000000000E+00  0.00000000000E+00  0.14173097956E+04  0.14173097956E+04  0.25500000920E-02 0.  1.
        2   -1    0    0  501    0  0.00000000000E+00  0.00000000000E+00 -0.20422118701E+04  0.20422118701E+04  0.25500000920E-02 0. -1.
    10030    2    1    2    0    0  0.00000000000E+00  0.00000000000E+00 -0.62490207453E+03  0.34595216658E+04  0.34026148111E+04 0.  0.
        3    1    3    3  502    0 -0.73140509934E+03  0.13738365500E+04  0.38611087076E+03  0.16035778435E+04  0.10100000352E+00 0.  1.
       -3    1    3    3    0  502  0.73140509934E+03 -0.13738365500E+04 -0.10110129453E+04  0.18559438222E+04  0.10100000352E+00 0. -1.
</event>
<event>
 5   0  0.6341535E-08  0.3400852E+04  0.7818609E-02  0.8137697E-01
        1   -1    0    0  501    0  0.00000000000E+00  0.00000000000E+00  0.21803630367E+04  0.21803630368E+04  0.50400001928E-02 0. -1.
       -1   -1    0    0    0  501  0.00000000000E+00  0.00000000000E+00 -0.13261318433E+04  0.13261318433E+04  0.50400001928E-02 0.  1.
    10030    2    1    2    0    0  0.00000000000E+00  0.00000000000E+00  0.85423119341E+03  0.35064948801E+04  0.34008521597E+04 0.  0.
        5    1    3    3  502    0  0.10483091230E+04 -0.13349118876E+04  0.32153851964E+03  0.17275273875E+04  0.46999998093E+01 0. -1.
       -5    1    3    3    0  502 -0.10483091230E+04  0.13349118876E+04  0.53269267377E+03  0.17789674926E+04  0.46999998093E+01 0.  1.
</event>
<event>
 5   0  0.6584420E-08  0.3402667E+04  0.7818609E-02  0.8137252E-01
        1   -1    0    0  501    0  0.00000000000E+00  0.00000000000E+00  0.12181390878E+04  0.12181390878E+04  0.50400001928E-02 0.  1.
       -1   -1    0    0    0  501  0.00000000000E+00  0.00000000000E+00 -0.23761945376E+04  0.23761945376E+04  0.50400001928E-02 0. -1.
    10030    2    1    2    0    0  0.00000000000E+00  0.00000000000E+00 -0.11580554498E+04  0.35943336254E+04  0.34026668638E+04 0.  0.
        1    1    3    3  502    0 -0.73919626828E+03  0.14922470664E+04 -0.21109318988E+03  0.16786222818E+04  0.50400001928E-02 0. -1.
       -1    1    3    3    0  502  0.73919626828E+03 -0.14922470664E+04 -0.94696225995E+03  0.19157113436E+04  0.50400001928E-02 0.  1.
</event>
<event>
 5   0  0.6367111E-08  0.3398915E+04  0.7818609E-02  0.8138173E-01
       -1   -1    0    0    0  501  0.00000000000E+00  0.00000000000E+00  0.11895339895E+04  0.11895339895E+04  0.50400001928E-02 0.  1.
        1   -1    0    0  501    0  0.00000000000E+00  0.00000000000E+00 -0.24279717822E+04  0.24279717822E+04  0.50400001928E-02 0. -1.
    10030    2    1    2    0    0  0.00000000000E+00  0.00000000000E+00 -0.12384377928E+04  0.36175057717E+04  0.33989145094E+04 0.  0.
        3    1    3    3  502    0  0.69221416929E+03  0.36031009463E+03  0.98756495775E+03  0.12586772328E+04  0.10100000352E+00 0.  1.
       -3    1    3    3    0  502 -0.69221416929E+03 -0.36031009463E+03 -0.22260027505E+04  0.23588285389E+04  0.10100000352E+00 0. -1.
</event>
<event>
 5   0  0.1986613E-07  0.3423660E+04  0.7818609E-02  0.8132124E-01
        2   -1    0    0  501    0  0.00000000000E+00  0.00000000000E+00  0.12313493090E+04  0.12313493090E+04  0.25500000920E-02 0. -1.
       -2   -1    0    0    0  501  0.00000000000E+00  0.00000000000E+00 -0.23797979399E+04  0.23797979399E+04  0.25500000920E-02 0.  1.
    10030    2    1    2    0    0  0.00000000000E+00  0.00000000000E+00 -0.11484486309E+04  0.36111472489E+04  0.34236603504E+04 0.  0.
        5    1    3    3  502    0  0.13394243497E+04  0.90315105557E+03  0.22999322359E+02  0.16156393398E+04  0.46999998093E+01 0. -1.
       -5    1    3    3    0  502 -0.13394243497E+04 -0.90315105557E+03 -0.11714479533E+04  0.19955079090E+04  0.46999998093E+01 0.  1.
</event>
<event>
 5   0  0.6311750E-08  0.3393662E+04  0.7818609E-02  0.8139464E-01
        3   -1    0    0  501    0  0.00000000000E+00  0.00000000000E+00  0.12486370355E+04  0.12486370395E+04  0.10100000352E+00 0.  1.
       -3   -1    0    0    0  501  0.00000000000E+00  0.00000000000E+00 -0.23059029529E+04  0.23059029551E+04  0.10100000352E+00 0. -1.
    10030    2    1    2    0    0  0.00000000000E+00  0.00000000000E+00 -0.10572659174E+04  0.35545399946E+04  0.33936622332E+04 0.  0.
        3    1    3    3  502    0 -0.12525860182E+04 -0.43649100793E+03 -0.16369737747E+04  0.21069359939E+04  0.10100000352E+00 0. -1.
       -3    1    3    3    0  502  0.12525860182E+04  0.43649100793E+03  0.57970785728E+03  0.14476040008E+04  0.10100000352E+00 0.  1.
</event>
<event>
 5   0  0.1928004E-07  0.3399779E+04  0.7818609E-02  0.8137961E-01
        2   -1    0    0  501    0  0.00000000000E+00  0.00000000000E+00  0.98061630499E+03  0.98061630500E+03  0.25500000920E-02 0. -1.
       -2   -1    0    0    0  501  0.00000000000E+00  0.00000000000E+00 -0.29467431626E+04  0.29467431626E+04  0.25500000920E-02 0.  1.
    10030    2    1    2    0    0  0.00000000000E+00  0.00000000000E+00 -0.19661268576E+04  0.39273594676E+04  0.33997790469E+04 0.  0.
        2    1    3    3  502    0 -0.58480387017E+03  0.40897044726E+03  0.79920197570E+03  0.10714365083E+04  0.25500000920E-02 0. -1.
       -2    1    3    3    0  502  0.58480387017E+03 -0.40897044726E+03 -0.27653288333E+04  0.28559229593E+04  0.25500000920E-02 0.  1.
</event>
<event>
 5   0  0.1928004E-07  0.3399473E+04  0.7818609E-02  0.8138036E-01
       -2   -1    0    0    0  501  0.00000000000E+00  0.00000000000E+00  0.10067234299E+04  0.10067234299E+04  0.25500000920E-02 0.  1.
        2   -1    0    0  501    0  0.00000000000E+00  0.00000000000E+00 -0.28698099311E+04  0.28698099311E+04  0.25500000920E-02 0. -1.
    10030    2    1    2    0    0  0.00000000000E+00  0.00000000000E+00 -0.18630865012E+04  0.38765333610E+04  0.33994734280E+04 0.  0.
        2    1    3    3  502    0 -0.31243871344E+02 -0.54280387071E+03  0.90488678761E+03  0.10556667656E+04  0.25500000920E-02 0.  1.
       -2    1    3    3    0  502  0.31243871344E+02  0.54280387071E+03 -0.27679732888E+04  0.28208665954E+04  0.25500000920E-02 0. -1.
</event>
<event>
 5   0  0.1986613E-07  0.3396627E+04  0.7818609E-02  0.8138735E-01
       -2   -1    0    0    0  501  0.00000000000E+00  0.00000000000E+00  0.22358021933E+04  0.22358021933E+04  0.25500000920E-02 0.  1.
        2   -1    0    0  501    0  0.00000000000E+00  0.00000000000E+00 -0.12900374951E+04  0.12900374951E+04  0.25500000920E-02 0. -1.
    10030    2    1    2    0    0  0.00000000000E+00  0.00000000000E+00  0.94576469819E+03  0.35258396884E+04  0.33966269510E+04 0.  0.
        5    1    3    3  502    0  0.35702102877E+02  0.81445236280E+03  0.20194036697E+04  0.21777558547E+04  0.46999998093E+01 0.  1.
       -5    1    3    3    0  502 -0.35702102877E+02 -0.81445236280E+03 -0.10736389716E+04  0.13480838337E+04  0.46999998093E+01 0. -1.
</event>
<event>
 5   0  0.1970449E-07  0.3401414E+04  0.7818609E-02  0.8137559E-01
        2   -1    0    0  501    0  0.00000000000E+00  0.00000000000E+00  0.21253965730E+04  0.21253965730E+04  0.25500000920E-02 0.  1.
       -2   -1    0    0    0  501  0.00000000000E+00  0.00000000000E+00 -0.13608772512E+04  0.13608772512E+04  0.25500000920E-02 0. -1.
    10030    2    1    2    0    0  0.00000000000E+00  0.00000000000E+00  0.76451932179E+03  0.34862738242E+04  0.34014137332E+04 0.  0.
        1    1    3    3  502    0  0.30183502318E+03  0.90423868815E+03  0.18258194003E+04  0.20597010630E+04  0.50400001928E-02 0.  1.
       -1    1    3    3    0  502 -0.30183502318E+03 -0.90423868815E+03 -0.10613000785E+04  0.14265727612E+04  0.50400001928E-02 0. -1.
</event>
<event>
 5   0  0.1928004E-07  0.3401142E+04  0.7818609E-02  0.8137626E-01
       -2   -1    0    0    0  501  0.00000000000E+00  0.00000000000E+00  0.26684359193E+04  0.26684359193E+04  0.25500000920E-02 0. -1.
        2   -1    0    0  501    0  0.00000000000E+00  0.00000000000E+00 -0.10837593656E+04  0.10837593656E+04  0.25500000920E-02 0.  1.
    10030    2    1    2    0    0  0.00000000000E+00  0.00000000000E+00  0.15846765537E+04  0.37521952849E+04  0.34011424074E+04 0.  0.
        2    1    3    3  502    0  0.39513732585E+03 -0.14687466071E+04 -0.46825923509E+02  0.15216907600E+04  0.25500000920E-02 0. -1.
       -2    1    3    3    0  502 -0.39513732585E+03  0.14687466071E+04  0.16315024773E+04  0.22305045248E+04  0.25500000920E-02 0.  1.
</event>
<event>
 5   0  0.1970449E-07  0.3402232E+04  0.7818609E-02  0.8137359E-01
       -2   -1    0    0    0  501  0.00000000000E+00  0.00000000000E+00  0.10856847383E+04  0.10856847383E+04  0.25500000920E-02 0.  1.
        2   -1    0    0  501    0  0.00000000000E+00  0.00000000000E+00 -0.26654112806E+04  0.26654112806E+04  0.25500000920E-02 0. -1.
    10030    2    1    2    0    0  0.00000000000E+00  0.00000000000E+00 -0.15797265423E+04  0.37510960189E+04  0.34022324133E+04 0.  0.
        1    1    3    3  502    0  0.75049762047E+03 -0.12307674558E+04  0.20594495586E+03  0.14561759968E+04  0.50400001928E-02 0.  1.
       -1    1    3    3    0  502 -0.75049762047E+03  0.12307674558E+04 -0.17856714981E+04  0.22949200221E+04  0.50400001928E-02 0. -1.
</event>
<event>
 5   0  0.6311750E-08  0.3396289E+04  0.7818609E-02  0.8138818E-01
       -1   -1    0    0    0  501  0.00000000000E+00  0.00000000000E+00  0.19788547340E+04  0.19788547340E+04  0.50400001928E-02 0. -1.
        1   -1    0    0  501    0  0.00000000000E+00  0.00000000000E+00 -0.14572544904E+04  0.14572544904E+04  0.50400001928E-02 0.  1.
    10030    2    1    2    0    0  0.00000000000E+00  0.00000000000E+00  0.52160024364E+03  0.34361092244E+04  0.33962891202E+04 0.  0.
        4    1    3    3  502    0  0.15044200155E+04  0.29490721761E+03 -0.47813534823E+03  0.16058844523E+04  0.12699999809E+01 0.  1.
       -4    1    3    3    0  502 -0.15044200155E+04 -0.29490721761E+03  0.99973559186E+03  0.18302247721E+04  0.12699999809E+01 0. -1.
</event>
<event>
 5   0  0.6311750E-08  0.3407255E+04  0.7818609E-02  0.8136128E-01
       -1   -1    0    0    0  501  0.00000000000E+00  0.00000000000E+00  0.23216758369E+04  0.23216758369E+04  0.50400001928E-02 0. -1.
        1   -1    0    0  501    0  0.00000000000E+00  0.00000000000E+00 -0.12501087683E+04  0.12501087683E+04  0.50400001928E-02 0.  1.
    10030    2    1    2    0    0  0.00000000000E+00  0.00000000000E+00  0.10715670686E+04  0.35717846052E+04  0.34072553887E+04 0.  0.
        4    1    3    3  502    0 -0.10622754572E+03 -0.10984997116E+04 -0.82471477966E+03  0.13777307388E+04  0.12699999809E+01 0.  1.
       -4    1    3    3    0  502  0.10622754572E+03  0.10984997116E+04  0.18962818483E+04  0.21940538665E+04  0.12699999809E+01 0. -1.
</event>
<event>
 5   0  0.6311750E-08  0.3365526E+04  0.7818609E-02  0.8146420E-01
        1   -1    0    0  501    0  0.00000000000E+00  0.00000000000E+00  0.20103558656E+04  0.20103558656E+04  0.50400001928E-02 0.  1.
       -1   -1    0    0    0  501  0.00000000000E+00  0.00000000000E+00 -0.14085518526E+04  0.14085518526E+04  0.50400001928E-02 0. -1.
    10030    2    1    2    0    0  0.00000000000E+00  0.00000000000E+00  0.60180401302E+03  0.34189077183E+04  0.33655255037E+04 0.  0.
        4    1    3    3  502    0 -0.10766562012E+03 -0.16600074941E+04  0.42960994077E+02  0.16640504879E+04  0.12699999809E+01 0. -1.
       -4    1    3    3    0  502  0.10766562012E+03  0.16600074941E+04  0.55884301894E+03  0.17548572304E+04  0.12699999809E+01 0.  1.
</event>
<event>
 5   0  0.1963852E-07  0.3399859E+04  0.7818609E-02  0.8137941E-01
        2   -1    0    0  501    0  0.00000000000E+00  0.00000000000E+00  0.23273568275E+04  0.23273568275E+04  0.25500000920E-02 0.  1.
       -2   -1    0    0    0  501  0.00000000000E+00  0.00000000000E+00 -0.12416491625E+04  0.12416491625E+04  0.25500000920E-02 0. -1.
    10030    2    1    2    0    0  0.00000000000E+00  0.00000000000E+00  0.10857076650E+04  0.35690059899E+04  0.33998592063E+04 0.  0.
        4    1    3    3  502    0  0.13093633541E+03  0.10455228617E+04 -0.85749080748E+03  0.13585118609E+04  0.12699999809E+01 0. -1.
       -4    1    3    3    0  502 -0.13093633541E+03 -0.10455228617E+04  0.19431984725E+04  0.22104941291E+04  0.12699999809E+01 0.  1.
</event>
<event>
 5   0  0.6341535E-08  0.3399886E+04  0.7818609E-02  0.8137934E-01
        1   -1    0    0  501    0  0.00000000000E+00  0.00000000000E+00  0.15186609632E+04  0.15186609632E+04  0.50400001928E-02 0. -1.
       -1   -1    0    0    0  501  0.00000000000E+00  0.00000000000E+00 -0.19028645569E+04  0.19028645569E+04  0.50400001928E-02 0.  1.
    10030    2    1    2    0    0  0.00000000000E+00  0.00000000000E+00 -0.38420359367E+03  0.34215255201E+04  0.33998859515E+04 0.  0.
        5    1    3    3  502    0 -0.15213130493E+04  0.32676246409E+03  0.49681126865E+03  0.16334046126E+04  0.46999998093E+01 0. -1.
       -5    1    3    3    0  502  0.15213130493E+04 -0.32676246409E+03 -0.88101486232E+03  0.17881209074E+04  0.46999998093E+01 0.  1.
</event>
<event>
 5   0  0.6788600E-08  0.3400242E+04  0.7818609E-02  0.8137847E-01
        1   -1    0    0  501    0  0.00000000000E+00  0.00000000000E+00  0.28309169141E+04  0.28309169141E+04  0.50400001928E-02 0.  1.
       -1   -1    0    0    0  501  0.00000000000E+00  0.00000000000E+00 -0.10210159679E+04  0.10210159680E+04  0.50400001928E-02 0. -1.
    10030    2    1    2    0    0  0.00000000000E+00  0.00000000000E+00  0.18099009462E+04  0.38519328821E+04  0.34002419757E+04 0.  0.
        2    1    3    3  502    0 -0.11476332251E+04 -0.28439936223E+03 -0.47900195445E+03  0.12756911417E+04  0.25500000920E-02 0. -1.
       -2    1    3    3    0  502  0.11476332251E+04  0.28439936223E+03  0.22889029006E+04  0.25762417404E+04  0.25500000920E-02 0.  1.
</event>
<event>
 5   0  0.6311750E-08  0.3398385E+04  0.7818609E-02  0.8138303E-01
        1   -1    0    0  501    0  0.00000000000E+00  0.00000000000E+00  0.18827533330E+04  0.18827533330E+04  0.50400001928E-02 0. -1.
       -1   -1    0    0    0  501  0.00000000000E+00  0.00000000000E+00 -0.15335284265E+04  0.15335284265E+04  0.50400001928E-02 0.  1.
    10030    2    1    2    0    0  0.00000000000E+00  0.00000000000E+00  0.34922490646E+03  0.34162817595E+04  0.33983853556E+04 0.  0.
        4    1    3    3  502    0 -0.32868583864E+03  0.15825305876E+04  0.70160275202E+03  0.17620117695E+04  0.12699999809E+01 0.  1.
       -4    1    3    3    0  502  0.32868583864E+03 -0.15825305876E+04 -0.35237784556E+03  0.16542699901E+04  0.12699999809E+01 0. -1.
</event>
<event>
 5   0  0.6311750E-08  0.3422203E+04  0.7818609E-02  0.8132478E-01
       -1   -1    0    0    0  501  0.00000000000E+00  0.00000000000E+00  0.25899254025E+04  0.25899254025E+04  0.50400001928E-02 0.  1.
        1   -1    0    0  501    0  0.00000000000E+00  0.00000000000E+00 -0.11304835034E+04  0.11304835034E+04  0.50400001928E-02 0. -1.
    10030    2    1    2    0    0  0.00000000000E+00  0.00000000000E+00  0.14594418991E+04  0.37204089059E+04  0.34222027658E+04 0.  0.
        4    1    3    3  502    0 -0.90744385028E+03 -0.14446660025E+04  0.58651491202E+03  0.18040275926E+04  0.12699999809E+01 0. -1.
       -4    1    3    3    0  502  0.90744385028E+03  0.14446660025E+04  0.87292698709E+03  0.19163813133E+04  0.12699999809E+01 0.  1.
</event>
<event>
 5   0  0.1897313E-07  0.3400435E+04  0.7818609E-02  0.8137800E-01
       -2   -1    0    0    0  501  0.00000000000E+00  0.00000000000E+00  0.14357252128E+04  0.14357252128E+04  0.25500000920E-02 0.  1.
        2   -1    0    0  501    0  0.00000000000E+00  0.00000000000E+00 -0.20134353227E+04  0.20134353227E+04  0.25500000920E-02 0. -1.
    10030    2    1    2    0    0  0.00000000000E+00  0.00000000000E+00 -0.57771010989E+03  0.34491605356E+04  0.34004351823E+04 0.  0.
        3    1    3    3  502    0  0.12713928944E+04 -0.99248506538E+03  0.25669313616E+03  0.16332047861E+04  0.10100000352E+00 0.  1.
       -3    1    3    3    0  502 -0.12713928944E+04  0.99248506538E+03 -0.83440324605E+03  0.18159557495E+04  0.10100000352E+00 0. -1.
</event>
<event>
 5   0  0.6788600E-08  0.3396985E+04  0.7818609E-02  0.8138647E-01
        1   -1    0    0  501    0  0.00000000000E+00  0.00000000000E+00  0.95733504494E+03  0.95733504496E+03  0.50400001928E-02 0. -1.
       -1   -1    0    0    0  501  0.00000000000E+00  0.00000000000E+00 -0.30134449089E+04  0.30134449089E+04  0.50400001928E-02 0.  1.
    10030    2    1    2    0    0  0.00000000000E+00  0.00000000000E+00 -0.20561098639E+04  0.39707799538E+04  0.33969847908E+04 0.  0.
        2    1    3    3  502    0 -0.35126009737E+03  0.11002451072E+04 -0.24837875126E+04  0.27391829730E+04  0.25500000920E-02 0.  1.
       -2    1    3    3    0  502  0.35126009737E+03 -0.11002451072E+04  0.42767764867E+03  0.12315969808E+04  0.25500000920E-02 0. -1.
</event>
<event>
 5   0  0.1897313E-07  0.3393840E+04  0.7818609E-02  0.8139420E-01
       -2   -1    0    0    0  501  0.00000000000E+00  0.00000000000E+00  0.10439739432E+04  0.10439739432E+04  0.25500000920E-02 0. -1.
        2   -1    0    0  501    0  0.00000000000E+00  0.00000000000E+00 -0.27582458770E+04  0.27582458770E+04  0.25500000920E-02 0.  1.
    10030    2    1    2    0    0  0.00000000000E+00  0.00000000000E+00 -0.17142719338E+04  0.38022198202E+04  0.33938396100E+04 0.  0.
        3    1    3    3  502    0  0.16856024324E+04  0.18189446627E+03 -0.93789035957E+03  0.19375189015E+04  0.10100000352E+00 0.  1.
       -3    1    3    3    0  502 -0.16856024324E+04 -0.18189446627E+03 -0.77638157419E+03  0.18647009186E+04  0.10100000352E+00 0. -1.
</event>
<event>
 5   0  0.6341535E-08  0.3403547E+04  0.7818609E-02  0.8137036E-01
       -1   -1    0    0    0  501  0.00000000000E+00  0.00000000000E+00  0.17578246231E+04  0.17578246231E+04  0.50400001928E-02 0.  1.
        1   -1    0    0  501    0  0.00000000000E+00  0.00000000000E+00 -0.16475097623E+04  0.16475097623E+04  0.50400001928E-02 0. -1.
    10030    2    1    2    0    0  0.00000000000E+00  0.00000000000E+00  0.11031486083E+03  0.34053343854E+04  0.34035471067E+04 0.  0.
        5    1    3    3  502    0  0.13666473115E+04  0.59735040476E+03 -0.76469873862E+03  0.16761081800E+04  0.46999998093E+01 0. -1.
       -5    1    3    3    0  502 -0.13666473115E+04 -0.59735040476E+03  0.87501359945E+03  0.17292262054E+04  0.46999998093E+01 0.  1.
</event>
<event>
 5   0  0.1897313E-07  0.3393379E+04  0.7818609E-02  0.8139533E-01
       -2   -1    0    0    0  501  0.00000000000E+00  0.00000000000E+00  0.11431607028E+04  0.11431607028E+04  0.25500000920E-02 0.  1.
        2   -1    0    0  501    0  0.00000000000E+00  0.00000000000E+00 -0.25182425988E+04  0.25182425988E+04  0.25500000920E-02 0. -1.
    10030    2    1    2    0    0  0.00000000000E+00  0.00000000000E+00 -0.13750818960E+04  0.36614033016E+04  0.33933794241E+04 0.  0.
        3    1    3    3  502    0 -0.78399966581E+02 -0.39260517042E+03 -0.24665471677E+04  0.24988277883E+04  0.10100000352E+00 0. -1.
       -3    1    3    3    0  502  0.78399966581E+02  0.39260517042E+03  0.10914652717E+04  0.11625755133E+04  0.10100000352E+00 0.  1.
</event>
<event>
 5   0  0.6367111E-08  0.3403290E+04  0.7818609E-02  0.8137099E-01
       -1   -1    0    0    0  501  0.00000000000E+00  0.00000000000E+00  0.17694966765E+04  0.17694966765E+04  0.50400001928E-02 0. -1.
        1   -1    0    0  501    0  0.00000000000E+00  0.00000000000E+00 -0.16363947407E+04  0.16363947407E+04  0.50400001928E-02 0.  1.
    10030    2    1    2    0    0  0.00000000000E+00  0.00000000000E+00  0.13310193584E+03  0.34058914172E+04  0.34032896175E+04 0.  0.
        3    1    3    3  502    0  0.11912270125E+04  0.11051148529E+03  0.12775837136E+04  0.17502727614E+04  0.10100000352E+00 0. -1.
       -3    1    3    3    0  502 -0.11912270125E+04 -0.11051148529E+03 -0.11444817778E+04  0.16556186559E+04  0.10100000352E+00 0.  1.
</event>
<event>
 5   0  0.6341535E-08  0.3406783E+04  0.7818609E-02  0.8136244E-01
        1   -1    0    0  501    0  0.00000000000E+00  0.00000000000E+00  0.13950416947E+04  0.13950416947E+04  0.50400001928E-02 0. -1.
       -1   -1    0    0    0  501  0.00000000000E+00  0.00000000000E+00 -0.20798965674E+04  0.20798965674E+04  0.50400001928E-02 0.  1.
    10030    2    1    2    0    0  0.00000000000E+00  0.00000000000E+00 -0.68485487273E+03  0.34749382621E+04  0.34067829001E+04 0.  0.
        5    1    3    3  502    0 -0.40772190574E+03 -0.14543250579E+04  0.46086957898E+03  0.15791521096E+04  0.46999998093E+01 0. -1.
       -5    1    3    3    0  502  0.40772190574E+03  0.14543250579E+04 -0.11457244517E+04  0.18957861524E+04  0.46999998093E+01 0.  1.
</event>
<event>
 5   0  0.1897313E-07  0.3404028E+04  0.7818609E-02  0.8136918E-01
       -2   -1    0    0    0  501  0.00000000000E+00  0.00000000000E+00  0.13419724108E+04  0.13419724108E+04  0.25500000920E-02 0. -1.
        2   -1    0    0  501    0  0.00000000000E+00  0.00000000000E+00 -0.21586524811E+04  0.21586524811E+04  0.25500000920E-02 0.  1.
    10030    2    1    2    0    0  0.00000000000E+00  0.00000000000E+00 -0.81668007031E+03  0.35006248920E+04  0.34040282456E+04 0.  0.
        3    1    3    3  502    0  0.41466129306E+03  0.22261382164E+03  0.12737251383E+04  0.13578941931E+04  0.10100000352E+00 0. -1.
       -3    1    3    3    0  502 -0.41466129306E+03 -0.22261382164E+03 -0.20904052086E+04  0.21427306989E+04  0.10100000352E+00 0.  1.
</event>
<event>
 5   0  0.6367111E-08  0.3346728E+04  0.7818609E-02  0.8151106E-01
       -1   -1    0    0    0  501  0.00000000000E+00  0.00000000000E+00  0.14374662789E+04  0.14374662789E+04  0.50400001928E-02 0. -1.
        1   -1    0    0  501    0  0.00000000000E+00  0.00000000000E+00 -0.19479736768E+04  0.19479736768E+04  0.50400001928E-02 0.  1.
    10030    2    1    2    0    0  0.00000000000E+00  0.00000000000E+00 -0.51050739792E+03  0.33854399556E+04  0.33467276390E+04 0.  0.
        3    1    3    3  502    0  0.80477779144E+03 -0.79580429830E+03 -0.15020588934E+04  0.18807319597E+04  0.10100000352E+00 0.  1.
       -3    1    3    3    0  502 -0.80477779144E+03  0.79580429830E+03  0.99155149545E+03  0.15047079960E+04  0.10100000352E+00 0. -1.
</event>
<event>
 5   0  0.6788600E-08  0.3400837E+04  0.7818609E-02  0.8137701E-01
       -1   -1    0    0    0  501  0.00000000000E+00  0.00000000000E+00  0.29605541154E+04  0.29605541154E+04  0.50400001928E-02 0.  1.
        1   -1    0    0  501    0  0.00000000000E+00  0.00000000000E+00 -0.97664928314E+03  0.97664928315E+03  0.50400001928E-02 0. -1.
    10030    2    1    2    0    0  0.00000000000E+00  0.00000000000E+00  0.19839048323E+04  0.39372033986E+04  0.34008369879E+04 0.  0.
        2    1    3    3  502    0  0.27595419782E+03  0.14570411291E+04  0.28677404668E+02  0.14832201336E+04  0.25500000920E-02 0. -1.
       -2    1    3    3    0  502 -0.27595419782E+03 -0.14570411291E+04  0.19552274276E+04  0.24539832650E+04  0.25500000920E-02 0.  1.
</event>
<event>
 5   0  0.1928004E-07  0.3426912E+04  0.7818609E-02  0.8131333E-01
       -2   -1    0    0    0  501  0.00000000000E+00  0.00000000000E+00  0.13297148364E+04  0.13297148364E+04  0.25500000920E-02 0.  1.
        2   -1    0    0  501    0  0.00000000000E+00  0.00000000000E+00 -0.22079406611E+04  0.22079406611E+04  0.25500000920E-02 0. -1.
    10030    2    1    2    0    0  0.00000000000E+00  0.00000000000E+00 -0.87822582473E+03  0.35376554975E+04  0.34269119947E+04 0.  0.
        2    1    3    3  502    0  0.10480328759E+04 -0.13286575155E+04 -0.71655007675E+03  0.18377017481E+04  0.25500000920E-02 0. -1.
       -2    1    3    3    0  502 -0.10480328759E+04  0.13286575155E+04 -0.16167574797E+03  0.16999537494E+04  0.25500000920E-02 0.  1.
</event>
<event>
 5   0  0.1928004E-07  0.3406542E+04  0.7818609E-02  0.8136303E-01
        2   -1    0    0  501    0  0.00000000000E+00  0.00000000000E+00  0.16514564055E+04  0.16514564055E+04  0.25500000920E-02 0.  1.
       -2   -1    0    0    0  501  0.00000000000E+00  0.00000000000E+00 -0.17567110510E+04  0.17567110510E+04  0.25500000920E-02 0. -1.
    10030    2    1    2    0    0  0.00000000000E+00  0.00000000000E+00 -0.10525464547E+03  0.34081674565E+04  0.34065417759E+04 0.  0.
        2    1    3    3  502    0  0.79610501621E+03  0.31493203075E+03 -0.15257994882E+04  0.17495797949E+04  0.25500000920E-02 0. -1.
       -2    1    3    3    0  502 -0.79610501621E+03 -0.31493203075E+03  0.14205448427E+04  0.16585876615E+04  0.25500000920E-02 0.  1.
</event>
<event>
 5   0  0.1963852E-07  0.3399623E+04  0.7818609E-02  0.8137999E-01
        2   -1    0    0  501    0  0.00000000000E+00  0.00000000000E+00  0.13557747179E+04  0.13557747179E+04  0.25500000920E-02 0. -1.
       -2   -1    0    0    0  501  0.00000000000E+00  0.00000000000E+00 -0.21311498259E+04  0.21311498259E+04  0.25500000920E-02 0.  1.
    10030    2    1    2    0    0  0.00000000000E+00  0.00000000000E+00 -0.77537510802E+03  0.34869245438E+04  0.33996229520E+04 0.  0.
        4    1    3    3  502    0 -0.10008138370E+04 -0.11248363301E+04  0.42154216549E+03  0.15635167143E+04  0.12699999809E+01 0.  1.
       -4    1    3    3    0  502  0.10008138370E+04  0.11248363301E+04 -0.11969172735E+04  0.19234078294E+04  0.12699999809E+01 0. -1.
</event>
<event>
 5   0  0.1970449E-07  0.3398251E+04  0.7818609E-02  0.8138336E-01
        2   -1    0    0  501    0  0.00000000000E+00  0.00000000000E+00  0.16346139780E+04  0.16346139780E+04  0.25500000920E-02 0. -1.
       -2   -1    0    0    0  501  0.00000000000E+00  0.00000000000E+00 -0.17661833472E+04  0.17661833472E+04  0.25500000920E-02 0.  1.
    10030    2    1    2    0    0  0.00000000000E+00  0.00000000000E+00 -0.13156936930E+03  0.34007973252E+04  0.33982513074E+04 0.  0.
        1    1    3    3  502    0 -0.66202613831E+03 -0.22043692511E+03 -0.16161893903E+04  0.17603804109E+04  0.50400001928E-02 0.  1.
       -1    1    3    3    0  502  0.66202613831E+03  0.22043692511E+03  0.14846200210E+04  0.16404169143E+04  0.50400001928E-02 0. -1.
</event>
<event>
 5   0  0.1986613E-07  0.3399843E+04  0.7818609E-02  0.8137945E-01
        2   -1    0    0  501    0  0.00000000000E+00  0.00000000000E+00  0.21919921601E+04  0.21919921601E+04  0.25500000920E-02 0.  1.
       -2   -1    0    0    0  501  0.00000000000E+00  0.00000000000E+00 -0.13183139724E+04  0.13183139724E+04  0.25500000920E-02 0. -1.
    10030    2    1    2    0    0  0.00000000000E+00  0.00000000000E+00  0.87367818770E+03  0.35103061325E+04  0.33998434624E+04 0.  0.
        5    1    3    3  502    0  0.10783155146E+04  0.60154141520E+03  0.16431730971E+04  0.20553968815E+04  0.46999998093E+01 0. -1.
       -5    1    3    3    0  502 -0.10783155146E+04 -0.60154141520E+03 -0.76949490939E+03  0.14549092511E+04  0.46999998093E+01 0.  1.
</event>
<event>
 5   0  0.1928004E-07  0.3408366E+04  0.7818609E-02  0.8135856E-01
       -2   -1    0    0    0  501  0.00000000000E+00  0.00000000000E+00  0.13644347404E+04  0.13644347405E+04  0.25500000920E-02 0. -1.
        2   -1    0    0  501    0  0.00000000000E+00  0.00000000000E+00 -0.21285298456E+04  0.21285298456E+04  0.25500000920E-02 0.  1.
    10030    2    1    2    0    0  0.00000000000E+00  0.00000000000E+00 -0.76409510516E+03  0.34929645861E+04  0.34083662171E+04 0.  0.
        2    1    3    3  502    0  0.10374305303E+04 -0.13407447512E+04 -0.56067671190E+03  0.17855578871E+04  0.25500000920E-02 0. -1.
       -2    1    3    3    0  502 -0.10374305303E+04  0.13407447512E+04 -0.20341839326E+03  0.17074066990E+04  0.25500000920E-02 0.  1.
</event>
<event>
 5   0  0.1970449E-07  0.3394701E+04  0.7818609E-02  0.8139208E-01
       -2   -1    0    0    0  501  0.00000000000E+00  0.00000000000E+00  0.13021751255E+04  0.13021751255E+04  0.25500000920E-02 0. -1.
        2   -1    0    0  501    0  0.00000000000E+00  0.00000000000E+00 -0.22124510680E+04  0.22124510680E+04  0.25500000920E-02 0.  1.
    10030    2    1    2    0    0  0.00000000000E+00  0.00000000000E+00 -0.91027594255E+03  0.35146261935E+04  0.33947010160E+04 0.  0.
        1    1    3    3  502    0 -0.49025868665E+03 -0.10450708612E+04  0.83319849037E+03  0.14236384405E+04  0.50400001928E-02 0. -1.
       -1    1    3    3    0  502  0.49025868665E+03  0.10450708612E+04 -0.17434744329E+04  0.20909877530E+04  0.50400001928E-02 0.  1.
</event>
<event>
 5   0  0.6311750E-08  0.3392230E+04  0.7818609E-02  0.8139816E-01
       -3   -1    0    0    0  501  0.00000000000E+00  0.00000000000E+00  0.28313674270E+04  0.28313674288E+04  0.10100000352E+00 0. -1.
        3   -1    0    0  501    0  0.00000000000E+00  0.00000000000E+00 -0.10160480850E+04  0.10160480901E+04  0.10100000352E+00 0.  1.
    10030    2    1    2    0    0  0.00000000000E+00  0.00000000000E+00  0.18153193419E+04  0.38474155188E+04  0.33922296298E+04 0.  0.
        5    1    3    3  502    0 -0.14279223026E+04 -0.68689352667E+03  0.22150261272E+03  0.15999594735E+04  0.46999998093E+01 0.  1.
       -5    1    3    3    0  502  0.14279223026E+04  0.68689352667E+03  0.15938167292E+04  0.22474560453E+04  0.46999998093E+01 0. -1.
</event>
<event>
 5   0  0.6367111E-08  0.3396425E+04  0.7818609E-02  0.8138784E-01
       -1   -1    0    0    0  501  0.00000000000E+00  0.00000000000E+00  0.16403364703E+04  0.16403364703E+04  0.50400001928E-02 0. -1.
        1   -1    0    0  501    0  0.00000000000E+00  0.00000000000E+00 -0.17581305667E+04  0.17581305667E+04  0.50400001928E-02 0.  1.
    10030    2    1    2    0    0  0.00000000000E+00  0.00000000000E+00 -0.11779409640E+03  0.33984670370E+04  0.33964249959E+04 0.  0.
        3    1    3    3  502    0 -0.88808482587E+03  0.95251427681E+03  0.10316883301E+04  0.16614327931E+04  0.10100000352E+00 0. -1.
       -3    1    3    3    0  502  0.88808482587E+03 -0.95251427681E+03 -0.11494824265E+04  0.17370342439E+04  0.10100000352E+00 0.  1.
</event>
<event>
 5   0  0.1986613E-07  0.3407178E+04  0.7818609E-02  0.8136147E-01
        2   -1    0    0  501    0  0.00000000000E+00  0.00000000000E+00  0.22969552795E+04  0.22969552795E+04  0.25500000920E-02 0.  1.
       -2   -1    0    0    0  501  0.00000000000E+00  0.00000000000E+00 -0.12635057880E+04  0.12635057880E+04  0.25500000920E-02 0. -1.
    10030    2    1    2    0    0  0.00000000000E+00  0.00000000000E+00  0.10334494915E+04  0.35604610675E+04  0.34071784752E+04 0.  0.
        5    1    3    3  502    0  0.15179904123E+04 -0.12750759999E+03 -0.28023963019E+03  0.15489058785E+04  0.46999998093E+01 0. -1.
       -5    1    3    3    0  502 -0.15179904123E+04  0.12750759999E+03  0.13136891217E+04  0.20115551890E+04  0.46999998093E+01 0.  1.
</event>
<event>
 5   0  0.6311750E-08  0.3402047E+04  0.7818609E-02  0.8137404E-01
       -1   -1    0    0    0  501  0.00000000000E+00  0.00000000000E+00  0.18070969877E+04  0.18070969877E+04  0.50400001928E-02 0. -1.
        1   -1    0    0  501    0  0.00000000000E+00  0.00000000000E+00 -0.16011761153E+04  0.16011761153E+04  0.50400001928E-02 0.  1.
    10030    2    1    2    0    0  0.00000000000E+00  0.00000000000E+00  0.20592087241E+03  0.34082731031E+04  0.34020467574E+04 0.  0.
        4    1    3    3  502    0  0.81127122821E+03  0.98916936555E+03 -0.10201898878E+04  0.16362781119E+04  0.12699999809E+01 0.  1.
       -4    1    3    3    0  502 -0.81127122821E+03 -0.98916936555E+03  0.12261107602E+04  0.17719949912E+04  0.12699999809E+01 0. -1.
</event>
<event>
 5   0  0.1970449E-07  0.3409455E+04  0.7818609E-02  0.8135590E-01
        2   -1    0    0  501    0  0.00000000000E+00  0.00000000000E+00  0.33944859609E+04  0.33944859609E+04  0.25500000920E-02 0. -1.
       -2   -1    0    0    0  501  0.00000000000E+00  0.00000000000E+00 -0.85612241764E+03  0.85612241764E+03  0.25500000920E-02 0.  1.
    10030    2    1    2    0    0  0.00000000000E+00  0.00000000000E+00  0.25383635432E+04  0.42506083785E+04  0.34094548112E+04 0.  0.
        1    1    3    3  502    0 -0.28387621031E+03  0.15427157094E+04  0.21013450785E+04  0.26222525816E+04  0.50400001928E-02 0. -1.
       -1    1    3    3    0  502  0.28387621031E+03 -0.15427157094E+04  0.43701846474E+03  0.16283557969E+04  0.50400001928E-02 0.  1.
</event>
<event>
 5   0  0.1928004E-07  0.3399119E+04  0.7818609E-02  0.8138122E-01
        2   -1    0    0  501    0  0.00000000000E+00  0.00000000000E+00  0.29947571497E+04  0.29947571497E+04  0.25500000920E-02 0.  1.
       -2   -1    0    0    0  501  0.00000000000E+00  0.00000000000E+00 -0.96452000534E+03  0.96452000534E+03  0.25500000920E-02 0. -1.
    10030    2    1    2    0    0  0.00000000000E+00  0.00000000000E+00  0.20302371443E+04  0.39592771550E+04  0.33991194048E+04 0.  0.
        2    1    3    3  502    0 -0.52628750147E+02 -0.93891915030E+03  0.26641014117E+04  0.28252035835E+04  0.25500000920E-02 0.  1.
       -2    1    3    3    0  502  0.52628750147E+02  0.93891915030E+03 -0.63386426740E+03  0.11340735715E+04  0.25500000920E-02 0. -1.
</event>
<event>
 5   0  0.6341535E-08  0.3398779E+04  0.7818609E-02  0.8138206E-01
        1   -1    0    0  501    0  0.00000000000E+00  0.00000000000E+00  0.18776122036E+04  0.18776122036E+04  0.50400001928E-02 0. -1.
       -1   -1    0    0    0  501  0.00000000000E+00  0.00000000000E+00 -0.15380840738E+04  0.15380840738E+04  0.50400001928E-02 0.  1.
    10030    2    1    2    0    0  0.00000000000E+00  0.00000000000E+00  0.33952812976E+03  0.34156962774E+04  0.33987794440E+04 0.  0.
        5    1    3    3  502    0  0.16810065476E+04  0.78922773140E+02  0.40735464855E+03  0.17314651936E+04  0.46999998093E+01 0. -1.
       -5    1    3    3    0  502 -0.16810065476E+04 -0.78922773140E+02 -0.67826518784E+02  0.16842310838E+04  0.46999998093E+01 0.  1.
</event>
<event>
 5   0  0.1963852E-07  0.3397655E+04  0.7818609E-02  0.8138482E-01
        2   -1    0    0  501    0  0.00000000000E+00  0.00000000000E+00  0.25481310825E+04  0.25481310825E+04  0.25500000920E-02 0. -1.
       -2   -1    0    0    0  501  0.00000000000E+00  0.00000000000E+00 -0.11326009639E+04  0.11326009639E+04  0.25500000920E-02 0.  1.
    10030    2    1    2    0    0  0.00000000000E+00  0.00000000000E+00  0.14155301186E+04  0.36807320464E+04  0.33976554977E+04 0.  0.
        4    1    3    3  502    0  0.14276596800E+04  0.53299015006E+03  0.15211346086E+04  0.21531704002E+04  0.12699999809E+01 0. -1.
       -4    1    3    3    0  502 -0.14276596800E+04 -0.53299015006E+03 -0.10560448995E+03  0.15275616463E+04  0.12699999809E+01 0.  1.
</event>
<event>
 5   0  0.1986613E-07  0.3394437E+04  0.7818609E-02  0.8139273E-01
       -2   -1    0    0    0  501  0.00000000000E+00  0.00000000000E+00  0.15555447432E+04  0.15555447432E+04  0.25500000920E-02 0. -1.
        2   -1    0    0  501    0  0.00000000000E+00  0.00000000000E+00 -0.18517957755E+04  0.18517957755E+04  0.25500000920E-02 0.  1.
    10030    2    1    2    0    0  0.00000000000E+00  0.00000000000E+00 -0.29625103237E+03  0.34073405187E+04  0.33944373225E+04 0.  0.
        5    1    3    3  502    0 -0.15142689054E+04 -0.47114476339E+03  0.45877292532E+03  0.16509035080E+04  0.46999998093E+01 0. -1.
       -5    1    3    3    0  502  0.15142689054E+04  0.47114476339E+03 -0.75502395768E+03  0.17564370107E+04  0.46999998093E+01 0.  1.
</event>
<event>
 5   0  0.6311750E-08  0.3391863E+04  0.7818609E-02  0.8139906E-01
        1   -1    0    0  501    0  0.00000000000E+00  0.00000000000E+00  0.17226560241E+04  0.17226560241E+04  0.50400001928E-02 0.  1.
       -1   -1    0    0    0  501  0.00000000000E+00  0.00000000000E+00 -0.16696217166E+04  0.16696217166E+04  0.50400001928E-02 0. -1.
    10030    2    1    2    0    0  0.00000000000E+00  0.00000000000E+00  0.53034307462E+02  0.33922777408E+04  0.33918631506E+04 0.  0.
        4    1    3    3  502    0 -0.79714084721E+03 -0.14771255879E+04  0.26913444444E+03  0.16999319089E+04  0.12699999809E+01 0.  1.
       -4    1    3    3    0  502  0.79714084721E+03  0.14771255879E+04 -0.21610013698E+03  0.16923458319E+04  0.12699999809E+01 0. -1.
</event>
<event>
 5   0  0.1970449E-07  0.3394468E+04  0.7818609E-02  0.8139265E-01
        2   -1    0    0  501    0  0.00000000000E+00  0.00000000000E+00  0.16832055041E+04  0.16832055041E+04  0.25500000920E-02 0. -1.
       -2   -1    0    0    0  501  0.00000000000E+00  0.00000000000E+00 -0.17113797415E+04  0.17113797415E+04  0.25500000920E-02 0.  1.
    10030    2    1    2    0    0  0.00000000000E+00  0.00000000000E+00 -0.28174237443E+02  0.33945852456E+04  0.33944683239E+04 0.  0.
        1    1    3    3  502    0  0.12823715004E+04 -0.44636331908E+03  0.10042244028E+04  0.16888408832E+04  0.50400001928E-02 0. -1.
       -1    1    3    3    0  502 -0.12823715004E+04  0.44636331908E+03 -0.10323986403E+04  0.17057443624E+04  0.50400001928E-02 0.  1.
</event>
<event>
 5   0  0.6341535E-08  0.3414328E+04  0.7818609E-02  0.8134399E-01
       -1   -1    0    0    0  501  0.00000000000E+00  0.00000000000E+00  0.12809876550E+04  0.12809876550E+04  0.50400001928E-02 0.  1.
        1   -1    0    0  501    0  0.00000000000E+00  0.00000000000E+00 -0.22751263242E+04  0.22751263242E+04  0.50400001928E-02 0. -1.
    10030    2    1    2    0    0  0.00000000000E+00  0.00000000000E+00 -0.99413866920E+03  0.35561139793E+04  0.34143278900E+04 0.  0.
        5    1    3    3  502    0  0.11079886082E+03 -0.16161529321E+04  0.63964671845E+02  0.16212156725E+04  0.46999998093E+01 0. -1.
       -5    1    3    3    0  502 -0.11079886082E+03  0.16161529321E+04 -0.10581033410E+04  0.19348983068E+04  0.46999998093E+01 0.  1.
</event>
<event>
 5   0  0.6367111E-08  0.3413883E+04  0.7818609E-02  0.8134507E-01
        1   -1    0    0  501    0  0.00000000000E+00  0.00000000000E+00  0.15688212404E+04  0.15688212404E+04  0.50400001928E-02 0. -1.
       -1   -1    0    0    0  501  0.00000000000E+00  0.00000000000E+00 -0.18572222564E+04  0.18572222564E+04  0.50400001928E-02 0.  1.
    10030    2    1    2    0    0  0.00000000000E+00  0.00000000000E+00 -0.28840101597E+03  0.34260434968E+04  0.34138832575E+04 0.  0.
        3    1    3    3  502    0  0.63987020455E+03 -0.12229615877E+04  0.86365796857E+03  0.16281812001E+04  0.10100000352E+00 0. -1.
       -3    1    3    3    0  502 -0.63987020455E+03  0.12229615877E+04 -0.11520589845E+04  0.17978622966E+04  0.10100000352E+00 0.  1.
</event>
<event>
 5   0  0.6367111E-08  0.3392151E+04  0.7818609E-02  0.8139835E-01
       -1   -1    0    0    0  501  0.00000000000E+00  0.00000000000E+00  0.16067716418E+04  0.16067716418E+04  0.50400001928E-02 0.  1.
        1   -1    0    0  501    0  0.00000000000E+00  0.00000000000E+00 -0.17903430849E+04  0.17903430849E+04  0.50400001928E-02 0. -1.
    10030    2    1    2    0    0  0.00000000000E+00  0.00000000000E+00 -0.18357144305E+03  0.33971147267E+04  0.33921512336E+04 0.  0.
        3    1    3    3  502    0 -0.14732298769E+04  0.15590130587E+03  0.73523192650E+03  0.16538674322E+04  0.10100000352E+00 0.  1.
       -3    1    3    3    0  502  0.14732298769E+04 -0.15590130587E+03 -0.91880336954E+03  0.17432472944E+04  0.10100000352E+00 0. -1.
</event>
<event>
 5   0  0.6584420E-08  0.3399080E+04  0.7818609E-02  0.8138132E-01
        1   -1    0    0  501    0  0.00000000000E+00  0.00000000000E+00  0.17384696778E+04  0.17384696778E+04  0.50400001928E-02 0.  1.
       -1   -1    0    0    0  501  0.00000000000E+00  0.00000000000E+00 -0.16614816079E+04  0.16614816079E+04  0.50400001928E-02 0. -1.
    10030    2    1    2    0    0  0.00000000000E+00  0.00000000000E+00  0.76988069957E+02  0.33999512857E+04  0.33990795198E+04 0.  0.
        1    1    3    3  502    0  0.98164614270E+03 -0.13592095199E+04  0.31669434286E+03  0.17062751757E+04  0.50400001928E-02 0.  1.
       -1    1    3    3    0  502 -0.98164614270E+03  0.13592095199E+04 -0.23970627290E+03  0.16936761100E+04  0.50400001928E-02 0. -1.
</event>
<event>
 5   0  0.1897313E-07  0.3409894E+04  0.7818609E-02  0.8135482E-01
       -2   -1    0    0    0  501  0.00000000000E+00  0.00000000000E+00  0.13823031056E+04  0.13823031056E+04  0.25500000920E-02 0.  1.
        2   -1    0    0  501    0  0.00000000000E+00  0.00000000000E+00 -0.21028996600E+04  0.21028996600E+04  0.25500000920E-02 0. -1.
    10030    2    1    2    0    0  0.00000000000E+00  0.00000000000E+00 -0.72059655442E+03  0.34852027656E+04  0.34098942686E+04 0.  0.
        3    1    3    3  502    0  0.14207809340E+04  0.81894674719E+03  0.11642807537E+03  0.16440339851E+04  0.10100000352E+00 0. -1.
       -3    1    3    3    0  502 -0.14207809340E+04 -0.81894674719E+03 -0.83702462979E+03  0.18411687805E+04  0.10100000352E+00 0.  1.
</event>
<event>
 5   0  0.6311750E-08  0.3390871E+04  0.7818609E-02  0.8140151E-01
        3   -1    0    0  501    0  0.00000000000E+00  0.00000000000E+00  0.18656493810E+04  0.18656493837E+04  0.10100000352E+00 0.  1.
       -3   -1    0    0    0  501  0.00000000000E+00  0.00000000000E+00 -0.15407509000E+04  0.15407509033E+04  0.10100000352E+00 0. -1.
    10030    2    1    2    0    0  0.00000000000E+00  0.00000000000E+00  0.32489848103E+03  0.34064002870E+04  0.33908706687E+04 0.  0.
        1    1    3    3  502    0 -0.99544238263E+03 -0.11407288143E+02  0.15411285813E+04  0.18346969688E+04  0.50400001928E-02 0.  1.
       -1    1    3    3    0  502  0.99544238263E+03  0.11407288143E+02 -0.12162301003E+04  0.15717033181E+04  0.50400001928E-02 0. -1.
</event>
<event>
 5   0  0.1897313E-07  0.3402370E+04  0.7818609E-02  0.8137325E-01
       -2   -1    0    0    0  501  0.00000000000E+00  0.00000000000E+00  0.17028497195E+04  0.17028497195E+04  0.25500000920E-02 0.  1.
        2   -1    0    0  501    0  0.00000000000E+00  0.00000000000E+00 -0.16995215835E+04  0.16995215835E+04  0.25500000920E-02 0. -1.
    10030    2    1    2    0    0  0.00000000000E+00  0.00000000000E+00  0.33281360207E+01  0.34023713030E+04  0.34023696752E+04 0.  0.
        3    1    3    3  502    0  0.14623915347E+04 -0.79695771278E+02  0.86716400536E+03  0.17020322673E+04  0.10100000352E+00 0.  1.
       -3    1    3    3    0  502 -0.14623915347E+04  0.79695771278E+02 -0.86383586934E+03  0.17003390356E+04  0.10100000352E+00 0. -1.
</event>
<event>
 5   0  0.1986613E-07  0.3400128E+04  0.7818609E-02  0.8137875E-01
       -2   -1    0    0    0  501  0.00000000000E+00  0.00000000000E+00  0.14652952607E+04  0.14652952607E+04  0.25500000920E-02 0. -1.
        2   -1    0    0  501    0  0.00000000000E+00  0.00000000000E+00 -0.19724477236E+04  0.19724477236E+04  0.25500000920E-02 0.  1.
    10030    2    1    2    0    0  0.00000000000E+00  0.00000000000E+00 -0.50715246294E+03  0.34377429843E+04  0.34001284101E+04 0.  0.
        5    1    3    3  502    0  0.44284447489E+03  0.99816268010E+02  0.14028770310E+04  0.14745034996E+04  0.46999998093E+01 0. -1.
       -5    1    3    3    0  502 -0.44284447489E+03 -0.99816268010E+02 -0.19100294940E+04  0.19632394847E+04  0.46999998093E+01 0.  1.
</event>
<event>
 5   0  0.6788600E-08  0.3391505E+04  0.7818609E-02  0.8139994E-01
        1   -1    0    0  501    0  0.00000000000E+00  0.00000000000E+00  0.26790467632E+04  0.26790467632E+04  0.50400001928E-02 0.  1.
       -1   -1    0    0    0  501  0.00000000000E+00  0.00000000000E+00 -0.10733579677E+04  0.10733579677E+04  0.50400001928E-02 0. -1.
    10030    2    1    2    0    0  0.00000000000E+00  0.00000000000E+00  0.16056887955E+04  0.37524047310E+04  0.33915047924E+04 0.  0.
        2    1    3    3  502    0 -0.86868369170E+03 -0.71516500975E+02  0.24122284762E+04  0.25648727429E+04  0.25500000920E-02 0.  1.
       -2    1    3    3    0  502  0.86868369170E+03  0.71516500975E+02 -0.80653968068E+03  0.11875319881E+04  0.25500000920E-02 0. -1.
</event>
<event>
 5   0  0.6311750E-08  0.3397417E+04  0.7818609E-02  0.8138540E-01
        1   -1    0    0  501    0  0.00000000000E+00  0.00000000000E+00  0.15560609314E+04  0.15560609314E+04  0.50400001928E-02 0. -1.
       -1   -1    0    0    0  501  0.00000000000E+00  0.00000000000E+00 -0.18544331599E+04  0.18544331599E+04  0.50400001928E-02 0.  1.
    10030    2    1    2    0    0  0.00000000000E+00  0.00000000000E+00 -0.29837222846E+03  0.34104940913E+04  0.33974172484E+04 0.  0.
        4    1    3    3  502    0  0.13565046034E+04 -0.80528060516E+03  0.48334058860E+03  0.16499094914E+04  0.12699999809E+01 0. -1.
       -4    1    3    3    0  502 -0.13565046034E+04  0.80528060516E+03 -0.78171281706E+03  0.17605845999E+04  0.12699999809E+01 0.  1.
</event>
<event>
 5   0  0.1928004E-07  0.3398159E+04  0.7818609E-02  0.8138358E-01
        2   -1    0    0  501    0  0.00000000000E+00  0.00000000000E+00  0.14473828118E+04  0.14473828118E+04  0.25500000920E-02 0.  1.
       -2   -1    0    0    0  501  0.00000000000E+00  0.00000000000E+00 -0.19945459902E+04  0.19945459902E+04  0.25500000920E-02 0. -1.
    10030    2    1    2    0    0  0.00000000000E+00  0.00000000000E+00 -0.54716317841E+03  0.34419288021E+04  0.33981592568E+04 0.  0.
        2    1    3    3  502    0 -0.14643263627E+04 -0.16567925231E+02 -0.11462739257E+04  0.18596962401E+04  0.25500000920E-02 0. -1.
       -2    1    3    3    0  502  0.14643263627E+04  0.16567925231E+02  0.59911074733E+03  0.15822325620E+04  0.25500000920E-02 0.  1.
</event>
<event>
 5   0  0.1897313E-07  0.3401245E+04  0.7818609E-02  0.8137601E-01
       -2   -1    0    0    0  501  0.00000000000E+00  0.00000000000E+00  0.90028035630E+03  0.90028035631E+03  0.25500000920E-02 0. -1.
        2   -1    0    0  501    0  0.00000000000E+00  0.00000000000E+00 -0.32124626504E+04  0.32124626504E+04  0.25500000920E-02 0.  1.
    10030    2    1    2    0    0  0.00000000000E+00  0.00000000000E+00 -0.23121822941E+04  0.41127430067E+04  0.34012450776E+04 0.  0.
        3    1    3    3  502    0  0.10123310211E+04  0.11281425604E+04 -0.20884972426E+04  0.25805697967E+04  0.10100000352E+00 0.  1.
       -3    1    3    3    0  502 -0.10123310211E+04 -0.11281425604E+04 -0.22368505149E+03  0.15321732100E+04  0.10100000352E+00 0. -1.
</event>
<event>
 5   0  0.6584420E-08  0.3389922E+04  0.7818609E-02  0.8140384E-01
       -1   -1    0    0    0  501  0.00000000000E+00  0.00000000000E+00  0.18731199212E+04  0.18731199212E+04  0.50400001928E-02 0. -1.
        1   -1    0    0  501    0  0.00000000000E+00  0.00000000000E+00 -0.15337474943E+04  0.15337474943E+04  0.50400001928E-02 0.  1.
    10030    2    1    2    0    0  0.00000000000E+00  0.00000000000E+00  0.33937242697E+03  0.34068674155E+04  0.33899221145E+04 0.  0.
        1    1    3    3  502    0 -0.26150771287E+03 -0.13289613887E+03  0.18474157272E+04  0.18705594181E+04  0.50400001928E-02 0. -1.
       -1    1    3    3    0  502  0.26150771287E+03  0.13289613887E+03 -0.15080433002E+04  0.15363079974E+04  0.50400001928E-02 0.  1.
</event>
<event>
 5   0  0.1986613E-07  0.3400643E+04  0.7818609E-02  0.8137749E-01
       -2   -1    0    0    0  501  0.00000000000E+00  0.00000000000E+00  0.15094208209E+04  0.15094208209E+04  0.25500000920E-02 0. -1.
        2   -1    0    0  501    0  0.00000000000E+00  0.00000000000E+00 -0.19153658211E+04  0.19153658211E+04  0.25500000920E-02 0.  1.
    10030    2    1    2    0    0  0.00000000000E+00  0.00000000000E+00 -0.40594500012E+03  0.34247866420E+04  0.34006429098E+04 0.  0.
        5    1    3    3  502    0 -0.61725228995E+03  0.38920517675E+03 -0.17496462249E+04  0.18957228335E+04  0.46999998093E+01 0.  1.
       -5    1    3    3    0  502  0.61725228995E+03 -0.38920517675E+03  0.13437012248E+04  0.15290638085E+04  0.46999998093E+01 0. -1.
</event>
<event>
 5   0  0.6311750E-08  0.3466056E+04  0.7818609E-02  0.8121882E-01
        1   -1    0    0  501    0  0.00000000000E+00  0.00000000000E+00  0.25206534090E+04  0.25206534090E+04  0.50400001928E-02 0.  1.
       -1   -1    0    0    0  501  0.00000000000E+00  0.00000000000E+00 -0.11915106506E+04  0.11915106506E+04  0.50400001928E-02 0. -1.
    10030    2    1    2    0    0  0.00000000000E+00  0.00000000000E+00  0.13291427584E+04  0.37121640595E+04  0.34660556159E+04 0.  0.
        4    1    3    3  502    0  0.14894002974E+03  0.14498153154E+04  0.16688273261E+04  0.22156565254E+04  0.12699999809E+01 0.  1.
       -4    1    3    3    0  502 -0.14894002974E+03 -0.14498153154E+04 -0.33968456770E+03  0.14965075341E+04  0.12699999809E+01 0. -1.
</event>
<event>
 5   0  0.6341535E-08  0.3402275E+04  0.7818609E-02  0.8137348E-01
       -1   -1    0    0    0  501  0.00000000000E+00  0.00000000000E+00  0.15619903551E+04  0.15619903551E+04  0.50400001928E-02 0.  1.
        1   -1    0    0  501    0  0.00000000000E+00  0.00000000000E+00 -0.18526808435E+04  0.18526808435E+04  0.50400001928E-02 0. -1.
    10030    2    1    2    0    0  0.00000000000E+00  0.00000000000E+00 -0.29069048842E+03  0.34146711986E+04  0.34022754789E+04 0.  0.
        5    1    3    3  502    0 -0.49989490733E+03  0.59963890307E+03  0.13715798680E+04  0.15781999736E+04  0.46999998093E+01 0.  1.
       -5    1    3    3    0  502  0.49989490733E+03 -0.59963890307E+03 -0.16622703564E+04  0.18364712250E+04  0.46999998093E+01 0. -1.
</event>
<event>
 5   0  0.1928004E-07  0.3405797E+04  0.7818609E-02  0.8136485E-01
        2   -1    0    0  501    0  0.00000000000E+00  0.00000000000E+00  0.18600903980E+04  0.18600903980E+04  0.25500000920E-02 0.  1.
       -2   -1    0    0    0  501  0.00000000000E+00  0.00000000000E+00 -0.15589904410E+04  0.15589904410E+04  0.25500000920E-02 0. -1.
    10030    2    1    2    0    0  0.00000000000E+00  0.00000000000E+00  0.30109995697E+03  0.34190808391E+04  0.34057969111E+04 0.  0.
        2    1    3    3  502    0 -0.83098126203E+03  0.12154311512E+04  0.10094924587E+04  0.17851828381E+04  0.25500000920E-02 0.  1.
       -2    1    3    3    0  502  0.83098126203E+03 -0.12154311512E+04 -0.70839250172E+03  0.16338980010E+04  0.25500000920E-02 0. -1.
</event>
<event>
 5   0  0.6584420E-08  0.3398520E+04  0.7818609E-02  0.8138270E-01
        1   -1    0    0  501    0  0.00000000000E+00  0.00000000000E+00  0.17823944004E+04  0.17823944004E+04  0.50400001928E-02 0. -1.
       -1   -1    0    0    0  501  0.00000000000E+00  0.00000000000E+00 -0.16200028576E+04  0.16200028576E+04  0.50400001928E-02 0.  1.
    10030    2    1    2    0    0  0.00000000000E+00  0.00000000000E+00  0.16239154283E+03  0.34023972580E+04  0.33985196906E+04 0.  0.
        1    1    3    3  502    0 -0.65127866627E+03 -0.13303711944E+04 -0.75248034262E+03  0.16614084634E+04  0.50400001928E-02 0.  1.
       -1    1    3    3    0  502  0.65127866627E+03  0.13303711944E+04  0.91487188546E+03  0.17409887946E+04  0.50400001928E-02 0. -1.
</event>
<event>
 5   0  0.6788600E-08  0.3396842E+04  0.7818609E-02  0.8138682E-01
        1   -1    0    0  501    0  0.00000000000E+00  0.00000000000E+00  0.18024460988E+04  0.18024460988E+04  0.50400001928E-02 0. -1.
       -1   -1    0    0    0  501  0.00000000000E+00  0.00000000000E+00 -0.16003995225E+04  0.16003995225E+04  0.50400001928E-02 0.  1.
    10030    2    1    2    0    0  0.00000000000E+00  0.00000000000E+00  0.20204657630E+03  0.34028456213E+04  0.33968419898E+04 0.  0.
        2    1    3    3  502    0 -0.22998497415E+03  0.13388089031E+04 -0.92025464488E+03  0.16407836478E+04  0.25500000920E-02 0.  1.
       -2    1    3    3    0  502  0.22998497415E+03 -0.13388089031E+04  0.11223012212E+04  0.17620619735E+04  0.25500000920E-02 0. -1.
</event>
<event>
 5   0  0.1986613E-07  0.3404726E+04  0.7818609E-02  0.8136747E-01
       -2   -1    0    0    0  501  0.00000000000E+00  0.00000000000E+00  0.11931058868E+04  0.11931058868E+04  0.25500000920E-02 0.  1.
        2   -1    0    0  501    0  0.00000000000E+00  0.00000000000E+00 -0.24289881039E+04  0.24289881039E+04  0.25500000920E-02 0. -1.
    10030    2    1    2    0    0  0.00000000000E+00  0.00000000000E+00 -0.12358822172E+04  0.36220939907E+04  0.34047261304E+04 0.  0.
        5    1    3    3  502    0  0.10964332382E+04 -0.11572880138E+04 -0.12531689789E+04  0.20277909094E+04  0.46999998093E+01 0. -1.
       -5    1    3    3    0  502 -0.10964332382E+04  0.11572880138E+04  0.17286761729E+02  0.15943030813E+04  0.46999998093E+01 0.  1.
</event>
<event>
 5   0  0.1963852E-07  0.3402279E+04  0.7818609E-02  0.8137347E-01
       -2   -1    0    0    0  501  0.00000000000E+00  0.00000000000E+00  0.14829664492E+04  0.14829664492E+04  0.25500000920E-02 0. -1.
        2   -1    0    0  501    0  0.00000000000E+00  0.00000000000E+00 -0.19514102807E+04  0.19514102807E+04  0.25500000920E-02 0.  1.
    10030    2    1    2    0    0  0.00000000000E+00  0.00000000000E+00 -0.46844383146E+03  0.34343767299E+04  0.34022792213E+04 0.  0.
        4    1    3    3  502    0 -0.81897636000E+03  0.12893364303E+04 -0.99012811721E+03  0.18202928363E+04  0.12699999809E+01 0. -1.
       -4    1    3    3    0  502  0.81897636000E+03 -0.12893364303E+04  0.52168428575E+03  0.16140838936E+04  0.12699999809E+01 0.  1.
</event>
<event>
 5   0  0.6788600E-08  0.3399417E+04  0.7818609E-02  0.8138050E-01
        1   -1    0    0  501    0  0.00000000000E+00  0.00000000000E+00  0.23131795477E+04  0.23131795478E+04  0.50400001928E-02 0.  1.
       -1   -1    0    0    0  501  0.00000000000E+00  0.00000000000E+00 -0.12489338984E+04  0.12489338984E+04  0.50400001928E-02 0. -1.
    10030    2    1    2    0    0  0.00000000000E+00  0.00000000000E+00  0.10642456493E+04  0.35621134462E+04  0.33994166266E+04 0.  0.
        2    1    3    3  502    0  0.15586967924E+04  0.51628652666E+03  0.99237195009E+03  0.19185644518E+04  0.25500000920E-02 0.  1.
       -2    1    3    3    0  502 -0.15586967924E+04 -0.51628652666E+03  0.71873699218E+02  0.16435489944E+04  0.25500000920E-02 0. -1.
</event>
<event>
 5   0  0.6367111E-08  0.3406057E+04  0.7818609E-02  0.8136421E-01
        1   -1    0    0  501    0  0.00000000000E+00  0.00000000000E+00  0.23041128637E+04  0.23041128637E+04  0.50400001928E-02 0. -1.
       -1   -1    0    0    0  501  0.00000000000E+00  0.00000000000E+00 -0.12587518856E+04  0.12587518856E+04  0.50400001928E-02 0.  1.
    10030    2    1    2    0    0  0.00000000000E+00  0.00000000000E+00  0.10453609781E+04  0.35628647492E+04  0.34060571996E+04 0.  0.
        3    1    3    3  502    0 -0.39130053941E+03  0.16364563503E+04  0.79785188070E+03  0.18621689322E+04  0.10100000352E+00 0.  1.
       -3    1    3    3    0  502  0.39130053941E+03 -0.16364563503E+04  0.24750909740E+03  0.17006958170E+04  0.10100000352E+00 0. -1.
</event>
<event>
 5   0  0.6788600E-08  0.3400369E+04  0.7818609E-02  0.8137816E-01
       -1   -1    0    0    0  501  0.00000000000E+00  0.00000000000E+00  0.16286048097E+04  0.16286048097E+04  0.50400001928E-02 0. -1.
        1   -1    0    0  501    0  0.00000000000E+00  0.00000000000E+00 -0.17749106261E+04  0.17749106261E+04  0.50400001928E-02 0.  1.
    10030    2    1    2    0    0  0.00000000000E+00  0.00000000000E+00 -0.14630581640E+03  0.34035154359E+04  0.34003693815E+04 0.  0.
        2    1    3    3  502    0  0.53601060269E+03  0.15603184483E+04  0.33799100368E+03  0.16840840077E+04  0.25500000920E-02 0. -1.
       -2    1    3    3    0  502 -0.53601060269E+03 -0.15603184483E+04 -0.48429682008E+03  0.17194314282E+04  0.25500000920E-02 0.  1.
</event>
<event>
 5   0  0.1897313E-07  0.3401702E+04  0.7818609E-02  0.8137489E-01
       -2   -1    0    0    0  501  0.00000000000E+00  0.00000000000E+00  0.10985311664E+04  0.10985311664E+04  0.25500000920E-02 0. -1.
        2   -1    0    0  501    0  0.00000000000E+00  0.00000000000E+00 -0.26334207468E+04  0.26334207468E+04  0.25500000920E-02 0.  1.
    10030    2    1    2    0    0  0.00000000000E+00  0.00000000000E+00 -0.15348895804E+04  0.37319519133E+04  0.34017023766E+04 0.  0.
        3    1    3    3  502    0 -0.72526966437E+03  0.95926403995E+03  0.55211064876E+03  0.13232648121E+04  0.10100000352E+00 0. -1.
       -3    1    3    3    0  502  0.72526966437E+03 -0.95926403995E+03 -0.20870002292E+04  0.24086871011E+04  0.10100000352E+00 0.  1.
</event>
<event>
 5   0  0.6341535E-08  0.3414943E+04  0.7818609E-02  0.8134248E-01
        1   -1    0    0  501    0  0.00000000000E+00  0.00000000000E+00  0.25741906960E+04  0.25741906960E+04  0.50400001928E-02 0.  1.
       -1   -1    0    0    0  501  0.00000000000E+00  0.00000000000E+00 -0.11325731746E+04  0.11325731746E+04  0.50400001928E-02 0. -1.
    10030    2    1    2    0    0  0.00000000000E+00  0.00000000000E+00  0.14416175214E+04  0.37067638706E+04  0.34149432374E+04 0.  0.
        5    1    3    3  502    0 -0.12876420972E+04  0.10495186157E+04  0.29219082156E+03  0.16866858218E+04  0.46999998093E+01 0. -1.
       -5    1    3    3    0  502  0.12876420972E+04 -0.10495186157E+04  0.11494266998E+04  0.20200780489E+04  0.46999998093E+01 0.  1.
</event>
<event>
 5   0  0.6311750E-08  0.3380723E+04  0.7818609E-02  0.8142654E-01
        1   -1    0    0  501    0  0.00000000000E+00  0.00000000000E+00  0.20382298948E+04  0.20382298948E+04  0.50400001928E-02 0.  1.
       -1   -1    0    0    0  501  0.00000000000E+00  0.00000000000E+00 -0.14018647577E+04  0.14018647577E+04  0.50400001928E-02 0. -1.
    10030    2    1    2    0    0  0.00000000000E+00  0.00000000000E+00  0.63636513710E+03  0.34400946525E+04  0.33807233886E+04 0.  0.
        4    1    3    3  502    0  0.92502348161E+02 -0.32689695842E+03  0.20031316324E+04  0.20317372506E+04  0.12699999809E+01 0.  1.
       -4    1    3    3    0  502 -0.92502348161E+02  0.32689695842E+03 -0.13667664953E+04  0.14083574019E+04  0.12699999809E+01 0. -1.
</event>
<event>
 5   0  0.6367111E-08  0.3404736E+04  0.7818609E-02  0.8136745E-01
        1   -1    0    0  501    0  0.00000000000E+00  0.00000000000E+00  0.17293346793E+04  0.17293346793E+04  0.50400001928E-02 0. -1.
       -1   -1    0    0    0  501  0.00000000000E+00  0.00000000000E+00 -0.16758218830E+04  0.16758218830E+04  0.50400001928E-02 0.  1.
    10030    2    1    2    0    0  0.00000000000E+00  0.00000000000E+00  0.53512796321E+02  0.34051565624E+04  0.34047360536E+04 0.  0.
        3    1    3    3  502    0 -0.32565777772E+03  0.39599356909E+03 -0.15967718472E+04  0.16770641720E+04  0.10100000352E+00 0.  1.
       -3    1    3    3    0  502  0.32565777772E+03 -0.39599356909E+03  0.16502846435E+04  0.17280923904E+04  0.10100000352E+00 0. -1.
</event>
<event>
 5   0  0.1970449E-07  0.3398849E+04  0.7818609E-02  0.8138189E-01
       -2   -1    0    0    0  501  0.00000000000E+00  0.00000000000E+00  0.12979660777E+04  0.12979660777E+04  0.25500000920E-02 0.  1.
        2   -1    0    0  501    0  0.00000000000E+00  0.00000000000E+00 -0.22250535432E+04  0.22250535432E+04  0.25500000920E-02 0. -1.
    10030    2    1    2    0    0  0.00000000000E+00  0.00000000000E+00 -0.92708746554E+03  0.35230196209E+04  0.33988492289E+04 0.  0.
        1    1    3    3  502    0  0.13003892976E+04  0.96306145798E+03  0.74599962499E+02  0.16198965559E+04  0.50400001928E-02 0.  1.
       -1    1    3    3    0  502 -0.13003892976E+04 -0.96306145798E+03 -0.10016874280E+04  0.19031230651E+04  0.50400001928E-02 0. -1.
</event>
<event>
 5   0  0.6584420E-08  0.3392313E+04  0.7818609E-02  0.8139795E-01
        1   -1    0    0  501    0  0.00000000000E+00  0.00000000000E+00  0.27179471261E+04  0.27179471261E+04  0.50400001928E-02 0. -1.
       -1   -1    0    0    0  501  0.00000000000E+00  0.00000000000E+00 -0.10585000933E+04  0.10585000934E+04  0.50400001928E-02 0.  1.
    10030    2    1    2    0    0  0.00000000000E+00  0.00000000000E+00  0.16594470327E+04  0.37764472194E+04  0.33923132442E+04 0.  0.
        1    1    3    3  502    0  0.12697871520E+04 -0.66210764662E+03  0.18416067938E+04  0.23328655191E+04  0.50400001928E-02 0. -1.
       -1    1    3    3    0  502 -0.12697871520E+04  0.66210764662E+03 -0.18215976109E+03  0.14435817004E+04  0.50400001928E-02 0.  1.
</event>
<event>
 5   0  0.1897313E-07  0.3401606E+04  0.7818609E-02  0.8137512E-01
        2   -1    0    0  501    0  0.00000000000E+00  0.00000000000E+00  0.14084238764E+04  0.14084238764E+04  0.25500000920E-02 0.  1.
       -2   -1    0    0    0  501  0.00000000000E+00  0.00000000000E+00 -0.20538776843E+04  0.20538776843E+04  0.25500000920E-02 0. -1.
    10030    2    1    2    0    0  0.00000000000E+00  0.00000000000E+00 -0.64545380795E+03  0.34623015607E+04  0.34016057207E+04 0.  0.
        3    1    3    3  502    0  0.71667038917E+03 -0.30198373255E+03 -0.18623035364E+04  0.20181637925E+04  0.10100000352E+00 0. -1.
       -3    1    3    3    0  502 -0.71667038917E+03  0.30198373255E+03  0.12168497285E+04  0.14441377681E+04  0.10100000352E+00 0.  1.
</event>
<event>
 5   0  0.1897313E-07  0.3398170E+04  0.7818609E-02  0.8138356E-01
        2   -1    0    0  501    0  0.00000000000E+00  0.00000000000E+00  0.23290401966E+04  0.23290401966E+04  0.25500000920E-02 0.  1.
       -2   -1    0    0    0  501  0.00000000000E+00  0.00000000000E+00 -0.12395187669E+04  0.12395187669E+04  0.25500000920E-02 0. -1.
    10030    2    1    2    0    0  0.00000000000E+00  0.00000000000E+00  0.10895214297E+04  0.35685589635E+04  0.33981695264E+04 0.  0.
        3    1    3    3  502    0  0.16698819104E+03 -0.11081453898E+04  0.18859101817E+04  0.21937475890E+04  0.10100000352E+00 0.  1.
       -3    1    3    3    0  502 -0.16698819104E+03  0.11081453898E+04 -0.79638875197E+03  0.13748113744E+04  0.10100000352E+00 0. -1.
</event>
<event>
 5   0  0.1963852E-07  0.3399732E+04  0.7818609E-02  0.8137972E-01
        2   -1    0    0  501    0  0.00000000000E+00  0.00000000000E+00  0.26545733939E+04  0.26545733939E+04  0.25500000920E-02 0.  1.
       -2   -1    0    0    0  501  0.00000000000E+00  0.00000000000E+00 -0.10885153241E+04  0.10885153241E+04  0.25500000920E-02 0. -1.
    10030    2    1    2    0    0  0.00000000000E+00  0.00000000000E+00  0.15660580698E+04  0.37430887180E+04  0.33997316472E+04 0.  0.
        4    1    3    3  502    0  0.92786830632E+03 -0.53165746532E+03  0.22378197054E+04  0.24802092454E+04  0.12699999809E+01 0.  1.
       -4    1    3    3    0  502 -0.92786830632E+03  0.53165746532E+03 -0.67176163565E+03  0.12628794726E+04  0.12699999809E+01 0. -1.
</event>
<event>
 5   0  0.6367111E-08  0.3395972E+04  0.7818609E-02  0.8138896E-01
       -1   -1    0    0    0  501  0.00000000000E+00  0.00000000000E+00  0.10618207050E+04  0.10618207050E+04  0.50400001928E-02 0. -1.
        1   -1    0    0  501    0  0.00000000000E+00  0.00000000000E+00 -0.27152950553E+04  0.27152950553E+04  0.50400001928E-02 0.  1.
    10030    2    1    2    0    0  0.00000000000E+00  0.00000000000E+00 -0.16534743502E+04  0.37771157603E+04  0.33959720316E+04 0.  0.
        3    1    3    3  502    0 -0.58050248346E+01 -0.36761248960E+03  0.10170181136E+04  0.10814335367E+04  0.10100000352E+00 0. -1.
       -3    1    3    3    0  502  0.58050248346E+01  0.36761248960E+03 -0.26704924638E+04  0.26956822235E+04  0.10100000352E+00 0.  1.
</event>
<event>
 5   0  0.1963852E-07  0.3396976E+04  0.7818609E-02  0.8138649E-01
       -2   -1    0    0    0  501  0.00000000000E+00  0.00000000000E+00  0.11595930809E+04  0.11595930809E+04  0.25500000920E-02 0. -1.
        2   -1    0    0  501    0  0.00000000000E+00  0.00000000000E+00 -0.24878222390E+04  0.24878222390E+04  0.25500000920E-02 0.  1.
    10030    2    1    2    0    0  0.00000000000E+00  0.00000000000E+00 -0.13282291581E+04  0.36474153199E+04  0.33969759816E+04 0.  0.
        4    1    3    3  502    0 -0.70575502333E+03  0.82580046628E+03 -0.20660642569E+04  0.23342364254E+04  0.12699999809E+01 0.  1.
       -4    1    3    3    0  502  0.70575502333E+03 -0.82580046628E+03  0.73783509883E+03  0.13131788945E+04  0.12699999809E+01 0. -1.
</event>
<event>
 5   0  0.6341535E-08  0.3400683E+04  0.7818609E-02  0.8137739E-01
        1   -1    0    0  501    0  0.00000000000E+00  0.00000000000E+00  0.19121418193E+04  0.19121418193E+04  0.50400001928E-02 0. -1.
       -1   -1    0    0    0  501  0.00000000000E+00  0.00000000000E+00 -0.15120012657E+04  0.15120012657E+04  0.50400001928E-02 0.  1.
    10030    2    1    2    0    0  0.00000000000E+00  0.00000000000E+00  0.40014055362E+03  0.34241430850E+04  0.34006827850E+04 0.  0.
        5    1    3    3  502    0 -0.12137023435E+03 -0.99145289696E+02  0.19048476840E+04  0.19112894369E+04  0.46999998093E+01 0. -1.
       -5    1    3    3    0  502  0.12137023435E+03  0.99145289696E+02 -0.15047071304E+04  0.15128536481E+04  0.46999998093E+01 0.  1.
</event>
<event>
 5   0  0.1970449E-07  0.3389768E+04  0.7818609E-02  0.8140422E-01
       -2   -1    0    0    0  501  0.00000000000E+00  0.00000000000E+00  0.17088749818E+04  0.17088749818E+04  0.25500000920E-02 0.  1.
        2   -1    0    0  501    0  0.00000000000E+00  0.00000000000E+00 -0.16810080366E+04  0.16810080366E+04  0.25500000920E-02 0. -1.
    10030    2    1    2    0    0  0.00000000000E+00  0.00000000000E+00  0.27866945238E+02  0.33898830184E+04  0.33897684746E+04 0.  0.
        1    1    3    3  502    0  0.28620391682E+03  0.63612819256E+03  0.15586736048E+04  0.17076402331E+04  0.50400001928E-02 0.  1.
       -1    1    3    3    0  502 -0.28620391682E+03 -0.63612819256E+03 -0.15308066596E+04  0.16822427852E+04  0.50400001928E-02 0. -1.
</event>
<event>
 5   0  0.6788600E-08  0.3419449E+04  0.7818609E-02  0.8133149E-01
        1   -1    0    0  501    0  0.00000000000E+00  0.00000000000E+00  0.14259739940E+04  0.14259739941E+04  0.50400001928E-02 0.  1.
       -1   -1    0    0    0  501  0.00000000000E+00  0.00000000000E+00 -0.20499376245E+04  0.20499376245E+04  0.50400001928E-02 0. -1.
    10030    2    1    2    0    0  0.00000000000E+00  0.00000000000E+00 -0.62396363049E+03  0.34759116186E+04  0.34194489275E+04 0.  0.
        2    1    3    3  502    0  0.11496921024E+04 -0.27435435662E+03  0.94376897264E+03  0.15125349970E+04  0.25500000920E-02 0.  1.
       -2    1    3    3    0  502 -0.11496921024E+04  0.27435435662E+03 -0.15677326031E+04  0.19633766216E+04  0.25500000920E-02 0. -1.
</event>
<event>
 5   0  0.1986613E-07  0.3397872E+04  0.7818609E-02  0.8138429E-01
       -2   -1    0    0    0  501  0.00000000000E+00  0.00000000000E+00  0.27131908426E+04  0.27131908426E+04  0.25500000920E-02 0.  1.
        2   -1    0    0  501    0  0.00000000000E+00  0.00000000000E+00 -0.10638337520E+04  0.10638337520E+04  0.25500000920E-02 0. -1.
    10030    2    1    2    0    0  0.00000000000E+00  0.00000000000E+00  0.16493570906E+04  0.37770245946E+04  0.33978722719E+04 0.  0.
        5    1    3    3  502    0  0.16818916138E+04 -0.23290740650E+03  0.76027713453E+03  0.18603893871E+04  0.46999998093E+01 0.  1.
       -5    1    3    3    0  502 -0.16818916138E+04  0.23290740650E+03  0.88907995604E+03  0.19166352075E+04  0.46999998093E+01 0. -1.
</event>
<event>
 5   0  0.6367111E-08  0.3389458E+04  0.7818609E-02  0.8140499E-01
       -1   -1    0    0    0  501  0.00000000000E+00  0.00000000000E+00  0.11625259121E+04  0.11625259121E+04  0.50400001928E-02 0. -1.
        1   -1    0    0  501    0  0.00000000000E+00  0.00000000000E+00 -0.24705741229E+04  0.24705741229E+04  0.50400001928E-02 0.  1.
    10030    2    1    2    0    0  0.00000000000E+00  0.00000000000E+00 -0.13080482108E+04  0.36331000351E+04  0.33894580309E+04 0.  0.
        3    1    3    3  502    0  0.12407949713E+04 -0.21292581209E+03 -0.18701249265E+04  0.22543905636E+04  0.10100000352E+00 0.  1.
       -3    1    3    3    0  502 -0.12407949713E+04  0.21292581209E+03  0.56207671565E+03  0.13787094715E+04  0.10100000352E+00 0. -1.
</event>
<event>
 5   0  0.6367111E-08  0.3395563E+04  0.7818609E-02  0.8138996E-01
       -1   -1    0    0    0  501  0.00000000000E+00  0.00000000000E+00  0.32857866750E+04  0.32857866750E+04  0.50400001928E-02 0.  1.
        1   -1    0    0  501    0  0.00000000000E+00  0.00000000000E+00 -0.87725172707E+03  0.87725172708E+03  0.50400001928E-02 0. -1.
    10030    2    1    2    0    0  0.00000000000E+00  0.00000000000E+00  0.24085349479E+04  0.41630384021E+04  0.33955630081E+04 0.  0.
        3    1    3    3  502    0  0.50209598872E+03  0.15032652913E+04  0.19505873795E+04  0.25133042103E+04  0.10100000352E+00 0.  1.
       -3    1    3    3    0  502 -0.50209598872E+03 -0.15032652913E+04  0.45794756840E+03  0.16497341918E+04  0.10100000352E+00 0. -1.
</event>
<event>
 5   0  0.6311750E-08  0.3401079E+04  0.7818609E-02  0.8137642E-01
        3   -1    0    0  501    0  0.00000000000E+00  0.00000000000E+00  0.18821990177E+04  0.18821990204E+04  0.10100000352E+00 0.  1.
       -3   -1    0    0    0  501  0.00000000000E+00  0.00000000000E+00 -0.15364128492E+04  0.15364128526E+04  0.10100000352E+00 0. -1.
    10030    2    1    2    0    0  0.00000000000E+00  0.00000000000E+00  0.34578616843E+03  0.34186118729E+04  0.34010791028E+04 0.  0.
        3    1    3    3  502    0 -0.37165487708E+03 -0.89115597320E+03  0.15799480572E+04  0.18516269036E+04  0.10100000352E+00 0.  1.
       -3    1    3    3    0  502  0.37165487708E+03  0.89115597320E+03 -0.12341618888E+04  0.15669849694E+04  0.10100000352E+00 0. -1.
</event>
<event>
 5   0  0.6367111E-08  0.3399023E+04  0.7818609E-02  0.8138146E-01
        1   -1    0    0  501    0  0.00000000000E+00  0.00000000000E+00  0.11299903795E+04  0.11299903795E+04  0.50400001928E-02 0. -1.
       -1   -1    0    0    0  501  0.00000000000E+00  0.00000000000E+00 -0.25560749364E+04  0.25560749364E+04  0.50400001928E-02 0.  1.
    10030    2    1    2    0    0  0.00000000000E+00  0.00000000000E+00 -0.14260845569E+04  0.36860653159E+04  0.33990234406E+04 0.  0.
        3    1    3    3  502    0  0.43339802742E+03  0.10797548585E+04 -0.20564613566E+04  0.23627817770E+04  0.10100000352E+00 0.  1.
       -3    1    3    3    0  502 -0.43339802742E+03 -0.10797548585E+04  0.63037679960E+03  0.13232835389E+04  0.10100000352E+00 0. -1.
</event>
<event>
 5   0  0.6788600E-08  0.3400848E+04  0.7818609E-02  0.8137698E-01
        1   -1    0    0  501    0  0.00000000000E+00  0.00000000000E+00  0.20646829671E+04  0.20646829671E+04  0.50400001928E-02 0.  1.
       -1   -1    0    0    0  501  0.00000000000E+00  0.00000000000E+00 -0.14004287762E+04  0.14004287762E+04  0.50400001928E-02 0. -1.
    10030    2    1    2    0    0  0.00000000000E+00  0.00000000000E+00  0.66425419094E+03  0.34651117434E+04  0.34008478007E+04 0.  0.
        2    1    3    3  502    0  0.14074920042E+04  0.82197278057E+03  0.82581207240E+03  0.18271941804E+04  0.25500000920E-02 0.  1.
       -2    1    3    3    0  502 -0.14074920042E+04 -0.82197278057E+03 -0.16155788146E+03  0.16379175630E+04  0.25500000920E-02 0. -1.
</event>
<event>
 5   0  0.6341535E-08  0.3413920E+04  0.7818609E-02  0.8134498E-01
       -1   -1    0    0    0  501  0.00000000000E+00  0.00000000000E+00  0.12082529895E+04  0.12082529895E+04  0.50400001928E-02 0.  1.
        1   -1    0    0  501    0  0.00000000000E+00  0.00000000000E+00 -0.24115085521E+04  0.24115085522E+04  0.50400001928E-02 0. -1.
    10030    2    1    2    0    0  0.00000000000E+00  0.00000000000E+00 -0.12032555627E+04  0.36197615416E+04  0.34139199858E+04 0.  0.
        5    1    3    3  502    0  0.72554831659E+03 -0.69422827796E+02 -0.22382127609E+04  0.23539027893E+04  0.46999998093E+01 0. -1.
       -5    1    3    3    0  502 -0.72554831659E+03  0.69422827796E+02  0.10349571982E+04  0.12658587523E+04  0.46999998093E+01 0.  1.
</event>
<event>
 5   0  0.1986613E-07  0.3412394E+04  0.7818609E-02  0.8134871E-01
       -2   -1    0    0    0  501  0.00000000000E+00  0.00000000000E+00  0.24986422862E+04  0.24986422862E+04  0.25500000920E-02 0.  1.
        2   -1    0    0  501    0  0.00000000000E+00  0.00000000000E+00 -0.11650762291E+04  0.11650762291E+04  0.25500000920E-02 0. -1.
    10030    2    1    2    0    0  0.00000000000E+00  0.00000000000E+00  0.13335660571E+04  0.36637185153E+04  0.34123943105E+04 0.  0.
        5    1    3    3  502    0 -0.54913271970E+03  0.17084297953E+03 -0.10578727019E+04  0.12040975089E+04  0.46999998093E+01 0. -1.
       -5    1    3    3    0  502  0.54913271970E+03 -0.17084297953E+03  0.23914387589E+04  0.24596210064E+04  0.46999998093E+01 0.  1.
</event>
<event>
 5   0  0.6341535E-08  0.3401129E+04  0.7818609E-02  0.8137629E-01
       -1   -1    0    0    0  501  0.00000000000E+00  0.00000000000E+00  0.18668908870E+04  0.18668908870E+04  0.50400001928E-02 0.  1.
        1   -1    0    0  501    0  0.00000000000E+00  0.00000000000E+00 -0.15490564932E+04  0.15490564932E+04  0.50400001928E-02 0. -1.
    10030    2    1    2    0    0  0.00000000000E+00  0.00000000000E+00  0.31783439376E+03  0.34159473802E+04  0.34011289012E+04 0.  0.
        5    1    3    3  502    0  0.12730386130E+04  0.10284658825E+04  0.62302137171E+03  0.17511559329E+04  0.46999998093E+01 0.  1.
       -5    1    3    3    0  502 -0.12730386130E+04 -0.10284658825E+04 -0.30518697795E+03  0.16647914473E+04  0.46999998093E+01 0. -1.
</event>
<event>
 5   0  0.1970449E-07  0.3397811E+04  0.7818609E-02  0.8138444E-01
       -2   -1    0    0    0  501  0.00000000000E+00  0.00000000000E+00  0.13190351718E+04  0.13190351718E+04  0.25500000920E-02 0.  1.
        2   -1    0    0  501    0  0.00000000000E+00  0.00000000000E+00 -0.21881747322E+04  0.21881747322E+04  0.25500000920E-02 0. -1.
    10030    2    1    2    0    0  0.00000000000E+00  0.00000000000E+00 -0.86913956034E+03  0.35072099040E+04  0.33978107269E+04 0.  0.
        1    1    3    3  502    0  0.23546665532E+03 -0.11645617223E+04  0.81887220684E+03  0.14429831052E+04  0.50400001928E-02 0.  1.
       -1    1    3    3    0  502 -0.23546665532E+03  0.11645617223E+04 -0.16880117672E+04  0.20642267988E+04  0.50400001928E-02 0. -1.
</event>
<event>
 5   0  0.6584420E-08  0.3402601E+04  0.7818609E-02  0.8137268E-01
       -1   -1    0    0    0  501  0.00000000000E+00  0.00000000000E+00  0.14754806393E+04  0.14754806393E+04  0.50400001928E-02 0.  1.
        1   -1    0    0  501    0  0.00000000000E+00  0.00000000000E+00 -0.19616816610E+04  0.19616816610E+04  0.50400001928E-02 0. -1.
    10030    2    1    2    0    0  0.00000000000E+00  0.00000000000E+00 -0.48620102171E+03  0.34371623003E+04  0.34026009530E+04 0.  0.
        1    1    3    3  502    0  0.70609080034E+03 -0.34035641297E+03  0.12822091654E+04  0.15028196998E+04  0.50400001928E-02 0.  1.
       -1    1    3    3    0  502 -0.70609080034E+03  0.34035641297E+03 -0.17684101871E+04  0.19343426005E+04  0.50400001928E-02 0. -1.
</event>
<event>
 5   0  0.1963852E-07  0.3421492E+04  0.7818609E-02  0.8132651E-01
       -2   -1    0    0    0  501  0.00000000000E+00  0.00000000000E+00  0.11378524871E+04  0.11378524871E+04  0.25500000920E-02 0.  1.
        2   -1    0    0  501    0  0.00000000000E+00  0.00000000000E+00 -0.25720841436E+04  0.25720841436E+04  0.25500000920E-02 0. -1.
    10030    2    1    2    0    0  0.00000000000E+00  0.00000000000E+00 -0.14342316565E+04  0.37099366307E+04  0.34214922708E+04 0.  0.
        4    1    3    3  502    0 -0.13832353424E+04 -0.97133823392E+03 -0.10036116549E+04  0.19657252972E+04  0.12699999809E+01 0. -1.
       -4    1    3    3    0  502  0.13832353424E+04  0.97133823392E+03 -0.43062000154E+03  0.17442113335E+04  0.12699999809E+01 0.  1.
</event>
<event>
 5   0  0.1897313E-07  0.3401391E+04  0.7818609E-02  0.8137565E-01
        2   -1    0    0  501    0  0.00000000000E+00  0.00000000000E+00  0.18093480799E+04  0.18093480799E+04  0.25500000920E-02 0. -1.
       -2   -1    0    0    0  501  0.00000000000E+00  0.00000000000E+00 -0.15985676634E+04  0.15985676634E+04  0.25500000920E-02 0.  1.
    10030    2    1    2    0    0  0.00000000000E+00  0.00000000000E+00  0.21078041655E+03  0.34079157433E+04  0.34013910874E+04 0.  0.
        3    1    3    3  502    0  0.87629433432E+02 -0.25329904792E+03 -0.15772735191E+04  0.15998847114E+04  0.10100000352E+00 0.  1.
       -3    1    3    3    0  502 -0.87629433432E+02  0.25329904792E+03  0.17880539357E+04  0.18080310319E+04  0.10100000352E+00 0. -1.
</event>
<event>
 5   0  0.6367111E-08  0.3399825E+04  0.7818609E-02  0.8137949E-01
        1   -1    0    0  501    0  0.00000000000E+00  0.00000000000E+00  0.13528278176E+04  0.13528278176E+04  0.50400001928E-02 0.  1.
       -1   -1    0    0    0  501  0.00000000000E+00  0.00000000000E+00 -0.21360464797E+04  0.21360464797E+04  0.50400001928E-02 0. -1.
    10030    2    1    2    0    0  0.00000000000E+00  0.00000000000E+00 -0.78321866207E+03  0.34888742973E+04  0.33998253469E+04 0.  0.
        3    1    3    3  502    0 -0.81423300817E+03  0.10030830664E+04  0.74211343697E+03  0.14899273114E+04  0.10100000352E+00 0.  1.
       -3    1    3    3    0  502  0.81423300817E+03 -0.10030830664E+04 -0.15253320990E+04  0.19989469859E+04  0.10100000352E+00 0. -1.
</event>
<event>
 5   0  0.6341535E-08  0.3397569E+04  0.7818609E-02  0.8138503E-01
       -1   -1    0    0    0  501  0.00000000000E+00  0.00000000000E+00  0.19000300229E+04  0.19000300229E+04  0.50400001928E-02 0.  1.
        1   -1    0    0  501    0  0.00000000000E+00  0.00000000000E+00 -0.15188545901E+04  0.15188545901E+04  0.50400001928E-02 0. -1.
    10030    2    1    2    0    0  0.00000000000E+00  0.00000000000E+00  0.38117543271E+03  0.34188846130E+04  0.33975693203E+04 0.  0.
        5    1    3    3  502    0 -0.12932579159E+04  0.16255885303E+03 -0.90569923735E+03  0.15872159955E+04  0.46999998093E+01 0. -1.
       -5    1    3    3    0  502  0.12932579159E+04 -0.16255885303E+03  0.12868746701E+04  0.18316686175E+04  0.46999998093E+01 0.  1.
</event>
<event>
 5   0  0.6311750E-08  0.3393012E+04  0.7818609E-02  0.8139623E-01
        1   -1    0    0  501    0  0.00000000000E+00  0.00000000000E+00  0.14448958720E+04  0.14448958720E+04  0.50400001928E-02 0.  1.
       -1   -1    0    0    0  501  0.00000000000E+00  0.00000000000E+00 -0.19919311269E+04  0.19919311269E+04  0.50400001928E-02 0. -1.
    10030    2    1    2    0    0  0.00000000000E+00  0.00000000000E+00 -0.54703525493E+03  0.34368269989E+04  0.33930122679E+04 0.  0.
        4    1    3    3  502    0  0.12956177428E+04 -0.70813832942E+03  0.57276286774E+03  0.15837121407E+04  0.12699999809E+01 0.  1.
       -4    1    3    3    0  502 -0.12956177428E+04  0.70813832942E+03 -0.11197981227E+04  0.18531148582E+04  0.12699999809E+01 0. -1.
</event>
<event>
 5   0  0.1897313E-07  0.3399702E+04  0.7818609E-02  0.8137979E-01
        2   -1    0    0  501    0  0.00000000000E+00  0.00000000000E+00  0.22589701015E+04  0.22589701015E+04  0.25500000920E-02 0. -1.
       -2   -1    0    0    0  501  0.00000000000E+00  0.00000000000E+00 -0.12791200788E+04  0.12791200788E+04  0.25500000920E-02 0.  1.
    10030    2    1    2    0    0  0.00000000000E+00  0.00000000000E+00  0.97985002273E+03  0.35380901803E+04  0.33997023483E+04 0.  0.
        3    1    3    3  502    0  0.11355007884E+03  0.14718093798E+04 -0.38722245212E+03  0.15261250632E+04  0.10100000352E+00 0.  1.
       -3    1    3    3    0  502 -0.11355007884E+03 -0.14718093798E+04  0.13670724748E+04  0.20119651171E+04  0.10100000352E+00 0. -1.
</event>
<event>
 5   0  0.1928004E-07  0.3377235E+04  0.7818609E-02  0.8143516E-01
        2   -1    0    0  501    0  0.00000000000E+00  0.00000000000E+00  0.28633436406E+04  0.28633436406E+04  0.25500000920E-02 0.  1.
       -2   -1    0    0    0  501  0.00000000000E+00  0.00000000000E+00 -0.99583892273E+03  0.99583892273E+03  0.25500000920E-02 0. -1.
    10030    2    1    2    0    0  0.00000000000E+00  0.00000000000E+00  0.18675047179E+04  0.38591825633E+04  0.33772349912E+04 0.  0.
        2    1    3    3  502    0  0.15399848524E+04  0.11253104299E+03  0.15268002664E+03  0.15516210142E+04  0.25500000920E-02 0. -1.
       -2    1    3    3    0  502 -0.15399848524E+04 -0.11253104299E+03  0.17148246912E+04  0.23075615491E+04  0.25500000920E-02 0.  1.
</event>
<event>
 5   0  0.1897313E-07  0.3429884E+04  0.7818609E-02  0.8130611E-01
       -2   -1    0    0    0  501  0.00000000000E+00  0.00000000000E+00  0.18051358054E+04  0.18051358054E+04  0.25500000920E-02 0. -1.
        2   -1    0    0  501    0  0.00000000000E+00  0.00000000000E+00 -0.16292546969E+04  0.16292546969E+04  0.25500000920E-02 0.  1.
    10030    2    1    2    0    0  0.00000000000E+00  0.00000000000E+00  0.17588110858E+03  0.34343905023E+04  0.34298839569E+04 0.  0.
        3    1    3    3  502    0  0.43168251014E+03  0.13543371001E+04  0.10486005151E+04  0.17663923179E+04  0.10100000352E+00 0. -1.
       -3    1    3    3    0  502 -0.43168251014E+03 -0.13543371001E+04 -0.87271940653E+03  0.16679981844E+04  0.10100000352E+00 0.  1.
</event>
<event>
 5   0  0.1928004E-07  0.3371326E+04  0.7818609E-02  0.8144980E-01
       -2   -1    0    0    0  501  0.00000000000E+00  0.00000000000E+00  0.10009503146E+04  0.10009503146E+04  0.25500000920E-02 0. -1.
        2   -1    0    0  501    0  0.00000000000E+00  0.00000000000E+00 -0.28387625710E+04  0.28387625710E+04  0.25500000920E-02 0.  1.
    10030    2    1    2    0    0  0.00000000000E+00  0.00000000000E+00 -0.18378122564E+04  0.38397128856E+04  0.33713263197E+04 0.  0.
        2    1    3    3  502    0  0.73289500455E+03  0.11204282891E+04  0.24757735420E+03  0.13615392704E+04  0.25500000920E-02 0. -1.
       -2    1    3    3    0  502 -0.73289500455E+03 -0.11204282891E+04 -0.20853896106E+04  0.24781736151E+04  0.25500000920E-02 0.  1.
</event>
<event>
 5   0  0.1897313E-07  0.3383647E+04  0.7818609E-02  0.8141931E-01
       -2   -1    0    0    0  501  0.00000000000E+00  0.00000000000E+00  0.15065466195E+04  0.15065466195E+04  0.25500000920E-02 0.  1.
        2   -1    0    0  501    0  0.00000000000E+00  0.00000000000E+00 -0.18998864077E+04  0.18998864077E+04  0.25500000920E-02 0. -1.
    10030    2    1    2    0    0  0.00000000000E+00  0.00000000000E+00 -0.39333978828E+03  0.34064330272E+04  0.33836474077E+04 0.  0.
        3    1    3    3  502    0  0.58015103743E+02  0.20654774339E+03 -0.18861363090E+04  0.18982986880E+04  0.10100000352E+00 0. -1.
       -3    1    3    3    0  502 -0.58015103743E+02 -0.20654774339E+03  0.14927965207E+04  0.15081343392E+04  0.10100000352E+00 0.  1.
</event>
<event>
 5   0  0.1986613E-07  0.3400482E+04  0.7818609E-02  0.8137788E-01
        2   -1    0    0  501    0  0.00000000000E+00  0.00000000000E+00  0.19437483874E+04  0.19437483874E+04  0.25500000920E-02 0. -1.
       -2   -1    0    0    0  501  0.00000000000E+00  0.00000000000E+00 -0.14872398629E+04  0.14872398629E+04  0.25500000920E-02 0.  1.
    10030    2    1    2    0    0  0.00000000000E+00  0.00000000000E+00  0.45650852451E+03  0.34309882503E+04  0.34004823688E+04 0.  0.
        5    1    3    3  502    0  0.13898404385E+04  0.97692245841E+03  0.15861288293E+03  0.17062280242E+04  0.46999998093E+01 0. -1.
       -5    1    3    3    0  502 -0.13898404385E+04 -0.97692245841E+03  0.29789564158E+03  0.17247602261E+04  0.46999998093E+01 0.  1.
</event>
<event>
 5   0  0.1963852E-07  0.3401538E+04  0.7818609E-02  0.8137529E-01
       -2   -1    0    0    0  501  0.00000000000E+00  0.00000000000E+00  0.26174978963E+04  0.26174978963E+04  0.25500000920E-02 0. -1.
        2   -1    0    0  501    0  0.00000000000E+00  0.00000000000E+00 -0.11051068218E+04  0.11051068218E+04  0.25500000920E-02 0.  1.
    10030    2    1    2    0    0  0.00000000000E+00  0.00000000000E+00  0.15123910745E+04  0.37226047181E+04  0.34015377589E+04 0.  0.
        4    1    3    3  502    0 -0.15574420306E+04  0.29397011922E+03  0.81064047178E+02  0.15870151551E+04  0.12699999809E+01 0.  1.
       -4    1    3    3    0  502  0.15574420306E+04 -0.29397011922E+03  0.14313270273E+04  0.21355895630E+04  0.12699999809E+01 0. -1.
</event>
<event>
 5   0  0.1963852E-07  0.3400977E+04  0.7818609E-02  0.8137667E-01
        2   -1    0    0  501    0  0.00000000000E+00  0.00000000000E+00  0.16446086274E+04  0.16446086274E+04  0.25500000920E-02 0. -1.
       -2   -1    0    0    0  501  0.00000000000E+00  0.00000000000E+00 -0.17582667418E+04  0.17582667418E+04  0.25500000920E-02 0.  1.
    10030    2    1    2    0    0  0.00000000000E+00  0.00000000000E+00 -0.11365811445E+03  0.34028753692E+04  0.34009767143E+04 0.  0.
        4    1    3    3  502    0  0.12913789414E+04  0.59811787276E+03  0.87441846799E+03  0.16703334488E+04  0.12699999809E+01 0. -1.
       -4    1    3    3    0  502 -0.12913789414E+04 -0.59811787276E+03 -0.98807658244E+03  0.17325419204E+04  0.12699999809E+01 0.  1.
</event>
<event>
 5   0  0.6584420E-08  0.3401533E+04  0.7818609E-02  0.8137530E-01
       -1   -1    0    0    0  501  0.00000000000E+00  0.00000000000E+00  0.16998712061E+04  0.16998712061E+04  0.50400001928E-02 0. -1.
        1   -1    0    0  501    0  0.00000000000E+00  0.00000000000E+00 -0.17016622233E+04  0.17016622233E+04  0.50400001928E-02 0.  1.
    10030    2    1    2    0    0  0.00000000000E+00  0.00000000000E+00 -0.17910172250E+01  0.34015334294E+04  0.34015329579E+04 0.  0.
        1    1    3    3  502    0  0.35715072712E+03 -0.16353789850E+04 -0.30186988362E+03  0.17009251874E+04  0.50400001928E-02 0.  1.
       -1    1    3    3    0  502 -0.35715072712E+03  0.16353789850E+04  0.30007886640E+03  0.17006082420E+04  0.50400001928E-02 0. -1.
</event>
<event>
 5   0  0.1928004E-07  0.3401242E+04  0.7818609E-02  0.8137602E-01
        2   -1    0    0  501    0  0.00000000000E+00  0.00000000000E+00  0.24488990748E+04  0.24488990748E+04  0.25500000920E-02 0.  1.
       -2   -1    0    0    0  501  0.00000000000E+00  0.00000000000E+00 -0.11809845171E+04  0.11809845171E+04  0.25500000920E-02 0. -1.
    10030    2    1    2    0    0  0.00000000000E+00  0.00000000000E+00  0.12679145577E+04  0.36298835919E+04  0.34012420621E+04 0.  0.
        2    1    3    3  502    0  0.71572603113E+03  0.11209904933E+04 -0.49711199514E+03  0.14198604767E+04  0.25500000920E-02 0. -1.
       -2    1    3    3    0  502 -0.71572603113E+03 -0.11209904933E+04  0.17650265528E+04  0.22100231152E+04  0.25500000920E-02 0.  1.
</event>
<event>
 5   0  0.6341535E-08  0.3403118E+04  0.7818609E-02  0.8137141E-01
        1   -1    0    0  501    0  0.00000000000E+00  0.00000000000E+00  0.21496264885E+04  0.21496264885E+04  0.50400001928E-02 0.  1.
       -1   -1    0    0    0  501  0.00000000000E+00  0.00000000000E+00 -0.13468868846E+04  0.13468868847E+04  0.50400001928E-02 0. -1.
    10030    2    1    2    0    0  0.00000000000E+00  0.00000000000E+00  0.80273960381E+03  0.34965133731E+04  0.34031184077E+04 0.  0.
        5    1    3    3  502    0 -0.15476927301E+04  0.19874277973E+03 -0.29580232090E+03  0.15881979040E+04  0.46999998093E+01 0. -1.
       -5    1    3    3    0  502  0.15476927301E+04 -0.19874277973E+03  0.10985419247E+04  0.19083154691E+04  0.46999998093E+01 0.  1.
</event>
<event>
 5   0  0.6311750E-08  0.3455258E+04  0.7818609E-02  0.8124476E-01
       -1   -1    0    0    0  501  0.00000000000E+00  0.00000000000E+00  0.14538023403E+04  0.14538023403E+04  0.50400001928E-02 0.  1.
        1   -1    0    0  501    0  0.00000000000E+00  0.00000000000E+00 -0.20530319132E+04  0.20530319132E+04  0.50400001928E-02 0. -1.
    10030    2    1    2    0    0  0.00000000000E+00  0.00000000000E+00 -0.59922957291E+03  0.35068342534E+04  0.34552583695E+04 0.  0.
        4    1    3    3  502    0 -0.48098152673E+03 -0.66376337968E+03  0.12438669397E+04  0.14896750081E+04  0.12699999809E+01 0.  1.
       -4    1    3    3    0  502  0.48098152673E+03  0.66376337968E+03 -0.18430965126E+04  0.20171592453E+04  0.12699999809E+01 0. -1.
</event>
<event>
 5   0  0.6341535E-08  0.3409932E+04  0.7818609E-02  0.8135473E-01
       -1   -1    0    0    0  501  0.00000000000E+00  0.00000000000E+00  0.11176767531E+04  0.11176767531E+04  0.50400001928E-02 0. -1.
        1   -1    0    0  501    0  0.00000000000E+00  0.00000000000E+00 -0.26008495545E+04  0.26008495545E+04  0.50400001928E-02 0.  1.
    10030    2    1    2    0    0  0.00000000000E+00  0.00000000000E+00 -0.14831728014E+04  0.37185263076E+04  0.34099320142E+04 0.  0.
        5    1    3    3  502    0  0.64166427253E+03  0.13801902285E+04  0.96203979951E+02  0.15251017675E+04  0.46999998093E+01 0. -1.
       -5    1    3    3    0  502 -0.64166427253E+03 -0.13801902285E+04 -0.15793767813E+04  0.21934245400E+04  0.46999998093E+01 0.  1.
</event>
<event>
 5   0  0.1970449E-07  0.3399009E+04  0.7818609E-02  0.8138150E-01
       -2   -1    0    0    0  501  0.00000000000E+00  0.00000000000E+00  0.15720968057E+04  0.15720968057E+04  0.25500000920E-02 0. -1.
        2   -1    0    0  501    0  0.00000000000E+00  0.00000000000E+00 -0.18372373341E+04  0.18372373341E+04  0.25500000920E-02 0.  1.
    10030    2    1    2    0    0  0.00000000000E+00  0.00000000000E+00 -0.26514052841E+03  0.34093341397E+04  0.33990086461E+04 0.  0.
        1    1    3    3  502    0  0.12343485728E+04  0.83345137639E+03 -0.95362722087E+03  0.17685198535E+04  0.50400001928E-02 0. -1.
       -1    1    3    3    0  502 -0.12343485728E+04 -0.83345137639E+03  0.68848669246E+03  0.16408142862E+04  0.50400001928E-02 0.  1.
</event>
<event>
 5   0  0.1897313E-07  0.3401508E+04  0.7818609E-02  0.8137536E-01
        2   -1    0    0  501    0  0.00000000000E+00  0.00000000000E+00  0.19545857624E+04  0.19545857624E+04  0.25500000920E-02 0. -1.
       -2   -1    0    0    0  501  0.00000000000E+00  0.00000000000E+00 -0.14798856954E+04  0.14798856954E+04  0.25500000920E-02 0.  1.
    10030    2    1    2    0    0  0.00000000000E+00  0.00000000000E+00  0.47470006694E+03  0.34344714578E+04  0.34015076129E+04 0.  0.
        3    1    3    3  502    0 -0.59675978598E+03 -0.11991416978E+04 -0.82090071201E+03  0.15709681864E+04  0.10100000352E+00 0.  1.
       -3    1    3    3    0  502  0.59675978598E+03  0.11991416978E+04  0.12956007790E+04  0.18635032713E+04  0.10100000352E+00 0. -1.
</event>
<event>
 5   0  0.1986613E-07  0.3392694E+04  0.7818609E-02  0.8139702E-01
        2   -1    0    0  501    0  0.00000000000E+00  0.00000000000E+00  0.26623430926E+04  0.26623430926E+04  0.25500000920E-02 0.  1.
       -2   -1    0    0    0  501  0.00000000000E+00  0.00000000000E+00 -0.10808498539E+04  0.10808498539E+04  0.25500000920E-02 0. -1.
    10030    2    1    2    0    0  0.00000000000E+00  0.00000000000E+00  0.15814932387E+04  0.37431929464E+04  0.33926939989E+04 0.  0.
        5    1    3    3  502    0 -0.96616597884E+03 -0.34864125937E+03 -0.69873960039E+03  0.12422908458E+04  0.46999998093E+01 0. -1.
       -5    1    3    3    0  502  0.96616597884E+03  0.34864125937E+03  0.22802328391E+04  0.25009021006E+04  0.46999998093E+01 0.  1.
</event>
<event>
 5   0  0.6341535E-08  0.3400159E+04  0.7818609E-02  0.8137867E-01
       -1   -1    0    0    0  501  0.00000000000E+00  0.00000000000E+00  0.14277656338E+04  0.14277656338E+04  0.50400001928E-02 0. -1.
        1   -1    0    0  501    0  0.00000000000E+00  0.00000000000E+00 -0.20243312579E+04  0.20243312579E+04  0.50400001928E-02 0.  1.
    10030    2    1    2    0    0  0.00000000000E+00  0.00000000000E+00 -0.59656562407E+03  0.34520968917E+04  0.34001591736E+04 0.  0.
        5    1    3    3  502    0  0.14104428391E+04  0.57167149326E+03  0.47097900807E+03  0.15931103586E+04  0.46999998093E+01 0.  1.
       -5    1    3    3    0  502 -0.14104428391E+04 -0.57167149326E+03 -0.10675446321E+04  0.18589865331E+04  0.46999998093E+01 0. -1.
</event>
<event>
 5   0  0.1897313E-07  0.3444933E+04  0.7818609E-02  0.8126965E-01
       -2   -1    0    0    0  501  0.00000000000E+00  0.00000000000E+00  0.15706861216E+04  0.15706861216E+04  0.25500000920E-02 0. -1.
        2   -1    0    0  501    0  0.00000000000E+00  0.00000000000E+00 -0.18889142933E+04  0.18889142933E+04  0.25500000920E-02 0.  1.
    10030    2    1    2    0    0  0.00000000000E+00  0.00000000000E+00 -0.31822817170E+03  0.34596004149E+04  0.34449333610E+04 0.  0.
        3    1    3    3  502    0 -0.13655313944E+02  0.17210011139E+04 -0.89102468511E+02  0.17233602530E+04  0.10100000352E+00 0.  1.
       -3    1    3    3    0  502  0.13655313944E+02 -0.17210011139E+04 -0.22912570319E+03  0.17362401619E+04  0.10100000352E+00 0. -1.
</event>
<event>
 5   0  0.1963852E-07  0.3399631E+04  0.7818609E-02  0.8137997E-01
       -2   -1    0    0    0  501  0.00000000000E+00  0.00000000000E+00  0.91620224975E+03  0.91620224976E+03  0.25500000920E-02 0. -1.
        2   -1    0    0  501    0  0.00000000000E+00  0.00000000000E+00 -0.31536410922E+04  0.31536410922E+04  0.25500000920E-02 0.  1.
    10030    2    1    2    0    0  0.00000000000E+00  0.00000000000E+00 -0.22374388425E+04  0.40698433420E+04  0.33996311939E+04 0.  0.
        4    1    3    3  502    0 -0.90503451586E+03 -0.40040938844E+03 -0.27731844893E+04  0.29444811050E+04  0.12699999809E+01 0.  1.
       -4    1    3    3    0  502  0.90503451586E+03  0.40040938844E+03  0.53574564687E+03  0.11253622369E+04  0.12699999809E+01 0. -1.
</event>
<event>
 5   0  0.1986613E-07  0.3399215E+04  0.7818609E-02  0.8138099E-01
        2   -1    0    0  501    0  0.00000000000E+00  0.00000000000E+00  0.17671401937E+04  0.17671401937E+04  0.25500000920E-02 0. -1.
       -2   -1    0    0    0  501  0.00000000000E+00  0.00000000000E+00 -0.16346556592E+04  0.16346556592E+04  0.25500000920E-02 0.  1.
    10030    2    1    2    0    0  0.00000000000E+00  0.00000000000E+00  0.13248453451E+03  0.34017958528E+04  0.33992150377E+04 0.  0.
        5    1    3    3  502    0 -0.61387347628E+03 -0.10742168731E+04  0.12323999566E+04  0.17463144844E+04  0.46999998093E+01 0. -1.
       -5    1    3    3    0  502  0.61387347628E+03  0.10742168731E+04 -0.10999154221E+04  0.16554813684E+04  0.46999998093E+01 0.  1.
</event>
<event>
 5   0  0.6341535E-08  0.3396340E+04  0.7818609E-02  0.8138805E-01
       -1   -1    0    0    0  501  0.00000000000E+00  0.00000000000E+00  0.17838112600E+04  0.17838112600E+04  0.50400001928E-02 0.  1.
        1   -1    0    0  501    0  0.00000000000E+00  0.00000000000E+00 -0.16166402510E+04  0.16166402510E+04  0.50400001928E-02 0. -1.
    10030    2    1    2    0    0  0.00000000000E+00  0.00000000000E+00  0.16717100902E+03  0.34004515110E+04  0.33963398435E+04 0.  0.
        5    1    3    3  502    0 -0.32904146870E+03 -0.22969837617E+03 -0.15684815999E+04  0.16190077985E+04  0.46999998093E+01 0. -1.
       -5    1    3    3    0  502  0.32904146870E+03  0.22969837617E+03  0.17356526089E+04  0.17814437126E+04  0.46999998093E+01 0.  1.
</event>
<event>
 5   0  0.1897313E-07  0.3407929E+04  0.7818609E-02  0.8135963E-01
        2   -1    0    0  501    0  0.00000000000E+00  0.00000000000E+00  0.13527386296E+04  0.13527386296E+04  0.25500000920E-02 0.  1.
       -2   -1    0    0    0  501  0.00000000000E+00  0.00000000000E+00 -0.21463831612E+04  0.21463831612E+04  0.25500000920E-02 0. -1.
    10030    2    1    2    0    0  0.00000000000E+00  0.00000000000E+00 -0.79364453166E+03  0.34991217908E+04  0.34079292340E+04 0.  0.
        3    1    3    3  502    0  0.15850579748E+04 -0.61437563082E+03 -0.51669040909E+03  0.17767484876E+04  0.10100000352E+00 0. -1.
       -3    1    3    3    0  502 -0.15850579748E+04  0.61437563082E+03 -0.27695412257E+03  0.17223733032E+04  0.10100000352E+00 0.  1.
</event>
<event>
 5   0  0.1970449E-07  0.3394500E+04  0.7818609E-02  0.8139257E-01
       -2   -1    0    0    0  501  0.00000000000E+00  0.00000000000E+00  0.11643805599E+04  0.11643805599E+04  0.25500000920E-02 0.  1.
        2   -1    0    0  501    0  0.00000000000E+00  0.00000000000E+00 -0.24739834235E+04  0.24739834235E+04  0.25500000920E-02 0. -1.
    10030    2    1    2    0    0  0.00000000000E+00  0.00000000000E+00 -0.13096028636E+04  0.36383639834E+04  0.33945003778E+04 0.  0.
        1    1    3    3  502    0  0.13403063775E+04 -0.10387011881E+04 -0.57649937207E+03  0.17909977303E+04  0.50400001928E-02 0.  1.
       -1    1    3    3    0  502 -0.13403063775E+04  0.10387011881E+04 -0.73310349156E+03  0.18473662531E+04  0.50400001928E-02 0. -1.
</event>
<event>
 5   0  0.1963852E-07  0.3404799E+04  0.7818609E-02  0.8136729E-01
        2   -1    0    0  501    0  0.00000000000E+00  0.00000000000E+00  0.21622641971E+04  0.21622641971E+04  0.25500000920E-02 0. -1.
       -2   -1    0    0    0  501  0.00000000000E+00  0.00000000000E+00 -0.13403379178E+04  0.13403379178E+04  0.25500000920E-02 0.  1.
    10030    2    1    2    0    0  0.00000000000E+00  0.00000000000E+00  0.82192627935E+03  0.35026021149E+04  0.34047993725E+04 0.  0.
        4    1    3    3  502    0  0.83025507866E+03 -0.96999664849E+03 -0.74741318559E+03  0.14794745948E+04  0.12699999809E+01 0.  1.
       -4    1    3    3    0  502 -0.83025507866E+03  0.96999664849E+03  0.15693394649E+04  0.20231275202E+04  0.12699999809E+01 0. -1.
</event>
<event>
 5   0  0.1970449E-07  0.3406158E+04  0.7818609E-02  0.8136397E-01
       -2   -1    0    0    0  501  0.00000000000E+00  0.00000000000E+00  0.14386986543E+04  0.14386986543E+04  0.25500000920E-02 0. -1.
        2   -1    0    0  501    0  0.00000000000E+00  0.00000000000E+00 -0.20160423863E+04  0.20160423863E+04  0.25500000920E-02 0.  1.
    10030    2    1    2    0    0  0.00000000000E+00  0.00000000000E+00 -0.57734373199E+03  0.34547410406E+04  0.34061576406E+04 0.  0.
        1    1    3    3  502    0  0.57636769071E+03  0.62659447222E+03  0.12073776974E+04  0.14773561696E+04  0.50400001928E-02 0. -1.
       -1    1    3    3    0  502 -0.57636769071E+03 -0.62659447222E+03 -0.17847214294E+04  0.19773848710E+04  0.50400001928E-02 0.  1.
</event>
<event>
 5   0  0.1897313E-07  0.3395736E+04  0.7818609E-02  0.8138954E-01
        2   -1    0    0  501    0  0.00000000000E+00  0.00000000000E+00  0.13554877887E+04  0.13554877887E+04  0.25500000920E-02 0. -1.
       -2   -1    0    0    0  501  0.00000000000E+00  0.00000000000E+00 -0.21267294286E+04  0.21267294286E+04  0.25500000920E-02 0.  1.
    10030    2    1    2    0    0  0.00000000000E+00  0.00000000000E+00 -0.77124163987E+03  0.34822172173E+04  0.33957360147E+04 0.  0.
        3    1    3    3  502    0  0.10765416985E+04  0.12815227047E+04 -0.92844366389E+02  0.16762644654E+04  0.10100000352E+00 0. -1.
       -3    1    3    3    0  502 -0.10765416985E+04 -0.12815227047E+04 -0.67839727348E+03  0.18059527519E+04  0.10100000352E+00 0.  1.
</event>
<event>
 5   0  0.1928004E-07  0.3405924E+04  0.7818609E-02  0.8136454E-01
       -2   -1    0    0    0  501  0.00000000000E+00  0.00000000000E+00  0.13799217207E+04  0.13799217207E+04  0.25500000920E-02 0.  1.
        2   -1    0    0  501    0  0.00000000000E+00  0.00000000000E+00 -0.21016260301E+04  0.21016260301E+04  0.25500000920E-02 0. -1.
    10030    2    1    2    0    0  0.00000000000E+00  0.00000000000E+00 -0.72170430938E+03  0.34815477508E+04  0.34059239027E+04 0.  0.
        2    1    3    3  502    0 -0.10870501728E+04  0.58584587625E+03 -0.15595731919E+04  0.19892616746E+04  0.25500000920E-02 0. -1.
       -2    1    3    3    0  502  0.10870501728E+04 -0.58584587625E+03  0.83786888256E+03  0.14922860762E+04  0.25500000920E-02 0.  1.
</event>
<event>
 5   0  0.1970449E-07  0.3399209E+04  0.7818609E-02  0.8138100E-01
       -2   -1    0    0    0  501  0.00000000000E+00  0.00000000000E+00  0.11396895997E+04  0.11396895997E+04  0.25500000920E-02 0. -1.
        2   -1    0    0  501    0  0.00000000000E+00  0.00000000000E+00 -0.25345989561E+04  0.25345989561E+04  0.25500000920E-02 0.  1.
    10030    2    1    2    0    0  0.00000000000E+00  0.00000000000E+00 -0.13949093565E+04  0.36742885558E+04  0.33992093608E+04 0.  0.
        1    1    3    3  502    0 -0.14931033833E+04  0.77568867232E+03 -0.43802055681E+03  0.17386525351E+04  0.50400001928E-02 0. -1.
       -1    1    3    3    0  502  0.14931033833E+04 -0.77568867232E+03 -0.95688879966E+03  0.19356360207E+04  0.50400001928E-02 0.  1.
</event>
<event>
 5   0  0.1928004E-07  0.3401444E+04  0.7818609E-02  0.8137552E-01
       -2   -1    0    0    0  501  0.00000000000E+00  0.00000000000E+00  0.15261329446E+04  0.15261329446E+04  0.25500000920E-02 0.  1.
        2   -1    0    0  501    0  0.00000000000E+00  0.00000000000E+00 -0.18952839076E+04  0.18952839076E+04  0.25500000920E-02 0. -1.
    10030    2    1    2    0    0  0.00000000000E+00  0.00000000000E+00 -0.36915096298E+03  0.34214168522E+04  0.34014439350E+04 0.  0.
        2    1    3    3  502    0  0.70322947381E+03  0.89784318645E+03 -0.14536498640E+04  0.18476341649E+04  0.25500000920E-02 0. -1.
       -2    1    3    3    0  502 -0.70322947381E+03 -0.89784318645E+03  0.10844989010E+04  0.15737826872E+04  0.25500000920E-02 0.  1.
</event>
<event>
 5   0  0.6584420E-08  0.3410104E+04  0.7818609E-02  0.8135431E-01
       -1   -1    0    0    0  501  0.00000000000E+00  0.00000000000E+00  0.22323423271E+04  0.22323423271E+04  0.50400001928E-02 0.  1.
        1   -1    0    0  501    0  0.00000000000E+00  0.00000000000E+00 -0.13023101183E+04  0.13023101183E+04  0.50400001928E-02 0. -1.
    10030    2    1    2    0    0  0.00000000000E+00  0.00000000000E+00  0.93003220884E+03  0.35346524454E+04  0.34101038108E+04 0.  0.
        1    1    3    3  502    0 -0.12852374924E+04 -0.14884616572E+03  0.16160758961E+04  0.20701912702E+04  0.50400001928E-02 0.  1.
       -1    1    3    3    0  502  0.12852374924E+04  0.14884616572E+03 -0.68604368727E+03  0.14644611753E+04  0.50400001928E-02 0. -1.
</event>
<event>
 5   0  0.6788600E-08  0.3397850E+04  0.7818609E-02  0.8138434E-01
       -1   -1    0    0    0  501  0.00000000000E+00  0.00000000000E+00  0.25509838747E+04  0.25509838747E+04  0.50400001928E-02 0. -1.
        1   -1    0    0  501    0  0.00000000000E+00  0.00000000000E+00 -0.11314637527E+04  0.11314637527E+04  0.50400001928E-02 0.  1.
    10030    2    1    2    0    0  0.00000000000E+00  0.00000000000E+00  0.14195201220E+04  0.36824476274E+04  0.33978497836E+04 0.  0.
        2    1    3    3  502    0 -0.26304323186E+03  0.16677630865E+04  0.91458845352E+03  0.19201816304E+04  0.25500000920E-02 0. -1.
       -2    1    3    3    0  502  0.26304323186E+03 -0.16677630865E+04  0.50493166845E+03  0.17622659970E+04  0.25500000920E-02 0.  1.
</event>
<event>
 5   0  0.6311750E-08  0.3399788E+04  0.7818609E-02  0.8137958E-01
        1   -1    0    0  501    0  0.00000000000E+00  0.00000000000E+00  0.18346512000E+04  0.18346512000E+04  0.50400001928E-02 0. -1.
       -1   -1    0    0    0  501  0.00000000000E+00  0.00000000000E+00 -0.15750344378E+04  0.15750344378E+04  0.50400001928E-02 0.  1.
    10030    2    1    2    0    0  0.00000000000E+00  0.00000000000E+00  0.25961676225E+03  0.34096856378E+04  0.33997875354E+04 0.  0.
        4    1    3    3  502    0  0.14910868762E+04  0.50040420141E+03  0.77658341719E+03  0.17540888957E+04  0.12699999809E+01 0. -1.
       -4    1    3    3    0  502 -0.14910868762E+04 -0.50040420141E+03 -0.51696665495E+03  0.16555967421E+04  0.12699999809E+01 0.  1.
</event>
<event>
 5   0  0.6341535E-08  0.3397409E+04  0.7818609E-02  0.8138542E-01
       -1   -1    0    0    0  501  0.00000000000E+00  0.00000000000E+00  0.12652097690E+04  0.12652097690E+04  0.50400001928E-02 0. -1.
        1   -1    0    0  501    0  0.00000000000E+00  0.00000000000E+00 -0.22807264347E+04  0.22807264347E+04  0.50400001928E-02 0.  1.
    10030    2    1    2    0    0  0.00000000000E+00  0.00000000000E+00 -0.10155166657E+04  0.35459362036E+04  0.33974092279E+04 0.  0.
        5    1    3    3  502    0 -0.13744285255E+04 -0.98504971940E+03 -0.67669414222E+03  0.18213494375E+04  0.46999998093E+01 0. -1.
       -5    1    3    3    0  502  0.13744285255E+04  0.98504971940E+03 -0.33882252350E+03  0.17245867661E+04  0.46999998093E+01 0.  1.
</event>
<event>
 5   0  0.1897313E-07  0.3399477E+04  0.7818609E-02  0.8138035E-01
       -2   -1    0    0    0  501  0.00000000000E+00  0.00000000000E+00  0.19204848234E+04  0.19204848234E+04  0.25500000920E-02 0. -1.
        2   -1    0    0  501    0  0.00000000000E+00  0.00000000000E+00 -0.15043653416E+04  0.15043653416E+04  0.25500000920E-02 0.  1.
    10030    2    1    2    0    0  0.00000000000E+00  0.00000000000E+00  0.41611948185E+03  0.34248501650E+04  0.33994769053E+04 0.  0.
        3    1    3    3  502    0  0.11584284301E+04  0.11024447766E+04  0.78835358254E+03  0.17829308159E+04  0.10100000352E+00 0. -1.
       -3    1    3    3    0  502 -0.11584284301E+04 -0.11024447766E+04 -0.37223410069E+03  0.16419193491E+04  0.10100000352E+00 0.  1.
</event>
<event>
 5   0  0.1897313E-07  0.3402374E+04  0.7818609E-02  0.8137324E-01
       -2   -1    0    0    0  501  0.00000000000E+00  0.00000000000E+00  0.14484704785E+04  0.14484704785E+04  0.25500000920E-02 0. -1.
        2   -1    0    0  501    0  0.00000000000E+00  0.00000000000E+00 -0.19979952590E+04  0.19979952590E+04  0.25500000920E-02 0.  1.
    10030    2    1    2    0    0  0.00000000000E+00  0.00000000000E+00 -0.54952478048E+03  0.34464657374E+04  0.34023739646E+04 0.  0.
        3    1    3    3  502    0  0.10740368958E+04  0.34476455090E+03 -0.15646930630E+04  0.19289070067E+04  0.10100000352E+00 0.  1.
       -3    1    3    3    0  502 -0.10740368958E+04 -0.34476455090E+03  0.10151682825E+04  0.15175587307E+04  0.10100000352E+00 0. -1.
</event>
<event>
 5   0  0.6367111E-08  0.3397917E+04  0.7818609E-02  0.8138418E-01
       -1   -1    0    0    0  501  0.00000000000E+00  0.00000000000E+00  0.11856657600E+04  0.11856657600E+04  0.50400001928E-02 0. -1.
        1   -1    0    0  501    0  0.00000000000E+00  0.00000000000E+00 -0.24344629741E+04  0.24344629741E+04  0.50400001928E-02 0.  1.
    10030    2    1    2    0    0  0.00000000000E+00  0.00000000000E+00 -0.12487972142E+04  0.36201287341E+04  0.33979166513E+04 0.  0.
        3    1    3    3  502    0  0.68038991663E+03 -0.15495731815E+04 -0.78368126822E+03  0.18650104085E+04  0.10100000352E+00 0.  1.
       -3    1    3    3    0  502 -0.68038991663E+03  0.15495731815E+04 -0.46511594593E+03  0.17551183256E+04  0.10100000352E+00 0. -1.
</event>
<event>
 5   0  0.6311750E-08  0.3383981E+04  0.7818609E-02  0.8141849E-01
        1   -1    0    0  501    0  0.00000000000E+00  0.00000000000E+00  0.13809894410E+04  0.13809894410E+04  0.50400001928E-02 0.  1.
       -1   -1    0    0    0  501  0.00000000000E+00  0.00000000000E+00 -0.20730297196E+04  0.20730297196E+04  0.50400001928E-02 0. -1.
    10030    2    1    2    0    0  0.00000000000E+00  0.00000000000E+00 -0.69204027854E+03  0.34540191606E+04  0.33839811782E+04 0.  0.
        4    1    3    3  502    0  0.12638983601E+03  0.85334387646E+03 -0.18317076620E+04  0.20246789212E+04  0.12699999809E+01 0. -1.
       -4    1    3    3    0  502 -0.12638983601E+03 -0.85334387646E+03  0.11396673834E+04  0.14293402394E+04  0.12699999809E+01 0.  1.
</event>
<event>
 5   0  0.6341535E-08  0.3361815E+04  0.7818609E-02  0.8147342E-01
        1   -1    0    0  501    0  0.00000000000E+00  0.00000000000E+00  0.14538428665E+04  0.14538428665E+04  0.50400001928E-02 0.  1.
       -1   -1    0    0    0  501  0.00000000000E+00  0.00000000000E+00 -0.19434352709E+04  0.19434352709E+04  0.50400001928E-02 0. -1.
    10030    2    1    2    0    0  0.00000000000E+00  0.00000000000E+00 -0.48959240434E+03  0.33972781374E+04  0.33618146916E+04 0.  0.
        5    1    3    3  502    0 -0.15342523050E+03 -0.13435068642E+04 -0.12537661081E+04  0.18440448854E+04  0.46999998093E+01 0. -1.
       -5    1    3    3    0  502  0.15342523050E+03  0.13435068642E+04  0.76417370375E+03  0.15532332520E+04  0.46999998093E+01 0.  1.
</event>
<event>
 5   0  0.1963852E-07  0.3369430E+04  0.7818609E-02  0.8145450E-01
       -2   -1    0    0    0  501  0.00000000000E+00  0.00000000000E+00  0.17746940670E+04  0.17746940670E+04  0.25500000920E-02 0. -1.
        2   -1    0    0  501    0  0.00000000000E+00  0.00000000000E+00 -0.15992975186E+04  0.15992975186E+04  0.25500000920E-02 0.  1.
    10030    2    1    2    0    0  0.00000000000E+00  0.00000000000E+00  0.17539654838E+03  0.33739915855E+04  0.33694295170E+04 0.  0.
        4    1    3    3  502    0  0.92294972634E+03 -0.12327759097E+04 -0.59637348811E+03  0.16514344042E+04  0.12699999809E+01 0.  1.
       -4    1    3    3    0  502 -0.92294972634E+03  0.12327759097E+04  0.77177003649E+03  0.17225571814E+04  0.12699999809E+01 0. -1.
</event>
<event>
 5   0  0.1963852E-07  0.3402673E+04  0.7818609E-02  0.8137251E-01
        2   -1    0    0  501    0  0.00000000000E+00  0.00000000000E+00  0.17574366126E+04  0.17574366126E+04  0.25500000920E-02 0. -1.
       -2   -1    0    0    0  501  0.00000000000E+00  0.00000000000E+00 -0.16470272736E+04  0.16470272736E+04  0.25500000920E-02 0.  1.
    10030    2    1    2    0    0  0.00000000000E+00  0.00000000000E+00  0.11040933901E+03  0.34044638862E+04  0.34026730860E+04 0.  0.
        4    1    3    3  502    0  0.15563427259E+04  0.46239311269E+03  0.56393500018E+03  0.17187304525E+04  0.12699999809E+01 0. -1.
       -4    1    3    3    0  502 -0.15563427259E+04 -0.46239311269E+03 -0.45352566117E+03  0.16857334337E+04  0.12699999809E+01 0.  1.
</event>
<event>
 5   0  0.1897313E-07  0.3406305E+04  0.7818609E-02  0.8136361E-01
       -2   -1    0    0    0  501  0.00000000000E+00  0.00000000000E+00  0.17941389633E+04  0.17941389633E+04  0.25500000920E-02 0. -1.
        2   -1    0    0  501    0  0.00000000000E+00  0.00000000000E+00 -0.16167806080E+04  0.16167806080E+04  0.25500000920E-02 0.  1.
    10030    2    1    2    0    0  0.00000000000E+00  0.00000000000E+00  0.17735835531E+03  0.34109195714E+04  0.34063053792E+04 0.  0.
        3    1    3    3  502    0  0.15975961529E+04  0.48711900040E+03  0.42249344572E+03  0.17228172016E+04  0.10100000352E+00 0.  1.
       -3    1    3    3    0  502 -0.15975961529E+04 -0.48711900040E+03 -0.24513509040E+03  0.16881023698E+04  0.10100000352E+00 0. -1.
</event>
<event>
 5   0  0.6584420E-08  0.3400176E+04  0.7818609E-02  0.8137863E-01
        1   -1    0    0  501    0  0.00000000000E+00  0.00000000000E+00  0.15365225136E+04  0.15365225136E+04  0.50400001928E-02 0.  1.
       -1   -1    0    0    0  501  0.00000000000E+00  0.00000000000E+00 -0.18810647664E+04  0.18810647664E+04  0.50400001928E-02 0. -1.
    10030    2    1    2    0    0  0.00000000000E+00  0.00000000000E+00 -0.34454225280E+03  0.34175872800E+04  0.34001755032E+04 0.  0.
        1    1    3    3  502    0 -0.86287394394E+03  0.95741479764E+03 -0.12865979008E+04  0.18211339040E+04  0.50400001928E-02 0. -1.
       -1    1    3    3    0  502  0.86287394394E+03 -0.95741479764E+03  0.94205564803E+03  0.15964533760E+04  0.50400001928E-02 0.  1.
</event>
<event>
 5   0  0.1963852E-07  0.3400444E+04  0.7818609E-02  0.8137797E-01
        2   -1    0    0  501    0  0.00000000000E+00  0.00000000000E+00  0.21938661909E+04  0.21938661909E+04  0.25500000920E-02 0. -1.
       -2   -1    0    0    0  501  0.00000000000E+00  0.00000000000E+00 -0.13176529275E+04  0.13176529275E+04  0.25500000920E-02 0.  1.
    10030    2    1    2    0    0  0.00000000000E+00  0.00000000000E+00  0.87621326336E+03  0.35115191184E+04  0.34004436234E+04 0.  0.
        4    1    3    3  502    0 -0.86822072545E+03 -0.13530959990E+04  0.10094201654E+04  0.18983168055E+04  0.12699999809E+01 0. -1.
       -4    1    3    3    0  502  0.86822072545E+03  0.13530959990E+04 -0.13320690204E+03  0.16132023129E+04  0.12699999809E+01 0.  1.
</event>
<event>
 5   0  0.6311750E-08  0.3402859E+04  0.7818609E-02  0.8137205E-01
       -1   -1    0    0    0  501  0.00000000000E+00  0.00000000000E+00  0.14250976026E+04  0.14250976026E+04  0.50400001928E-02 0.  1.
        1   -1    0    0  501    0  0.00000000000E+00  0.00000000000E+00 -0.20313432331E+04  0.20313432331E+04  0.50400001928E-02 0. -1.
    10030    2    1    2    0    0  0.00000000000E+00  0.00000000000E+00 -0.60624563052E+03  0.34564408358E+04  0.34028590166E+04 0.  0.
        4    1    3    3  502    0 -0.44593563807E+03 -0.28573173049E+03 -0.19454808078E+04  0.20162833138E+04  0.12699999809E+01 0. -1.
       -4    1    3    3    0  502  0.44593563807E+03  0.28573173049E+03  0.13392351773E+04  0.14401575220E+04  0.12699999809E+01 0.  1.
</event>
<event>
 5   0  0.1970449E-07  0.3405155E+04  0.7818609E-02  0.8136642E-01
       -2   -1    0    0    0  501  0.00000000000E+00  0.00000000000E+00  0.13136016911E+04  0.13136016911E+04  0.25500000920E-02 0.  1.
        2   -1    0    0  501    0  0.00000000000E+00  0.00000000000E+00 -0.22067350734E+04  0.22067350734E+04  0.25500000920E-02 0. -1.
    10030    2    1    2    0    0  0.00000000000E+00  0.00000000000E+00 -0.89313338225E+03  0.35203367645E+04  0.34051554585E+04 0.  0.
        1    1    3    3  502    0  0.13407629892E+04 -0.82579913303E+03  0.22277554339E+03  0.15903517045E+04  0.50400001928E-02 0.  1.
       -1    1    3    3    0  502 -0.13407629892E+04  0.82579913303E+03 -0.11159089256E+04  0.19299850599E+04  0.50400001928E-02 0. -1.
</event>
<event>
 5   0  0.1986613E-07  0.3397308E+04  0.7818609E-02  0.8138567E-01
       -2   -1    0    0    0  501  0.00000000000E+00  0.00000000000E+00  0.25213140497E+04  0.25213140497E+04  0.25500000920E-02 0.  1.
        2   -1    0    0  501    0  0.00000000000E+00  0.00000000000E+00 -0.11444130543E+04  0.11444130543E+04  0.25500000920E-02 0. -1.
    10030    2    1    2    0    0  0.00000000000E+00  0.00000000000E+00  0.13769009954E+04  0.36657271040E+04  0.33973075884E+04 0.  0.
        5    1    3    3  502    0 -0.12986336925E+04  0.55172201700E+03 -0.33208712760E+03  0.14495346156E+04  0.46999998093E+01 0. -1.
       -5    1    3    3    0  502  0.12986336925E+04 -0.55172201700E+03  0.17089881230E+04  0.22161924884E+04  0.46999998093E+01 0.  1.
</event>
<event>
 5   0  0.6584420E-08  0.3397346E+04  0.7818609E-02  0.8138558E-01
        1   -1    0    0  501    0  0.00000000000E+00  0.00000000000E+00  0.11734203531E+04  0.11734203532E+04  0.50400001928E-02 0.  1.
       -1   -1    0    0    0  501  0.00000000000E+00  0.00000000000E+00 -0.24590420993E+04  0.24590420993E+04  0.50400001928E-02 0. -1.
    10030    2    1    2    0    0  0.00000000000E+00  0.00000000000E+00 -0.12856217461E+04  0.36324624524E+04  0.33973460516E+04 0.  0.
        1    1    3    3  502    0 -0.13312585156E+04  0.70405393452E+03 -0.14830386092E+04  0.21136093997E+04  0.50400001928E-02 0.  1.
       -1    1    3    3    0  502  0.13312585156E+04 -0.70405393452E+03  0.19741686305E+03  0.15188530528E+04  0.50400001928E-02 0. -1.
</event>
<event>
 5   0  0.6584420E-08  0.3401026E+04  0.7818609E-02  0.8137655E-01
       -1   -1    0    0    0  501  0.00000000000E+00  0.00000000000E+00  0.29424554130E+04  0.29424554130E+04  0.50400001928E-02 0. -1.
        1   -1    0    0  501    0  0.00000000000E+00  0.00000000000E+00 -0.98276558514E+03  0.98276558515E+03  0.50400001928E-02 0.  1.
    10030    2    1    2    0    0  0.00000000000E+00  0.00000000000E+00  0.19596898279E+04  0.39252209982E+04  0.34010256781E+04 0.  0.
        1    1    3    3  502    0 -0.91104191852E+03 -0.77764462079E+03  0.23729576767E+04  0.26581302957E+04  0.50400001928E-02 0. -1.
       -1    1    3    3    0  502  0.91104191852E+03  0.77764462079E+03 -0.41326784876E+03  0.12670907025E+04  0.50400001928E-02 0.  1.
</event>
<event>
 5   0  0.6311750E-08  0.3406473E+04  0.7818609E-02  0.8136319E-01
        1   -1    0    0  501    0  0.00000000000E+00  0.00000000000E+00  0.15015559787E+04  0.15015559787E+04  0.50400001928E-02 0.  1.
       -1   -1    0    0    0  501  0.00000000000E+00  0.00000000000E+00 -0.19320060312E+04  0.19320060312E+04  0.50400001928E-02 0. -1.
    10030    2    1    2    0    0  0.00000000000E+00  0.00000000000E+00 -0.43045005257E+03  0.34335620099E+04  0.34064733711E+04 0.  0.
        4    1    3    3  502    0 -0.10673401489E+04 -0.42140695337E+03 -0.14838899343E+04  0.18758277543E+04  0.12699999809E+01 0. -1.
       -4    1    3    3    0  502  0.10673401489E+04  0.42140695337E+03  0.10534398817E+04  0.15577342556E+04  0.12699999809E+01 0.  1.
</event>
<event>
 5   0  0.1963852E-07  0.3401514E+04  0.7818609E-02  0.8137535E-01
       -2   -1    0    0    0  501  0.00000000000E+00  0.00000000000E+00  0.19711648499E+04  0.19711648499E+04  0.25500000920E-02 0. -1.
        2   -1    0    0  501    0  0.00000000000E+00  0.00000000000E+00 -0.14674437972E+04  0.14674437972E+04  0.25500000920E-02 0.  1.
    10030    2    1    2    0    0  0.00000000000E+00  0.00000000000E+00  0.50372105273E+03  0.34386086471E+04  0.34015135645E+04 0.  0.
        4    1    3    3  502    0  0.53335865208E+03  0.15629097666E+04  0.66300663936E+03  0.17795330306E+04  0.12699999809E+01 0. -1.
       -4    1    3    3    0  502 -0.53335865208E+03 -0.15629097666E+04 -0.15928558663E+03  0.16590756165E+04  0.12699999809E+01 0.  1.
</event>
<event>
 5   0  0.6584420E-08  0.3416080E+04  0.7818609E-02  0.8133971E-01
        1   -1    0    0  501    0  0.00000000000E+00  0.00000000000E+00  0.15356500253E+04  0.15356500253E+04  0.50400001928E-02 0.  1.
       -1   -1    0    0    0  501  0.00000000000E+00  0.00000000000E+00 -0.18997823266E+04  0.18997823266E+04  0.50400001928E-02 0. -1.
    10030    2    1    2    0    0  0.00000000000E+00  0.00000000000E+00 -0.36413230133E+03  0.34354323519E+04  0.34160800798E+04 0.  0.
        1    1    3    3  502    0 -0.15336937229E+04 -0.52521785680E+03  0.35887559855E+03  0.16603800553E+04  0.50400001928E-02 0.  1.
       -1    1    3    3    0  502  0.15336937229E+04  0.52521785680E+03 -0.72300789988E+03  0.17750522967E+04  0.50400001928E-02 0. -1.
</event>
<event>
 5   0  0.1970449E-07  0.3397541E+04  0.7818609E-02  0.8138510E-01
        2   -1    0    0  501    0  0.00000000000E+00  0.00000000000E+00  0.27598701490E+04  0.27598701490E+04  0.25500000920E-02 0. -1.
       -2   -1    0    0    0  501  0.00000000000E+00  0.00000000000E+00 -0.10456363883E+04  0.10456363883E+04  0.25500000920E-02 0.  1.
    10030    2    1    2    0    0  0.00000000000E+00  0.00000000000E+00  0.17142337606E+04  0.38055065373E+04  0.33975406722E+04 0.  0.
        1    1    3    3  502    0  0.72464341531E+03  0.66863106018E+03  0.24065702278E+04  0.26007221758E+04  0.50400001928E-02 0. -1.
       -1    1    3    3    0  502 -0.72464341531E+03 -0.66863106018E+03 -0.69233646720E+03  0.12047843615E+04  0.50400001928E-02 0.  1.
</event>
<event>
 5   0  0.6311750E-08  0.3400092E+04  0.7818609E-02  0.8137884E-01
       -3   -1    0    0    0  501  0.00000000000E+00  0.00000000000E+00  0.26389756634E+04  0.26389756654E+04  0.10100000352E+00 0. -1.
        3   -1    0    0  501    0  0.00000000000E+00  0.00000000000E+00 -0.10951810322E+04  0.10951810369E+04  0.10100000352E+00 0.  1.
    10030    2    1    2    0    0  0.00000000000E+00  0.00000000000E+00  0.15437946312E+04  0.37341567023E+04  0.34000918243E+04 0.  0.
        5    1    3    3  502    0 -0.11271276764E+04 -0.63623737306E+03  0.19824274201E+04  0.23675420502E+04  0.46999998093E+01 0. -1.
       -5    1    3    3    0  502  0.11271276764E+04  0.63623737306E+03 -0.43863278884E+03  0.13666146520E+04  0.46999998093E+01 0.  1.
</event>
<event>
 5   0  0.6341535E-08  0.3403568E+04  0.7818609E-02  0.8137031E-01
        1   -1    0    0  501    0  0.00000000000E+00  0.00000000000E+00  0.15967829206E+04  0.15967829206E+04  0.50400001928E-02 0. -1.
       -1   -1    0    0    0  501  0.00000000000E+00  0.00000000000E+00 -0.18136899892E+04  0.18136899892E+04  0.50400001928E-02 0.  1.
    10030    2    1    2    0    0  0.00000000000E+00  0.00000000000E+00 -0.21690706864E+03  0.34104729098E+04  0.34035682441E+04 0.  0.
        5    1    3    3  502    0 -0.93411185936E+02  0.16191841941E+04  0.40792091554E+03  0.16723948898E+04  0.46999998093E+01 0.  1.
       -5    1    3    3    0  502  0.93411185936E+02 -0.16191841941E+04 -0.62482798418E+03  0.17380780201E+04  0.46999998093E+01 0. -1.
</event>
<event>
 5   0  0.1897313E-07  0.3398048E+04  0.7818609E-02  0.8138386E-01
        2   -1    0    0  501    0  0.00000000000E+00  0.00000000000E+00  0.26666569050E+04  0.26666569050E+04  0.25500000920E-02 0. -1.
       -2   -1    0    0    0  501  0.00000000000E+00  0.00000000000E+00 -0.10825100794E+04  0.10825100794E+04  0.25500000920E-02 0.  1.
    10030    2    1    2    0    0  0.00000000000E+00  0.00000000000E+00  0.15841468256E+04  0.37491669844E+04  0.33980482503E+04 0.  0.
        3    1    3    3  502    0 -0.13553911005E+03  0.15467165981E+04  0.15532747479E+04  0.21962161865E+04  0.10100000352E+00 0.  1.
       -3    1    3    3    0  502  0.13553911005E+03 -0.15467165981E+04  0.30872077714E+02  0.15529507979E+04  0.10100000352E+00 0. -1.
</event>
<event>
 5   0  0.6584420E-08  0.3400528E+04  0.7818609E-02  0.8137777E-01
       -1   -1    0    0    0  501  0.00000000000E+00  0.00000000000E+00  0.13982514612E+04  0.13982514612E+04  0.50400001928E-02 0. -1.
        1   -1    0    0  501    0  0.00000000000E+00  0.00000000000E+00 -0.20675090241E+04  0.20675090241E+04  0.50400001928E-02 0.  1.
    10030    2    1    2    0    0  0.00000000000E+00  0.00000000000E+00 -0.66925756294E+03  0.34657604853E+04  0.34005279084E+04 0.  0.
        1    1    3    3  502    0  0.43754773344E+03 -0.84522326805E+03 -0.17705731432E+04  0.20101690594E+04  0.50400001928E-02 0.  1.
       -1    1    3    3    0  502 -0.43754773344E+03  0.84522326805E+03  0.11013155803E+04  0.14555914259E+04  0.50400001928E-02 0. -1.
</event>
<event>
 5   0  0.6341535E-08  0.3403756E+04  0.7818609E-02  0.8136985E-01
       -1   -1    0    0    0  501  0.00000000000E+00  0.00000000000E+00  0.13333400959E+04  0.13333400959E+04  0.50400001928E-02 0.  1.
        1   -1    0    0  501    0  0.00000000000E+00  0.00000000000E+00 -0.21722808533E+04  0.21722808533E+04  0.50400001928E-02 0. -1.
    10030    2    1    2    0    0  0.00000000000E+00  0.00000000000E+00 -0.83894075737E+03  0.35056209492E+04  0.34037562552E+04 0.  0.
        5    1    3    3  502    0 -0.16365575131E+04  0.46227611292E+03 -0.48737822509E+03  0.17690617068E+04  0.46999998093E+01 0.  1.
       -5    1    3    3    0  502  0.16365575131E+04 -0.46227611292E+03 -0.35156253229E+03  0.17365592424E+04  0.46999998093E+01 0. -1.
</event>
<event>
 5   0  0.1986613E-07  0.3407581E+04  0.7818609E-02  0.8136048E-01
        2   -1    0    0  501    0  0.00000000000E+00  0.00000000000E+00  0.22073711716E+04  0.22073711716E+04  0.25500000920E-02 0. -1.
       -2   -1    0    0    0  501  0.00000000000E+00  0.00000000000E+00 -0.13150943717E+04  0.13150943717E+04  0.25500000920E-02 0.  1.
    10030    2    1    2    0    0  0.00000000000E+00  0.00000000000E+00  0.89227679986E+03  0.35224655434E+04  0.34075806104E+04 0.  0.
        5    1    3    3  502    0  0.16593719220E+03  0.13756603764E+04 -0.57870115042E+03  0.15016303588E+04  0.46999998093E+01 0.  1.
       -5    1    3    3    0  502 -0.16593719220E+03 -0.13756603764E+04  0.14709779503E+04  0.20208351846E+04  0.46999998093E+01 0. -1.
</event>
<event>
 5   0  0.6584420E-08  0.3409261E+04  0.7818609E-02  0.8135637E-01
       -1   -1    0    0    0  501  0.00000000000E+00  0.00000000000E+00  0.12758916258E+04  0.12758916258E+04  0.50400001928E-02 0.  1.
        1   -1    0    0  501    0  0.00000000000E+00  0.00000000000E+00 -0.22774392753E+04  0.22774392753E+04  0.50400001928E-02 0. -1.
    10030    2    1    2    0    0  0.00000000000E+00  0.00000000000E+00 -0.10015476494E+04  0.35533309011E+04  0.34092613274E+04 0.  0.
        1    1    3    3  502    0 -0.16998662094E+04  0.11005009522E+03 -0.56758856879E+03  0.17954979634E+04  0.50400001928E-02 0. -1.
       -1    1    3    3    0  502  0.16998662094E+04 -0.11005009522E+03 -0.43395908064E+03  0.17578329377E+04  0.50400001928E-02 0.  1.
</event>
<event>
 5   0  0.6341535E-08  0.3402481E+04  0.7818609E-02  0.8137298E-01
        1   -1    0    0  501    0  0.00000000000E+00  0.00000000000E+00  0.22658711651E+04  0.22658711651E+04  0.50400001928E-02 0.  1.
       -1   -1    0    0    0  501  0.00000000000E+00  0.00000000000E+00 -0.12773095318E+04  0.12773095318E+04  0.50400001928E-02 0. -1.
    10030    2    1    2    0    0  0.00000000000E+00  0.00000000000E+00  0.98856163328E+03  0.35431806969E+04  0.34024807638E+04 0.  0.
        5    1    3    3  502    0 -0.31330710150E+03  0.14811022457E+02 -0.12469322550E+04  0.12857849139E+04  0.46999998093E+01 0. -1.
       -5    1    3    3    0  502  0.31330710150E+03 -0.14811022457E+02  0.22354938883E+04  0.22573957829E+04  0.46999998093E+01 0.  1.
</event>
<event>
 5   0  0.6367111E-08  0.3400409E+04  0.7818609E-02  0.8137806E-01
        1   -1    0    0  501    0  0.00000000000E+00  0.00000000000E+00  0.12934861708E+04  0.12934861708E+04  0.50400001928E-02 0. -1.
       -1   -1    0    0    0  501  0.00000000000E+00  0.00000000000E+00 -0.22348100248E+04  0.22348100248E+04  0.50400001928E-02 0.  1.
    10030    2    1    2    0    0  0.00000000000E+00  0.00000000000E+00 -0.94132385405E+03  0.35282961956E+04  0.34004093056E+04 0.  0.
        3    1    3    3  502    0 -0.14493374712E+04 -0.61631276597E+03 -0.11352790668E+04  0.19414631340E+04  0.10100000352E+00 0. -1.
       -3    1    3    3    0  502  0.14493374712E+04  0.61631276597E+03  0.19395521273E+03  0.15868330617E+04  0.10100000352E+00 0.  1.
</event>
<event>
 5   0  0.1963852E-07  0.3429375E+04  0.7818609E-02  0.8130734E-01
        2   -1    0    0  501    0  0.00000000000E+00  0.00000000000E+00  0.82154184025E+03  0.82154184026E+03  0.25500000920E-02 0. -1.
       -2   -1    0    0    0  501  0.00000000000E+00  0.00000000000E+00 -0.35788227122E+04  0.35788227122E+04  0.25500000920E-02 0.  1.
    10030    2    1    2    0    0  0.00000000000E+00  0.00000000000E+00 -0.27572808720E+04  0.44003645525E+04  0.34293746351E+04 0.  0.
        4    1    3    3  502    0  0.15019401348E+03  0.12400735763E+04 -0.28858839108E+04  0.31446252997E+04  0.12699999809E+01 0.  1.
       -4    1    3    3    0  502 -0.15019401348E+03 -0.12400735763E+04  0.12860303881E+03  0.12557392527E+04  0.12699999809E+01 0. -1.
</event>
<event>
 5   0  0.6788600E-08  0.3401665E+04  0.7818609E-02  0.8137498E-01
        1   -1    0    0  501    0  0.00000000000E+00  0.00000000000E+00  0.26034113504E+04  0.26034113504E+04  0.50400001928E-02 0.  1.
       -1   -1    0    0    0  501  0.00000000000E+00  0.00000000000E+00 -0.11111694408E+04  0.11111694408E+04  0.50400001928E-02 0. -1.
    10030    2    1    2    0    0  0.00000000000E+00  0.00000000000E+00  0.14922419096E+04  0.37145807912E+04  0.34016649655E+04 0.  0.
        2    1    3    3  502    0 -0.14160289242E+04 -0.45108910899E+03  0.16493825862E+04  0.22201536465E+04  0.25500000920E-02 0.  1.
       -2    1    3    3    0  502  0.14160289242E+04  0.45108910899E+03 -0.15714067657E+03  0.14944271447E+04  0.25500000920E-02 0. -1.
</event>
<event>
 5   0  0.6311750E-08  0.3402954E+04  0.7818609E-02  0.8137182E-01
        3   -1    0    0  501    0  0.00000000000E+00  0.00000000000E+00  0.14159629080E+04  0.14159629116E+04  0.10100000352E+00 0. -1.
       -3   -1    0    0    0  501  0.00000000000E+00  0.00000000000E+00 -0.20445619895E+04  0.20445619920E+04  0.10100000352E+00 0.  1.
    10030    2    1    2    0    0  0.00000000000E+00  0.00000000000E+00 -0.62859908156E+03  0.34605249036E+04  0.34029539819E+04 0.  0.
        3    1    3    3  502    0  0.12352834854E+04 -0.27371067618E+02 -0.15038542425E+04  0.19463432528E+04  0.10100000352E+00 0.  1.
       -3    1    3    3    0  502 -0.12352834854E+04  0.27371067618E+02  0.87525516094E+03  0.15141816508E+04  0.10100000352E+00 0. -1.
</event>
<event>
 5   0  0.1970449E-07  0.3405038E+04  0.7818609E-02  0.8136671E-01
        2   -1    0    0  501    0  0.00000000000E+00  0.00000000000E+00  0.14317723319E+04  0.14317723319E+04  0.25500000920E-02 0.  1.
       -2   -1    0    0    0  501  0.00000000000E+00  0.00000000000E+00 -0.20244638080E+04  0.20244638080E+04  0.25500000920E-02 0. -1.
    10030    2    1    2    0    0  0.00000000000E+00  0.00000000000E+00 -0.59269147617E+03  0.34562361399E+04  0.34050381890E+04 0.  0.
        1    1    3    3  502    0 -0.69056630720E+03  0.46932826170E+03 -0.18023732854E+04  0.19863786905E+04  0.50400001928E-02 0. -1.
       -1    1    3    3    0  502  0.69056630720E+03 -0.46932826170E+03  0.12096818093E+04  0.14698574494E+04  0.50400001928E-02 0.  1.
</event>
<event>
 5   0  0.1963852E-07  0.3391741E+04  0.7818609E-02  0.8139936E-01
       -2   -1    0    0    0  501  0.00000000000E+00  0.00000000000E+00  0.18384855086E+04  0.18384855086E+04  0.25500000920E-02 0. -1.
        2   -1    0    0  501    0  0.00000000000E+00  0.00000000000E+00 -0.15643180524E+04  0.15643180524E+04  0.25500000920E-02 0.  1.
    10030    2    1    2    0    0  0.00000000000E+00  0.00000000000E+00  0.27416745622E+03  0.34028035610E+04  0.33917405975E+04 0.  0.
        4    1    3    3  502    0 -0.14444974448E+04 -0.31265338994E+03 -0.69728355409E+03  0.16341759324E+04  0.12699999809E+01 0.  1.
       -4    1    3    3    0  502  0.14444974448E+04  0.31265338994E+03  0.97145101031E+03  0.17686276286E+04  0.12699999809E+01 0. -1.
</event>
<event>
 5   0  0.1963852E-07  0.3399732E+04  0.7818609E-02  0.8137972E-01
       -2   -1    0    0    0  501  0.00000000000E+00  0.00000000000E+00  0.16617321662E+04  0.16617321662E+04  0.25500000920E-02 0. -1.
        2   -1    0    0  501    0  0.00000000000E+00  0.00000000000E+00 -0.17388745139E+04  0.17388745139E+04  0.25500000920E-02 0.  1.
    10030    2    1    2    0    0  0.00000000000E+00  0.00000000000E+00 -0.77142347630E+02  0.34006066801E+04  0.33997315851E+04 0.  0.
        4    1    3    3  502    0  0.67009524694E+03  0.12001809922E+04  0.96172625979E+03  0.16776117148E+04  0.12699999809E+01 0. -1.
       -4    1    3    3    0  502 -0.67009524694E+03 -0.12001809922E+04 -0.10388686074E+04  0.17229949653E+04  0.12699999809E+01 0.  1.
</event>
<event>
 5   0  0.1928004E-07  0.3396961E+04  0.7818609E-02  0.8138653E-01
       -2   -1    0    0    0  501  0.00000000000E+00  0.00000000000E+00  0.11460592409E+04  0.11460592410E+04  0.25500000920E-02 0.  1.
        2   -1    0    0  501    0  0.00000000000E+00  0.00000000000E+00 -0.25171791088E+04  0.25171791088E+04  0.25500000920E-02 0. -1.
    10030    2    1    2    0    0  0.00000000000E+00  0.00000000000E+00 -0.13711198678E+04  0.36632383497E+04  0.33969612178E+04 0.  0.
        2    1    3    3  502    0  0.55051334290E+03  0.13763600813E+04 -0.15796488914E+04  0.21662692894E+04  0.25500000920E-02 0. -1.
       -2    1    3    3    0  502 -0.55051334290E+03 -0.13763600813E+04  0.20852902355E+03  0.14969690604E+04  0.25500000920E-02 0.  1.
</event>
<event>
 5   0  0.1897313E-07  0.3397995E+04  0.7818609E-02  0.8138399E-01
        2   -1    0    0  501    0  0.00000000000E+00  0.00000000000E+00  0.18954717081E+04  0.18954717081E+04  0.25500000920E-02 0. -1.
       -2   -1    0    0    0  501  0.00000000000E+00  0.00000000000E+00 -0.15228889133E+04  0.15228889133E+04  0.25500000920E-02 0.  1.
    10030    2    1    2    0    0  0.00000000000E+00  0.00000000000E+00  0.37258279477E+03  0.34183606214E+04  0.33979952029E+04 0.  0.
        3    1    3    3  502    0 -0.70968704291E+03 -0.72376208624E+03 -0.11853707155E+04  0.15596765690E+04  0.10100000352E+00 0.  1.
       -3    1    3    3    0  502  0.70968704291E+03  0.72376208624E+03  0.15579535103E+04  0.18586840524E+04  0.10100000352E+00 0. -1.
</event>
<event>
 5   0  0.6367111E-08  0.3399778E+04  0.7818609E-02  0.8137961E-01
       -1   -1    0    0    0  501  0.00000000000E+00  0.00000000000E+00  0.13043270639E+04  0.13043270639E+04  0.50400001928E-02 0. -1.
        1   -1    0    0  501    0  0.00000000000E+00  0.00000000000E+00 -0.22154119682E+04  0.22154119682E+04  0.50400001928E-02 0.  1.
    10030    2    1    2    0    0  0.00000000000E+00  0.00000000000E+00 -0.91108490424E+03  0.35197390321E+04  0.33997775150E+04 0.  0.
        3    1    3    3  502    0 -0.17371232880E+03  0.45731662623E+03 -0.21409622227E+04  0.21961406419E+04  0.10100000352E+00 0.  1.
       -3    1    3    3    0  502  0.17371232880E+03 -0.45731662623E+03  0.12298773185E+04  0.13235983902E+04  0.10100000352E+00 0. -1.
</event>
<event>
 5   0  0.6311750E-08  0.3396354E+04  0.7818609E-02  0.8138802E-01
       -1   -1    0    0    0  501  0.00000000000E+00  0.00000000000E+00  0.14189186606E+04  0.14189186606E+04  0.50400001928E-02 0.  1.
        1   -1    0    0  501    0  0.00000000000E+00  0.00000000000E+00 -0.20323958179E+04  0.20323958180E+04  0.50400001928E-02 0. -1.
    10030    2    1    2    0    0  0.00000000000E+00  0.00000000000E+00 -0.61347715735E+03  0.34513144786E+04  0.33963535457E+04 0.  0.
        4    1    3    3  502    0 -0.96195766314E+03 -0.13991885292E+04 -0.27963006282E+03  0.17208386534E+04  0.12699999809E+01 0.  1.
       -4    1    3    3    0  502  0.96195766314E+03  0.13991885292E+04 -0.33384709453E+03  0.17304758252E+04  0.12699999809E+01 0. -1.
</event>
<event>
 5   0  0.1897313E-07  0.3401225E+04  0.7818609E-02  0.8137606E-01
        2   -1    0    0  501    0  0.00000000000E+00  0.00000000000E+00  0.17836921516E+04  0.17836921516E+04  0.25500000920E-02 0.  1.
       -2   -1    0    0    0  501  0.00000000000E+00  0.00000000000E+00 -0.16214026507E+04  0.16214026507E+04  0.25500000920E-02 0. -1.
    10030    2    1    2    0    0  0.00000000000E+00  0.00000000000E+00  0.16228950091E+03  0.34050948023E+04  0.34012251808E+04 0.  0.
        3    1    3    3  502    0  0.29801327214E+03  0.91178122503E+03  0.14869953074E+04  0.17695513462E+04  0.10100000352E+00 0.  1.
       -3    1    3    3    0  502 -0.29801327214E+03 -0.91178122503E+03 -0.13247058064E+04  0.16355434560E+04  0.10100000352E+00 0. -1.
</event>
<event>
 5   0  0.1928004E-07  0.3398030E+04  0.7818609E-02  0.8138390E-01
        2   -1    0    0  501    0  0.00000000000E+00  0.00000000000E+00  0.10573882899E+04  0.10573882899E+04  0.25500000920E-02 0. -1.
       -2   -1    0    0    0  501  0.00000000000E+00  0.00000000000E+00 -0.27299822273E+04  0.27299822273E+04  0.25500000920E-02 0.  1.
    10030    2    1    2    0    0  0.00000000000E+00  0.00000000000E+00 -0.16725939375E+04  0.37873705172E+04  0.33980295695E+04 0.  0.
        2    1    3    3  502    0  0.72911179789E+03  0.15275468171E+04 -0.67230635426E+03  0.18212630579E+04  0.25500000920E-02 0. -1.
       -2    1    3    3    0  502 -0.72911179789E+03 -0.15275468171E+04 -0.10002875832E+04  0.19661074593E+04  0.25500000920E-02 0.  1.
</event>
<event>
 5   0  0.6584420E-08  0.3296605E+04  0.7818609E-02  0.8163760E-01
        1   -1    0    0  501    0  0.00000000000E+00  0.00000000000E+00  0.16836576568E+04  0.16836576568E+04  0.50400001928E-02 0.  1.
       -1   -1    0    0    0  501  0.00000000000E+00  0.00000000000E+00 -0.16136894141E+04  0.16136894141E+04  0.50400001928E-02 0. -1.
    10030    2    1    2    0    0  0.00000000000E+00  0.00000000000E+00  0.69968242705E+02  0.32973470710E+04  0.32966046398E+04 0.  0.
        1    1    3    3  502    0 -0.49022482575E+03 -0.15038793771E+04  0.49869070515E+03  0.16585131836E+04  0.50400001928E-02 0.  1.
       -1    1    3    3    0  502  0.49022482575E+03  0.15038793771E+04 -0.42872246244E+03  0.16388338874E+04  0.50400001928E-02 0. -1.
</event>
<event>
 5   0  0.1970449E-07  0.3409753E+04  0.7818609E-02  0.8135517E-01
        2   -1    0    0  501    0  0.00000000000E+00  0.00000000000E+00  0.22228166993E+04  0.22228166993E+04  0.25500000920E-02 0.  1.
       -2   -1    0    0    0  501  0.00000000000E+00  0.00000000000E+00 -0.13076217155E+04  0.13076217155E+04  0.25500000920E-02 0. -1.
    10030    2    1    2    0    0  0.00000000000E+00  0.00000000000E+00  0.91519498384E+03  0.35304384148E+04  0.34097527099E+04 0.  0.
        1    1    3    3  502    0 -0.48285532864E+03  0.73895837077E+03  0.19677812235E+04  0.21567038939E+04  0.50400001928E-02 0.  1.
       -1    1    3    3    0  502  0.48285532864E+03 -0.73895837077E+03 -0.10525862397E+04  0.13737345210E+04  0.50400001928E-02 0. -1.
</event>
<event>
 5   0  0.6788600E-08  0.3389619E+04  0.7818609E-02  0.8140459E-01
        1   -1    0    0  501    0  0.00000000000E+00  0.00000000000E+00  0.16238613256E+04  0.16238613256E+04  0.50400001928E-02 0. -1.
       -1   -1    0    0    0  501  0.00000000000E+00  0.00000000000E+00 -0.17688579249E+04  0.17688579249E+04  0.50400001928E-02 0.  1.
    10030    2    1    2    0    0  0.00000000000E+00  0.00000000000E+00 -0.14499659931E+03  0.33927192504E+04  0.33896194327E+04 0.  0.
        2    1    3    3  502    0 -0.11202538145E+04 -0.86748246827E+03  0.85834440319E+03  0.16565776638E+04  0.25500000920E-02 0. -1.
       -2    1    3    3    0  502  0.11202538145E+04  0.86748246827E+03 -0.10033410025E+04  0.17361415867E+04  0.25500000920E-02 0.  1.
</event>
<event>
 5   0  0.1986613E-07  0.3399040E+04  0.7818609E-02  0.8138142E-01
       -2   -1    0    0    0  501  0.00000000000E+00  0.00000000000E+00  0.23208271431E+04  0.23208271431E+04  0.25500000920E-02 0. -1.
        2   -1    0    0  501    0  0.00000000000E+00  0.00000000000E+00 -0.12445428768E+04  0.12445428769E+04  0.25500000920E-02 0.  1.
    10030    2    1    2    0    0  0.00000000000E+00  0.00000000000E+00  0.10762842662E+04  0.35653700199E+04  0.33990403877E+04 0.  0.
        5    1    3    3  502    0 -0.14576815508E+04  0.77053544261E+03  0.97035706710E+03  0.19131584617E+04  0.46999998093E+01 0. -1.
       -5    1    3    3    0  502  0.14576815508E+04 -0.77053544261E+03  0.10592719912E+03  0.16522115583E+04  0.46999998093E+01 0.  1.
</event>
<event>
 5   0  0.6788600E-08  0.3404140E+04  0.7818609E-02  0.8136891E-01
        1   -1    0    0  501    0  0.00000000000E+00  0.00000000000E+00  0.17735047307E+04  0.17735047307E+04  0.50400001928E-02 0. -1.
       -1   -1    0    0    0  501  0.00000000000E+00  0.00000000000E+00 -0.16335123245E+04  0.16335123246E+04  0.50400001928E-02 0.  1.
    10030    2    1    2    0    0  0.00000000000E+00  0.00000000000E+00  0.13999240619E+03  0.34070170553E+04  0.34041397359E+04 0.  0.
        2    1    3    3  502    0 -0.71122750107E+03 -0.97152936966E+03 -0.11340701064E+04  0.16540341232E+04  0.25500000920E-02 0.  1.
       -2    1    3    3    0  502  0.71122750107E+03  0.97152936966E+03  0.12740625126E+04  0.17529829321E+04  0.25500000920E-02 0. -1.
</event>
<event>
 5   0  0.6367111E-08  0.3399920E+04  0.7818609E-02  0.8137926E-01
        1   -1    0    0  501    0  0.00000000000E+00  0.00000000000E+00  0.22762670416E+04  0.22762670416E+04  0.50400001928E-02 0.  1.
       -1   -1    0    0    0  501  0.00000000000E+00  0.00000000000E+00 -0.12695630934E+04  0.12695630934E+04  0.50400001928E-02 0. -1.
    10030    2    1    2    0    0  0.00000000000E+00  0.00000000000E+00  0.10067039483E+04  0.35458301350E+04  0.33999203678E+04 0.  0.
        3    1    3    3  502    0 -0.78162711703E+02  0.39442346357E+03  0.22259586135E+04  0.22619838720E+04  0.10100000352E+00 0.  1.
       -3    1    3    3    0  502  0.78162711703E+02 -0.39442346357E+03 -0.12192546652E+04  0.12838462630E+04  0.10100000352E+00 0. -1.
</event>
<event>
 5   0  0.6341535E-08  0.3391470E+04  0.7818609E-02  0.8140003E-01
       -1   -1    0    0    0  501  0.00000000000E+00  0.00000000000E+00  0.14221230768E+04  0.14221230768E+04  0.50400001928E-02 0.  1.
        1   -1    0    0  501    0  0.00000000000E+00  0.00000000000E+00 -0.20219888017E+04  0.20219888017E+04  0.50400001928E-02 0. -1.
    10030    2    1    2    0    0  0.00000000000E+00  0.00000000000E+00 -0.59986572485E+03  0.34441118785E+04  0.33914698500E+04 0.  0.
        5    1    3    3  502    0 -0.13105027135E+04  0.42934742115E+03 -0.13020313597E+04  0.18965928192E+04  0.46999998093E+01 0. -1.
       -5    1    3    3    0  502  0.13105027135E+04 -0.42934742115E+03  0.70216563484E+03  0.15475190593E+04  0.46999998093E+01 0.  1.
</event>
<event>
 5   0  0.1970449E-07  0.3396903E+04  0.7818609E-02  0.8138667E-01
       -2   -1    0    0    0  501  0.00000000000E+00  0.00000000000E+00  0.11377385103E+04  0.11377385103E+04  0.25500000920E-02 0.  1.
        2   -1    0    0  501    0  0.00000000000E+00  0.00000000000E+00 -0.25355006782E+04  0.25355006782E+04  0.25500000920E-02 0. -1.
    10030    2    1    2    0    0  0.00000000000E+00  0.00000000000E+00 -0.13977621679E+04  0.36732391886E+04  0.33969025683E+04 0.  0.
        1    1    3    3  502    0 -0.14120840488E+04  0.80528689844E+03 -0.12311296715E+04  0.20391538975E+04  0.50400001928E-02 0. -1.
       -1    1    3    3    0  502  0.14120840488E+04 -0.80528689844E+03 -0.16663249646E+03  0.16340852911E+04  0.50400001928E-02 0.  1.
</event>
<event>
 5   0  0.6367111E-08  0.3397135E+04  0.7818609E-02  0.8138610E-01
       -1   -1    0    0    0  501  0.00000000000E+00  0.00000000000E+00  0.11593705498E+04  0.11593705498E+04  0.50400001928E-02 0. -1.
        1   -1    0    0  501    0  0.00000000000E+00  0.00000000000E+00 -0.24885322957E+04  0.24885322957E+04  0.50400001928E-02 0.  1.
    10030    2    1    2    0    0  0.00000000000E+00  0.00000000000E+00 -0.13291617458E+04  0.36479028455E+04  0.33971347079E+04 0.  0.
        3    1    3    3  502    0  0.10636168336E+04 -0.78263412111E+03  0.48261319632E+03  0.14059560603E+04  0.10100000352E+00 0. -1.
       -3    1    3    3    0  502 -0.10636168336E+04  0.78263412111E+03 -0.18117749422E+04  0.22419467851E+04  0.10100000352E+00 0.  1.
</event>
<event>
 5   0  0.1928004E-07  0.3399005E+04  0.7818609E-02  0.8138151E-01
       -2   -1    0    0    0  501  0.00000000000E+00  0.00000000000E+00  0.11966103018E+04  0.11966103018E+04  0.25500000920E-02 0.  1.
        2   -1    0    0  501    0  0.00000000000E+00  0.00000000000E+00 -0.24137418205E+04  0.24137418205E+04  0.25500000920E-02 0. -1.
    10030    2    1    2    0    0  0.00000000000E+00  0.00000000000E+00 -0.12171315187E+04  0.36103521223E+04  0.33990047533E+04 0.  0.
        2    1    3    3  502    0  0.10733158884E+03 -0.16905571073E+04 -0.46290800998E+03  0.17560715329E+04  0.25500000920E-02 0.  1.
       -2    1    3    3    0  502 -0.10733158884E+03  0.16905571073E+04 -0.75422350872E+03  0.18542805894E+04  0.25500000920E-02 0. -1.
</event>
<event>
 5   0  0.6311750E-08  0.3398985E+04  0.7818609E-02  0.8138156E-01
       -1   -1    0    0    0  501  0.00000000000E+00  0.00000000000E+00  0.10546602847E+04  0.10546602847E+04  0.50400001928E-02 0.  1.
        1   -1    0    0  501    0  0.00000000000E+00  0.00000000000E+00 -0.27385822949E+04  0.27385822949E+04  0.50400001928E-02 0. -1.
    10030    2    1    2    0    0  0.00000000000E+00  0.00000000000E+00 -0.16839220102E+04  0.37932425796E+04  0.33989845441E+04 0.  0.
        4    1    3    3  502    0 -0.89860028993E+03 -0.13029099436E+04 -0.15328097914E+04  0.22033075753E+04  0.12699999809E+01 0. -1.
       -4    1    3    3    0  502  0.89860028993E+03  0.13029099436E+04 -0.15111221881E+03  0.15899350043E+04  0.12699999809E+01 0.  1.
</event>
<event>
 5   0  0.6341535E-08  0.3401147E+04  0.7818609E-02  0.8137625E-01
       -1   -1    0    0    0  501  0.00000000000E+00  0.00000000000E+00  0.13923198519E+04  0.13923198520E+04  0.50400001928E-02 0.  1.
        1   -1    0    0  501    0  0.00000000000E+00  0.00000000000E+00 -0.20770727027E+04  0.20770727027E+04  0.50400001928E-02 0. -1.
    10030    2    1    2    0    0  0.00000000000E+00  0.00000000000E+00 -0.68475285076E+03  0.34693925547E+04  0.34011466055E+04 0.  0.
        5    1    3    3  502    0  0.16236775054E+04  0.49628278194E+03 -0.44075976292E+03  0.17541141638E+04  0.46999998093E+01 0. -1.
       -5    1    3    3    0  502 -0.16236775054E+04 -0.49628278194E+03 -0.24399308784E+03  0.17152783908E+04  0.46999998093E+01 0.  1.
</event>
<event>
 5   0  0.1986613E-07  0.3399472E+04  0.7818609E-02  0.8138036E-01
        2   -1    0    0  501    0  0.00000000000E+00  0.00000000000E+00  0.19141051250E+04  0.19141051250E+04  0.25500000920E-02 0.  1.
       -2   -1    0    0    0  501  0.00000000000E+00  0.00000000000E+00 -0.15093747402E+04  0.15093747402E+04  0.25500000920E-02 0. -1.
    10030    2    1    2    0    0  0.00000000000E+00  0.00000000000E+00  0.40473038480E+03  0.34234798651E+04  0.33994716799E+04 0.  0.
        5    1    3    3  502    0  0.35044273223E+03  0.16451611831E+04  0.44845629824E+03  0.17408332972E+04  0.46999998093E+01 0. -1.
       -5    1    3    3    0  502 -0.35044273223E+03 -0.16451611831E+04 -0.43725913440E+02  0.16826465679E+04  0.46999998093E+01 0.  1.
</event>
<event>
 5   0  0.6341535E-08  0.3414480E+04  0.7818609E-02  0.8134362E-01
       -1   -1    0    0    0  501  0.00000000000E+00  0.00000000000E+00  0.16110040919E+04  0.16110040919E+04  0.50400001928E-02 0.  1.
        1   -1    0    0  501    0  0.00000000000E+00  0.00000000000E+00 -0.18092243111E+04  0.18092243111E+04  0.50400001928E-02 0. -1.
    10030    2    1    2    0    0  0.00000000000E+00  0.00000000000E+00 -0.19822021920E+03  0.34202284031E+04  0.34144796198E+04 0.  0.
        5    1    3    3  502    0  0.12111770678E+04  0.29699836065E+03 -0.12670439328E+04  0.17778021075E+04  0.46999998093E+01 0. -1.
       -5    1    3    3    0  502 -0.12111770678E+04 -0.29699836065E+03  0.10688237136E+04  0.16424262956E+04  0.46999998093E+01 0.  1.
</event>
<event>
 5   0  0.6788600E-08  0.3415549E+04  0.7818609E-02  0.8134101E-01
       -1   -1    0    0    0  501  0.00000000000E+00  0.00000000000E+00  0.15832680348E+04  0.15832680348E+04  0.50400001928E-02 0.  1.
        1   -1    0    0  501    0  0.00000000000E+00  0.00000000000E+00 -0.18420717426E+04  0.18420717426E+04  0.50400001928E-02 0. -1.
    10030    2    1    2    0    0  0.00000000000E+00  0.00000000000E+00 -0.25880370783E+03  0.34253397774E+04  0.34155487453E+04 0.  0.
        2    1    3    3  502    0  0.24038906481E+03  0.90581663561E+03  0.13023470152E+04  0.16044931997E+04  0.25500000920E-02 0.  1.
       -2    1    3    3    0  502 -0.24038906481E+03 -0.90581663561E+03 -0.15611507230E+04  0.18208465778E+04  0.25500000920E-02 0. -1.
</event>
<event>
 5   0  0.1970449E-07  0.3399207E+04  0.7818609E-02  0.8138101E-01
        2   -1    0    0  501    0  0.00000000000E+00  0.00000000000E+00  0.21572917009E+04  0.21572917009E+04  0.25500000920E-02 0. -1.
       -2   -1    0    0    0  501  0.00000000000E+00  0.00000000000E+00 -0.13390181058E+04  0.13390181058E+04  0.25500000920E-02 0.  1.
    10030    2    1    2    0    0  0.00000000000E+00  0.00000000000E+00  0.81827359507E+03  0.34963098067E+04  0.33992073470E+04 0.  0.
        1    1    3    3  502    0  0.35146829507E+03  0.63626596107E+02  0.21182518597E+04  0.21481548472E+04  0.50400001928E-02 0. -1.
       -1    1    3    3    0  502 -0.35146829507E+03 -0.63626596107E+02 -0.12999782647E+04  0.13481549595E+04  0.50400001928E-02 0.  1.
</event>
<event>
 5   0  0.6311750E-08  0.3384145E+04  0.7818609E-02  0.8141809E-01
        1   -1    0    0  501    0  0.00000000000E+00  0.00000000000E+00  0.19591895970E+04  0.19591895970E+04  0.50400001928E-02 0. -1.
       -1   -1    0    0    0  501  0.00000000000E+00  0.00000000000E+00 -0.14613744657E+04  0.14613744657E+04  0.50400001928E-02 0.  1.
    10030    2    1    2    0    0  0.00000000000E+00  0.00000000000E+00  0.49781513130E+03  0.34205640628E+04  0.33841451805E+04 0.  0.
        4    1    3    3  502    0 -0.25178352361E+03 -0.16772606989E+03 -0.14338150630E+04  0.14653853503E+04  0.12699999809E+01 0.  1.
       -4    1    3    3    0  502  0.25178352361E+03  0.16772606989E+03  0.19316301943E+04  0.19551787124E+04  0.12699999809E+01 0. -1.
</event>
<event>
 5   0  0.1970449E-07  0.3397892E+04  0.7818609E-02  0.8138424E-01
        2   -1    0    0  501    0  0.00000000000E+00  0.00000000000E+00  0.78434780316E+03  0.78434780316E+03  0.25500000920E-02 0.  1.
       -2   -1    0    0    0  501  0.00000000000E+00  0.00000000000E+00 -0.36800228300E+04  0.36800228300E+04  0.25500000920E-02 0. -1.
    10030    2    1    2    0    0  0.00000000000E+00  0.00000000000E+00 -0.28956750268E+04  0.44643706331E+04  0.33978921833E+04 0.  0.
        1    1    3    3  502    0 -0.50168947194E+03 -0.37823849982E+03 -0.35217724958E+04  0.35773786773E+04  0.50400001928E-02 0. -1.
       -1    1    3    3    0  502  0.50168947194E+03  0.37823849982E+03  0.62609746896E+03  0.88699195580E+03  0.50400001928E-02 0.  1.
</event>
<event>
 5   0  0.1970449E-07  0.3405617E+04  0.7818609E-02  0.8136529E-01
        2   -1    0    0  501    0  0.00000000000E+00  0.00000000000E+00  0.25312187355E+04  0.25312187355E+04  0.25500000920E-02 0. -1.
       -2   -1    0    0    0  501  0.00000000000E+00  0.00000000000E+00 -0.11455177718E+04  0.11455177718E+04  0.25500000920E-02 0.  1.
    10030    2    1    2    0    0  0.00000000000E+00  0.00000000000E+00  0.13857009637E+04  0.36767365073E+04  0.34056165643E+04 0.  0.
        1    1    3    3  502    0 -0.15085779155E+04 -0.25759467252E+03 -0.11317317215E+03  0.15345913167E+04  0.50400001928E-02 0.  1.
       -1    1    3    3    0  502  0.15085779155E+04  0.25759467252E+03  0.14988741358E+04  0.21421451906E+04  0.50400001928E-02 0. -1.
</event>
<event>
 5   0  0.6311750E-08  0.3393431E+04  0.7818609E-02  0.8139520E-01
       -1   -1    0    0    0  501  0.00000000000E+00  0.00000000000E+00  0.12610430064E+04  0.12610430064E+04  0.50400001928E-02 0. -1.
        1   -1    0    0  501    0  0.00000000000E+00  0.00000000000E+00 -0.22829064100E+04  0.22829064100E+04  0.50400001928E-02 0.  1.
    10030    2    1    2    0    0  0.00000000000E+00  0.00000000000E+00 -0.10218634036E+04  0.35439494165E+04  0.33934308083E+04 0.  0.
        4    1    3    3  502    0 -0.15605669274E+04  0.65995909732E+03 -0.41795232215E+03  0.17451650069E+04  0.12699999809E+01 0. -1.
       -4    1    3    3    0  502  0.15605669274E+04 -0.65995909732E+03 -0.60391108146E+03  0.17987844096E+04  0.12699999809E+01 0.  1.
</event>
<event>
 5   0  0.6367111E-08  0.3394512E+04  0.7818609E-02  0.8139255E-01
       -1   -1    0    0    0  501  0.00000000000E+00  0.00000000000E+00  0.18968062218E+04  0.18968062219E+04  0.50400001928E-02 0.  1.
        1   -1    0    0  501    0  0.00000000000E+00  0.00000000000E+00 -0.15186987982E+04  0.15186987982E+04  0.50400001928E-02 0. -1.
    10030    2    1    2    0    0  0.00000000000E+00  0.00000000000E+00  0.37810742366E+03  0.34155050201E+04  0.33945116465E+04 0.  0.
        3    1    3    3  502    0  0.57542153976E+03 -0.10003586769E+04 -0.10631710556E+04  0.15691271888E+04  0.10100000352E+00 0. -1.
       -3    1    3    3    0  502 -0.57542153976E+03  0.10003586769E+04  0.14412784793E+04  0.18463778313E+04  0.10100000352E+00 0.  1.
</event>
<event>
 5   0  0.1963852E-07  0.3380889E+04  0.7818609E-02  0.8142613E-01
       -2   -1    0    0    0  501  0.00000000000E+00  0.00000000000E+00  0.18064098293E+04  0.18064098293E+04  0.25500000920E-02 0. -1.
        2   -1    0    0  501    0  0.00000000000E+00  0.00000000000E+00 -0.15819234774E+04  0.15819234774E+04  0.25500000920E-02 0.  1.
    10030    2    1    2    0    0  0.00000000000E+00  0.00000000000E+00  0.22448635186E+03  0.33883333068E+04  0.33808887109E+04 0.  0.
        4    1    3    3  502    0  0.15775722729E+04 -0.50051299530E+03  0.45702537241E+03  0.17170094172E+04  0.12699999809E+01 0. -1.
       -4    1    3    3    0  502 -0.15775722729E+04  0.50051299530E+03 -0.23253902055E+03  0.16713238896E+04  0.12699999809E+01 0.  1.
</event>
<event>
 5   0  0.6311750E-08  0.3407158E+04  0.7818609E-02  0.8136152E-01
        1   -1    0    0  501    0  0.00000000000E+00  0.00000000000E+00  0.17554374172E+04  0.17554374172E+04  0.50400001928E-02 0.  1.
       -1   -1    0    0    0  501  0.00000000000E+00  0.00000000000E+00 -0.16532528897E+04  0.16532528897E+04  0.50400001928E-02 0. -1.
    10030    2    1    2    0    0  0.00000000000E+00  0.00000000000E+00  0.10218452754E+03  0.34086903069E+04  0.34071583366E+04 0.  0.
        4    1    3    3  502    0  0.70682141203E+03 -0.92803226250E+03  0.12931576271E+04  0.17415793551E+04  0.12699999809E+01 0.  1.
       -4    1    3    3    0  502 -0.70682141203E+03  0.92803226250E+03 -0.11909730996E+04  0.16671109518E+04  0.12699999809E+01 0. -1.
</event>
<event>
 5   0  0.6584420E-08  0.3393226E+04  0.7818609E-02  0.8139571E-01
       -1   -1    0    0    0  501  0.00000000000E+00  0.00000000000E+00  0.21576539035E+04  0.21576539035E+04  0.50400001928E-02 0. -1.
        1   -1    0    0  501    0  0.00000000000E+00  0.00000000000E+00 -0.13340855674E+04  0.13340855674E+04  0.50400001928E-02 0.  1.
    10030    2    1    2    0    0  0.00000000000E+00  0.00000000000E+00  0.82356833609E+03  0.34917394709E+04  0.33932255641E+04 0.  0.
        1    1    3    3  502    0 -0.10507943379E+04 -0.41481225686E+03 -0.89076818724E+03  0.14386472508E+04  0.50400001928E-02 0.  1.
       -1    1    3    3    0  502  0.10507943379E+04  0.41481225686E+03  0.17143365233E+04  0.20530922201E+04  0.50400001928E-02 0. -1.
</event>
<event>
 5   0  0.6341535E-08  0.3401596E+04  0.7818609E-02  0.8137515E-01
       -1   -1    0    0    0  501  0.00000000000E+00  0.00000000000E+00  0.15243143783E+04  0.15243143783E+04  0.50400001928E-02 0. -1.
        1   -1    0    0  501    0  0.00000000000E+00  0.00000000000E+00 -0.18977145107E+04  0.18977145107E+04  0.50400001928E-02 0.  1.
    10030    2    1    2    0    0  0.00000000000E+00  0.00000000000E+00 -0.37340013239E+03  0.34220288890E+04  0.34015958106E+04 0.  0.
        5    1    3    3  502    0  0.30350130608E+03 -0.74755280772E+03  0.13195389478E+04  0.15466587756E+04  0.46999998093E+01 0. -1.
       -5    1    3    3    0  502 -0.30350130608E+03  0.74755280772E+03 -0.16929390802E+04  0.18753701135E+04  0.46999998093E+01 0.  1.
</event>
<event>
 5   0  0.1963852E-07  0.3410962E+04  0.7818609E-02  0.8135221E-01
       -2   -1    0    0    0  501  0.00000000000E+00  0.00000000000E+00  0.12962066370E+04  0.12962066370E+04  0.25500000920E-02 0. -1.
        2   -1    0    0  501    0  0.00000000000E+00  0.00000000000E+00 -0.22439830859E+04  0.22439830859E+04  0.25500000920E-02 0.  1.
    10030    2    1    2    0    0  0.00000000000E+00  0.00000000000E+00 -0.94777644886E+03  0.35401897229E+04  0.34109621922E+04 0.  0.
        4    1    3    3  502    0  0.54363026190E+03 -0.93783993556E+03  0.89265192451E+03  0.14042459463E+04  0.12699999809E+01 0. -1.
       -4    1    3    3    0  502 -0.54363026190E+03  0.93783993556E+03 -0.18404283734E+04  0.21359437766E+04  0.12699999809E+01 0.  1.
</event>
<event>
 5   0  0.1928004E-07  0.3413543E+04  0.7818609E-02  0.8134590E-01
       -2   -1    0    0    0  501  0.00000000000E+00  0.00000000000E+00  0.97428280256E+03  0.97428280256E+03  0.25500000920E-02 0. -1.
        2   -1    0    0  501    0  0.00000000000E+00  0.00000000000E+00 -0.29899618150E+04  0.29899618150E+04  0.25500000920E-02 0.  1.
    10030    2    1    2    0    0  0.00000000000E+00  0.00000000000E+00 -0.20156790125E+04  0.39642446176E+04  0.34135426622E+04 0.  0.
        2    1    3    3  502    0  0.52072039299E+03  0.14925100738E+04 -0.26030796717E+03  0.16020288030E+04  0.25500000920E-02 0. -1.
       -2    1    3    3    0  502 -0.52072039299E+03 -0.14925100738E+04 -0.17553710453E+04  0.23622158146E+04  0.25500000920E-02 0.  1.
</event>
<event>
 5   0  0.6341535E-08  0.3402073E+04  0.7818609E-02  0.8137398E-01
        1   -1    0    0  501    0  0.00000000000E+00  0.00000000000E+00  0.25526902334E+04  0.25526902334E+04  0.50400001928E-02 0. -1.
       -1   -1    0    0    0  501  0.00000000000E+00  0.00000000000E+00 -0.11335200561E+04  0.11335200561E+04  0.50400001928E-02 0.  1.
    10030    2    1    2    0    0  0.00000000000E+00  0.00000000000E+00  0.14191701773E+04  0.36862102895E+04  0.34020732364E+04 0.  0.
        5    1    3    3  502    0  0.78724056330E+03 -0.88467734112E+03  0.20326772411E+04  0.23524881634E+04  0.46999998093E+01 0. -1.
       -5    1    3    3    0  502 -0.78724056330E+03  0.88467734112E+03 -0.61350706375E+03  0.13337221261E+04  0.46999998093E+01 0.  1.
</event>
<event>
 5   0  0.6584420E-08  0.3395350E+04  0.7818609E-02  0.8139049E-01
       -1   -1    0    0    0  501  0.00000000000E+00  0.00000000000E+00  0.23347963186E+04  0.23347963186E+04  0.50400001928E-02 0. -1.
        1   -1    0    0  501    0  0.00000000000E+00  0.00000000000E+00 -0.12344119413E+04  0.12344119413E+04  0.50400001928E-02 0.  1.
    10030    2    1    2    0    0  0.00000000000E+00  0.00000000000E+00  0.11003843773E+04  0.35692082599E+04  0.33953500298E+04 0.  0.
        1    1    3    3  502    0 -0.33760510120E+03 -0.12121852380E+04  0.17481645720E+04  0.21539381668E+04  0.50400001928E-02 0. -1.
       -1    1    3    3    0  502  0.33760510120E+03  0.12121852380E+04 -0.64778019477E+03  0.14152700931E+04  0.50400001928E-02 0.  1.
</event>
<event>
 5   0  0.1897313E-07  0.3314970E+04  0.7818609E-02  0.8159097E-01
        2   -1    0    0  501    0  0.00000000000E+00  0.00000000000E+00  0.23539944048E+04  0.23539944048E+04  0.25500000920E-02 0. -1.
       -2   -1    0    0    0  501  0.00000000000E+00  0.00000000000E+00 -0.11670618548E+04  0.11670618548E+04  0.25500000920E-02 0.  1.
    10030    2    1    2    0    0  0.00000000000E+00  0.00000000000E+00  0.11869325501E+04  0.35210562596E+04  0.33149703324E+04 0.  0.
        3    1    3    3  502    0 -0.11585321508E+03  0.93914312536E+03  0.20388916305E+04  0.22477746480E+04  0.10100000352E+00 0. -1.
       -3    1    3    3    0  502  0.11585321508E+03 -0.93914312536E+03 -0.85195908042E+03  0.12732816115E+04  0.10100000352E+00 0.  1.
</event>
<event>
 5   0  0.1963852E-07  0.3392458E+04  0.7818609E-02  0.8139760E-01
       -2   -1    0    0    0  501  0.00000000000E+00  0.00000000000E+00  0.19928161907E+04  0.19928161907E+04  0.25500000920E-02 0.  1.
        2   -1    0    0  501    0  0.00000000000E+00  0.00000000000E+00 -0.14437821699E+04  0.14437821699E+04  0.25500000920E-02 0. -1.
    10030    2    1    2    0    0  0.00000000000E+00  0.00000000000E+00  0.54903402083E+03  0.34365983605E+04  0.33924578016E+04 0.  0.
        4    1    3    3  502    0  0.14295926275E+04  0.90322062919E+03  0.40909238037E+03  0.17397990615E+04  0.12699999809E+01 0.  1.
       -4    1    3    3    0  502 -0.14295926275E+04 -0.90322062919E+03  0.13994164045E+03  0.16967992991E+04  0.12699999809E+01 0. -1.
</event>
<event>
 5   0  0.1963852E-07  0.3401670E+04  0.7818609E-02  0.8137496E-01
        2   -1    0    0  501    0  0.00000000000E+00  0.00000000000E+00  0.11736876381E+04  0.11736876381E+04  0.25500000920E-02 0.  1.
       -2   -1    0    0    0  501  0.00000000000E+00  0.00000000000E+00 -0.24647445134E+04  0.24647445134E+04  0.25500000920E-02 0. -1.
    10030    2    1    2    0    0  0.00000000000E+00  0.00000000000E+00 -0.12910568753E+04  0.36384321514E+04  0.34016702758E+04 0.  0.
        4    1    3    3  502    0 -0.57323064421E+03  0.11738648072E+04  0.51944729112E+03  0.14058374935E+04  0.12699999809E+01 0.  1.
       -4    1    3    3    0  502  0.57323064421E+03 -0.11738648072E+04 -0.18105041664E+04  0.22325946579E+04  0.12699999809E+01 0. -1.
</event>
<event>
 5   0  0.6367111E-08  0.3412700E+04  0.7818609E-02  0.8134796E-01
        1   -1    0    0  501    0  0.00000000000E+00  0.00000000000E+00  0.21045476053E+04  0.21045476053E+04  0.50400001928E-02 0.  1.
       -1   -1    0    0    0  501  0.00000000000E+00  0.00000000000E+00 -0.13834948600E+04  0.13834948600E+04  0.50400001928E-02 0. -1.
    10030    2    1    2    0    0  0.00000000000E+00  0.00000000000E+00  0.72105274533E+03  0.34880424653E+04  0.34127002766E+04 0.  0.
        3    1    3    3  502    0 -0.94360851833E+03  0.12071758721E+04 -0.40702566566E+03  0.15853518615E+04  0.10100000352E+00 0. -1.
       -3    1    3    3    0  502  0.94360851833E+03 -0.12071758721E+04  0.11280784110E+04  0.19026906038E+04  0.10100000352E+00 0.  1.
</event>
<event>
 5   0  0.6367111E-08  0.3401721E+04  0.7818609E-02  0.8137484E-01
       -1   -1    0    0    0  501  0.00000000000E+00  0.00000000000E+00  0.12690490690E+04  0.12690490691E+04  0.50400001928E-02 0.  1.
        1   -1    0    0  501    0  0.00000000000E+00  0.00000000000E+00 -0.22796013369E+04  0.22796013369E+04  0.50400001928E-02 0. -1.
    10030    2    1    2    0    0  0.00000000000E+00  0.00000000000E+00 -0.10105522678E+04  0.35486504059E+04  0.34017207142E+04 0.  0.
        3    1    3    3  502    0  0.80924001191E+03  0.12685236014E+04  0.32201217303E+03  0.15387375910E+04  0.10100000352E+00 0.  1.
       -3    1    3    3    0  502 -0.80924001191E+03 -0.12685236014E+04 -0.13325644409E+04  0.20099128149E+04  0.10100000352E+00 0. -1.
</event>
<event>
 5   0  0.6584420E-08  0.3387051E+04  0.7818609E-02  0.8141092E-01
        1   -1    0    0  501    0  0.00000000000E+00  0.00000000000E+00  0.15778484138E+04  0.15778484138E+04  0.50400001928E-02 0.  1.
       -1   -1    0    0    0  501  0.00000000000E+00  0.00000000000E+00 -0.18176829521E+04  0.18176829521E+04  0.50400001928E-02 0. -1.
    10030    2    1    2    0    0  0.00000000000E+00  0.00000000000E+00 -0.23983453834E+03  0.33955313659E+04  0.33870507305E+04 0.  0.
        1    1    3    3  502    0  0.17738794296E+03 -0.15123621355E+04 -0.86293592787E+03  0.17502468760E+04  0.50400001928E-02 0. -1.
       -1    1    3    3    0  502 -0.17738794296E+03  0.15123621355E+04  0.62310138953E+03  0.16452844899E+04  0.50400001928E-02 0.  1.
</event>
<event>
 5   0  0.6788600E-08  0.3403773E+04  0.7818609E-02  0.8136981E-01
        1   -1    0    0  501    0  0.00000000000E+00  0.00000000000E+00  0.19655651225E+04  0.19655651225E+04  0.50400001928E-02 0. -1.
       -1   -1    0    0    0  501  0.00000000000E+00  0.00000000000E+00 -0.14735801026E+04  0.14735801026E+04  0.50400001928E-02 0.  1.
    10030    2    1    2    0    0  0.00000000000E+00  0.00000000000E+00  0.49198501989E+03  0.34391452252E+04  0.34037729977E+04 0.  0.
        2    1    3    3  502    0 -0.10304710391E+04  0.84206963863E+03  0.13178969772E+04  0.18729133139E+04  0.25500000920E-02 0. -1.
       -2    1    3    3    0  502  0.10304710391E+04 -0.84206963863E+03 -0.82591195727E+03  0.15662319113E+04  0.25500000920E-02 0.  1.
</event>
<event>
 5   0  0.1897313E-07  0.3414329E+04  0.7818609E-02  0.8134398E-01
       -2   -1    0    0    0  501  0.00000000000E+00  0.00000000000E+00  0.13963809862E+04  0.13963809862E+04  0.25500000920E-02 0. -1.
        2   -1    0    0  501    0  0.00000000000E+00  0.00000000000E+00 -0.20871174226E+04  0.20871174226E+04  0.25500000920E-02 0.  1.
    10030    2    1    2    0    0  0.00000000000E+00  0.00000000000E+00 -0.69073643631E+03  0.34834984088E+04  0.34143292664E+04 0.  0.
        3    1    3    3  502    0 -0.13430342968E+04 -0.91584004128E+02 -0.14165338676E+04  0.19541486536E+04  0.10100000352E+00 0.  1.
       -3    1    3    3    0  502  0.13430342968E+04  0.91584004128E+02  0.72579743130E+03  0.15293497552E+04  0.10100000352E+00 0. -1.
</event>
<event>
 5   0  0.1897313E-07  0.3403857E+04  0.7818609E-02  0.8136960E-01
       -2   -1    0    0    0  501  0.00000000000E+00  0.00000000000E+00  0.24532562904E+04  0.24532562904E+04  0.25500000920E-02 0. -1.
        2   -1    0    0  501    0  0.00000000000E+00  0.00000000000E+00 -0.11807005966E+04  0.11807005966E+04  0.25500000920E-02 0.  1.
    10030    2    1    2    0    0  0.00000000000E+00  0.00000000000E+00  0.12725556937E+04  0.36339568870E+04  0.34038573212E+04 0.  0.
        3    1    3    3  502    0  0.11983283039E+04 -0.10945108787E+04  0.11833811268E+04  0.20085655799E+04  0.10100000352E+00 0. -1.
       -3    1    3    3    0  502 -0.11983283039E+04  0.10945108787E+04  0.89174566961E+02  0.16253913071E+04  0.10100000352E+00 0.  1.
</event>
<event>
 5   0  0.6367111E-08  0.3382562E+04  0.7818609E-02  0.8142199E-01
        1   -1    0    0  501    0  0.00000000000E+00  0.00000000000E+00  0.23454714024E+04  0.23454714024E+04  0.50400001928E-02 0. -1.
       -1   -1    0    0    0  501  0.00000000000E+00  0.00000000000E+00 -0.12195553509E+04  0.12195553509E+04  0.50400001928E-02 0.  1.
    10030    2    1    2    0    0  0.00000000000E+00  0.00000000000E+00  0.11259160514E+04  0.35650267533E+04  0.33825624602E+04 0.  0.
        3    1    3    3  502    0 -0.42910885911E+03  0.16292850434E+04  0.40760236631E+03  0.17334485469E+04  0.10100000352E+00 0.  1.
       -3    1    3    3    0  502  0.42910885911E+03 -0.16292850434E+04  0.71831368512E+03  0.18315782064E+04  0.10100000352E+00 0. -1.
</event>
<event>
 5   0  0.1928004E-07  0.3398689E+04  0.7818609E-02  0.8138228E-01
        2   -1    0    0  501    0  0.00000000000E+00  0.00000000000E+00  0.34013430398E+04  0.34013430398E+04  0.25500000920E-02 0.  1.
       -2   -1    0    0    0  501  0.00000000000E+00  0.00000000000E+00 -0.84900946829E+03  0.84900946830E+03  0.25500000920E-02 0. -1.
    10030    2    1    2    0    0  0.00000000000E+00  0.00000000000E+00  0.25523335715E+04  0.42503525081E+04  0.33986894214E+04 0.  0.
        2    1    3    3  502    0  0.44896245192E+03  0.44548160926E+03 -0.69633293913E+03  0.94069161235E+03  0.25500000920E-02 0. -1.
       -2    1    3    3    0  502 -0.44896245192E+03 -0.44548160926E+03  0.32486665107E+04  0.33096608958E+04  0.25500000920E-02 0.  1.
</event>
<event>
 5   0  0.1970449E-07  0.3397017E+04  0.7818609E-02  0.8138639E-01
       -2   -1    0    0    0  501  0.00000000000E+00  0.00000000000E+00  0.13874152562E+04  0.13874152562E+04  0.25500000920E-02 0.  1.
        2   -1    0    0  501    0  0.00000000000E+00  0.00000000000E+00 -0.20793560800E+04  0.20793560800E+04  0.25500000920E-02 0. -1.
    10030    2    1    2    0    0  0.00000000000E+00  0.00000000000E+00 -0.69194082375E+03  0.34667713362E+04  0.33970165431E+04 0.  0.
        1    1    3    3  502    0  0.36604340038E+03  0.65172200167E+03 -0.19024776881E+04  0.20440525170E+04  0.50400001928E-02 0. -1.
       -1    1    3    3    0  502 -0.36604340038E+03 -0.65172200167E+03  0.12105368644E+04  0.14227188192E+04  0.50400001928E-02 0.  1.
</event>
<event>
 5   0  0.1963852E-07  0.3401552E+04  0.7818609E-02  0.8137526E-01
        2   -1    0    0  501    0  0.00000000000E+00  0.00000000000E+00  0.27181385836E+04  0.27181385836E+04  0.25500000920E-02 0.  1.
       -2   -1    0    0    0  501  0.00000000000E+00  0.00000000000E+00 -0.10641984353E+04  0.10641984353E+04  0.25500000920E-02 0. -1.
    10030    2    1    2    0    0  0.00000000000E+00  0.00000000000E+00  0.16539401483E+04  0.37823370189E+04  0.34015518973E+04 0.  0.
        4    1    3    3  502    0 -0.53624773054E+02 -0.16925316418E+04  0.10031290417E+04  0.19681992942E+04  0.12699999809E+01 0. -1.
       -4    1    3    3    0  502  0.53624773054E+02  0.16925316418E+04  0.65081110658E+03  0.18141377246E+04  0.12699999809E+01 0.  1.
</event>
<event>
 5   0  0.6341535E-08  0.3401501E+04  0.7818609E-02  0.8137538E-01
        1   -1    0    0  501    0  0.00000000000E+00  0.00000000000E+00  0.15425293965E+04  0.15425293965E+04  0.50400001928E-02 0. -1.
       -1   -1    0    0    0  501  0.00000000000E+00  0.00000000000E+00 -0.18752012413E+04  0.18752012413E+04  0.50400001928E-02 0.  1.
    10030    2    1    2    0    0  0.00000000000E+00  0.00000000000E+00 -0.33267184488E+03  0.34177306378E+04  0.34015014562E+04 0.  0.
        5    1    3    3  502    0 -0.65118344133E+03 -0.59966039038E+03 -0.16254693551E+04  0.18508930743E+04  0.46999998093E+01 0.  1.
       -5    1    3    3    0  502  0.65118344133E+03  0.59966039038E+03  0.12927975102E+04  0.15668375635E+04  0.46999998093E+01 0. -1.
</event>
<event>
 5   0  0.1970449E-07  0.3395801E+04  0.7818609E-02  0.8138938E-01
        2   -1    0    0  501    0  0.00000000000E+00  0.00000000000E+00  0.20587425636E+04  0.20587425636E+04  0.25500000920E-02 0. -1.
       -2   -1    0    0    0  501  0.00000000000E+00  0.00000000000E+00 -0.14003041441E+04  0.14003041441E+04  0.25500000920E-02 0.  1.
    10030    2    1    2    0    0  0.00000000000E+00  0.00000000000E+00  0.65843841950E+03  0.34590467078E+04  0.33958007854E+04 0.  0.
        1    1    3    3  502    0  0.10807792933E+04  0.17451526187E+03 -0.99276824896E+03  0.14778796479E+04  0.50400001928E-02 0.  1.
       -1    1    3    3    0  502 -0.10807792933E+04 -0.17451526187E+03  0.16512066685E+04  0.19811670599E+04  0.50400001928E-02 0. -1.
</event>
<event>
 5   0  0.1897313E-07  0.3472920E+04  0.7818609E-02  0.8120238E-01
       -2   -1    0    0    0  501  0.00000000000E+00  0.00000000000E+00  0.12845552654E+04  0.12845552654E+04  0.25500000920E-02 0.  1.
        2   -1    0    0  501    0  0.00000000000E+00  0.00000000000E+00 -0.23473442812E+04  0.23473442812E+04  0.25500000920E-02 0. -1.
    10030    2    1    2    0    0  0.00000000000E+00  0.00000000000E+00 -0.10627890158E+04  0.36318995467E+04  0.34729200718E+04 0.  0.
        3    1    3    3  502    0  0.10875561292E+04 -0.50595356156E+03  0.78168076502E+03  0.14317095269E+04  0.10100000352E+00 0.  1.
       -3    1    3    3    0  502 -0.10875561292E+04  0.50595356156E+03 -0.18444697808E+04  0.22001900198E+04  0.10100000352E+00 0. -1.
</event>
<event>
 5   0  0.6311750E-08  0.3400150E+04  0.7818609E-02  0.8137870E-01
        1   -1    0    0  501    0  0.00000000000E+00  0.00000000000E+00  0.17332021095E+04  0.17332021095E+04  0.50400001928E-02 0. -1.
       -1   -1    0    0    0  501  0.00000000000E+00  0.00000000000E+00 -0.16675810651E+04  0.16675810651E+04  0.50400001928E-02 0.  1.
    10030    2    1    2    0    0  0.00000000000E+00  0.00000000000E+00  0.65621044464E+02  0.34007831746E+04  0.34001500084E+04 0.  0.
        4    1    3    3  502    0  0.10944592810E+04 -0.43310669749E+03 -0.11941333969E+04  0.16767166462E+04  0.12699999809E+01 0.  1.
       -4    1    3    3    0  502 -0.10944592810E+04  0.43310669749E+03  0.12597544413E+04  0.17240665285E+04  0.12699999809E+01 0. -1.
</event>
<event>
 5   0  0.1986613E-07  0.3407747E+04  0.7818609E-02  0.8136008E-01
       -2   -1    0    0    0  501  0.00000000000E+00  0.00000000000E+00  0.22235615177E+04  0.22235615177E+04  0.25500000920E-02 0. -1.
        2   -1    0    0  501    0  0.00000000000E+00  0.00000000000E+00 -0.13056461093E+04  0.13056461093E+04  0.25500000920E-02 0.  1.
    10030    2    1    2    0    0  0.00000000000E+00  0.00000000000E+00  0.91791540841E+03  0.35292076271E+04  0.34077467303E+04 0.  0.
        5    1    3    3  502    0  0.10187008477E+04  0.75627017316E+03  0.16368008768E+04  0.20709503114E+04  0.46999998093E+01 0.  1.
       -5    1    3    3    0  502 -0.10187008477E+04 -0.75627017316E+03 -0.71888546841E+03  0.14582573157E+04  0.46999998093E+01 0. -1.
</event>
<event>
 5   0  0.1928004E-07  0.3401735E+04  0.7818609E-02  0.8137481E-01
        2   -1    0    0  501    0  0.00000000000E+00  0.00000000000E+00  0.19914076644E+04  0.19914076644E+04  0.25500000920E-02 0.  1.
       -2   -1    0    0    0  501  0.00000000000E+00  0.00000000000E+00 -0.14527165260E+04  0.14527165260E+04  0.25500000920E-02 0. -1.
    10030    2    1    2    0    0  0.00000000000E+00  0.00000000000E+00  0.53869113841E+03  0.34441241904E+04  0.34017353360E+04 0.  0.
        2    1    3    3  502    0  0.10432392983E+04 -0.52557697051E+03  0.15210239134E+04  0.19178355328E+04  0.25500000920E-02 0.  1.
       -2    1    3    3    0  502 -0.10432392983E+04  0.52557697051E+03 -0.98233277504E+03  0.15262886576E+04  0.25500000920E-02 0. -1.
</event>
<event>
 5   0  0.1928004E-07  0.3396070E+04  0.7818609E-02  0.8138871E-01
        2   -1    0    0  501    0  0.00000000000E+00  0.00000000000E+00  0.19749921222E+04  0.19749921222E+04  0.25500000920E-02 0.  1.
       -2   -1    0    0    0  501  0.00000000000E+00  0.00000000000E+00 -0.14599165185E+04  0.14599165185E+04  0.25500000920E-02 0. -1.
    10030    2    1    2    0    0  0.00000000000E+00  0.00000000000E+00  0.51507560368E+03  0.34349086407E+04  0.33960704487E+04 0.  0.
        2    1    3    3  502    0 -0.15351792154E+04  0.38295914551E+03 -0.36586367442E+03  0.16239732630E+04  0.25500000920E-02 0. -1.
       -2    1    3    3    0  502  0.15351792154E+04 -0.38295914551E+03  0.88093927810E+03  0.18109353777E+04  0.25500000920E-02 0.  1.
</event>
<event>
 5   0  0.6367111E-08  0.3418566E+04  0.7818609E-02  0.8133365E-01
       -1   -1    0    0    0  501  0.00000000000E+00  0.00000000000E+00  0.11052166582E+04  0.11052166582E+04  0.50400001928E-02 0. -1.
        1   -1    0    0  501    0  0.00000000000E+00  0.00000000000E+00 -0.26435076012E+04  0.26435076013E+04  0.50400001928E-02 0.  1.
    10030    2    1    2    0    0  0.00000000000E+00  0.00000000000E+00 -0.15382909431E+04  0.37487242594E+04  0.34185661538E+04 0.  0.
        3    1    3    3  502    0 -0.12086891886E+04 -0.21754980775E+03  0.53453359651E+03  0.13393967484E+04  0.10100000352E+00 0. -1.
       -3    1    3    3    0  502  0.12086891886E+04  0.21754980775E+03 -0.20728245396E+04  0.24093275111E+04  0.10100000352E+00 0.  1.
</event>
<event>
 5   0  0.6788600E-08  0.3407933E+04  0.7818609E-02  0.8135962E-01
        1   -1    0    0  501    0  0.00000000000E+00  0.00000000000E+00  0.19447357957E+04  0.19447357957E+04  0.50400001928E-02 0.  1.
       -1   -1    0    0    0  501  0.00000000000E+00  0.00000000000E+00 -0.14930060271E+04  0.14930060271E+04  0.50400001928E-02 0. -1.
    10030    2    1    2    0    0  0.00000000000E+00  0.00000000000E+00  0.45172976857E+03  0.34377418229E+04  0.34079332530E+04 0.  0.
        2    1    3    3  502    0 -0.95879877326E+03  0.11781811962E+04 -0.55296098899E+03  0.16165308145E+04  0.25500000920E-02 0. -1.
       -2    1    3    3    0  502  0.95879877326E+03 -0.11781811962E+04  0.10046907576E+04  0.18212110084E+04  0.25500000920E-02 0.  1.
</event>
<event>
 5   0  0.1970449E-07  0.3398877E+04  0.7818609E-02  0.8138182E-01
       -2   -1    0    0    0  501  0.00000000000E+00  0.00000000000E+00  0.16186718219E+04  0.16186718219E+04  0.25500000920E-02 0. -1.
        2   -1    0    0  501    0  0.00000000000E+00  0.00000000000E+00 -0.17842348508E+04  0.17842348508E+04  0.25500000920E-02 0.  1.
    10030    2    1    2    0    0  0.00000000000E+00  0.00000000000E+00 -0.16556302893E+03  0.34029066728E+04  0.33988766831E+04 0.  0.
        1    1    3    3  502    0 -0.10157127625E+04 -0.12493596309E+04 -0.62704245551E+03  0.17279334896E+04  0.50400001928E-02 0.  1.
       -1    1    3    3    0  502  0.10157127625E+04  0.12493596309E+04  0.46147942657E+03  0.16749731832E+04  0.50400001928E-02 0. -1.
</event>
<event>
 5   0  0.6788600E-08  0.3403101E+04  0.7818609E-02  0.8137146E-01
       -1   -1    0    0    0  501  0.00000000000E+00  0.00000000000E+00  0.16658081955E+04  0.16658081955E+04  0.50400001928E-02 0. -1.
        1   -1    0    0  501    0  0.00000000000E+00  0.00000000000E+00 -0.17380594819E+04  0.17380594819E+04  0.50400001928E-02 0.  1.
    10030    2    1    2    0    0  0.00000000000E+00  0.00000000000E+00 -0.72251286403E+02  0.34038676773E+04  0.34031007796E+04 0.  0.
        2    1    3    3  502    0 -0.15800660982E+04  0.20742378295E+03  0.56036453758E+03  0.16892725995E+04  0.25500000920E-02 0. -1.
       -2    1    3    3    0  502  0.15800660982E+04 -0.20742378295E+03 -0.63261582398E+03  0.17145950779E+04  0.25500000920E-02 0.  1.
</event>
<event>
 5   0  0.6341535E-08  0.3401565E+04  0.7818609E-02  0.8137522E-01
        1   -1    0    0  501    0  0.00000000000E+00  0.00000000000E+00  0.25448521243E+04  0.25448521244E+04  0.50400001928E-02 0. -1.
       -1   -1    0    0    0  501  0.00000000000E+00  0.00000000000E+00 -0.11366715173E+04  0.11366715173E+04  0.50400001928E-02 0.  1.
    10030    2    1    2    0    0  0.00000000000E+00  0.00000000000E+00  0.14081806070E+04  0.36815236417E+04  0.34015648902E+04 0.  0.
        5    1    3    3  502    0  0.67163636415E+03 -0.52569167589E+03 -0.88847411910E+03  0.12316068748E+04  0.46999998093E+01 0.  1.
       -5    1    3    3    0  502 -0.67163636415E+03  0.52569167589E+03  0.22966547261E+04  0.24499167669E+04  0.46999998093E+01 0. -1.
</event>
<event>
 5   0  0.1986613E-07  0.3390310E+04  0.7818609E-02  0.8140289E-01
       -2   -1    0    0    0  501  0.00000000000E+00  0.00000000000E+00  0.14387324987E+04  0.14387324987E+04  0.25500000920E-02 0. -1.
        2   -1    0    0  501    0  0.00000000000E+00  0.00000000000E+00 -0.19972795863E+04  0.19972795863E+04  0.25500000920E-02 0.  1.
    10030    2    1    2    0    0  0.00000000000E+00  0.00000000000E+00 -0.55854708756E+03  0.34360120850E+04  0.33903103397E+04 0.  0.
        5    1    3    3  502    0 -0.62467836042E+03 -0.10369802648E+04 -0.14818512202E+04  0.19134932067E+04  0.46999998093E+01 0.  1.
       -5    1    3    3    0  502  0.62467836042E+03  0.10369802648E+04  0.92330413261E+03  0.15225188783E+04  0.46999998093E+01 0. -1.
</event>
<event>
 5   0  0.6788600E-08  0.3387600E+04  0.7818609E-02  0.8140956E-01
        1   -1    0    0  501    0  0.00000000000E+00  0.00000000000E+00  0.13392714944E+04  0.13392714944E+04  0.50400001928E-02 0.  1.
       -1   -1    0    0    0  501  0.00000000000E+00  0.00000000000E+00 -0.21421780419E+04  0.21421780419E+04  0.50400001928E-02 0. -1.
    10030    2    1    2    0    0  0.00000000000E+00  0.00000000000E+00 -0.80290654745E+03  0.34814495363E+04  0.33875997329E+04 0.  0.
        2    1    3    3  502    0  0.21109129369E+03 -0.16656567871E+04 -0.17168404673E+03  0.16877344218E+04  0.25500000920E-02 0. -1.
       -2    1    3    3    0  502 -0.21109129369E+03  0.16656567871E+04 -0.63122250071E+03  0.17937151145E+04  0.25500000920E-02 0.  1.
</event>
<event>
 5   0  0.6367111E-08  0.3402326E+04  0.7818609E-02  0.8137336E-01
        1   -1    0    0  501    0  0.00000000000E+00  0.00000000000E+00  0.10953366441E+04  0.10953366441E+04  0.50400001928E-02 0.  1.
       -1   -1    0    0    0  501  0.00000000000E+00  0.00000000000E+00 -0.26420694919E+04  0.26420694919E+04  0.50400001928E-02 0. -1.
    10030    2    1    2    0    0  0.00000000000E+00  0.00000000000E+00 -0.15467328477E+04  0.37374061360E+04  0.34023259872E+04 0.  0.
        3    1    3    3  502    0  0.82930824666E+03  0.28791334565E+03 -0.23740334503E+04  0.25311422512E+04  0.10100000352E+00 0. -1.
       -3    1    3    3    0  502 -0.82930824666E+03 -0.28791334565E+03  0.82730060257E+03  0.12062638848E+04  0.10100000352E+00 0.  1.
</event>
<event>
 5   0  0.6341535E-08  0.3402339E+04  0.7818609E-02  0.8137332E-01
       -1   -1    0    0    0  501  0.00000000000E+00  0.00000000000E+00  0.12475222138E+04  0.12475222138E+04  0.50400001928E-02 0.  1.
        1   -1    0    0  501    0  0.00000000000E+00  0.00000000000E+00 -0.23197811348E+04  0.23197811348E+04  0.50400001928E-02 0. -1.
    10030    2    1    2    0    0  0.00000000000E+00  0.00000000000E+00 -0.10722589209E+04  0.35673033486E+04  0.34023394874E+04 0.  0.
        5    1    3    3  502    0 -0.84698658659E+03 -0.12085579084E+04 -0.14232980192E+04  0.20503165213E+04  0.46999998093E+01 0. -1.
       -5    1    3    3    0  502  0.84698658659E+03  0.12085579084E+04  0.35103909830E+03  0.15169868273E+04  0.46999998093E+01 0.  1.
</event>
<event>
 5   0  0.1928004E-07  0.3400540E+04  0.7818609E-02  0.8137774E-01
       -2   -1    0    0    0  501  0.00000000000E+00  0.00000000000E+00  0.26570053618E+04  0.26570053618E+04  0.25500000920E-02 0. -1.
        2   -1    0    0  501    0  0.00000000000E+00  0.00000000000E+00 -0.10880364717E+04  0.10880364717E+04  0.25500000920E-02 0.  1.
    10030    2    1    2    0    0  0.00000000000E+00  0.00000000000E+00  0.15689688902E+04  0.37450418335E+04  0.34005403918E+04 0.  0.
        2    1    3    3  502    0  0.81257096663E+03  0.14580108060E+04  0.42787209793E+03  0.17231197342E+04  0.25500000920E-02 0. -1.
       -2    1    3    3    0  502 -0.81257096663E+03 -0.14580108060E+04  0.11410967923E+04  0.20219220993E+04  0.25500000920E-02 0.  1.
</event>
<event>
 5   0  0.1970449E-07  0.3395419E+04  0.7818609E-02  0.8139031E-01
       -2   -1    0    0    0  501  0.00000000000E+00  0.00000000000E+00  0.14249345742E+04  0.14249345742E+04  0.25500000920E-02 0. -1.
        2   -1    0    0  501    0  0.00000000000E+00  0.00000000000E+00 -0.20227019915E+04  0.20227019915E+04  0.25500000920E-02 0.  1.
    10030    2    1    2    0    0  0.00000000000E+00  0.00000000000E+00 -0.59776741727E+03  0.34476365657E+04  0.33954192678E+04 0.  0.
        1    1    3    3  502    0 -0.63477105824E+03 -0.10282330790E+03 -0.18942602500E+04  0.20004321592E+04  0.50400001928E-02 0.  1.
       -1    1    3    3    0  502  0.63477105824E+03  0.10282330790E+03  0.12964928327E+04  0.14472044065E+04  0.50400001928E-02 0. -1.
</event>
<event>
 5   0  0.6367111E-08  0.3406095E+04  0.7818609E-02  0.8136412E-01
       -1   -1    0    0    0  501  0.00000000000E+00  0.00000000000E+00  0.13802829562E+04  0.13802829563E+04  0.50400001928E-02 0. -1.
        1   -1    0    0  501    0  0.00000000000E+00  0.00000000000E+00 -0.21012867792E+04  0.21012867793E+04  0.50400001928E-02 0.  1.
    10030    2    1    2    0    0  0.00000000000E+00  0.00000000000E+00 -0.72100382301E+03  0.34815697355E+04  0.34060947301E+04 0.  0.
        3    1    3    3  502    0  0.14810780482E+04 -0.61790463385E+03  0.22219316022E+03  0.16201136171E+04  0.10100000352E+00 0. -1.
       -3    1    3    3    0  502 -0.14810780482E+04  0.61790463385E+03 -0.94319698323E+03  0.18614561184E+04  0.10100000352E+00 0.  1.
</event>
<event>
 5   0  0.1970449E-07  0.3391241E+04  0.7818609E-02  0.8140059E-01
       -2   -1    0    0    0  501  0.00000000000E+00  0.00000000000E+00  0.12657268148E+04  0.12657268148E+04  0.25500000920E-02 0.  1.
        2   -1    0    0  501    0  0.00000000000E+00  0.00000000000E+00 -0.22715236536E+04  0.22715236536E+04  0.25500000920E-02 0. -1.
    10030    2    1    2    0    0  0.00000000000E+00  0.00000000000E+00 -0.10057968388E+04  0.35372504683E+04  0.33912407161E+04 0.  0.
        1    1    3    3  502    0  0.42991187006E+03  0.25872769036E+03 -0.21923139637E+04  0.22490008336E+04  0.50400001928E-02 0. -1.
       -1    1    3    3    0  502 -0.42991187006E+03 -0.25872769036E+03  0.11865171249E+04  0.12882496348E+04  0.50400001928E-02 0.  1.
</event>
<event>
 5   0  0.1970449E-07  0.3398825E+04  0.7818609E-02  0.8138195E-01
        2   -1    0    0  501    0  0.00000000000E+00  0.00000000000E+00  0.28660016436E+04  0.28660016436E+04  0.25500000920E-02 0. -1.
       -2   -1    0    0    0  501  0.00000000000E+00  0.00000000000E+00 -0.10076768026E+04  0.10076768026E+04  0.25500000920E-02 0.  1.
    10030    2    1    2    0    0  0.00000000000E+00  0.00000000000E+00  0.18583248409E+04  0.38736784462E+04  0.33988253103E+04 0.  0.
        1    1    3    3  502    0 -0.76362800194E+03  0.38860022929E+02 -0.80055897181E+03  0.11070377112E+04  0.50400001928E-02 0.  1.
       -1    1    3    3    0  502  0.76362800194E+03 -0.38860022929E+02  0.26588838127E+04  0.27666407350E+04  0.50400001928E-02 0. -1.
</event>
<event>
 5   0  0.1986613E-07  0.3398867E+04  0.7818609E-02  0.8138184E-01
       -2   -1    0    0    0  501  0.00000000000E+00  0.00000000000E+00  0.17696776515E+04  0.17696776515E+04  0.25500000920E-02 0. -1.
        2   -1    0    0  501    0  0.00000000000E+00  0.00000000000E+00 -0.16319779330E+04  0.16319779330E+04  0.25500000920E-02 0.  1.
    10030    2    1    2    0    0  0.00000000000E+00  0.00000000000E+00  0.13769971847E+03  0.34016555845E+04  0.33988673853E+04 0.  0.
        5    1    3    3  502    0  0.20218389626E+03  0.12629582642E+04 -0.10510456789E+04  0.16554941903E+04  0.46999998093E+01 0.  1.
       -5    1    3    3    0  502 -0.20218389626E+03 -0.12629582642E+04  0.11887453973E+04  0.17461613942E+04  0.46999998093E+01 0. -1.
</event>
<event>
 5   0  0.1897313E-07  0.3401139E+04  0.7818609E-02  0.8137627E-01
       -2   -1    0    0    0  501  0.00000000000E+00  0.00000000000E+00  0.10763777204E+04  0.10763777204E+04  0.25500000920E-02 0.  1.
        2   -1    0    0  501    0  0.00000000000E+00  0.00000000000E+00 -0.26867301327E+04  0.26867301327E+04  0.25500000920E-02 0. -1.
    10030    2    1    2    0    0  0.00000000000E+00  0.00000000000E+00 -0.16103524123E+04  0.37631078532E+04  0.34011389009E+04 0.  0.
        3    1    3    3  502    0 -0.55339731064E+03  0.12617109749E+03  0.96847948149E+03  0.11225507764E+04  0.10100000352E+00 0.  1.
       -3    1    3    3    0  502  0.55339731064E+03 -0.12617109749E+03 -0.25788318938E+04  0.26405570768E+04  0.10100000352E+00 0. -1.
</event>
<event>
 5   0  0.6584420E-08  0.3396820E+04  0.7818609E-02  0.8138687E-01
       -1   -1    0    0    0  501  0.00000000000E+00  0.00000000000E+00  0.20436986152E+04  0.20436986152E+04  0.50400001928E-02 0.  1.
        1   -1    0    0  501    0  0.00000000000E+00  0.00000000000E+00 -0.14114585173E+04  0.14114585173E+04  0.50400001928E-02 0. -1.
    10030    2    1    2    0    0  0.00000000000E+00  0.00000000000E+00  0.63224009794E+03  0.34551571326E+04  0.33968195815E+04 0.  0.
        1    1    3    3  502    0  0.76127931943E+02 -0.16674072879E+04  0.63544355537E+03  0.17860098090E+04  0.50400001928E-02 0.  1.
       -1    1    3    3    0  502 -0.76127931943E+02  0.16674072879E+04 -0.32034574264E+01  0.16691473236E+04  0.50400001928E-02 0. -1.
</event>
<event>
 5   0  0.6584420E-08  0.3394197E+04  0.7818609E-02  0.8139332E-01
       -1   -1    0    0    0  501  0.00000000000E+00  0.00000000000E+00  0.14467346173E+04  0.14467346173E+04  0.50400001928E-02 0.  1.
        1   -1    0    0  501    0  0.00000000000E+00  0.00000000000E+00 -0.19907888088E+04  0.19907888088E+04  0.50400001928E-02 0. -1.
    10030    2    1    2    0    0  0.00000000000E+00  0.00000000000E+00 -0.54405419154E+03  0.34375234261E+04  0.33941968625E+04 0.  0.
        1    1    3    3  502    0  0.15346954997E+04 -0.70848505960E+03 -0.42529201907E+03  0.17430188347E+04  0.50400001928E-02 0. -1.
       -1    1    3    3    0  502 -0.15346954997E+04  0.70848505960E+03 -0.11876217247E+03  0.16945045914E+04  0.50400001928E-02 0.  1.
</event>
<event>
 5   0  0.6584420E-08  0.3398610E+04  0.7818609E-02  0.8138248E-01
       -1   -1    0    0    0  501  0.00000000000E+00  0.00000000000E+00  0.13703016465E+04  0.13703016465E+04  0.50400001928E-02 0. -1.
        1   -1    0    0  501    0  0.00000000000E+00  0.00000000000E+00 -0.21073003088E+04  0.21073003088E+04  0.50400001928E-02 0.  1.
    10030    2    1    2    0    0  0.00000000000E+00  0.00000000000E+00 -0.73699866230E+03  0.34776019553E+04  0.33986097645E+04 0.  0.
        1    1    3    3  502    0  0.14094593511E+04 -0.88997213593E+03 -0.70634143059E+03  0.18103989289E+04  0.50400001928E-02 0.  1.
       -1    1    3    3    0  502 -0.14094593511E+04  0.88997213593E+03 -0.30657231711E+02  0.16672030264E+04  0.50400001928E-02 0. -1.
</event>
<event>
 5   0  0.1986613E-07  0.3375041E+04  0.7818609E-02  0.8144059E-01
        2   -1    0    0  501    0  0.00000000000E+00  0.00000000000E+00  0.18671858844E+04  0.18671858844E+04  0.25500000920E-02 0. -1.
       -2   -1    0    0    0  501  0.00000000000E+00  0.00000000000E+00 -0.15251433292E+04  0.15251433292E+04  0.25500000920E-02 0.  1.
    10030    2    1    2    0    0  0.00000000000E+00  0.00000000000E+00  0.34204255511E+03  0.33923292136E+04  0.33750413900E+04 0.  0.
        5    1    3    3  502    0  0.15893976935E+03 -0.74041365317E+03  0.16868008852E+04  0.18489979839E+04  0.46999998093E+01 0. -1.
       -5    1    3    3    0  502 -0.15893976935E+03  0.74041365317E+03 -0.13447583301E+04  0.15433312297E+04  0.46999998093E+01 0.  1.
</event>
<event>
 5   0  0.1970449E-07  0.3399451E+04  0.7818609E-02  0.8138041E-01
        2   -1    0    0  501    0  0.00000000000E+00  0.00000000000E+00  0.15691176002E+04  0.15691176002E+04  0.25500000920E-02 0.  1.
       -2   -1    0    0    0  501  0.00000000000E+00  0.00000000000E+00 -0.18412042123E+04  0.18412042123E+04  0.25500000920E-02 0. -1.
    10030    2    1    2    0    0  0.00000000000E+00  0.00000000000E+00 -0.27208661213E+03  0.34103218126E+04  0.33994505057E+04 0.  0.
        1    1    3    3  502    0 -0.26202046590E+03 -0.10808811524E+04 -0.14254969835E+04  0.18080377320E+04  0.50400001928E-02 0. -1.
       -1    1    3    3    0  502  0.26202046590E+03  0.10808811524E+04  0.11534103714E+04  0.16022840806E+04  0.50400001928E-02 0.  1.
</event>
<event>
 5   0  0.6341535E-08  0.3399711E+04  0.7818609E-02  0.8137977E-01
        1   -1    0    0  501    0  0.00000000000E+00  0.00000000000E+00  0.25795771959E+04  0.25795771959E+04  0.50400001928E-02 0. -1.
       -1   -1    0    0    0  501  0.00000000000E+00  0.00000000000E+00 -0.11201483404E+04  0.11201483404E+04  0.50400001928E-02 0.  1.
    10030    2    1    2    0    0  0.00000000000E+00  0.00000000000E+00  0.14594288556E+04  0.36997255363E+04  0.33997112318E+04 0.  0.
        5    1    3    3  502    0 -0.25184678381E+03 -0.26607618460E+03 -0.10766653441E+04  0.11373010559E+04  0.46999998093E+01 0.  1.
       -5    1    3    3    0  502  0.25184678381E+03  0.26607618460E+03  0.25360941996E+04  0.25624244804E+04  0.46999998093E+01 0. -1.
</event>
<event>
 5   0  0.6341535E-08  0.3397558E+04  0.7818609E-02  0.8138506E-01
        1   -1    0    0  501    0  0.00000000000E+00  0.00000000000E+00  0.18487129678E+04  0.18487129678E+04  0.50400001928E-02 0.  1.
       -1   -1    0    0    0  501  0.00000000000E+00  0.00000000000E+00 -0.15610050586E+04  0.15610050586E+04  0.50400001928E-02 0. -1.
    10030    2    1    2    0    0  0.00000000000E+00  0.00000000000E+00  0.28770790921E+03  0.34097180265E+04  0.33975581200E+04 0.  0.
        5    1    3    3  502    0 -0.20880983488E+03  0.12457603074E+04 -0.99612872116E+03  0.16086686451E+04  0.46999998093E+01 0. -1.
       -5    1    3    3    0  502  0.20880983488E+03 -0.12457603074E+04  0.12838366304E+04  0.18010493814E+04  0.46999998093E+01 0.  1.
</event>
<event>
 5   0  0.1970449E-07  0.3393244E+04  0.7818609E-02  0.8139566E-01
       -2   -1    0    0    0  501  0.00000000000E+00  0.00000000000E+00  0.10662883380E+04  0.10662883380E+04  0.25500000920E-02 0.  1.
        2   -1    0    0  501    0  0.00000000000E+00  0.00000000000E+00 -0.26995755521E+04  0.26995755521E+04  0.25500000920E-02 0. -1.
    10030    2    1    2    0    0  0.00000000000E+00  0.00000000000E+00 -0.16332872141E+04  0.37658638901E+04  0.33932438337E+04 0.  0.
        1    1    3    3  502    0 -0.35955124816E+03 -0.11168396731E+04  0.54346208427E+03  0.12930425331E+04  0.50400001928E-02 0.  1.
       -1    1    3    3    0  502  0.35955124816E+03  0.11168396731E+04 -0.21767492984E+04  0.24728213569E+04  0.50400001928E-02 0. -1.
</event>
<event>
 5   0  0.6367111E-08  0.3403029E+04  0.7818609E-02  0.8137163E-01
       -1   -1    0    0    0  501  0.00000000000E+00  0.00000000000E+00  0.93966081111E+03  0.93966081112E+03  0.50400001928E-02 0.  1.
        1   -1    0    0  501    0  0.00000000000E+00  0.00000000000E+00 -0.30810598591E+04  0.30810598591E+04  0.50400001928E-02 0. -1.
    10030    2    1    2    0    0  0.00000000000E+00  0.00000000000E+00 -0.21413990480E+04  0.40207206702E+04  0.34030287723E+04 0.  0.
        3    1    3    3  502    0  0.12311751011E+04 -0.43504970777E+03  0.21822751350E+03  0.13238895859E+04  0.10100000352E+00 0.  1.
       -3    1    3    3    0  502 -0.12311751011E+04  0.43504970777E+03 -0.23596265615E+04  0.26968310844E+04  0.10100000352E+00 0. -1.
</event>
<event>
 5   0  0.6788600E-08  0.3399107E+04  0.7818609E-02  0.8138126E-01
        1   -1    0    0  501    0  0.00000000000E+00  0.00000000000E+00  0.18298345673E+04  0.18298345673E+04  0.50400001928E-02 0.  1.
       -1   -1    0    0    0  501  0.00000000000E+00  0.00000000000E+00 -0.15785477749E+04  0.15785477749E+04  0.50400001928E-02 0. -1.
    10030    2    1    2    0    0  0.00000000000E+00  0.00000000000E+00  0.25128679244E+03  0.34083823423E+04  0.33991065207E+04 0.  0.
        2    1    3    3  502    0 -0.15199351519E+04 -0.12514166357E+03  0.87776893696E+03  0.17596424661E+04  0.25500000920E-02 0.  1.
       -2    1    3    3    0  502  0.15199351519E+04  0.12514166357E+03 -0.62648214453E+03  0.16487398762E+04  0.25500000920E-02 0. -1.
</event>
<event>
 5   0  0.6311750E-08  0.3390999E+04  0.7818609E-02  0.8140119E-01
       -1   -1    0    0    0  501  0.00000000000E+00  0.00000000000E+00  0.22647930287E+04  0.22647930287E+04  0.50400001928E-02 0.  1.
        1   -1    0    0  501    0  0.00000000000E+00  0.00000000000E+00 -0.12693070671E+04  0.12693070671E+04  0.50400001928E-02 0. -1.
    10030    2    1    2    0    0  0.00000000000E+00  0.00000000000E+00  0.99548596156E+03  0.35341000958E+04  0.33909985531E+04 0.  0.
        4    1    3    3  502    0  0.23685520965E+03  0.14012393518E+04  0.14615073943E+04  0.20385233842E+04  0.12699999809E+01 0.  1.
       -4    1    3    3    0  502 -0.23685520965E+03 -0.14012393518E+04 -0.46602143273E+03  0.14955767116E+04  0.12699999809E+01 0. -1.
</event>
<event>
 5   0  0.6311750E-08  0.3400375E+04  0.7818609E-02  0.8137814E-01
        1   -1    0    0  501    0  0.00000000000E+00  0.00000000000E+00  0.21437404051E+04  0.21437404051E+04  0.50400001928E-02 0. -1.
       -1   -1    0    0    0  501  0.00000000000E+00  0.00000000000E+00 -0.13484081529E+04  0.13484081529E+04  0.50400001928E-02 0.  1.
    10030    2    1    2    0    0  0.00000000000E+00  0.00000000000E+00  0.79533225223E+03  0.34921485581E+04  0.34003747088E+04 0.  0.
        4    1    3    3  502    0 -0.10773248036E+04 -0.12217192726E+04 -0.10273037062E+03  0.16321096334E+04  0.12699999809E+01 0.  1.
       -4    1    3    3    0  502  0.10773248036E+04  0.12217192726E+04  0.89806262286E+03  0.18600389246E+04  0.12699999809E+01 0. -1.
</event>
<event>
 5   0  0.6584420E-08  0.3380657E+04  0.7818609E-02  0.8142670E-01
       -1   -1    0    0    0  501  0.00000000000E+00  0.00000000000E+00  0.15522934564E+04  0.15522934565E+04  0.50400001928E-02 0. -1.
        1   -1    0    0  501    0  0.00000000000E+00  0.00000000000E+00 -0.18406384366E+04  0.18406384366E+04  0.50400001928E-02 0.  1.
    10030    2    1    2    0    0  0.00000000000E+00  0.00000000000E+00 -0.28834498017E+03  0.33929318931E+04  0.33806573331E+04 0.  0.
        1    1    3    3  502    0 -0.84377113226E+03 -0.86217874364E+03 -0.13324938831E+04  0.17974542715E+04  0.50400001928E-02 0.  1.
       -1    1    3    3    0  502  0.84377113226E+03  0.86217874364E+03  0.10441489029E+04  0.15954776216E+04  0.50400001928E-02 0. -1.
</event>
<event>
 5   0  0.6367111E-08  0.3400108E+04  0.7818609E-02  0.8137880E-01
       -1   -1    0    0    0  501  0.00000000000E+00  0.00000000000E+00  0.10691341982E+04  0.10691341982E+04  0.50400001928E-02 0. -1.
        1   -1    0    0  501    0  0.00000000000E+00  0.00000000000E+00 -0.27032939379E+04  0.27032939379E+04  0.50400001928E-02 0.  1.
    10030    2    1    2    0    0  0.00000000000E+00  0.00000000000E+00 -0.16341597398E+04  0.37724281361E+04  0.34001082317E+04 0.  0.
        3    1    3    3  502    0 -0.12285212551E+04  0.50379835547E+03  0.36082645833E+03  0.13759625724E+04  0.10100000352E+00 0. -1.
       -3    1    3    3    0  502  0.12285212551E+04 -0.50379835547E+03 -0.19949861981E+04  0.23964655637E+04  0.10100000352E+00 0.  1.
</event>
<event>
 5   0  0.6311750E-08  0.3405052E+04  0.7818609E-02  0.8136667E-01
       -1   -1    0    0    0  501  0.00000000000E+00  0.00000000000E+00  0.17924203099E+04  0.17924203099E+04  0.50400001928E-02 0.  1.
        1   -1    0    0  501    0  0.00000000000E+00  0.00000000000E+00 -0.16171405158E+04  0.16171405158E+04  0.50400001928E-02 0. -1.
    10030    2    1    2    0    0  0.00000000000E+00  0.00000000000E+00  0.17527979412E+03  0.34095608257E+04  0.34050524252E+04 0.  0.
        4    1    3    3  502    0  0.48225473763E+03 -0.15905961527E+04  0.45694815405E+03  0.17237659299E+04  0.12699999809E+01 0.  1.
       -4    1    3    3    0  502 -0.48225473763E+03  0.15905961527E+04 -0.28166835993E+03  0.16857948958E+04  0.12699999809E+01 0. -1.
</event>
<event>
 5   0  0.1897313E-07  0.3390898E+04  0.7818609E-02  0.8140144E-01
       -2   -1    0    0    0  501  0.00000000000E+00  0.00000000000E+00  0.12686842063E+04  0.12686842063E+04  0.25500000920E-02 0.  1.
        2   -1    0    0  501    0  0.00000000000E+00  0.00000000000E+00 -0.22657703052E+04  0.22657703052E+04  0.25500000920E-02 0. -1.
    10030    2    1    2    0    0  0.00000000000E+00  0.00000000000E+00 -0.99708609887E+03  0.35344545114E+04  0.33908978169E+04 0.  0.
        3    1    3    3  502    0  0.72479418416E+03 -0.30955006679E+03  0.10661413620E+04  0.13258224871E+04  0.10100000352E+00 0.  1.
       -3    1    3    3    0  502 -0.72479418416E+03  0.30955006679E+03 -0.20632274609E+04  0.22086320243E+04  0.10100000352E+00 0. -1.
</event>
<event>
 5   0  0.6788600E-08  0.3406527E+04  0.7818609E-02  0.8136306E-01
        1   -1    0    0  501    0  0.00000000000E+00  0.00000000000E+00  0.21492339159E+04  0.21492339160E+04  0.50400001928E-02 0. -1.
       -1   -1    0    0    0  501  0.00000000000E+00  0.00000000000E+00 -0.13498324928E+04  0.13498324928E+04  0.50400001928E-02 0.  1.
    10030    2    1    2    0    0  0.00000000000E+00  0.00000000000E+00  0.79940142312E+03  0.34990664088E+04  0.34065265444E+04 0.  0.
        2    1    3    3  502    0 -0.10742172918E+04  0.70525637192E+03 -0.74860248379E+03  0.14871903102E+04  0.25500000920E-02 0.  1.
       -2    1    3    3    0  502  0.10742172918E+04 -0.70525637192E+03  0.15480039069E+04  0.20118760986E+04  0.25500000920E-02 0. -1.
</event>
<event>
 5   0  0.6367111E-08  0.3400169E+04  0.7818609E-02  0.8137865E-01
        1   -1    0    0  501    0  0.00000000000E+00  0.00000000000E+00  0.22164156108E+04  0.22164156108E+04  0.50400001928E-02 0. -1.
       -1   -1    0    0    0  501  0.00000000000E+00  0.00000000000E+00 -0.13040367827E+04  0.13040367827E+04  0.50400001928E-02 0.  1.
    10030    2    1    2    0    0  0.00000000000E+00  0.00000000000E+00  0.91237882811E+03  0.35204523936E+04  0.34001691031E+04 0.  0.
        3    1    3    3  502    0 -0.72242890241E+02  0.14503128967E+04  0.13715815225E+04  0.19974639963E+04  0.10100000352E+00 0. -1.
       -3    1    3    3    0  502  0.72242890241E+02 -0.14503128967E+04 -0.45920269443E+03  0.15229883973E+04  0.10100000352E+00 0.  1.
</event>
<event>
 5   0  0.6788600E-08  0.3414210E+04  0.7818609E-02  0.8134427E-01
        1   -1    0    0  501    0  0.00000000000E+00  0.00000000000E+00  0.21688352322E+04  0.21688352322E+04  0.50400001928E-02 0. -1.
       -1   -1    0    0    0  501  0.00000000000E+00  0.00000000000E+00 -0.13436741629E+04  0.13436741629E+04  0.50400001928E-02 0.  1.
    10030    2    1    2    0    0  0.00000000000E+00  0.00000000000E+00  0.82516106931E+03  0.35125093951E+04  0.34142102250E+04 0.  0.
        2    1    3    3  502    0  0.20819443376E+03 -0.72397367942E+03  0.19885882561E+04  0.21264914914E+04  0.25500000920E-02 0. -1.
       -2    1    3    3    0  502 -0.20819443376E+03  0.72397367942E+03 -0.11634271867E+04  0.13860179038E+04  0.25500000920E-02 0.  1.
</event>
<event>
 5   0  0.1970449E-07  0.3405716E+04  0.7818609E-02  0.8136505E-01
        2   -1    0    0  501    0  0.00000000000E+00  0.00000000000E+00  0.22042563030E+04  0.22042563030E+04  0.25500000920E-02 0. -1.
       -2   -1    0    0    0  501  0.00000000000E+00  0.00000000000E+00 -0.13155118222E+04  0.13155118222E+04  0.25500000920E-02 0.  1.
    10030    2    1    2    0    0  0.00000000000E+00  0.00000000000E+00  0.88874448075E+03  0.35197681252E+04  0.34057159164E+04 0.  0.
        1    1    3    3  502    0  0.10759447497E+03 -0.12245250547E+04  0.16622615745E+04  0.20674021676E+04  0.50400001928E-02 0. -1.
       -1    1    3    3    0  502 -0.10759447497E+03  0.12245250547E+04 -0.77351709372E+03  0.14523659576E+04  0.50400001928E-02 0.  1.
</event>
<event>
 5   0  0.6584420E-08  0.3398216E+04  0.7818609E-02  0.8138344E-01
        1   -1    0    0  501    0  0.00000000000E+00  0.00000000000E+00  0.20865152339E+04  0.20865152339E+04  0.50400001928E-02 0. -1.
       -1   -1    0    0    0  501  0.00000000000E+00  0.00000000000E+00 -0.13836314239E+04  0.13836314239E+04  0.50400001928E-02 0.  1.
    10030    2    1    2    0    0  0.00000000000E+00  0.00000000000E+00  0.70288380995E+03  0.34701466578E+04  0.33982160285E+04 0.  0.
        1    1    3    3  502    0 -0.13053345793E+04  0.10494607438E+04  0.64332754592E+03  0.17941952369E+04  0.50400001928E-02 0.  1.
       -1    1    3    3    0  502  0.13053345793E+04 -0.10494607438E+04  0.59556264031E+02  0.16759514209E+04  0.50400001928E-02 0. -1.
</event>
<event>
 5   0  0.1928004E-07  0.3396887E+04  0.7818609E-02  0.8138671E-01
        2   -1    0    0  501    0  0.00000000000E+00  0.00000000000E+00  0.13801412330E+04  0.13801412330E+04  0.25500000920E-02 0. -1.
       -2   -1    0    0    0  501  0.00000000000E+00  0.00000000000E+00 -0.20901562678E+04  0.20901562678E+04  0.25500000920E-02 0.  1.
    10030    2    1    2    0    0  0.00000000000E+00  0.00000000000E+00 -0.71001503477E+03  0.34702975007E+04  0.33968873096E+04 0.  0.
        2    1    3    3  502    0 -0.61644745114E+03  0.15669166024E+04 -0.12776909825E+03  0.16886562828E+04  0.25500000920E-02 0. -1.
       -2    1    3    3    0  502  0.61644745114E+03 -0.15669166024E+04 -0.58224593652E+03  0.17816412180E+04  0.25500000920E-02 0.  1.
</event>
<event>
 5   0  0.6311750E-08  0.3399043E+04  0.7818609E-02  0.8138141E-01
        3   -1    0    0  501    0  0.00000000000E+00  0.00000000000E+00  0.18757549410E+04  0.18757549437E+04  0.10100000352E+00 0.  1.
       -3   -1    0    0    0  501  0.00000000000E+00  0.00000000000E+00 -0.15398459830E+04  0.15398459863E+04  0.10100000352E+00 0. -1.
    10030    2    1    2    0    0  0.00000000000E+00  0.00000000000E+00  0.33590895801E+03  0.34156009301E+04  0.33990432309E+04 0.  0.
        2    1    3    3  502    0 -0.91952390881E+03  0.13688803109E+04  0.58107293522E+03  0.17484288034E+04  0.25500000920E-02 0.  1.
       -2    1    3    3    0  502  0.91952390881E+03 -0.13688803109E+04 -0.24516397721E+03  0.16671721267E+04  0.25500000920E-02 0. -1.
</event>
<event>
 5   0  0.6584420E-08  0.3405866E+04  0.7818609E-02  0.8136468E-01
       -1   -1    0    0    0  501  0.00000000000E+00  0.00000000000E+00  0.14002096020E+04  0.14002096020E+04  0.50400001928E-02 0.  1.
        1   -1    0    0  501    0  0.00000000000E+00  0.00000000000E+00 -0.20711044462E+04  0.20711044462E+04  0.50400001928E-02 0. -1.
    10030    2    1    2    0    0  0.00000000000E+00  0.00000000000E+00 -0.67089484421E+03  0.34713140483E+04  0.34058657240E+04 0.  0.
        1    1    3    3  502    0  0.12404443756E+03  0.23668718746E+03  0.13787073820E+04  0.14043652988E+04  0.50400001928E-02 0.  1.
       -1    1    3    3    0  502 -0.12404443756E+03 -0.23668718746E+03 -0.20496022262E+04  0.20669487495E+04  0.50400001928E-02 0. -1.
</event>
<event>
 5   0  0.6367111E-08  0.3398330E+04  0.7818609E-02  0.8138316E-01
       -1   -1    0    0    0  501  0.00000000000E+00  0.00000000000E+00  0.17485850238E+04  0.17485850238E+04  0.50400001928E-02 0. -1.
        1   -1    0    0  501    0  0.00000000000E+00  0.00000000000E+00 -0.16511418599E+04  0.16511418599E+04  0.50400001928E-02 0.  1.
    10030    2    1    2    0    0  0.00000000000E+00  0.00000000000E+00  0.97443163953E+02  0.33997268837E+04  0.33983301360E+04 0.  0.
        3    1    3    3  502    0  0.16289424408E+04 -0.45140452786E+03  0.22183141167E+03  0.17048251256E+04  0.10100000352E+00 0. -1.
       -3    1    3    3    0  502 -0.16289424408E+04  0.45140452786E+03 -0.12438824772E+03  0.16949017581E+04  0.10100000352E+00 0.  1.
</event>
<event>
 5   0  0.1897313E-07  0.3402104E+04  0.7818609E-02  0.8137390E-01
        2   -1    0    0  501    0  0.00000000000E+00  0.00000000000E+00  0.29767158867E+04  0.29767158867E+04  0.25500000920E-02 0.  1.
       -2   -1    0    0    0  501  0.00000000000E+00  0.00000000000E+00 -0.97207039957E+03  0.97207039957E+03  0.25500000920E-02 0. -1.
    10030    2    1    2    0    0  0.00000000000E+00  0.00000000000E+00  0.20046454871E+04  0.39487862863E+04  0.34021037029E+04 0.  0.
        3    1    3    3  502    0  0.13167952530E+04 -0.87880056563E+03  0.27995108771E+03  0.16076730993E+04  0.10100000352E+00 0. -1.
       -3    1    3    3    0  502 -0.13167952530E+04  0.87880056563E+03  0.17246943994E+04  0.23411131870E+04  0.10100000352E+00 0.  1.
</event>
<event>
 5   0  0.1963852E-07  0.3415684E+04  0.7818609E-02  0.8134068E-01
        2   -1    0    0  501    0  0.00000000000E+00  0.00000000000E+00  0.11665982020E+04  0.11665982020E+04  0.25500000920E-02 0.  1.
       -2   -1    0    0    0  501  0.00000000000E+00  0.00000000000E+00 -0.25001955551E+04  0.25001955551E+04  0.25500000920E-02 0. -1.
    10030    2    1    2    0    0  0.00000000000E+00  0.00000000000E+00 -0.13335973531E+04  0.36667937571E+04  0.34156836149E+04 0.  0.
        4    1    3    3  502    0 -0.98508784932E+03 -0.13600769945E+04 -0.33329149930E+03  0.17121017313E+04  0.12699999809E+01 0.  1.
       -4    1    3    3    0  502  0.98508784932E+03  0.13600769945E+04 -0.10003058538E+04  0.19546920259E+04  0.12699999809E+01 0. -1.
</event>
<event>
 5   0  0.6584420E-08  0.3374688E+04  0.7818609E-02  0.8144147E-01
        1   -1    0    0  501    0  0.00000000000E+00  0.00000000000E+00  0.18804587808E+04  0.18804587808E+04  0.50400001928E-02 0.  1.
       -1   -1    0    0    0  501  0.00000000000E+00  0.00000000000E+00 -0.15140613935E+04  0.15140613935E+04  0.50400001928E-02 0. -1.
    10030    2    1    2    0    0  0.00000000000E+00  0.00000000000E+00  0.36639738731E+03  0.33945201744E+04  0.33746881587E+04 0.  0.
        1    1    3    3  502    0  0.32680818611E+03  0.74203626259E+03 -0.13052638562E+04  0.15365985617E+04  0.50400001928E-02 0. -1.
       -1    1    3    3    0  502 -0.32680818611E+03 -0.74203626259E+03  0.16716612435E+04  0.18579216126E+04  0.50400001928E-02 0.  1.
</event>
<event>
 5   0  0.6341535E-08  0.3397313E+04  0.7818609E-02  0.8138566E-01
       -1   -1    0    0    0  501  0.00000000000E+00  0.00000000000E+00  0.17491621576E+04  0.17491621576E+04  0.50400001928E-02 0.  1.
        1   -1    0    0  501    0  0.00000000000E+00  0.00000000000E+00 -0.16496091112E+04  0.16496091112E+04  0.50400001928E-02 0. -1.
    10030    2    1    2    0    0  0.00000000000E+00  0.00000000000E+00  0.99553046355E+02  0.33987712688E+04  0.33973129571E+04 0.  0.
        5    1    3    3  502    0 -0.94161618295E+03  0.14135706202E+04  0.25500743792E+02  0.16986745751E+04  0.46999998093E+01 0.  1.
       -5    1    3    3    0  502  0.94161618295E+03 -0.14135706202E+04  0.74052302563E+02  0.17000966937E+04  0.46999998093E+01 0. -1.
</event>
<event>
 5   0  0.1897313E-07  0.3400373E+04  0.7818609E-02  0.8137815E-01
       -2   -1    0    0    0  501  0.00000000000E+00  0.00000000000E+00  0.10699688380E+04  0.10699688380E+04  0.25500000920E-02 0.  1.
        2   -1    0    0  501    0  0.00000000000E+00  0.00000000000E+00 -0.27016061061E+04  0.27016061061E+04  0.25500000920E-02 0. -1.
    10030    2    1    2    0    0  0.00000000000E+00  0.00000000000E+00 -0.16316372681E+04  0.37715749441E+04  0.34003731243E+04 0.  0.
        3    1    3    3  502    0 -0.40055456606E+03  0.15743705317E+04 -0.25952199945E+03  0.16451255909E+04  0.10100000352E+00 0.  1.
       -3    1    3    3    0  502  0.40055456606E+03 -0.15743705317E+04 -0.13721152686E+04  0.21264493533E+04  0.10100000352E+00 0. -1.
</event>
<event>
 5   0  0.6311750E-08  0.3403883E+04  0.7818609E-02  0.8136954E-01
       -1   -1    0    0    0  501  0.00000000000E+00  0.00000000000E+00  0.17066170410E+04  0.17066170410E+04  0.50400001928E-02 0.  1.
        1   -1    0    0  501    0  0.00000000000E+00  0.00000000000E+00 -0.16972786917E+04  0.16972786917E+04  0.50400001928E-02 0. -1.
    10030    2    1    2    0    0  0.00000000000E+00  0.00000000000E+00  0.93383493251E+01  0.34038957328E+04  0.34038829232E+04 0.  0.
        4    1    3    3  502    0 -0.72098617976E+03 -0.10187122546E+04  0.11618284008E+04  0.17051224516E+04  0.12699999809E+01 0.  1.
       -4    1    3    3    0  502  0.72098617976E+03  0.10187122546E+04 -0.11524900515E+04  0.16987732812E+04  0.12699999809E+01 0. -1.
</event>
<event>
 5   0  0.1897313E-07  0.3403556E+04  0.7818609E-02  0.8137034E-01
        2   -1    0    0  501    0  0.00000000000E+00  0.00000000000E+00  0.15733436551E+04  0.15733436551E+04  0.25500000920E-02 0.  1.
       -2   -1    0    0    0  501  0.00000000000E+00  0.00000000000E+00 -0.18406970825E+04  0.18406970825E+04  0.25500000920E-02 0. -1.
    10030    2    1    2    0    0  0.00000000000E+00  0.00000000000E+00 -0.26735342738E+03  0.34140407377E+04  0.34035564199E+04 0.  0.
        3    1    3    3  502    0 -0.85949645752E+03 -0.86074159373E+03 -0.13274851794E+04  0.18005074738E+04  0.10100000352E+00 0. -1.
       -3    1    3    3    0  502  0.85949645752E+03  0.86074159373E+03  0.10601317520E+04  0.16135332638E+04  0.10100000352E+00 0.  1.
</event>
<event>
 5   0  0.6341535E-08  0.3400380E+04  0.7818609E-02  0.8137813E-01
       -1   -1    0    0    0  501  0.00000000000E+00  0.00000000000E+00  0.14704865357E+04  0.14704865357E+04  0.50400001928E-02 0. -1.
        1   -1    0    0  501    0  0.00000000000E+00  0.00000000000E+00 -0.19657757662E+04  0.19657757662E+04  0.50400001928E-02 0.  1.
    10030    2    1    2    0    0  0.00000000000E+00  0.00000000000E+00 -0.49528923054E+03  0.34362623020E+04  0.34003804472E+04 0.  0.
        5    1    3    3  502    0 -0.95829910385E+03 -0.13888839004E+04 -0.45790032600E+03  0.17484365759E+04  0.46999998093E+01 0.  1.
       -5    1    3    3    0  502  0.95829910385E+03  0.13888839004E+04 -0.37388904539E+02  0.16878257261E+04  0.46999998093E+01 0. -1.
</event>
<event>
 5   0  0.6788600E-08  0.3401533E+04  0.7818609E-02  0.8137530E-01
        1   -1    0    0  501    0  0.00000000000E+00  0.00000000000E+00  0.12730219314E+04  0.12730219315E+04  0.50400001928E-02 0.  1.
       -1   -1    0    0    0  501  0.00000000000E+00  0.00000000000E+00 -0.22722368237E+04  0.22722368237E+04  0.50400001928E-02 0. -1.
    10030    2    1    2    0    0  0.00000000000E+00  0.00000000000E+00 -0.99921489223E+03  0.35452587551E+04  0.34015333660E+04 0.  0.
        2    1    3    3  502    0  0.79259895942E+03 -0.31529818516E+03  0.10339507908E+04  0.13404030341E+04  0.25500000920E-02 0.  1.
       -2    1    3    3    0  502 -0.79259895942E+03  0.31529818516E+03 -0.20331656830E+04  0.22048557210E+04  0.25500000920E-02 0. -1.
</event>
<event>
 5   0  0.1986613E-07  0.3507330E+04  0.7818609E-02  0.8112055E-01
       -2   -1    0    0    0  501  0.00000000000E+00  0.00000000000E+00  0.10159563493E+04  0.10159563493E+04  0.25500000920E-02 0.  1.
        2   -1    0    0  501    0  0.00000000000E+00  0.00000000000E+00 -0.30270410021E+04  0.30270410021E+04  0.25500000920E-02 0. -1.
    10030    2    1    2    0    0  0.00000000000E+00  0.00000000000E+00 -0.20110846529E+04  0.40429973514E+04  0.35073303383E+04 0.  0.
        5    1    3    3  502    0  0.11203198556E+04 -0.68249744812E+03  0.33598731176E+03  0.13541893919E+04  0.46999998093E+01 0. -1.
       -5    1    3    3    0  502 -0.11203198556E+04  0.68249744812E+03 -0.23470719646E+04  0.26888079594E+04  0.46999998093E+01 0.  1.
</event>
<event>
 5   0  0.6584420E-08  0.3396234E+04  0.7818609E-02  0.8138831E-01
        1   -1    0    0  501    0  0.00000000000E+00  0.00000000000E+00  0.17371955927E+04  0.17371955927E+04  0.50400001928E-02 0.  1.
       -1   -1    0    0    0  501  0.00000000000E+00  0.00000000000E+00 -0.16599170652E+04  0.16599170652E+04  0.50400001928E-02 0. -1.
    10030    2    1    2    0    0  0.00000000000E+00  0.00000000000E+00  0.77278527447E+02  0.33971126579E+04  0.33962335668E+04 0.  0.
        1    1    3    3  502    0 -0.15890351735E+04  0.27498916651E+03 -0.49342772771E+03  0.16864527111E+04  0.50400001928E-02 0. -1.
       -1    1    3    3    0  502  0.15890351735E+04 -0.27498916651E+03  0.57070625515E+03  0.17106599469E+04  0.50400001928E-02 0.  1.
</event>
<event>
 5   0  0.6584420E-08  0.3395824E+04  0.7818609E-02  0.8138932E-01
        1   -1    0    0  501    0  0.00000000000E+00  0.00000000000E+00  0.12247252965E+04  0.12247252965E+04  0.50400001928E-02 0. -1.
       -1   -1    0    0    0  501  0.00000000000E+00  0.00000000000E+00 -0.23539201654E+04  0.23539201654E+04  0.50400001928E-02 0.  1.
    10030    2    1    2    0    0  0.00000000000E+00  0.00000000000E+00 -0.11291948690E+04  0.35786454619E+04  0.33958242431E+04 0.  0.
        1    1    3    3  502    0  0.78508756542E+03  0.13723346320E+04  0.87795588799E+02  0.15834686271E+04  0.50400001928E-02 0.  1.
       -1    1    3    3    0  502 -0.78508756542E+03 -0.13723346320E+04 -0.12169904578E+04  0.19951768348E+04  0.50400001928E-02 0. -1.
</event>
<event>
 5   0  0.1897313E-07  0.3370392E+04  0.7818609E-02  0.8145211E-01
       -2   -1    0    0    0  501  0.00000000000E+00  0.00000000000E+00  0.12960564654E+04  0.12960564654E+04  0.25500000920E-02 0. -1.
        2   -1    0    0  501    0  0.00000000000E+00  0.00000000000E+00 -0.21911747911E+04  0.21911747911E+04  0.25500000920E-02 0.  1.
    10030    2    1    2    0    0  0.00000000000E+00  0.00000000000E+00 -0.89511832568E+03  0.34872312565E+04  0.33703924132E+04 0.  0.
        3    1    3    3  502    0 -0.14217880685E+04 -0.41375234881E+02  0.48747978839E+03  0.15036055919E+04  0.10100000352E+00 0. -1.
       -3    1    3    3    0  502  0.14217880685E+04  0.41375234881E+02 -0.13825981141E+04  0.19836256645E+04  0.10100000352E+00 0.  1.
</event>
<event>
 5   0  0.6311750E-08  0.3394707E+04  0.7818609E-02  0.8139207E-01
        1   -1    0    0  501    0  0.00000000000E+00  0.00000000000E+00  0.19221063520E+04  0.19221063520E+04  0.50400001928E-02 0.  1.
       -1   -1    0    0    0  501  0.00000000000E+00  0.00000000000E+00 -0.14988807889E+04  0.14988807889E+04  0.50400001928E-02 0. -1.
    10030    2    1    2    0    0  0.00000000000E+00  0.00000000000E+00  0.42322556308E+03  0.34209871409E+04  0.33947066355E+04 0.  0.
        4    1    3    3  502    0  0.77230186112E+03  0.72699994863E+00 -0.13115632410E+04  0.15220546775E+04  0.12699999809E+01 0. -1.
       -4    1    3    3    0  502 -0.77230186112E+03 -0.72699994863E+00  0.17347888041E+04  0.18989324635E+04  0.12699999809E+01 0.  1.
</event>
<event>
 5   0  0.6584420E-08  0.3398938E+04  0.7818609E-02  0.8138167E-01
       -1   -1    0    0    0  501  0.00000000000E+00  0.00000000000E+00  0.11906244671E+04  0.11906244671E+04  0.50400001928E-02 0.  1.
        1   -1    0    0  501    0  0.00000000000E+00  0.00000000000E+00 -0.24257822093E+04  0.24257822093E+04  0.50400001928E-02 0. -1.
    10030    2    1    2    0    0  0.00000000000E+00  0.00000000000E+00 -0.12351577422E+04  0.36164066764E+04  0.33989384520E+04 0.  0.
        1    1    3    3  502    0  0.11811357266E+04  0.10336637368E+04  0.75769063525E+02  0.15713953279E+04  0.50400001928E-02 0.  1.
       -1    1    3    3    0  502 -0.11811357266E+04 -0.10336637368E+04 -0.13109268057E+04  0.20450113485E+04  0.50400001928E-02 0. -1.
</event>
<event>
 5   0  0.1986613E-07  0.3407725E+04  0.7818609E-02  0.8136013E-01
       -2   -1    0    0    0  501  0.00000000000E+00  0.00000000000E+00  0.13537748627E+04  0.13537748627E+04  0.25500000920E-02 0. -1.
        2   -1    0    0  501    0  0.00000000000E+00  0.00000000000E+00 -0.21444836487E+04  0.21444836487E+04  0.25500000920E-02 0.  1.
    10030    2    1    2    0    0  0.00000000000E+00  0.00000000000E+00 -0.79070878605E+03  0.34982585114E+04  0.34077253745E+04 0.  0.
        5    1    3    3  502    0  0.84773860251E+01  0.40333120363E+03  0.13040336209E+04  0.13650178388E+04  0.46999998093E+01 0. -1.
       -5    1    3    3    0  502 -0.84773860251E+01 -0.40333120363E+03 -0.20947424069E+04  0.21332406726E+04  0.46999998093E+01 0.  1.
</event>
<event>
 5   0  0.6341535E-08  0.3400462E+04  0.7818609E-02  0.8137793E-01
        1   -1    0    0  501    0  0.00000000000E+00  0.00000000000E+00  0.11048290424E+04  0.11048290424E+04  0.50400001928E-02 0. -1.
       -1   -1    0    0    0  501  0.00000000000E+00  0.00000000000E+00 -0.26165006706E+04  0.26165006707E+04  0.50400001928E-02 0.  1.
    10030    2    1    2    0    0  0.00000000000E+00  0.00000000000E+00 -0.15116716282E+04  0.37213297131E+04  0.34004622806E+04 0.  0.
        5    1    3    3  502    0 -0.51798117764E+03 -0.66381020724E+03 -0.23723115317E+04  0.25173066132E+04  0.46999998093E+01 0.  1.
       -5    1    3    3    0  502  0.51798117764E+03  0.66381020724E+03  0.86063990342E+03  0.12040230999E+04  0.46999998093E+01 0. -1.
</event>
<event>
 5   0  0.1897313E-07  0.3457378E+04  0.7818609E-02  0.8123966E-01
        2   -1    0    0  501    0  0.00000000000E+00  0.00000000000E+00  0.28407301387E+04  0.28407301387E+04  0.25500000920E-02 0. -1.
       -2   -1    0    0    0  501  0.00000000000E+00  0.00000000000E+00 -0.10519710158E+04  0.10519710158E+04  0.25500000920E-02 0.  1.
    10030    2    1    2    0    0  0.00000000000E+00  0.00000000000E+00  0.17887591229E+04  0.38927011545E+04  0.34573780641E+04 0.  0.
        3    1    3    3  502    0  0.16608084774E+04  0.47092595951E+03  0.99701489613E+03  0.19935131731E+04  0.10100000352E+00 0. -1.
       -3    1    3    3    0  502 -0.16608084774E+04 -0.47092595951E+03  0.79174422680E+03  0.18991879814E+04  0.10100000352E+00 0.  1.
</event>
<event>
 5   0  0.6788600E-08  0.3396658E+04  0.7818609E-02  0.8138727E-01
       -1   -1    0    0    0  501  0.00000000000E+00  0.00000000000E+00  0.14320125790E+04  0.14320125791E+04  0.50400001928E-02 0.  1.
        1   -1    0    0  501    0  0.00000000000E+00  0.00000000000E+00 -0.20141731936E+04  0.20141731936E+04  0.50400001928E-02 0. -1.
    10030    2    1    2    0    0  0.00000000000E+00  0.00000000000E+00 -0.58216061454E+03  0.34461857727E+04  0.33966579749E+04 0.  0.
        2    1    3    3  502    0  0.94043588498E+03  0.13798998975E+04 -0.60507309909E+03  0.17761353654E+04  0.25500000920E-02 0.  1.
       -2    1    3    3    0  502 -0.94043588498E+03 -0.13798998975E+04  0.22912484550E+02  0.16700504073E+04  0.25500000920E-02 0. -1.
</event>
<event>
 5   0  0.6311750E-08  0.3397514E+04  0.7818609E-02  0.8138517E-01
       -1   -1    0    0    0  501  0.00000000000E+00  0.00000000000E+00  0.33582216457E+04  0.33582216457E+04  0.50400001928E-02 0.  1.
        1   -1    0    0  501    0  0.00000000000E+00  0.00000000000E+00 -0.85931649394E+03  0.85931649395E+03  0.50400001928E-02 0. -1.
    10030    2    1    2    0    0  0.00000000000E+00  0.00000000000E+00  0.24989051518E+04  0.42175381397E+04  0.33975139443E+04 0.  0.
        4    1    3    3  502    0 -0.11160996452E+04  0.55142975119E+03  0.26842953784E+04  0.29589181266E+04  0.12699999809E+01 0.  1.
       -4    1    3    3    0  502  0.11160996452E+04 -0.55142975119E+03 -0.18539022660E+03  0.12586200131E+04  0.12699999809E+01 0. -1.
</event>
<event>
 5   0  0.6584420E-08  0.3398538E+04  0.7818609E-02  0.8138265E-01
        1   -1    0    0  501    0  0.00000000000E+00  0.00000000000E+00  0.27698971249E+04  0.27698971249E+04  0.50400001928E-02 0.  1.
       -1   -1    0    0    0  501  0.00000000000E+00  0.00000000000E+00 -0.10424630091E+04  0.10424630091E+04  0.50400001928E-02 0. -1.
    10030    2    1    2    0    0  0.00000000000E+00  0.00000000000E+00  0.17274341157E+04  0.38123601340E+04  0.33985380926E+04 0.  0.
        1    1    3    3  502    0 -0.16959976201E+04 -0.22346906920E+02  0.97925327031E+03  0.19585311535E+04  0.50400001928E-02 0.  1.
       -1    1    3    3    0  502  0.16959976201E+04  0.22346906920E+02  0.74818084541E+03  0.18538289805E+04  0.50400001928E-02 0. -1.
</event>
<event>
 5   0  0.6311750E-08  0.3396533E+04  0.7818609E-02  0.8138758E-01
        1   -1    0    0  501    0  0.00000000000E+00  0.00000000000E+00  0.22026096013E+04  0.22026096013E+04  0.50400001928E-02 0. -1.
       -1   -1    0    0    0  501  0.00000000000E+00  0.00000000000E+00 -0.13094058347E+04  0.13094058347E+04  0.50400001928E-02 0.  1.
    10030    2    1    2    0    0  0.00000000000E+00  0.00000000000E+00  0.89320376661E+03  0.35120154360E+04  0.33965334466E+04 0.  0.
        4    1    3    3  502    0 -0.83614120370E+03  0.11229653623E+04 -0.54728935958E+03  0.15032333729E+04  0.12699999809E+01 0.  1.
       -4    1    3    3    0  502  0.83614120370E+03 -0.11229653623E+04  0.14404931262E+04  0.20087820631E+04  0.12699999809E+01 0. -1.
</event>
<event>
 5   0  0.1928004E-07  0.3401880E+04  0.7818609E-02  0.8137445E-01
        2   -1    0    0  501    0  0.00000000000E+00  0.00000000000E+00  0.20205935258E+04  0.20205935258E+04  0.25500000920E-02 0. -1.
       -2   -1    0    0    0  501  0.00000000000E+00  0.00000000000E+00 -0.14318553447E+04  0.14318553447E+04  0.25500000920E-02 0.  1.
    10030    2    1    2    0    0  0.00000000000E+00  0.00000000000E+00  0.58873818106E+03  0.34524488704E+04  0.34018804443E+04 0.  0.
        2    1    3    3  502    0 -0.15915720209E+04  0.37396652438E+03 -0.18190989024E+03  0.16450056739E+04  0.25500000920E-02 0.  1.
       -2    1    3    3    0  502  0.15915720209E+04 -0.37396652438E+03  0.77064807130E+03  0.18074431966E+04  0.25500000920E-02 0. -1.
</event>
<event>
 5   0  0.1970449E-07  0.3396515E+04  0.7818609E-02  0.8138762E-01
        2   -1    0    0  501    0  0.00000000000E+00  0.00000000000E+00  0.21401125402E+04  0.21401125402E+04  0.25500000920E-02 0.  1.
       -2   -1    0    0    0  501  0.00000000000E+00  0.00000000000E+00 -0.13476291313E+04  0.13476291313E+04  0.25500000920E-02 0. -1.
    10030    2    1    2    0    0  0.00000000000E+00  0.00000000000E+00  0.79248340887E+03  0.34877416715E+04  0.33965146862E+04 0.  0.
        1    1    3    3  502    0  0.15701189133E+03  0.13147271796E+04  0.14882509531E+04  0.19919967847E+04  0.50400001928E-02 0.  1.
       -1    1    3    3    0  502 -0.15701189133E+03 -0.13147271796E+04 -0.69576754418E+03  0.14957448868E+04  0.50400001928E-02 0. -1.
</event>
<event>
 5   0  0.1897313E-07  0.3404909E+04  0.7818609E-02  0.8136702E-01
       -2   -1    0    0    0  501  0.00000000000E+00  0.00000000000E+00  0.14228107555E+04  0.14228107555E+04  0.25500000920E-02 0. -1.
        2   -1    0    0  501    0  0.00000000000E+00  0.00000000000E+00 -0.20370606583E+04  0.20370606583E+04  0.25500000920E-02 0.  1.
    10030    2    1    2    0    0  0.00000000000E+00  0.00000000000E+00 -0.61424990282E+03  0.34598714138E+04  0.34049092876E+04 0.  0.
        3    1    3    3  502    0  0.12731738488E+03  0.44817148019E+02  0.14173652164E+04  0.14237775318E+04  0.10100000352E+00 0. -1.
       -3    1    3    3    0  502 -0.12731738488E+03 -0.44817148019E+02 -0.20316151192E+04  0.20360938819E+04  0.10100000352E+00 0.  1.
</event>
<event>
 5   0  0.1970449E-07  0.3398379E+04  0.7818609E-02  0.8138304E-01
       -2   -1    0    0    0  501  0.00000000000E+00  0.00000000000E+00  0.11398102524E+04  0.11398102525E+04  0.25500000920E-02 0. -1.
        2   -1    0    0  501    0  0.00000000000E+00  0.00000000000E+00 -0.25330921018E+04  0.25330921018E+04  0.25500000920E-02 0.  1.
    10030    2    1    2    0    0  0.00000000000E+00  0.00000000000E+00 -0.13932818494E+04  0.36729023543E+04  0.33983786417E+04 0.  0.
        1    1    3    3  502    0 -0.53432408942E+01  0.16695567586E+04 -0.35521676907E+03  0.17069350525E+04  0.50400001928E-02 0.  1.
       -1    1    3    3    0  502  0.53432408942E+01 -0.16695567586E+04 -0.10380650803E+04  0.19659673018E+04  0.50400001928E-02 0. -1.
</event>
<event>
 5   0  0.1963852E-07  0.3398691E+04  0.7818609E-02  0.8138228E-01
        2   -1    0    0  501    0  0.00000000000E+00  0.00000000000E+00  0.25993597575E+04  0.25993597575E+04  0.25500000920E-02 0. -1.
       -2   -1    0    0    0  501  0.00000000000E+00  0.00000000000E+00 -0.11109562539E+04  0.11109562539E+04  0.25500000920E-02 0.  1.
    10030    2    1    2    0    0  0.00000000000E+00  0.00000000000E+00  0.14884035035E+04  0.37103160114E+04  0.33986909120E+04 0.  0.
        4    1    3    3  502    0 -0.68239081338E+03  0.42946708582E+03  0.23772448791E+04  0.25102577613E+04  0.12699999809E+01 0. -1.
       -4    1    3    3    0  502  0.68239081338E+03 -0.42946708582E+03 -0.88884137555E+03  0.12000582502E+04  0.12699999809E+01 0.  1.
</event>
<event>
 5   0  0.6367111E-08  0.3385217E+04  0.7818609E-02  0.8141544E-01
        1   -1    0    0  501    0  0.00000000000E+00  0.00000000000E+00  0.10626691480E+04  0.10626691481E+04  0.50400001928E-02 0. -1.
       -1   -1    0    0    0  501  0.00000000000E+00  0.00000000000E+00 -0.26959692631E+04  0.26959692631E+04  0.50400001928E-02 0.  1.
    10030    2    1    2    0    0  0.00000000000E+00  0.00000000000E+00 -0.16333001151E+04  0.37586384112E+04  0.33852168971E+04 0.  0.
        3    1    3    3  502    0 -0.64751532942E+03 -0.19773538640E+03 -0.25390789774E+04  0.26277932660E+04  0.10100000352E+00 0.  1.
       -3    1    3    3    0  502  0.64751532942E+03  0.19773538640E+03  0.90577886233E+03  0.11308451452E+04  0.10100000352E+00 0. -1.
</event>
<event>
 5   0  0.6584420E-08  0.3401852E+04  0.7818609E-02  0.8137452E-01
        1   -1    0    0  501    0  0.00000000000E+00  0.00000000000E+00  0.28239685753E+04  0.28239685753E+04  0.50400001928E-02 0. -1.
       -1   -1    0    0    0  501  0.00000000000E+00  0.00000000000E+00 -0.10244975693E+04  0.10244975693E+04  0.50400001928E-02 0.  1.
    10030    2    1    2    0    0  0.00000000000E+00  0.00000000000E+00  0.17994710060E+04  0.38484661446E+04  0.34018518140E+04 0.  0.
        1    1    3    3  502    0 -0.10690086164E+04  0.63829980353E+03 -0.41125953892E+03  0.13112362371E+04  0.50400001928E-02 0.  1.
       -1    1    3    3    0  502  0.10690086164E+04 -0.63829980353E+03  0.22107305450E+04  0.25372299075E+04  0.50400001928E-02 0. -1.
</event>
<event>
 5   0  0.6311750E-08  0.3410394E+04  0.7818609E-02  0.8135360E-01
       -3   -1    0    0    0  501  0.00000000000E+00  0.00000000000E+00  0.18887954267E+04  0.18887954294E+04  0.10100000352E+00 0.  1.
        3   -1    0    0  501    0  0.00000000000E+00  0.00000000000E+00 -0.15394449160E+04  0.15394449193E+04  0.10100000352E+00 0. -1.
    10030    2    1    2    0    0  0.00000000000E+00  0.00000000000E+00  0.34935051068E+03  0.34282403487E+04  0.34103938349E+04 0.  0.
        2    1    3    3  502    0  0.10973591616E+04  0.90946405714E+03  0.11157228745E+04  0.18100164456E+04  0.25500000920E-02 0.  1.
       -2    1    3    3    0  502 -0.10973591616E+04 -0.90946405714E+03 -0.76637236377E+03  0.16182239031E+04  0.25500000920E-02 0. -1.
</event>
<event>
 5   0  0.6584420E-08  0.3405443E+04  0.7818609E-02  0.8136572E-01
       -1   -1    0    0    0  501  0.00000000000E+00  0.00000000000E+00  0.10103042815E+04  0.10103042815E+04  0.50400001928E-02 0.  1.
        1   -1    0    0  501    0  0.00000000000E+00  0.00000000000E+00 -0.28696902222E+04  0.28696902222E+04  0.50400001928E-02 0. -1.
    10030    2    1    2    0    0  0.00000000000E+00  0.00000000000E+00 -0.18593859407E+04  0.38799945036E+04  0.34054428892E+04 0.  0.
        1    1    3    3  502    0  0.13880453396E+04 -0.15251405882E+03  0.18041722738E+03  0.14080059584E+04  0.50400001928E-02 0.  1.
       -1    1    3    3    0  502 -0.13880453396E+04  0.15251405882E+03 -0.20398031681E+04  0.24719885452E+04  0.50400001928E-02 0. -1.
</event>
<event>
 5   0  0.6311750E-08  0.3400731E+04  0.7818609E-02  0.8137727E-01
        1   -1    0    0  501    0  0.00000000000E+00  0.00000000000E+00  0.10195407069E+04  0.10195407069E+04  0.50400001928E-02 0. -1.
       -1   -1    0    0    0  501  0.00000000000E+00  0.00000000000E+00 -0.28358295610E+04  0.28358295610E+04  0.50400001928E-02 0.  1.
    10030    2    1    2    0    0  0.00000000000E+00  0.00000000000E+00 -0.18162888541E+04  0.38553702679E+04  0.34007314950E+04 0.  0.
        4    1    3    3  502    0  0.64456559397E+03  0.13276836164E+04  0.49157006107E+02  0.14766944892E+04  0.12699999809E+01 0. -1.
       -4    1    3    3    0  502 -0.64456559397E+03 -0.13276836164E+04 -0.18654458602E+04  0.23786757787E+04  0.12699999809E+01 0.  1.
</event>
<event>
 5   0  0.6367111E-08  0.3405126E+04  0.7818609E-02  0.8136649E-01
        1   -1    0    0  501    0  0.00000000000E+00  0.00000000000E+00  0.16453404498E+04  0.16453404499E+04  0.50400001928E-02 0. -1.
       -1   -1    0    0    0  501  0.00000000000E+00  0.00000000000E+00 -0.17617752165E+04  0.17617752165E+04  0.50400001928E-02 0.  1.
    10030    2    1    2    0    0  0.00000000000E+00  0.00000000000E+00 -0.11643476669E+03  0.34071156664E+04  0.34051255644E+04 0.  0.
        3    1    3    3  502    0 -0.38236479153E+03 -0.92240622064E+03  0.13216041446E+04  0.16564038140E+04  0.10100000352E+00 0. -1.
       -3    1    3    3    0  502  0.38236479153E+03  0.92240622064E+03 -0.14380389113E+04  0.17507118524E+04  0.10100000352E+00 0.  1.
</event>
<event>
 5   0  0.1963852E-07  0.3387162E+04  0.7818609E-02  0.8141064E-01
       -2   -1    0    0    0  501  0.00000000000E+00  0.00000000000E+00  0.13112819532E+04  0.13112819532E+04  0.25500000920E-02 0.  1.
        2   -1    0    0  501    0  0.00000000000E+00  0.00000000000E+00 -0.21873377865E+04  0.21873377865E+04  0.25500000920E-02 0. -1.
    10030    2    1    2    0    0  0.00000000000E+00  0.00000000000E+00 -0.87605583329E+03  0.34986197397E+04  0.33871619773E+04 0.  0.
        4    1    3    3  502    0  0.80062330466E+03  0.14501139251E+04 -0.73737233060E+02  0.16580913317E+04  0.12699999809E+01 0.  1.
       -4    1    3    3    0  502 -0.80062330466E+03 -0.14501139251E+04 -0.80231860023E+03  0.18405284081E+04  0.12699999809E+01 0. -1.
</event>
<event>
 5   0  0.6788600E-08  0.3398395E+04  0.7818609E-02  0.8138300E-01
       -1   -1    0    0    0  501  0.00000000000E+00  0.00000000000E+00  0.17361980568E+04  0.17361980568E+04  0.50400001928E-02 0. -1.
        1   -1    0    0  501    0  0.00000000000E+00  0.00000000000E+00 -0.16629859005E+04  0.16629859005E+04  0.50400001928E-02 0.  1.
    10030    2    1    2    0    0  0.00000000000E+00  0.00000000000E+00  0.73212156340E+02  0.33991839573E+04  0.33983954384E+04 0.  0.
        2    1    3    3  502    0  0.10845691275E+04  0.68564380082E+03 -0.10775982004E+04  0.16755940724E+04  0.25500000920E-02 0.  1.
       -2    1    3    3    0  502 -0.10845691275E+04 -0.68564380082E+03  0.11508103568E+04  0.17235898849E+04  0.25500000920E-02 0. -1.
</event>
<event>
 5   0  0.6367111E-08  0.3404385E+04  0.7818609E-02  0.8136831E-01
       -1   -1    0    0    0  501  0.00000000000E+00  0.00000000000E+00  0.15958386226E+04  0.15958386226E+04  0.50400001928E-02 0. -1.
        1   -1    0    0  501    0  0.00000000000E+00  0.00000000000E+00 -0.18156345815E+04  0.18156345815E+04  0.50400001928E-02 0.  1.
    10030    2    1    2    0    0  0.00000000000E+00  0.00000000000E+00 -0.21979595888E+03  0.34114732041E+04  0.34043852835E+04 0.  0.
        3    1    3    3  502    0  0.62117111448E+02 -0.16258936964E+04  0.39121409364E+03  0.16734507238E+04  0.10100000352E+00 0. -1.
       -3    1    3    3    0  502 -0.62117111448E+02  0.16258936964E+04 -0.61101005253E+03  0.17380224803E+04  0.10100000352E+00 0.  1.
</event>
<event>
 5   0  0.1986613E-07  0.3390653E+04  0.7818609E-02  0.8140204E-01
       -2   -1    0    0    0  501  0.00000000000E+00  0.00000000000E+00  0.20181702937E+04  0.20181702937E+04  0.25500000920E-02 0. -1.
        2   -1    0    0  501    0  0.00000000000E+00  0.00000000000E+00 -0.14241274756E+04  0.14241274756E+04  0.25500000920E-02 0.  1.
    10030    2    1    2    0    0  0.00000000000E+00  0.00000000000E+00  0.59404281804E+03  0.34422977693E+04  0.33906528962E+04 0.  0.
        5    1    3    3  502    0  0.11250047403E+04 -0.62491586787E+03 -0.82339787601E+03  0.15277963411E+04  0.46999998093E+01 0.  1.
       -5    1    3    3    0  502 -0.11250047403E+04  0.62491586787E+03  0.14174406940E+04  0.19145014282E+04  0.46999998093E+01 0. -1.
</event>
<event>
 5   0  0.6788600E-08  0.3401269E+04  0.7818609E-02  0.8137595E-01
       -1   -1    0    0    0  501  0.00000000000E+00  0.00000000000E+00  0.26395406161E+04  0.26395406161E+04  0.50400001928E-02 0.  1.
        1   -1    0    0  501    0  0.00000000000E+00  0.00000000000E+00 -0.10957048287E+04  0.10957048287E+04  0.50400001928E-02 0. -1.
    10030    2    1    2    0    0  0.00000000000E+00  0.00000000000E+00  0.15438357875E+04  0.37352454448E+04  0.34012688212E+04 0.  0.
        2    1    3    3  502    0 -0.14835754011E+04 -0.67330889285E+03  0.13074669221E+04  0.20889735729E+04  0.25500000920E-02 0. -1.
       -2    1    3    3    0  502  0.14835754011E+04  0.67330889285E+03  0.23636886539E+03  0.16462718719E+04  0.25500000920E-02 0.  1.
</event>
<event>
 5   0  0.6341535E-08  0.3398675E+04  0.7818609E-02  0.8138232E-01
        1   -1    0    0  501    0  0.00000000000E+00  0.00000000000E+00  0.16499602836E+04  0.16499602837E+04  0.50400001928E-02 0.  1.
       -1   -1    0    0    0  501  0.00000000000E+00  0.00000000000E+00 -0.17501925887E+04  0.17501925888E+04  0.50400001928E-02 0. -1.
    10030    2    1    2    0    0  0.00000000000E+00  0.00000000000E+00 -0.10023230510E+03  0.34001528724E+04  0.33986751891E+04 0.  0.
        5    1    3    3  502    0 -0.50093894123E+03  0.70973121720E+03  0.14110214829E+04  0.16570039042E+04  0.46999998093E+01 0.  1.
       -5    1    3    3    0  502  0.50093894123E+03 -0.70973121720E+03 -0.15112537880E+04  0.17431489682E+04  0.46999998093E+01 0. -1.
</event>
<event>
 5   0  0.6341535E-08  0.3400179E+04  0.7818609E-02  0.8137862E-01
        1   -1    0    0  501    0  0.00000000000E+00  0.00000000000E+00  0.10972977178E+04  0.10972977178E+04  0.50400001928E-02 0.  1.
       -1   -1    0    0    0  501  0.00000000000E+00  0.00000000000E+00 -0.26340197973E+04  0.26340197973E+04  0.50400001928E-02 0. -1.
    10030    2    1    2    0    0  0.00000000000E+00  0.00000000000E+00 -0.15367220795E+04  0.37313175151E+04  0.34001787672E+04 0.  0.
        5    1    3    3  502    0 -0.67612839709E+01  0.55218482271E+03  0.99612522898E+03  0.11389650369E+04  0.46999998093E+01 0.  1.
       -5    1    3    3    0  502  0.67612839709E+01 -0.55218482271E+03 -0.25328473085E+04  0.25923524782E+04  0.46999998093E+01 0. -1.
</event>
<event>
 5   0  0.1928004E-07  0.3397957E+04  0.7818609E-02  0.8138408E-01
       -2   -1    0    0    0  501  0.00000000000E+00  0.00000000000E+00  0.20102187636E+04  0.20102187636E+04  0.25500000920E-02 0.  1.
        2   -1    0    0  501    0  0.00000000000E+00  0.00000000000E+00 -0.14359274518E+04  0.14359274518E+04  0.25500000920E-02 0. -1.
    10030    2    1    2    0    0  0.00000000000E+00  0.00000000000E+00  0.57429131176E+03  0.34461462154E+04  0.33979572138E+04 0.  0.
        2    1    3    3  502    0  0.81312917215E+03  0.13800708612E+04  0.86152870400E+03  0.18187925501E+04  0.25500000920E-02 0.  1.
       -2    1    3    3    0  502 -0.81312917215E+03 -0.13800708612E+04 -0.28723739224E+03  0.16273536653E+04  0.25500000920E-02 0. -1.
</event>
<event>
 5   0  0.1928004E-07  0.3400757E+04  0.7818609E-02  0.8137721E-01
       -2   -1    0    0    0  501  0.00000000000E+00  0.00000000000E+00  0.17418174780E+04  0.17418174780E+04  0.25500000920E-02 0. -1.
        2   -1    0    0  501    0  0.00000000000E+00  0.00000000000E+00 -0.16599249977E+04  0.16599249977E+04  0.25500000920E-02 0.  1.
    10030    2    1    2    0    0  0.00000000000E+00  0.00000000000E+00  0.81892480306E+02  0.34017424757E+04  0.34007566059E+04 0.  0.
        2    1    3    3  502    0 -0.69667223681E+00  0.16896533258E+04  0.23167801365E+03  0.17054628547E+04  0.25500000920E-02 0. -1.
       -2    1    3    3    0  502  0.69667223681E+00 -0.16896533258E+04 -0.14978553334E+03  0.16962796210E+04  0.25500000920E-02 0.  1.
</event>
<event>
 5   0  0.1897313E-07  0.3401539E+04  0.7818609E-02  0.8137529E-01
       -2   -1    0    0    0  501  0.00000000000E+00  0.00000000000E+00  0.14225542882E+04  0.14225542882E+04  0.25500000920E-02 0.  1.
        2   -1    0    0  501    0  0.00000000000E+00  0.00000000000E+00 -0.20333967510E+04  0.20333967510E+04  0.25500000920E-02 0. -1.
    10030    2    1    2    0    0  0.00000000000E+00  0.00000000000E+00 -0.61084246278E+03  0.34559510393E+04  0.34015392209E+04 0.  0.
        3    1    3    3  502    0 -0.61934005978E+03  0.48766818371E+03  0.12257410131E+04  0.14573412121E+04  0.10100000352E+00 0.  1.
       -3    1    3    3    0  502  0.61934005978E+03 -0.48766818371E+03 -0.18365834759E+04  0.19986098272E+04  0.10100000352E+00 0. -1.
</event>
<event>
 5   0  0.1963852E-07  0.3405196E+04  0.7818609E-02  0.8136632E-01
       -2   -1    0    0    0  501  0.00000000000E+00  0.00000000000E+00  0.10412383006E+04  0.10412383006E+04  0.25500000920E-02 0. -1.
        2   -1    0    0  501    0  0.00000000000E+00  0.00000000000E+00 -0.27840320193E+04  0.27840320193E+04  0.25500000920E-02 0.  1.
    10030    2    1    2    0    0  0.00000000000E+00  0.00000000000E+00 -0.17427937187E+04  0.38252703200E+04  0.34051964811E+04 0.  0.
        4    1    3    3  502    0 -0.93033513393E+03  0.53082313363E+03  0.61532694166E+03  0.12352835782E+04  0.12699999809E+01 0. -1.
       -4    1    3    3    0  502  0.93033513393E+03 -0.53082313363E+03 -0.23581206603E+04  0.25899867417E+04  0.12699999809E+01 0.  1.
</event>
<event>
 5   0  0.6584420E-08  0.3385874E+04  0.7818609E-02  0.8141382E-01
        1   -1    0    0  501    0  0.00000000000E+00  0.00000000000E+00  0.25105729408E+04  0.25105729408E+04  0.50400001928E-02 0.  1.
       -1   -1    0    0    0  501  0.00000000000E+00  0.00000000000E+00 -0.11415865842E+04  0.11415865842E+04  0.50400001928E-02 0. -1.
    10030    2    1    2    0    0  0.00000000000E+00  0.00000000000E+00  0.13689863566E+04  0.36521595250E+04  0.33858744146E+04 0.  0.
        1    1    3    3  502    0 -0.13528654049E+04 -0.42402526225E+03  0.16824558444E+04  0.22001590613E+04  0.50400001928E-02 0.  1.
       -1    1    3    3    0  502  0.13528654049E+04  0.42402526225E+03 -0.31346948773E+03  0.14520004637E+04  0.50400001928E-02 0. -1.
</event>
<event>
 5   0  0.1963852E-07  0.3393405E+04  0.7818609E-02  0.8139527E-01
        2   -1    0    0  501    0  0.00000000000E+00  0.00000000000E+00  0.23378881077E+04  0.23378881077E+04  0.25500000920E-02 0. -1.
       -2   -1    0    0    0  501  0.00000000000E+00  0.00000000000E+00 -0.12313677010E+04  0.12313677010E+04  0.25500000920E-02 0.  1.
    10030    2    1    2    0    0  0.00000000000E+00  0.00000000000E+00  0.11065204067E+04  0.35692558087E+04  0.33934053129E+04 0.  0.
        4    1    3    3  502    0 -0.52807138192E+03 -0.63228237919E+02  0.22479466512E+04  0.23100049684E+04  0.12699999809E+01 0. -1.
       -4    1    3    3    0  502  0.52807138192E+03  0.63228237919E+02 -0.11414262445E+04  0.12592508404E+04  0.12699999809E+01 0.  1.
</event>
<event>
 5   0  0.6311750E-08  0.3406390E+04  0.7818609E-02  0.8136340E-01
       -1   -1    0    0    0  501  0.00000000000E+00  0.00000000000E+00  0.16385374200E+04  0.16385374201E+04  0.50400001928E-02 0.  1.
        1   -1    0    0  501    0  0.00000000000E+00  0.00000000000E+00 -0.17704040016E+04  0.17704040016E+04  0.50400001928E-02 0. -1.
    10030    2    1    2    0    0  0.00000000000E+00  0.00000000000E+00 -0.13186658157E+03  0.34089414217E+04  0.34063899984E+04 0.  0.
        4    1    3    3  502    0 -0.74004022094E+03  0.74109530439E+03  0.12781996051E+04  0.16524762093E+04  0.12699999809E+01 0.  1.
       -4    1    3    3    0  502  0.74004022094E+03 -0.74109530439E+03 -0.14100661867E+04  0.17564652124E+04  0.12699999809E+01 0. -1.
</event>
<event>
 5   0  0.1970449E-07  0.3398799E+04  0.7818609E-02  0.8138201E-01
        2   -1    0    0  501    0  0.00000000000E+00  0.00000000000E+00  0.23196092965E+04  0.23196092965E+04  0.25500000920E-02 0. -1.
       -2   -1    0    0    0  501  0.00000000000E+00  0.00000000000E+00 -0.12450193719E+04  0.12450193719E+04  0.25500000920E-02 0.  1.
    10030    2    1    2    0    0  0.00000000000E+00  0.00000000000E+00  0.10745899247E+04  0.35646286684E+04  0.33987989110E+04 0.  0.
        1    1    3    3  502    0 -0.69445086802E+03  0.13775004428E+04 -0.21036042780E+03  0.15569267766E+04  0.50400001928E-02 0.  1.
       -1    1    3    3    0  502  0.69445086802E+03 -0.13775004428E+04  0.12849503525E+04  0.20077018918E+04  0.50400001928E-02 0. -1.
</event>
<event>
 5   0  0.6367111E-08  0.3398774E+04  0.7818609E-02  0.8138207E-01
       -1   -1    0    0    0  501  0.00000000000E+00  0.00000000000E+00  0.19654601738E+04  0.19654601738E+04  0.50400001928E-02 0. -1.
        1   -1    0    0  501    0  0.00000000000E+00  0.00000000000E+00 -0.14693333437E+04  0.14693333437E+04  0.50400001928E-02 0.  1.
    10030    2    1    2    0    0  0.00000000000E+00  0.00000000000E+00  0.49612683008E+03  0.34347935175E+04  0.33987739961E+04 0.  0.
        3    1    3    3  502    0 -0.94394429759E+03  0.17120777702E+03 -0.11695042525E+04  0.15126411163E+04  0.10100000352E+00 0.  1.
       -3    1    3    3    0  502  0.94394429759E+03 -0.17120777702E+03  0.16656310826E+04  0.19221524012E+04  0.10100000352E+00 0. -1.
</event>
<event>
 5   0  0.1897313E-07  0.3399207E+04  0.7818609E-02  0.8138101E-01
        2   -1    0    0  501    0  0.00000000000E+00  0.00000000000E+00  0.16965973184E+04  0.16965973184E+04  0.25500000920E-02 0.  1.
       -2   -1    0    0    0  501  0.00000000000E+00  0.00000000000E+00 -0.17026154031E+04  0.17026154031E+04  0.25500000920E-02 0. -1.
    10030    2    1    2    0    0  0.00000000000E+00  0.00000000000E+00 -0.60180847185E+01  0.33992127215E+04  0.33992073942E+04 0.  0.
        3    1    3    3  502    0  0.78811627686E+03  0.18934635989E+03  0.14908719443E+04  0.16969615418E+04  0.10100000352E+00 0.  1.
       -3    1    3    3    0  502 -0.78811627686E+03 -0.18934635989E+03 -0.14968900290E+04  0.17022511797E+04  0.10100000352E+00 0. -1.
</event>
<event>
 5   0  0.6341535E-08  0.3410001E+04  0.7818609E-02  0.8135456E-01
       -1   -1    0    0    0  501  0.00000000000E+00  0.00000000000E+00  0.20661825872E+04  0.20661825872E+04  0.50400001928E-02 0.  1.
        1   -1    0    0  501    0  0.00000000000E+00  0.00000000000E+00 -0.14069557052E+04  0.14069557052E+04  0.50400001928E-02 0. -1.
    10030    2    1    2    0    0  0.00000000000E+00  0.00000000000E+00  0.65922688197E+03  0.34731382924E+04  0.34100013954E+04 0.  0.
        5    1    3    3  502    0 -0.15018975667E+04  0.32052985956E+03 -0.42475478367E+03  0.15933845763E+04  0.46999998093E+01 0. -1.
       -5    1    3    3    0  502  0.15018975667E+04 -0.32052985956E+03  0.10839816656E+04  0.18797537161E+04  0.46999998093E+01 0.  1.
</event>
<event>
 5   0  0.1970449E-07  0.3395636E+04  0.7818609E-02  0.8138978E-01
       -2   -1    0    0    0  501  0.00000000000E+00  0.00000000000E+00  0.10706715853E+04  0.10706715853E+04  0.25500000920E-02 0. -1.
        2   -1    0    0  501    0  0.00000000000E+00  0.00000000000E+00 -0.26923158885E+04  0.26923158885E+04  0.25500000920E-02 0.  1.
    10030    2    1    2    0    0  0.00000000000E+00  0.00000000000E+00 -0.16216443032E+04  0.37629874738E+04  0.33956360939E+04 0.  0.
        1    1    3    3  502    0  0.30923241661E+03  0.18218674458E+03 -0.26497954275E+04  0.26739918670E+04  0.50400001928E-02 0.  1.
       -1    1    3    3    0  502 -0.30923241661E+03 -0.18218674458E+03  0.10281511242E+04  0.10889956068E+04  0.50400001928E-02 0. -1.
</event>
<event>
 5   0  0.1897313E-07  0.3389131E+04  0.7818609E-02  0.8140579E-01
        2   -1    0    0  501    0  0.00000000000E+00  0.00000000000E+00  0.29553710014E+04  0.29553710014E+04  0.25500000920E-02 0. -1.
       -2   -1    0    0    0  501  0.00000000000E+00  0.00000000000E+00 -0.97163863473E+03  0.97163863474E+03  0.25500000920E-02 0.  1.
    10030    2    1    2    0    0  0.00000000000E+00  0.00000000000E+00  0.19837323667E+04  0.39270096361E+04  0.33891312426E+04 0.  0.
        3    1    3    3  502    0  0.52790603687E+03  0.25605259795E+03 -0.85018800215E+03  0.10329895284E+04  0.10100000352E+00 0.  1.
       -3    1    3    3    0  502 -0.52790603687E+03 -0.25605259795E+03  0.28339203688E+04  0.28940201077E+04  0.10100000352E+00 0. -1.
</event>
<event>
 5   0  0.6311750E-08  0.3408325E+04  0.7818609E-02  0.8135866E-01
        3   -1    0    0  501    0  0.00000000000E+00  0.00000000000E+00  0.16808120712E+04  0.16808120742E+04  0.10100000352E+00 0. -1.
       -3   -1    0    0    0  501  0.00000000000E+00  0.00000000000E+00 -0.17278377240E+04  0.17278377269E+04  0.10100000352E+00 0.  1.
    10030    2    1    2    0    0  0.00000000000E+00  0.00000000000E+00 -0.47025652810E+02  0.34086498011E+04  0.34083254033E+04 0.  0.
        2    1    3    3  502    0  0.10840649390E+04  0.90604501054E+03 -0.97652333147E+03  0.17174726112E+04  0.25500000920E-02 0.  1.
       -2    1    3    3    0  502 -0.10840649390E+04 -0.90604501054E+03  0.92949767866E+03  0.16911771900E+04  0.25500000920E-02 0. -1.
</event>
<event>
 5   0  0.6311750E-08  0.3412027E+04  0.7818609E-02  0.8134961E-01
        1   -1    0    0  501    0  0.00000000000E+00  0.00000000000E+00  0.19577623627E+04  0.19577623627E+04  0.50400001928E-02 0. -1.
       -1   -1    0    0    0  501  0.00000000000E+00  0.00000000000E+00 -0.14866370150E+04  0.14866370150E+04  0.50400001928E-02 0.  1.
    10030    2    1    2    0    0  0.00000000000E+00  0.00000000000E+00  0.47112534765E+03  0.34443993777E+04  0.34120269606E+04 0.  0.
        4    1    3    3  502    0  0.88675899465E+03  0.10625934776E+04 -0.77141537046E+03  0.15844651148E+04  0.12699999809E+01 0.  1.
       -4    1    3    3    0  502 -0.88675899465E+03 -0.10625934776E+04  0.12425407181E+04  0.18599342629E+04  0.12699999809E+01 0. -1.
</event>
<event>
 5   0  0.6788600E-08  0.3397372E+04  0.7818609E-02  0.8138552E-01
       -1   -1    0    0    0  501  0.00000000000E+00  0.00000000000E+00  0.16209223014E+04  0.16209223014E+04  0.50400001928E-02 0. -1.
        1   -1    0    0  501    0  0.00000000000E+00  0.00000000000E+00 -0.17801801456E+04  0.17801801456E+04  0.50400001928E-02 0.  1.
    10030    2    1    2    0    0  0.00000000000E+00  0.00000000000E+00 -0.15925784413E+03  0.34011024470E+04  0.33973717480E+04 0.  0.
        2    1    3    3  502    0  0.26711699037E+03  0.82790092185E+03 -0.15402589528E+04  0.17689457495E+04  0.25500000920E-02 0.  1.
       -2    1    3    3    0  502 -0.26711699037E+03 -0.82790092185E+03  0.13810011087E+04  0.16321566975E+04  0.25500000920E-02 0. -1.
</event>
<event>
 5   0  0.1963852E-07  0.3393395E+04  0.7818609E-02  0.8139529E-01
       -2   -1    0    0    0  501  0.00000000000E+00  0.00000000000E+00  0.23608808053E+04  0.23608808053E+04  0.25500000920E-02 0.  1.
        2   -1    0    0  501    0  0.00000000000E+00  0.00000000000E+00 -0.12193676548E+04  0.12193676548E+04  0.25500000920E-02 0. -1.
    10030    2    1    2    0    0  0.00000000000E+00  0.00000000000E+00  0.11415131504E+04  0.35802484601E+04  0.33933945782E+04 0.  0.
        4    1    3    3  502    0  0.13190213662E+04 -0.10516569098E+04  0.76236170927E+03  0.18512149009E+04  0.12699999809E+01 0. -1.
       -4    1    3    3    0  502 -0.13190213662E+04  0.10516569098E+04  0.37915144115E+03  0.17290335592E+04  0.12699999809E+01 0.  1.
</event>
<event>
 5   0  0.1970449E-07  0.3387452E+04  0.7818609E-02  0.8140993E-01
        2   -1    0    0  501    0  0.00000000000E+00  0.00000000000E+00  0.23959827911E+04  0.23959827911E+04  0.25500000920E-02 0. -1.
       -2   -1    0    0    0  501  0.00000000000E+00  0.00000000000E+00 -0.11972991427E+04  0.11972991427E+04  0.25500000920E-02 0.  1.
    10030    2    1    2    0    0  0.00000000000E+00  0.00000000000E+00  0.11986836484E+04  0.35932819338E+04  0.33874522235E+04 0.  0.
        1    1    3    3  502    0  0.62181444036E+03 -0.63587247372E+03 -0.92967317089E+03  0.12865765449E+04  0.50400001928E-02 0.  1.
       -1    1    3    3    0  502 -0.62181444036E+03  0.63587247372E+03  0.21283568193E+04  0.23067053889E+04  0.50400001928E-02 0. -1.
</event>
<event>
 5   0  0.6584420E-08  0.3401105E+04  0.7818609E-02  0.8137635E-01
       -1   -1    0    0    0  501  0.00000000000E+00  0.00000000000E+00  0.15947558600E+04  0.15947558600E+04  0.50400001928E-02 0.  1.
        1   -1    0    0  501    0  0.00000000000E+00  0.00000000000E+00 -0.18133672296E+04  0.18133672296E+04  0.50400001928E-02 0. -1.
    10030    2    1    2    0    0  0.00000000000E+00  0.00000000000E+00 -0.21861136966E+03  0.34081230896E+04  0.34011045357E+04 0.  0.
        1    1    3    3  502    0 -0.11389425092E+04  0.85829960589E+03 -0.10375053467E+04  0.17636001806E+04  0.50400001928E-02 0. -1.
       -1    1    3    3    0  502  0.11389425092E+04 -0.85829960589E+03  0.81889397699E+03  0.16445229090E+04  0.50400001928E-02 0.  1.
</event>
<event>
 5   0  0.1986613E-07  0.3403093E+04  0.7818609E-02  0.8137148E-01
        2   -1    0    0  501    0  0.00000000000E+00  0.00000000000E+00  0.16580739004E+04  0.16580739004E+04  0.25500000920E-02 0.  1.
       -2   -1    0    0    0  501  0.00000000000E+00  0.00000000000E+00 -0.17461590596E+04  0.17461590596E+04  0.25500000920E-02 0. -1.
    10030    2    1    2    0    0  0.00000000000E+00  0.00000000000E+00 -0.88085159157E+02  0.34042329600E+04  0.34030931593E+04 0.  0.
        5    1    3    3  502    0  0.58887990529E+01 -0.71676514560E+03 -0.15877547389E+04  0.17420603184E+04  0.46999998093E+01 0. -1.
       -5    1    3    3    0  502 -0.58887990529E+01  0.71676514560E+03  0.14996695798E+04  0.16621726416E+04  0.46999998093E+01 0.  1.
</event>
<event>
 5   0  0.6311750E-08  0.3400107E+04  0.7818609E-02  0.8137880E-01
        1   -1    0    0  501    0  0.00000000000E+00  0.00000000000E+00  0.23565587752E+04  0.23565587752E+04  0.50400001928E-02 0. -1.
       -1   -1    0    0    0  501  0.00000000000E+00  0.00000000000E+00 -0.12264413421E+04  0.12264413421E+04  0.50400001928E-02 0.  1.
    10030    2    1    2    0    0  0.00000000000E+00  0.00000000000E+00  0.11301174331E+04  0.35830001173E+04  0.34001065319E+04 0.  0.
        4    1    3    3  502    0  0.16080713136E+04  0.27406643085E+02  0.11456342104E+04  0.19746199206E+04  0.12699999809E+01 0.  1.
       -4    1    3    3    0  502 -0.16080713136E+04 -0.27406643085E+02 -0.15516777314E+02  0.16083801967E+04  0.12699999809E+01 0. -1.
</event>
<event>
 5   0  0.6367111E-08  0.3402158E+04  0.7818609E-02  0.8137377E-01
       -1   -1    0    0    0  501  0.00000000000E+00  0.00000000000E+00  0.23010192924E+04  0.23010192924E+04  0.50400001928E-02 0. -1.
        1   -1    0    0  501    0  0.00000000000E+00  0.00000000000E+00 -0.12575600153E+04  0.12575600154E+04  0.50400001928E-02 0.  1.
    10030    2    1    2    0    0  0.00000000000E+00  0.00000000000E+00  0.10434592771E+04  0.35585793078E+04  0.34021580544E+04 0.  0.
        3    1    3    3  502    0  0.10575875514E+04 -0.12561520587E+04  0.57169285028E+02  0.16430696153E+04  0.10100000352E+00 0.  1.
       -3    1    3    3    0  502 -0.10575875514E+04  0.12561520587E+04  0.98628999206E+03  0.19155096925E+04  0.10100000352E+00 0. -1.
</event>
<event>
 5   0  0.6788600E-08  0.3398528E+04  0.7818609E-02  0.8138268E-01
       -1   -1    0    0    0  501  0.00000000000E+00  0.00000000000E+00  0.18867250986E+04  0.18867250986E+04  0.50400001928E-02 0. -1.
        1   -1    0    0  501    0  0.00000000000E+00  0.00000000000E+00 -0.15304284476E+04  0.15304284476E+04  0.50400001928E-02 0.  1.
    10030    2    1    2    0    0  0.00000000000E+00  0.00000000000E+00  0.35629665102E+03  0.34171535461E+04  0.33985277775E+04 0.  0.
        2    1    3    3  502    0  0.10485770830E+04  0.43712125208E+03  0.14487626210E+04  0.18410600262E+04  0.25500000920E-02 0.  1.
       -2    1    3    3    0  502 -0.10485770830E+04 -0.43712125208E+03 -0.10924659700E+04  0.15760935199E+04  0.25500000920E-02 0. -1.
</event>
<event>
 5   0  0.1963852E-07  0.3395931E+04  0.7818609E-02  0.8138906E-01
        2   -1    0    0  501    0  0.00000000000E+00  0.00000000000E+00  0.16706993982E+04  0.16706993982E+04  0.25500000920E-02 0. -1.
       -2   -1    0    0    0  501  0.00000000000E+00  0.00000000000E+00 -0.17256769833E+04  0.17256769833E+04  0.25500000920E-02 0.  1.
    10030    2    1    2    0    0  0.00000000000E+00  0.00000000000E+00 -0.54977585138E+02  0.33963763815E+04  0.33959313877E+04 0.  0.
        4    1    3    3  502    0  0.98075106336E+03 -0.13151507425E+04 -0.46525811007E+03  0.17052744195E+04  0.12699999809E+01 0.  1.
       -4    1    3    3    0  502 -0.98075106336E+03  0.13151507425E+04  0.41028052493E+03  0.16911019620E+04  0.12699999809E+01 0. -1.
</event>
<event>
 5   0  0.6584420E-08  0.3423850E+04  0.7818609E-02  0.8132077E-01
        1   -1    0    0  501    0  0.00000000000E+00  0.00000000000E+00  0.16957502668E+04  0.16957502668E+04  0.50400001928E-02 0. -1.
       -1   -1    0    0    0  501  0.00000000000E+00  0.00000000000E+00 -0.17282538254E+04  0.17282538255E+04  0.50400001928E-02 0.  1.
    10030    2    1    2    0    0  0.00000000000E+00  0.00000000000E+00 -0.32503558674E+02  0.34240040922E+04  0.34238498130E+04 0.  0.
        1    1    3    3  502    0  0.54529074516E+03 -0.56043377808E+03  0.15067281569E+04  0.16975446254E+04  0.50400001928E-02 0. -1.
       -1    1    3    3    0  502 -0.54529074516E+03  0.56043377808E+03 -0.15392317156E+04  0.17264594668E+04  0.50400001928E-02 0.  1.
</event>
<event>
 5   0  0.6367111E-08  0.3397131E+04  0.7818609E-02  0.8138611E-01
       -1   -1    0    0    0  501  0.00000000000E+00  0.00000000000E+00  0.16215741987E+04  0.16215741987E+04  0.50400001928E-02 0. -1.
        1   -1    0    0  501    0  0.00000000000E+00  0.00000000000E+00 -0.17792122436E+04  0.17792122436E+04  0.50400001928E-02 0.  1.
    10030    2    1    2    0    0  0.00000000000E+00  0.00000000000E+00 -0.15763804491E+03  0.34007864423E+04  0.33971309472E+04 0.  0.
        3    1    3    3  502    0  0.16390415965E+03  0.31582403892E+03  0.15838460297E+04  0.16233230279E+04  0.10100000352E+00 0. -1.
       -3    1    3    3    0  502 -0.16390415965E+03 -0.31582403892E+03 -0.17414840746E+04  0.17774634143E+04  0.10100000352E+00 0.  1.
</event>
<event>
 5   0  0.1928004E-07  0.3402318E+04  0.7818609E-02  0.8137338E-01
        2   -1    0    0  501    0  0.00000000000E+00  0.00000000000E+00  0.20902132182E+04  0.20902132182E+04  0.25500000920E-02 0.  1.
       -2   -1    0    0    0  501  0.00000000000E+00  0.00000000000E+00 -0.13845201973E+04  0.13845201973E+04  0.25500000920E-02 0. -1.
    10030    2    1    2    0    0  0.00000000000E+00  0.00000000000E+00  0.70569302086E+03  0.34747334156E+04  0.34023182787E+04 0.  0.
        2    1    3    3  502    0  0.11685218530E+04 -0.12853763260E+03 -0.90294970443E+03  0.14823236531E+04  0.25500000920E-02 0. -1.
       -2    1    3    3    0  502 -0.11685218530E+04  0.12853763260E+03  0.16086427253E+04  0.19924097624E+04  0.25500000920E-02 0.  1.
</event>
<event>
 5   0  0.1963852E-07  0.3433299E+04  0.7818609E-02  0.8129782E-01
        2   -1    0    0  501    0  0.00000000000E+00  0.00000000000E+00  0.23042015894E+04  0.23042015894E+04  0.25500000920E-02 0.  1.
       -2   -1    0    0    0  501  0.00000000000E+00  0.00000000000E+00 -0.12789185038E+04  0.12789185038E+04  0.25500000920E-02 0. -1.
    10030    2    1    2    0    0  0.00000000000E+00  0.00000000000E+00  0.10252830856E+04  0.35831200931E+04  0.34332993164E+04 0.  0.
        4    1    3    3  502    0  0.47040080236E+03  0.12362292740E+04 -0.62934055571E+03  0.14647903879E+04  0.12699999809E+01 0.  1.
       -4    1    3    3    0  502 -0.47040080236E+03 -0.12362292740E+04  0.16546236413E+04  0.21183297052E+04  0.12699999809E+01 0. -1.
</event>
<event>
 5   0  0.6341535E-08  0.3409020E+04  0.7818609E-02  0.8135696E-01
        1   -1    0    0  501    0  0.00000000000E+00  0.00000000000E+00  0.17459267567E+04  0.17459267567E+04  0.50400001928E-02 0. -1.
       -1   -1    0    0    0  501  0.00000000000E+00  0.00000000000E+00 -0.16640759720E+04  0.16640759720E+04  0.50400001928E-02 0.  1.
    10030    2    1    2    0    0  0.00000000000E+00  0.00000000000E+00  0.81850784688E+02  0.34100027287E+04  0.34090202491E+04 0.  0.
        5    1    3    3  502    0  0.63105983635E+03  0.36359912294E+03 -0.15005871507E+04  0.16680002176E+04  0.46999998093E+01 0.  1.
       -5    1    3    3    0  502 -0.63105983635E+03 -0.36359912294E+03  0.15824379353E+04  0.17420025110E+04  0.46999998093E+01 0. -1.
</event>
<event>
 5   0  0.1963852E-07  0.3400747E+04  0.7818609E-02  0.8137723E-01
        2   -1    0    0  501    0  0.00000000000E+00  0.00000000000E+00  0.19872346544E+04  0.19872346544E+04  0.25500000920E-02 0. -1.
       -2   -1    0    0    0  501  0.00000000000E+00  0.00000000000E+00 -0.14549217214E+04  0.14549217214E+04  0.25500000920E-02 0.  1.
    10030    2    1    2    0    0  0.00000000000E+00  0.00000000000E+00  0.53231293307E+03  0.34421563758E+04  0.34007474850E+04 0.  0.
        4    1    3    3  502    0  0.39917200158E+03  0.57864863822E+03 -0.13009517560E+04  0.14787324362E+04  0.12699999809E+01 0.  1.
       -4    1    3    3    0  502 -0.39917200158E+03 -0.57864863822E+03  0.18332646891E+04  0.19634239396E+04  0.12699999809E+01 0. -1.
</event>
<event>
 5   0  0.6788600E-08  0.3400348E+04  0.7818609E-02  0.8137821E-01
       -1   -1    0    0    0  501  0.00000000000E+00  0.00000000000E+00  0.13395389588E+04  0.13395389588E+04  0.50400001928E-02 0.  1.
        1   -1    0    0  501    0  0.00000000000E+00  0.00000000000E+00 -0.21579002463E+04  0.21579002463E+04  0.50400001928E-02 0. -1.
    10030    2    1    2    0    0  0.00000000000E+00  0.00000000000E+00 -0.81836128749E+03  0.34974392051E+04  0.34003478934E+04 0.  0.
        2    1    3    3  502    0 -0.16405385324E+04 -0.16832496444E+03 -0.83437454442E+03  0.18482101748E+04  0.25500000920E-02 0. -1.
       -2    1    3    3    0  502  0.16405385324E+04  0.16832496444E+03  0.16013256923E+02  0.16492290303E+04  0.25500000920E-02 0.  1.
</event>
<event>
 5   0  0.1986613E-07  0.3402758E+04  0.7818609E-02  0.8137230E-01
        2   -1    0    0  501    0  0.00000000000E+00  0.00000000000E+00  0.20049776215E+04  0.20049776215E+04  0.25500000920E-02 0. -1.
       -2   -1    0    0    0  501  0.00000000000E+00  0.00000000000E+00 -0.14437519999E+04  0.14437519999E+04  0.25500000920E-02 0.  1.
    10030    2    1    2    0    0  0.00000000000E+00  0.00000000000E+00  0.56122562154E+03  0.34487296214E+04  0.34027579702E+04 0.  0.
        5    1    3    3  502    0 -0.35852770282E+03  0.40596084743E+03 -0.13540385767E+04  0.14583514256E+04  0.46999998093E+01 0.  1.
       -5    1    3    3    0  502  0.35852770282E+03 -0.40596084743E+03  0.19152641982E+04  0.19903781958E+04  0.46999998093E+01 0. -1.
</event>
<event>
 5   0  0.6311750E-08  0.3412126E+04  0.7818609E-02  0.8134936E-01
       -1   -1    0    0    0  501  0.00000000000E+00  0.00000000000E+00  0.11601841961E+04  0.11601841961E+04  0.50400001928E-02 0. -1.
        1   -1    0    0  501    0  0.00000000000E+00  0.00000000000E+00 -0.25087841662E+04  0.25087841662E+04  0.50400001928E-02 0.  1.
    10030    2    1    2    0    0  0.00000000000E+00  0.00000000000E+00 -0.13485999702E+04  0.36689683623E+04  0.34121264578E+04 0.  0.
        4    1    3    3  502    0  0.10542183419E+04  0.63823227282E+03  0.59430984907E+03  0.13681822086E+04  0.12699999809E+01 0. -1.
       -4    1    3    3    0  502 -0.10542183419E+04 -0.63823227282E+03 -0.19429098192E+04  0.23007861537E+04  0.12699999809E+01 0.  1.
</event>
<event>
 5   0  0.1897313E-07  0.3400204E+04  0.7818609E-02  0.8137856E-01
       -2   -1    0    0    0  501  0.00000000000E+00  0.00000000000E+00  0.23686492427E+04  0.23686492427E+04  0.25500000920E-02 0. -1.
        2   -1    0    0  501    0  0.00000000000E+00  0.00000000000E+00 -0.12202511259E+04  0.12202511259E+04  0.25500000920E-02 0.  1.
    10030    2    1    2    0    0  0.00000000000E+00  0.00000000000E+00  0.11483981167E+04  0.35889003686E+04  0.34002040558E+04 0.  0.
        3    1    3    3  502    0  0.11164070031E+04  0.22149507910E+03  0.19071868640E+04  0.22209877107E+04  0.10100000352E+00 0. -1.
       -3    1    3    3    0  502 -0.11164070031E+04 -0.22149507910E+03 -0.75878874722E+03  0.13679126579E+04  0.10100000352E+00 0.  1.
</event>
<event>
 5   0  0.6311750E-08  0.3399367E+04  0.7818609E-02  0.8138062E-01
       -4   -1    0    0    0  501  0.00000000000E+00  0.00000000000E+00  0.14230499293E+04  0.14230504960E+04  0.12699999809E+01 0.  1.
        4   -1    0    0  501    0  0.00000000000E+00  0.00000000000E+00 -0.20300917421E+04  0.20300921394E+04  0.12699999809E+01 0. -1.
    10030    2    1    2    0    0  0.00000000000E+00  0.00000000000E+00 -0.60704181287E+03  0.34531426353E+04  0.33993667495E+04 0.  0.
        2    1    3    3  502    0 -0.14137775645E+04  0.89525269350E+03 -0.10195354661E+01  0.16733933867E+04  0.25500000920E-02 0.  1.
       -2    1    3    3    0  502  0.14137775645E+04 -0.89525269350E+03 -0.60602227740E+03  0.17797492486E+04  0.25500000920E-02 0. -1.
</event>
<event>
 5   0  0.1928004E-07  0.3397961E+04  0.7818609E-02  0.8138407E-01
       -2   -1    0    0    0  501  0.00000000000E+00  0.00000000000E+00  0.18791186594E+04  0.18791186594E+04  0.25500000920E-02 0.  1.
        2   -1    0    0  501    0  0.00000000000E+00  0.00000000000E+00 -0.15361113245E+04  0.15361113245E+04  0.25500000920E-02 0. -1.
    10030    2    1    2    0    0  0.00000000000E+00  0.00000000000E+00  0.34300733482E+03  0.34152299839E+04  0.33979614199E+04 0.  0.
        2    1    3    3  502    0  0.31874912832E+03  0.75859539224E+03 -0.13224781697E+04  0.15575674898E+04  0.25500000920E-02 0. -1.
       -2    1    3    3    0  502 -0.31874912832E+03 -0.75859539224E+03  0.16654855046E+04  0.18576624941E+04  0.25500000920E-02 0.  1.
</event>
<event>
 5   0  0.6311750E-08  0.3374292E+04  0.7818609E-02  0.8144245E-01
        3   -1    0    0  501    0  0.00000000000E+00  0.00000000000E+00  0.15421123015E+04  0.15421123049E+04  0.10100000352E+00 0. -1.
       -3   -1    0    0    0  501  0.00000000000E+00  0.00000000000E+00 -0.18458196827E+04  0.18458196855E+04  0.10100000352E+00 0.  1.
    10030    2    1    2    0    0  0.00000000000E+00  0.00000000000E+00 -0.30370738120E+03  0.33879319904E+04  0.33742917772E+04 0.  0.
        3    1    3    3  502    0 -0.21046214760E+02  0.62396804946E+02  0.15408215143E+04  0.15422280160E+04  0.10100000352E+00 0. -1.
       -3    1    3    3    0  502  0.21046214760E+02 -0.62396804946E+02 -0.18445288955E+04  0.18457039743E+04  0.10100000352E+00 0.  1.
</event>
<event>
 5   0  0.1963852E-07  0.3420965E+04  0.7818609E-02  0.8132780E-01
       -2   -1    0    0    0  501  0.00000000000E+00  0.00000000000E+00  0.11052407427E+04  0.11052407427E+04  0.25500000920E-02 0. -1.
        2   -1    0    0  501    0  0.00000000000E+00  0.00000000000E+00 -0.26471613005E+04  0.26471613005E+04  0.25500000920E-02 0.  1.
    10030    2    1    2    0    0  0.00000000000E+00  0.00000000000E+00 -0.15419205578E+04  0.37524020432E+04  0.34209650812E+04 0.  0.
        4    1    3    3  502    0  0.12060699323E+04 -0.85846419996E+03  0.16889939536E+03  0.14899980144E+04  0.12699999809E+01 0. -1.
       -4    1    3    3    0  502 -0.12060699323E+04  0.85846419996E+03 -0.17108199531E+04  0.22624040287E+04  0.12699999809E+01 0.  1.
</event>
<event>
 5   0  0.1986613E-07  0.3406497E+04  0.7818609E-02  0.8136314E-01
       -2   -1    0    0    0  501  0.00000000000E+00  0.00000000000E+00  0.15781344028E+04  0.15781344028E+04  0.25500000920E-02 0. -1.
        2   -1    0    0  501    0  0.00000000000E+00  0.00000000000E+00 -0.18382819688E+04  0.18382819688E+04  0.25500000920E-02 0.  1.
    10030    2    1    2    0    0  0.00000000000E+00  0.00000000000E+00 -0.26014756597E+03  0.34164163717E+04  0.34064973314E+04 0.  0.
        5    1    3    3  502    0 -0.76385822983E+03  0.27173311572E+03 -0.16323391302E+04  0.18226001776E+04  0.46999998093E+01 0.  1.
       -5    1    3    3    0  502  0.76385822983E+03 -0.27173311572E+03  0.13721915642E+04  0.15938161941E+04  0.46999998093E+01 0. -1.
</event>
<event>
 5   0  0.6311750E-08  0.3394875E+04  0.7818609E-02  0.8139165E-01
       -1   -1    0    0    0  501  0.00000000000E+00  0.00000000000E+00  0.23188431254E+04  0.23188431254E+04  0.50400001928E-02 0. -1.
        1   -1    0    0  501    0  0.00000000000E+00  0.00000000000E+00 -0.12425570279E+04  0.12425570279E+04  0.50400001928E-02 0.  1.
    10030    2    1    2    0    0  0.00000000000E+00  0.00000000000E+00  0.10762860975E+04  0.35614001533E+04  0.33948754452E+04 0.  0.
        4    1    3    3  502    0  0.27048078707E+03 -0.21077621404E+03 -0.12058426004E+04  0.12536524472E+04  0.12699999809E+01 0.  1.
       -4    1    3    3    0  502 -0.27048078707E+03  0.21077621404E+03  0.22821286979E+04  0.23077477061E+04  0.12699999809E+01 0. -1.
</event>
<event>
 5   0  0.6788600E-08  0.3396586E+04  0.7818609E-02  0.8138745E-01
       -1   -1    0    0    0  501  0.00000000000E+00  0.00000000000E+00  0.17119506569E+04  0.17119506569E+04  0.50400001928E-02 0. -1.
        1   -1    0    0  501    0  0.00000000000E+00  0.00000000000E+00 -0.16847439024E+04  0.16847439024E+04  0.50400001928E-02 0.  1.
    10030    2    1    2    0    0  0.00000000000E+00  0.00000000000E+00  0.27206754482E+02  0.33966945593E+04  0.33965855976E+04 0.  0.
        2    1    3    3  502    0  0.49426652076E+03 -0.12922593697E+04 -0.97129610583E+03  0.16904584577E+04  0.25500000920E-02 0.  1.
       -2    1    3    3    0  502 -0.49426652076E+03  0.12922593697E+04  0.99850286031E+03  0.17062361015E+04  0.25500000920E-02 0. -1.
</event>
<event>
 5   0  0.1986613E-07  0.3405193E+04  0.7818609E-02  0.8136633E-01
        2   -1    0    0  501    0  0.00000000000E+00  0.00000000000E+00  0.20154510799E+04  0.20154510799E+04  0.25500000920E-02 0.  1.
       -2   -1    0    0    0  501  0.00000000000E+00  0.00000000000E+00 -0.14383056027E+04  0.14383056027E+04  0.25500000920E-02 0. -1.
    10030    2    1    2    0    0  0.00000000000E+00  0.00000000000E+00  0.57714547716E+03  0.34537566826E+04  0.34051928464E+04 0.  0.
        5    1    3    3  502    0  0.16833814305E+04  0.24806052453E+03  0.22852171484E+03  0.17168434199E+04  0.46999998093E+01 0. -1.
       -5    1    3    3    0  502 -0.16833814305E+04 -0.24806052453E+03  0.34862376232E+03  0.17369132627E+04  0.46999998093E+01 0.  1.
</event>
<event>
 5   0  0.6367111E-08  0.3403156E+04  0.7818609E-02  0.8137132E-01
        1   -1    0    0  501    0  0.00000000000E+00  0.00000000000E+00  0.21127234298E+04  0.21127234298E+04  0.50400001928E-02 0.  1.
       -1   -1    0    0    0  501  0.00000000000E+00  0.00000000000E+00 -0.13704430437E+04  0.13704430437E+04  0.50400001928E-02 0. -1.
    10030    2    1    2    0    0  0.00000000000E+00  0.00000000000E+00  0.74228038607E+03  0.34831664736E+04  0.34031556695E+04 0.  0.
        3    1    3    3  502    0 -0.12102745399E+04  0.10078989148E+04 -0.28800585376E+03  0.16011158816E+04  0.10100000352E+00 0. -1.
       -3    1    3    3    0  502  0.12102745399E+04 -0.10078989148E+04  0.10302862398E+04  0.18820505919E+04  0.10100000352E+00 0.  1.
</event>
<event>
 5   0  0.1970449E-07  0.3403711E+04  0.7818609E-02  0.8136996E-01
        2   -1    0    0  501    0  0.00000000000E+00  0.00000000000E+00  0.14631272150E+04  0.14631272150E+04  0.25500000920E-02 0.  1.
       -2   -1    0    0    0  501  0.00000000000E+00  0.00000000000E+00 -0.19795357418E+04  0.19795357418E+04  0.25500000920E-02 0. -1.
    10030    2    1    2    0    0  0.00000000000E+00  0.00000000000E+00 -0.51640852681E+03  0.34426629567E+04  0.34037112785E+04 0.  0.
        1    1    3    3  502    0 -0.91056221836E+02 -0.16736828437E+04 -0.55620646091E+03  0.17660325943E+04  0.50400001928E-02 0. -1.
       -1    1    3    3    0  502  0.91056221836E+02  0.16736828437E+04  0.39797934097E+02  0.16766303625E+04  0.50400001928E-02 0.  1.
</event>
<event>
 5   0  0.6584420E-08  0.3396600E+04  0.7818609E-02  0.8138741E-01
       -1   -1    0    0    0  501  0.00000000000E+00  0.00000000000E+00  0.14194025641E+04  0.14194025641E+04  0.50400001928E-02 0. -1.
        1   -1    0    0  501    0  0.00000000000E+00  0.00000000000E+00 -0.20319972252E+04  0.20319972253E+04  0.50400001928E-02 0.  1.
    10030    2    1    2    0    0  0.00000000000E+00  0.00000000000E+00 -0.61259466112E+03  0.34513997894E+04  0.33965995183E+04 0.  0.
        1    1    3    3  502    0  0.27831673847E+03 -0.83310776836E+03 -0.17832587577E+04  0.19878482230E+04  0.50400001928E-02 0.  1.
       -1    1    3    3    0  502 -0.27831673847E+03  0.83310776836E+03  0.11706640966E+04  0.14635515664E+04  0.50400001928E-02 0. -1.
</event>
<event>
 5   0  0.1970449E-07  0.3396759E+04  0.7818609E-02  0.8138702E-01
        2   -1    0    0  501    0  0.00000000000E+00  0.00000000000E+00  0.20107373537E+04  0.20107373537E+04  0.25500000920E-02 0.  1.
       -2   -1    0    0    0  501  0.00000000000E+00  0.00000000000E+00 -0.14345451676E+04  0.14345451676E+04  0.25500000920E-02 0. -1.
    10030    2    1    2    0    0  0.00000000000E+00  0.00000000000E+00  0.57619218618E+03  0.34452825213E+04  0.33967593698E+04 0.  0.
        1    1    3    3  502    0  0.12286764038E+02  0.15530443085E+04 -0.40903290571E+03  0.16060527721E+04  0.50400001928E-02 0. -1.
       -1    1    3    3    0  502 -0.12286764038E+02 -0.15530443085E+04  0.98522509189E+03  0.18392297492E+04  0.50400001928E-02 0.  1.
</event>
<event>
 5   0  0.1970449E-07  0.3403294E+04  0.7818609E-02  0.8137098E-01
        2   -1    0    0  501    0  0.00000000000E+00  0.00000000000E+00  0.16957700486E+04  0.16957700487E+04  0.25500000920E-02 0. -1.
       -2   -1    0    0    0  501  0.00000000000E+00  0.00000000000E+00 -0.17075448143E+04  0.17075448143E+04  0.25500000920E-02 0.  1.
    10030    2    1    2    0    0  0.00000000000E+00  0.00000000000E+00 -0.11774765610E+02  0.34033148629E+04  0.34032944937E+04 0.  0.
        1    1    3    3  502    0  0.39807511595E+03 -0.15560074042E+04 -0.56801218680E+03  0.17036022670E+04  0.50400001928E-02 0.  1.
       -1    1    3    3    0  502 -0.39807511595E+03  0.15560074042E+04  0.55623742119E+03  0.16997125959E+04  0.50400001928E-02 0. -1.
</event>
<event>
 5   0  0.1986613E-07  0.3368591E+04  0.7818609E-02  0.8145658E-01
        2   -1    0    0  501    0  0.00000000000E+00  0.00000000000E+00  0.21594761749E+04  0.21594761749E+04  0.25500000920E-02 0.  1.
       -2   -1    0    0    0  501  0.00000000000E+00  0.00000000000E+00 -0.13136755995E+04  0.13136755995E+04  0.25500000920E-02 0. -1.
    10030    2    1    2    0    0  0.00000000000E+00  0.00000000000E+00  0.84580057539E+03  0.34731517744E+04  0.33685908975E+04 0.  0.
        5    1    3    3  502    0  0.25843327394E+02 -0.15727258746E+04 -0.19803449020E+03  0.15853625149E+04  0.46999998093E+01 0. -1.
       -5    1    3    3    0  502 -0.25843327394E+02  0.15727258746E+04  0.10438350656E+04  0.18877892595E+04  0.46999998093E+01 0.  1.
</event>
<event>
 5   0  0.1897313E-07  0.3403317E+04  0.7818609E-02  0.8137093E-01
       -2   -1    0    0    0  501  0.00000000000E+00  0.00000000000E+00  0.19196878268E+04  0.19196878269E+04  0.25500000920E-02 0.  1.
        2   -1    0    0  501    0  0.00000000000E+00  0.00000000000E+00 -0.15083923365E+04  0.15083923365E+04  0.25500000920E-02 0. -1.
    10030    2    1    2    0    0  0.00000000000E+00  0.00000000000E+00  0.41129549035E+03  0.34280801634E+04  0.34033174442E+04 0.  0.
        3    1    3    3  502    0  0.55786431027E+03 -0.56590043819E+03  0.17213175817E+04  0.18958876870E+04  0.10100000352E+00 0.  1.
       -3    1    3    3    0  502 -0.55786431027E+03  0.56590043819E+03 -0.13100220913E+04  0.15321924763E+04  0.10100000352E+00 0. -1.
</event>
<event>
 5   0  0.6788600E-08  0.3339914E+04  0.7818609E-02  0.8152813E-01
       -1   -1    0    0    0  501  0.00000000000E+00  0.00000000000E+00  0.95915121300E+03  0.95915121301E+03  0.50400001928E-02 0. -1.
        1   -1    0    0  501    0  0.00000000000E+00  0.00000000000E+00 -0.29075249187E+04  0.29075249187E+04  0.50400001928E-02 0.  1.
    10030    2    1    2    0    0  0.00000000000E+00  0.00000000000E+00 -0.19483737057E+04  0.38666761317E+04  0.33399138029E+04 0.  0.
        2    1    3    3  502    0 -0.12229056372E+04  0.55205100355E+03 -0.21252266416E+04  0.25133337992E+04  0.25500000920E-02 0. -1.
       -2    1    3    3    0  502  0.12229056372E+04 -0.55205100355E+03  0.17685293592E+03  0.13533423325E+04  0.25500000920E-02 0.  1.
</event>
<event>
 5   0  0.6367111E-08  0.3396677E+04  0.7818609E-02  0.8138722E-01
        1   -1    0    0  501    0  0.00000000000E+00  0.00000000000E+00  0.10005365852E+04  0.10005365852E+04  0.50400001928E-02 0. -1.
       -1   -1    0    0    0  501  0.00000000000E+00  0.00000000000E+00 -0.28828071554E+04  0.28828071554E+04  0.50400001928E-02 0.  1.
    10030    2    1    2    0    0  0.00000000000E+00  0.00000000000E+00 -0.18822705702E+04  0.38833437407E+04  0.33966772158E+04 0.  0.
        3    1    3    3  502    0  0.92083849533E+03  0.79307163809E+03 -0.22974726120E+04  0.25990934133E+04  0.10100000352E+00 0.  1.
       -3    1    3    3    0  502 -0.92083849533E+03 -0.79307163809E+03  0.41520204184E+03  0.12842503274E+04  0.10100000352E+00 0. -1.
</event>
<event>
 5   0  0.6788600E-08  0.3405284E+04  0.7818609E-02  0.8136611E-01
       -1   -1    0    0    0  501  0.00000000000E+00  0.00000000000E+00  0.25228282384E+04  0.25228282384E+04  0.50400001928E-02 0. -1.
        1   -1    0    0  501    0  0.00000000000E+00  0.00000000000E+00 -0.11491030982E+04  0.11491030982E+04  0.50400001928E-02 0.  1.
    10030    2    1    2    0    0  0.00000000000E+00  0.00000000000E+00  0.13737251402E+04  0.36719313366E+04  0.34052839793E+04 0.  0.
        2    1    3    3  502    0 -0.14595643261E+04  0.82923346725E+03  0.99381687496E+03  0.19508019239E+04  0.25500000920E-02 0. -1.
       -2    1    3    3    0  502  0.14595643261E+04 -0.82923346725E+03  0.37990826523E+03  0.17211294127E+04  0.25500000920E-02 0.  1.
</event>
<event>
 5   0  0.6584420E-08  0.3406792E+04  0.7818609E-02  0.8136241E-01
       -1   -1    0    0    0  501  0.00000000000E+00  0.00000000000E+00  0.14907616273E+04  0.14907616273E+04  0.50400001928E-02 0.  1.
        1   -1    0    0  501    0  0.00000000000E+00  0.00000000000E+00 -0.19463593934E+04  0.19463593934E+04  0.50400001928E-02 0. -1.
    10030    2    1    2    0    0  0.00000000000E+00  0.00000000000E+00 -0.45559776617E+03  0.34371210207E+04  0.34067919788E+04 0.  0.
        1    1    3    3  502    0  0.79148712435E+03  0.11696706868E+04 -0.11886303735E+04  0.18459207860E+04  0.50400001928E-02 0. -1.
       -1    1    3    3    0  502 -0.79148712435E+03 -0.11696706868E+04  0.73303260732E+03  0.15912002347E+04  0.50400001928E-02 0.  1.
</event>
<event>
 5   0  0.1963852E-07  0.3409785E+04  0.7818609E-02  0.8135509E-01
        2   -1    0    0  501    0  0.00000000000E+00  0.00000000000E+00  0.20002073593E+04  0.20002073593E+04  0.25500000920E-02 0. -1.
       -2   -1    0    0    0  501  0.00000000000E+00  0.00000000000E+00 -0.14531787197E+04  0.14531787197E+04  0.25500000920E-02 0.  1.
    10030    2    1    2    0    0  0.00000000000E+00  0.00000000000E+00  0.54702863958E+03  0.34533860791E+04  0.34097851954E+04 0.  0.
        4    1    3    3  502    0  0.69126087717E+03 -0.69043376427E+03  0.16885617916E+04  0.19508415928E+04  0.12699999809E+01 0. -1.
       -4    1    3    3    0  502 -0.69126087717E+03  0.69043376427E+03 -0.11415331520E+04  0.15025444863E+04  0.12699999809E+01 0.  1.
</event>
<event>
 5   0  0.6367111E-08  0.3398944E+04  0.7818609E-02  0.8138165E-01
       -1   -1    0    0    0  501  0.00000000000E+00  0.00000000000E+00  0.16768782717E+04  0.16768782717E+04  0.50400001928E-02 0. -1.
        1   -1    0    0  501    0  0.00000000000E+00  0.00000000000E+00 -0.17223705593E+04  0.17223705593E+04  0.50400001928E-02 0.  1.
    10030    2    1    2    0    0  0.00000000000E+00  0.00000000000E+00 -0.45492287582E+02  0.33992488311E+04  0.33989444048E+04 0.  0.
        3    1    3    3  502    0 -0.94534392900E+03  0.13391150040E+04 -0.47145281782E+03  0.17056294755E+04  0.10100000352E+00 0.  1.
       -3    1    3    3    0  502  0.94534392900E+03 -0.13391150040E+04  0.42596053023E+03  0.16936193556E+04  0.10100000352E+00 0. -1.
</event>
<event>
 5   0  0.1928004E-07  0.3399759E+04  0.7818609E-02  0.8137965E-01
       -2   -1    0    0    0  501  0.00000000000E+00  0.00000000000E+00  0.13426900768E+04  0.13426900769E+04  0.25500000920E-02 0.  1.
        2   -1    0    0  501    0  0.00000000000E+00  0.00000000000E+00 -0.21520902424E+04  0.21520902424E+04  0.25500000920E-02 0. -1.
    10030    2    1    2    0    0  0.00000000000E+00  0.00000000000E+00 -0.80940016551E+03  0.34947803192E+04  0.33997589402E+04 0.  0.
        2    1    3    3  502    0 -0.11722781068E+04 -0.54611543794E+03  0.72936260404E+03  0.14847383067E+04  0.25500000920E-02 0.  1.
       -2    1    3    3    0  502  0.11722781068E+04  0.54611543794E+03 -0.15387627696E+04  0.20100420125E+04  0.25500000920E-02 0. -1.
</event>
<event>
 5   0  0.6341535E-08  0.3392929E+04  0.7818609E-02  0.8139644E-01
        1   -1    0    0  501    0  0.00000000000E+00  0.00000000000E+00  0.21443420297E+04  0.21443420297E+04  0.50400001928E-02 0.  1.
       -1   -1    0    0    0  501  0.00000000000E+00  0.00000000000E+00 -0.13421328471E+04  0.13421328471E+04  0.50400001928E-02 0. -1.
    10030    2    1    2    0    0  0.00000000000E+00  0.00000000000E+00  0.80220918262E+03  0.34864748768E+04  0.33929290435E+04 0.  0.
        5    1    3    3  502    0  0.39731174502E+03  0.10932520037E+04 -0.86781565576E+03  0.14512693302E+04  0.46999998093E+01 0. -1.
       -5    1    3    3    0  502 -0.39731174502E+03 -0.10932520037E+04  0.16700248384E+04  0.20352055467E+04  0.46999998093E+01 0.  1.
</event>
<event>
 5   0  0.1963852E-07  0.3405301E+04  0.7818609E-02  0.8136607E-01
        2   -1    0    0  501    0  0.00000000000E+00  0.00000000000E+00  0.10738718063E+04  0.10738718063E+04  0.25500000920E-02 0. -1.
       -2   -1    0    0    0  501  0.00000000000E+00  0.00000000000E+00 -0.26995940726E+04  0.26995940726E+04  0.25500000920E-02 0.  1.
    10030    2    1    2    0    0  0.00000000000E+00  0.00000000000E+00 -0.16257222663E+04  0.37734658789E+04  0.34053005524E+04 0.  0.
        4    1    3    3  502    0 -0.14942164706E+04  0.94696835793E+02 -0.17113001355E+04  0.22738074057E+04  0.12699999809E+01 0.  1.
       -4    1    3    3    0  502  0.14942164706E+04 -0.94696835793E+02  0.85577869182E+02  0.14996584732E+04  0.12699999809E+01 0. -1.
</event>
<event>
 5   0  0.1970449E-07  0.3427238E+04  0.7818609E-02  0.8131253E-01
       -2   -1    0    0    0  501  0.00000000000E+00  0.00000000000E+00  0.18517179223E+04  0.18517179223E+04  0.25500000920E-02 0.  1.
        2   -1    0    0  501    0  0.00000000000E+00  0.00000000000E+00 -0.15858195053E+04  0.15858195053E+04  0.25500000920E-02 0. -1.
    10030    2    1    2    0    0  0.00000000000E+00  0.00000000000E+00  0.26589841695E+03  0.34375374276E+04  0.34272381881E+04 0.  0.
        1    1    3    3  502    0 -0.16760819784E+04 -0.27299960667E+03  0.36322750960E+03  0.17365810684E+04  0.50400001928E-02 0.  1.
       -1    1    3    3    0  502  0.16760819784E+04  0.27299960667E+03 -0.97329092650E+02  0.17009563592E+04  0.50400001928E-02 0. -1.
</event>
<event>
 5   0  0.1970449E-07  0.3400275E+04  0.7818609E-02  0.8137839E-01
       -2   -1    0    0    0  501  0.00000000000E+00  0.00000000000E+00  0.12410280761E+04  0.12410280761E+04  0.25500000920E-02 0.  1.
        2   -1    0    0  501    0  0.00000000000E+00  0.00000000000E+00 -0.23290905288E+04  0.23290905288E+04  0.25500000920E-02 0. -1.
    10030    2    1    2    0    0  0.00000000000E+00  0.00000000000E+00 -0.10880624527E+04  0.35701186050E+04  0.34002745407E+04 0.  0.
        1    1    3    3  502    0  0.82956507757E+03  0.82673822702E+03 -0.18379823488E+04  0.21794158457E+04  0.50400001928E-02 0. -1.
       -1    1    3    3    0  502 -0.82956507757E+03 -0.82673822702E+03  0.74991989611E+03  0.13907027592E+04  0.50400001928E-02 0.  1.
</event>
<event>
 5   0  0.6311750E-08  0.3295985E+04  0.7818609E-02  0.8163918E-01
       -1   -1    0    0    0  501  0.00000000000E+00  0.00000000000E+00  0.16436982084E+04  0.16436982084E+04  0.50400001928E-02 0.  1.
        1   -1    0    0  501    0  0.00000000000E+00  0.00000000000E+00 -0.16522984505E+04  0.16522984505E+04  0.50400001928E-02 0. -1.
    10030    2    1    2    0    0  0.00000000000E+00  0.00000000000E+00 -0.86002420740E+01  0.32959966589E+04  0.32959854385E+04 0.  0.
        4    1    3    3  502    0 -0.12326750826E+04 -0.58358694471E+03 -0.92940694481E+03  0.16504122101E+04  0.12699999809E+01 0. -1.
       -4    1    3    3    0  502  0.12326750826E+04  0.58358694471E+03  0.92080670274E+03  0.16455844488E+04  0.12699999809E+01 0.  1.
</event>
<event>
 5   0  0.1963852E-07  0.3405518E+04  0.7818609E-02  0.8136553E-01
       -2   -1    0    0    0  501  0.00000000000E+00  0.00000000000E+00  0.14323662804E+04  0.14323662804E+04  0.25500000920E-02 0.  1.
        2   -1    0    0  501    0  0.00000000000E+00  0.00000000000E+00 -0.20241943424E+04  0.20241943424E+04  0.25500000920E-02 0. -1.
    10030    2    1    2    0    0  0.00000000000E+00  0.00000000000E+00 -0.59182806199E+03  0.34565606227E+04  0.34055177115E+04 0.  0.
        4    1    3    3  502    0 -0.72992133945E+03 -0.81587574881E+03 -0.16196656860E+04  0.19549314429E+04  0.12699999809E+01 0. -1.
       -4    1    3    3    0  502  0.72992133945E+03  0.81587574881E+03  0.10278376240E+04  0.15016291798E+04  0.12699999809E+01 0.  1.
</event>
<event>
 5   0  0.1963852E-07  0.3398971E+04  0.7818609E-02  0.8138159E-01
       -2   -1    0    0    0  501  0.00000000000E+00  0.00000000000E+00  0.11965265607E+04  0.11965265607E+04  0.25500000920E-02 0. -1.
        2   -1    0    0  501    0  0.00000000000E+00  0.00000000000E+00 -0.24138626859E+04  0.24138626859E+04  0.25500000920E-02 0.  1.
    10030    2    1    2    0    0  0.00000000000E+00  0.00000000000E+00 -0.12173361252E+04  0.36103892466E+04  0.33989709134E+04 0.  0.
        4    1    3    3  502    0 -0.49258149857E+01 -0.13023470560E+04 -0.17684224797E+04  0.21962358246E+04  0.12699999809E+01 0.  1.
       -4    1    3    3    0  502  0.49258149857E+01  0.13023470560E+04  0.55108635445E+03  0.14141534220E+04  0.12699999809E+01 0. -1.
</event>
<event>
 5   0  0.6788600E-08  0.3489310E+04  0.7818609E-02  0.8116328E-01
        1   -1    0    0  501    0  0.00000000000E+00  0.00000000000E+00  0.25703204112E+04  0.25703204112E+04  0.50400001928E-02 0.  1.
       -1   -1    0    0    0  501  0.00000000000E+00  0.00000000000E+00 -0.11842184293E+04  0.11842184293E+04  0.50400001928E-02 0. -1.
    10030    2    1    2    0    0  0.00000000000E+00  0.00000000000E+00  0.13861019819E+04  0.37545388405E+04  0.34893098459E+04 0.  0.
        2    1    3    3  502    0  0.71553071556E+03  0.11598882401E+04  0.18651118965E+04  0.23099712814E+04  0.25500000920E-02 0.  1.
       -2    1    3    3    0  502 -0.71553071556E+03 -0.11598882401E+04 -0.47900991465E+03  0.14445675591E+04  0.25500000920E-02 0. -1.
</event>
<event>
 5   0  0.1963852E-07  0.3402249E+04  0.7818609E-02  0.8137354E-01
       -2   -1    0    0    0  501  0.00000000000E+00  0.00000000000E+00  0.10540907229E+04  0.10540907229E+04  0.25500000920E-02 0.  1.
        2   -1    0    0  501    0  0.00000000000E+00  0.00000000000E+00 -0.27453285291E+04  0.27453285291E+04  0.25500000920E-02 0. -1.
    10030    2    1    2    0    0  0.00000000000E+00  0.00000000000E+00 -0.16912378062E+04  0.37994192521E+04  0.34022494523E+04 0.  0.
        4    1    3    3  502    0  0.74685544081E+03  0.91129782628E+03  0.52463516949E+03  0.12897675960E+04  0.12699999809E+01 0.  1.
       -4    1    3    3    0  502 -0.74685544081E+03 -0.91129782628E+03 -0.22158729757E+04  0.25096516561E+04  0.12699999809E+01 0. -1.
</event>
<event>
 5   0  0.6341535E-08  0.3384244E+04  0.7818609E-02  0.8141784E-01
       -1   -1    0    0    0  501  0.00000000000E+00  0.00000000000E+00  0.12558068939E+04  0.12558068939E+04  0.50400001928E-02 0.  1.
        1   -1    0    0  501    0  0.00000000000E+00  0.00000000000E+00 -0.22800294863E+04  0.22800294863E+04  0.50400001928E-02 0. -1.
    10030    2    1    2    0    0  0.00000000000E+00  0.00000000000E+00 -0.10242225925E+04  0.35358363802E+04  0.33842439316E+04 0.  0.
        5    1    3    3  502    0 -0.46030290371E+03  0.94557864319E+02  0.11862599689E+04  0.12759524900E+04  0.46999998093E+01 0.  1.
       -5    1    3    3    0  502  0.46030290371E+03 -0.94557864319E+02 -0.22104825614E+04  0.22598838902E+04  0.46999998093E+01 0. -1.
</event>
<event>
 5   0  0.6341535E-08  0.3384250E+04  0.7818609E-02  0.8141783E-01
       -1   -1    0    0    0  501  0.00000000000E+00  0.00000000000E+00  0.27630498752E+04  0.27630498752E+04  0.50400001928E-02 0.  1.
        1   -1    0    0  501    0  0.00000000000E+00  0.00000000000E+00 -0.10362779253E+04  0.10362779253E+04  0.50400001928E-02 0. -1.
    10030    2    1    2    0    0  0.00000000000E+00  0.00000000000E+00  0.17267719499E+04  0.37993278004E+04  0.33842503407E+04 0.  0.
        5    1    3    3  502    0 -0.71162204746E+03  0.14484468762E+04  0.14345722628E+04  0.21592646801E+04  0.46999998093E+01 0.  1.
       -5    1    3    3    0  502  0.71162204746E+03 -0.14484468762E+04  0.29219968711E+03  0.16400631203E+04  0.46999998093E+01 0. -1.
</event>
<event>
 5   0  0.6341535E-08  0.3399451E+04  0.7818609E-02  0.8138041E-01
        1   -1    0    0  501    0  0.00000000000E+00  0.00000000000E+00  0.22241925596E+04  0.22241925596E+04  0.50400001928E-02 0. -1.
       -1   -1    0    0    0  501  0.00000000000E+00  0.00000000000E+00 -0.12989283826E+04  0.12989283826E+04  0.50400001928E-02 0.  1.
    10030    2    1    2    0    0  0.00000000000E+00  0.00000000000E+00  0.92526417705E+03  0.35231209422E+04  0.33994510404E+04 0.  0.
        5    1    3    3  502    0 -0.86202864043E+03 -0.61263012056E+03 -0.91642857536E+03  0.13993828873E+04  0.46999998093E+01 0.  1.
       -5    1    3    3    0  502  0.86202864043E+03  0.61263012056E+03  0.18416927524E+04  0.21237380549E+04  0.46999998093E+01 0. -1.
</event>
<event>
 5   0  0.6788600E-08  0.3400437E+04  0.7818609E-02  0.8137799E-01
       -1   -1    0    0    0  501  0.00000000000E+00  0.00000000000E+00  0.13550857294E+04  0.13550857294E+04  0.50400001928E-02 0. -1.
        1   -1    0    0  501    0  0.00000000000E+00  0.00000000000E+00 -0.21332551438E+04  0.21332551438E+04  0.50400001928E-02 0.  1.
    10030    2    1    2    0    0  0.00000000000E+00  0.00000000000E+00 -0.77816941435E+03  0.34883408732E+04  0.34004373852E+04 0.  0.
        2    1    3    3  502    0  0.10160227723E+04  0.61607433955E+03 -0.16366193640E+04  0.20224670104E+04  0.25500000920E-02 0.  1.
       -2    1    3    3    0  502 -0.10160227723E+04 -0.61607433955E+03  0.85844994963E+03  0.14658738628E+04  0.25500000920E-02 0. -1.
</event>
<event>
 5   0  0.1897313E-07  0.3408294E+04  0.7818609E-02  0.8135874E-01
        2   -1    0    0  501    0  0.00000000000E+00  0.00000000000E+00  0.20154792922E+04  0.20154792922E+04  0.25500000920E-02 0. -1.
       -2   -1    0    0    0  501  0.00000000000E+00  0.00000000000E+00 -0.14409061880E+04  0.14409061880E+04  0.25500000920E-02 0.  1.
    10030    2    1    2    0    0  0.00000000000E+00  0.00000000000E+00  0.57457310415E+03  0.34563854802E+04  0.34082937572E+04 0.  0.
        3    1    3    3  502    0  0.33946634129E+03  0.90772136312E+03 -0.11342489536E+04  0.14918834300E+04  0.10100000352E+00 0.  1.
       -3    1    3    3    0  502 -0.33946634129E+03 -0.90772136312E+03  0.17088220577E+04  0.19645020502E+04  0.10100000352E+00 0. -1.
</event>
<event>
 5   0  0.1986613E-07  0.3399561E+04  0.7818609E-02  0.8138014E-01
       -2   -1    0    0    0  501  0.00000000000E+00  0.00000000000E+00  0.12141505607E+04  0.12141505607E+04  0.25500000920E-02 0.  1.
        2   -1    0    0  501    0  0.00000000000E+00  0.00000000000E+00 -0.23796499322E+04  0.23796499322E+04  0.25500000920E-02 0. -1.
    10030    2    1    2    0    0  0.00000000000E+00  0.00000000000E+00 -0.11654993715E+04  0.35938004929E+04  0.33995607359E+04 0.  0.
        5    1    3    3  502    0  0.10249203652E+04 -0.80169274099E+03 -0.17388814046E+04  0.21718433726E+04  0.46999998093E+01 0. -1.
       -5    1    3    3    0  502 -0.10249203652E+04  0.80169274099E+03  0.57338203309E+03  0.14219571202E+04  0.46999998093E+01 0.  1.
</event>
<event>
 5   0  0.1928004E-07  0.3408078E+04  0.7818609E-02  0.8135926E-01
        2   -1    0    0  501    0  0.00000000000E+00  0.00000000000E+00  0.23499337005E+04  0.23499337005E+04  0.25500000920E-02 0. -1.
       -2   -1    0    0    0  501  0.00000000000E+00  0.00000000000E+00 -0.12356728760E+04  0.12356728760E+04  0.25500000920E-02 0.  1.
    10030    2    1    2    0    0  0.00000000000E+00  0.00000000000E+00  0.11142608246E+04  0.35856065765E+04  0.34080782468E+04 0.  0.
        2    1    3    3  502    0  0.10194572262E+04 -0.76647384295E+03  0.17460271374E+04  0.21622640802E+04  0.25500000920E-02 0. -1.
       -2    1    3    3    0  502 -0.10194572262E+04  0.76647384295E+03 -0.63176631281E+03  0.14233424964E+04  0.25500000920E-02 0.  1.
</event>
<event>
 5   0  0.6311750E-08  0.3402635E+04  0.7818609E-02  0.8137260E-01
       -1   -1    0    0    0  501  0.00000000000E+00  0.00000000000E+00  0.20413729323E+04  0.20413729323E+04  0.50400001928E-02 0.  1.
        1   -1    0    0  501    0  0.00000000000E+00  0.00000000000E+00 -0.14179094992E+04  0.14179094992E+04  0.50400001928E-02 0. -1.
    10030    2    1    2    0    0  0.00000000000E+00  0.00000000000E+00  0.62346343310E+03  0.34592824316E+04  0.34026354916E+04 0.  0.
        4    1    3    3  502    0  0.79504301267E+03  0.83456910065E+03 -0.96045260176E+03  0.15003565539E+04  0.12699999809E+01 0. -1.
       -4    1    3    3    0  502 -0.79504301267E+03 -0.83456910065E+03  0.15839160349E+04  0.19589258777E+04  0.12699999809E+01 0.  1.
</event>
<event>
 5   0  0.1970449E-07  0.3402242E+04  0.7818609E-02  0.8137356E-01
        2   -1    0    0  501    0  0.00000000000E+00  0.00000000000E+00  0.26071601549E+04  0.26071601549E+04  0.25500000920E-02 0. -1.
       -2   -1    0    0    0  501  0.00000000000E+00  0.00000000000E+00 -0.11099478491E+04  0.11099478491E+04  0.25500000920E-02 0.  1.
    10030    2    1    2    0    0  0.00000000000E+00  0.00000000000E+00  0.14972123057E+04  0.37171080040E+04  0.34022415001E+04 0.  0.
        1    1    3    3  502    0 -0.32323856167E+03  0.29285234454E+03 -0.10478165787E+04  0.11349736764E+04  0.50400001928E-02 0.  1.
       -1    1    3    3    0  502  0.32323856167E+03 -0.29285234454E+03  0.25450288844E+04  0.25821343276E+04  0.50400001928E-02 0. -1.
</event>
<event>
 5   0  0.6788600E-08  0.3398507E+04  0.7818609E-02  0.8138273E-01
        1   -1    0    0  501    0  0.00000000000E+00  0.00000000000E+00  0.10446388183E+04  0.10446388183E+04  0.50400001928E-02 0.  1.
       -1   -1    0    0    0  501  0.00000000000E+00  0.00000000000E+00 -0.27640780356E+04  0.27640780356E+04  0.50400001928E-02 0. -1.
    10030    2    1    2    0    0  0.00000000000E+00  0.00000000000E+00 -0.17194392174E+04  0.38087168539E+04  0.33985074446E+04 0.  0.
        2    1    3    3  502    0  0.16847290572E+04  0.51855077782E+02 -0.11012883087E+04  0.20134142356E+04  0.25500000920E-02 0. -1.
       -2    1    3    3    0  502 -0.16847290572E+04 -0.51855077782E+02 -0.61815090868E+03  0.17953026183E+04  0.25500000920E-02 0.  1.
</event>
<event>
 5   0  0.6584420E-08  0.3398547E+04  0.7818609E-02  0.8138263E-01
       -1   -1    0    0    0  501  0.00000000000E+00  0.00000000000E+00  0.15486687875E+04  0.15486687875E+04  0.50400001928E-02 0.  1.
        1   -1    0    0  501    0  0.00000000000E+00  0.00000000000E+00 -0.18645242187E+04  0.18645242187E+04  0.50400001928E-02 0. -1.
    10030    2    1    2    0    0  0.00000000000E+00  0.00000000000E+00 -0.31585543118E+03  0.34131930061E+04  0.33985470195E+04 0.  0.
        1    1    3    3  502    0 -0.66206617861E+03 -0.84194451465E+03 -0.14828278731E+04  0.18292022010E+04  0.50400001928E-02 0. -1.
       -1    1    3    3    0  502  0.66206617861E+03  0.84194451465E+03  0.11669724420E+04  0.15839908052E+04  0.50400001928E-02 0.  1.
</event>
<event>
 5   0  0.6367111E-08  0.3399287E+04  0.7818609E-02  0.8138081E-01
        1   -1    0    0  501    0  0.00000000000E+00  0.00000000000E+00  0.15322939253E+04  0.15322939253E+04  0.50400001928E-02 0. -1.
       -1   -1    0    0    0  501  0.00000000000E+00  0.00000000000E+00 -0.18852697555E+04  0.18852697555E+04  0.50400001928E-02 0.  1.
    10030    2    1    2    0    0  0.00000000000E+00  0.00000000000E+00 -0.35297583023E+03  0.34175636808E+04  0.33992866274E+04 0.  0.
        3    1    3    3  502    0 -0.68185295771E+03  0.86551763859E+03  0.11245888893E+04  0.15744028769E+04  0.10100000352E+00 0. -1.
       -3    1    3    3    0  502  0.68185295771E+03 -0.86551763859E+03 -0.14775647195E+04  0.18431608039E+04  0.10100000352E+00 0.  1.
</event>
<event>
 5   0  0.6788600E-08  0.3419083E+04  0.7818609E-02  0.8133238E-01
        1   -1    0    0  501    0  0.00000000000E+00  0.00000000000E+00  0.12722820270E+04  0.12722820270E+04  0.50400001928E-02 0.  1.
       -1   -1    0    0    0  501  0.00000000000E+00  0.00000000000E+00 -0.22970793063E+04  0.22970793063E+04  0.50400001928E-02 0. -1.
    10030    2    1    2    0    0  0.00000000000E+00  0.00000000000E+00 -0.10247972793E+04  0.35693613333E+04  0.34190833368E+04 0.  0.
        2    1    3    3  502    0  0.12618820975E+04  0.10406349467E+04 -0.10315121402E+04  0.19337230452E+04  0.25500000920E-02 0. -1.
       -2    1    3    3    0  502 -0.12618820975E+04 -0.10406349467E+04  0.67148609835E+01  0.16356382881E+04  0.25500000920E-02 0.  1.
</event>
<event>
 5   0  0.6367111E-08  0.3391718E+04  0.7818609E-02  0.8139942E-01
       -1   -1    0    0    0  501  0.00000000000E+00  0.00000000000E+00  0.24833508180E+04  0.24833508180E+04  0.50400001928E-02 0. -1.
        1   -1    0    0  501    0  0.00000000000E+00  0.00000000000E+00 -0.11580874904E+04  0.11580874904E+04  0.50400001928E-02 0.  1.
    10030    2    1    2    0    0  0.00000000000E+00  0.00000000000E+00  0.13252633276E+04  0.36414383084E+04  0.33917178637E+04 0.  0.
        3    1    3    3  502    0  0.16550603849E+04 -0.30189077740E+02  0.10582761511E+04  0.19647098209E+04  0.10100000352E+00 0. -1.
       -3    1    3    3    0  502 -0.16550603849E+04  0.30189077740E+02  0.26698717647E+03  0.16767284875E+04  0.10100000352E+00 0.  1.
</event>
<event>
 5   0  0.6584420E-08  0.3394644E+04  0.7818609E-02  0.8139222E-01
       -1   -1    0    0    0  501  0.00000000000E+00  0.00000000000E+00  0.16749895530E+04  0.16749895530E+04  0.50400001928E-02 0. -1.
        1   -1    0    0  501    0  0.00000000000E+00  0.00000000000E+00 -0.17199517870E+04  0.17199517870E+04  0.50400001928E-02 0.  1.
    10030    2    1    2    0    0  0.00000000000E+00  0.00000000000E+00 -0.44962234022E+02  0.33949413401E+04  0.33946435895E+04 0.  0.
        1    1    3    3  502    0  0.15660884921E+04 -0.60674234362E+03  0.22275833218E+03  0.16942227454E+04  0.50400001928E-02 0.  1.
       -1    1    3    3    0  502 -0.15660884921E+04  0.60674234362E+03 -0.26772056620E+03  0.17007185946E+04  0.50400001928E-02 0. -1.
</event>
<event>
 5   0  0.6788600E-08  0.3401104E+04  0.7818609E-02  0.8137635E-01
       -1   -1    0    0    0  501  0.00000000000E+00  0.00000000000E+00  0.13319533092E+04  0.13319533092E+04  0.50400001928E-02 0.  1.
        1   -1    0    0  501    0  0.00000000000E+00  0.00000000000E+00 -0.21711553188E+04  0.21711553188E+04  0.50400001928E-02 0. -1.
    10030    2    1    2    0    0  0.00000000000E+00  0.00000000000E+00 -0.83920200959E+03  0.35031086279E+04  0.34011042393E+04 0.  0.
        2    1    3    3  502    0  0.67018055208E+03 -0.15179776323E+04 -0.36312034373E+02  0.16597339029E+04  0.25500000920E-02 0. -1.
       -2    1    3    3    0  502 -0.67018055208E+03  0.15179776323E+04 -0.80288997521E+03  0.18433747250E+04  0.25500000920E-02 0.  1.
</event>
<event>
 5   0  0.1928004E-07  0.3409223E+04  0.7818609E-02  0.8135646E-01
       -2   -1    0    0    0  501  0.00000000000E+00  0.00000000000E+00  0.11915382312E+04  0.11915382312E+04  0.25500000920E-02 0. -1.
        2   -1    0    0  501    0  0.00000000000E+00  0.00000000000E+00 -0.24386131102E+04  0.24386131102E+04  0.25500000920E-02 0.  1.
    10030    2    1    2    0    0  0.00000000000E+00  0.00000000000E+00 -0.12470748791E+04  0.36301513414E+04  0.34092232264E+04 0.  0.
        2    1    3    3  502    0 -0.60632464651E+03  0.27370661783E+01  0.10728324303E+04  0.12323175289E+04  0.25500000920E-02 0. -1.
       -2    1    3    3    0  502  0.60632464651E+03 -0.27370661783E+01 -0.23199073093E+04  0.23978338125E+04  0.25500000920E-02 0.  1.
</event>
<event>
 5   0  0.6788600E-08  0.3399480E+04  0.7818609E-02  0.8138034E-01
       -1   -1    0    0    0  501  0.00000000000E+00  0.00000000000E+00  0.24555689588E+04  0.24555689588E+04  0.50400001928E-02 0. -1.
        1   -1    0    0  501    0  0.00000000000E+00  0.00000000000E+00 -0.11765567040E+04  0.11765567040E+04  0.50400001928E-02 0.  1.
    10030    2    1    2    0    0  0.00000000000E+00  0.00000000000E+00  0.12790122548E+04  0.36321256628E+04  0.33994800312E+04 0.  0.
        2    1    3    3  502    0  0.10364390322E+02  0.89538891321E+03 -0.90411067174E+03  0.12724955140E+04  0.25500000920E-02 0.  1.
       -2    1    3    3    0  502 -0.10364390322E+02 -0.89538891321E+03  0.21831229265E+04  0.23596301487E+04  0.25500000920E-02 0. -1.
</event>
<event>
 5   0  0.6341535E-08  0.3401376E+04  0.7818609E-02  0.8137569E-01
        1   -1    0    0  501    0  0.00000000000E+00  0.00000000000E+00  0.16507489575E+04  0.16507489575E+04  0.50400001928E-02 0. -1.
       -1   -1    0    0    0  501  0.00000000000E+00  0.00000000000E+00 -0.17521380479E+04  0.17521380479E+04  0.50400001928E-02 0.  1.
    10030    2    1    2    0    0  0.00000000000E+00  0.00000000000E+00 -0.10138909045E+03  0.34028870054E+04  0.34013762250E+04 0.  0.
        5    1    3    3  502    0  0.16420530340E+04  0.35413038026E+03 -0.31646545836E+03  0.17093621527E+04  0.46999998093E+01 0.  1.
       -5    1    3    3    0  502 -0.16420530340E+04 -0.35413038026E+03  0.21507636790E+03  0.16935248527E+04  0.46999998093E+01 0. -1.
</event>
<event>
 5   0  0.6311750E-08  0.3402973E+04  0.7818609E-02  0.8137177E-01
        3   -1    0    0  501    0  0.00000000000E+00  0.00000000000E+00  0.25477315077E+04  0.25477315097E+04  0.10100000352E+00 0. -1.
       -3   -1    0    0    0  501  0.00000000000E+00  0.00000000000E+00 -0.11363273175E+04  0.11363273220E+04  0.10100000352E+00 0.  1.
    10030    2    1    2    0    0  0.00000000000E+00  0.00000000000E+00  0.14114041902E+04  0.36840588317E+04  0.34029733598E+04 0.  0.
        5    1    3    3  502    0  0.38824794070E+03  0.14098034850E+04 -0.23606809706E+03  0.14812267099E+04  0.46999998093E+01 0.  1.
       -5    1    3    3    0  502 -0.38824794070E+03 -0.14098034850E+04  0.16474722873E+04  0.22028321218E+04  0.46999998093E+01 0. -1.
</event>
<event>
 5   0  0.1897313E-07  0.3399564E+04  0.7818609E-02  0.8138013E-01
       -2   -1    0    0    0  501  0.00000000000E+00  0.00000000000E+00  0.11695886185E+04  0.11695886185E+04  0.25500000920E-02 0. -1.
        2   -1    0    0  501    0  0.00000000000E+00  0.00000000000E+00 -0.24703205392E+04  0.24703205392E+04  0.25500000920E-02 0.  1.
    10030    2    1    2    0    0  0.00000000000E+00  0.00000000000E+00 -0.13007319207E+04  0.36399091577E+04  0.33995639642E+04 0.  0.
        3    1    3    3  502    0 -0.45608586423E+03  0.13996037048E+04 -0.15603679629E+04  0.21451463904E+04  0.10100000352E+00 0. -1.
       -3    1    3    3    0  502  0.45608586423E+03 -0.13996037048E+04  0.25963604227E+03  0.14947627674E+04  0.10100000352E+00 0.  1.
</event>
<event>
 5   0  0.1897313E-07  0.3381589E+04  0.7818609E-02  0.8142440E-01
        2   -1    0    0  501    0  0.00000000000E+00  0.00000000000E+00  0.19434863636E+04  0.19434863636E+04  0.25500000920E-02 0.  1.
       -2   -1    0    0    0  501  0.00000000000E+00  0.00000000000E+00 -0.14709574991E+04  0.14709574991E+04  0.25500000920E-02 0. -1.
    10030    2    1    2    0    0  0.00000000000E+00  0.00000000000E+00  0.47252886449E+03  0.34144438626E+04  0.33815888815E+04 0.  0.
        3    1    3    3  502    0 -0.84202870297E+03 -0.47243030201E+03  0.16377642432E+04  0.19011771231E+04  0.10100000352E+00 0.  1.
       -3    1    3    3    0  502  0.84202870297E+03  0.47243030201E+03 -0.11652353787E+04  0.15132667395E+04  0.10100000352E+00 0. -1.
</event>
<event>
 5   0  0.1963852E-07  0.3412758E+04  0.7818609E-02  0.8134782E-01
       -2   -1    0    0    0  501  0.00000000000E+00  0.00000000000E+00  0.13009423473E+04  0.13009423473E+04  0.25500000920E-02 0. -1.
        2   -1    0    0  501    0  0.00000000000E+00  0.00000000000E+00 -0.22381697694E+04  0.22381697694E+04  0.25500000920E-02 0.  1.
    10030    2    1    2    0    0  0.00000000000E+00  0.00000000000E+00 -0.93722742206E+03  0.35391121167E+04  0.34127583175E+04 0.  0.
        4    1    3    3  502    0  0.28626767646E+03  0.16316917675E+04 -0.44369488893E+02  0.16572077332E+04  0.12699999809E+01 0. -1.
       -4    1    3    3    0  502 -0.28626767646E+03 -0.16316917675E+04 -0.89285793317E+03  0.18819043834E+04  0.12699999809E+01 0.  1.
</event>
<event>
 5   0  0.1897313E-07  0.3501267E+04  0.7818609E-02  0.8113490E-01
        2   -1    0    0  501    0  0.00000000000E+00  0.00000000000E+00  0.15611826055E+04  0.15611826055E+04  0.25500000920E-02 0.  1.
       -2   -1    0    0    0  501  0.00000000000E+00  0.00000000000E+00 -0.19630746267E+04  0.19630746267E+04  0.25500000920E-02 0. -1.
    10030    2    1    2    0    0  0.00000000000E+00  0.00000000000E+00 -0.40189202128E+03  0.35242572322E+04  0.35012671766E+04 0.  0.
        3    1    3    3  502    0  0.23039545407E+03  0.16275490773E+04 -0.80716289810E+03  0.18312591347E+04  0.10100000352E+00 0. -1.
       -3    1    3    3    0  502 -0.23039545407E+03 -0.16275490773E+04  0.40527087681E+03  0.16929980975E+04  0.10100000352E+00 0.  1.
</event>
<event>
 5   0  0.1970449E-07  0.3397837E+04  0.7818609E-02  0.8138437E-01
       -2   -1    0    0    0  501  0.00000000000E+00  0.00000000000E+00  0.13777071851E+04  0.13777071851E+04  0.25500000920E-02 0. -1.
        2   -1    0    0  501    0  0.00000000000E+00  0.00000000000E+00 -0.20950196490E+04  0.20950196490E+04  0.25500000920E-02 0.  1.
    10030    2    1    2    0    0  0.00000000000E+00  0.00000000000E+00 -0.71731246383E+03  0.34727268341E+04  0.33978367373E+04 0.  0.
        1    1    3    3  502    0  0.22463619496E+03 -0.38021625099E+02  0.13620231452E+04  0.13809468172E+04  0.50400001928E-02 0. -1.
       -1    1    3    3    0  502 -0.22463619496E+03  0.38021625099E+02 -0.20793356090E+04  0.20917800169E+04  0.50400001928E-02 0.  1.
</event>
<event>
 5   0  0.1897313E-07  0.3393009E+04  0.7818609E-02  0.8139624E-01
       -2   -1    0    0    0  501  0.00000000000E+00  0.00000000000E+00  0.14852992963E+04  0.14852992963E+04  0.25500000920E-02 0.  1.
        2   -1    0    0  501    0  0.00000000000E+00  0.00000000000E+00 -0.19377420953E+04  0.19377420953E+04  0.25500000920E-02 0. -1.
    10030    2    1    2    0    0  0.00000000000E+00  0.00000000000E+00 -0.45244279903E+03  0.34230413916E+04  0.33930086770E+04 0.  0.
        3    1    3    3  502    0 -0.61003886847E+03 -0.35835513068E+03  0.13293610235E+04  0.15059105424E+04  0.10100000352E+00 0.  1.
       -3    1    3    3    0  502  0.61003886847E+03  0.35835513068E+03 -0.17818038225E+04  0.19171308492E+04  0.10100000352E+00 0. -1.
</event>
<event>
 5   0  0.1986613E-07  0.3383144E+04  0.7818609E-02  0.8142056E-01
       -2   -1    0    0    0  501  0.00000000000E+00  0.00000000000E+00  0.16775009672E+04  0.16775009672E+04  0.25500000920E-02 0.  1.
        2   -1    0    0  501    0  0.00000000000E+00  0.00000000000E+00 -0.17057608149E+04  0.17057608149E+04  0.25500000920E-02 0. -1.
    10030    2    1    2    0    0  0.00000000000E+00  0.00000000000E+00 -0.28259847633E+02  0.33832617821E+04  0.33831437550E+04 0.  0.
        5    1    3    3  502    0 -0.84734708912E+03 -0.59617787281E+03  0.13230659992E+04  0.16804615062E+04  0.46999998093E+01 0.  1.
       -5    1    3    3    0  502  0.84734708912E+03  0.59617787281E+03 -0.13513258468E+04  0.17028002760E+04  0.46999998093E+01 0. -1.
</event>
<event>
 5   0  0.6367111E-08  0.3400942E+04  0.7818609E-02  0.8137675E-01
       -1   -1    0    0    0  501  0.00000000000E+00  0.00000000000E+00  0.13238778437E+04  0.13238778438E+04  0.50400001928E-02 0.  1.
        1   -1    0    0  501    0  0.00000000000E+00  0.00000000000E+00 -0.21841908704E+04  0.21841908704E+04  0.50400001928E-02 0. -1.
    10030    2    1    2    0    0  0.00000000000E+00  0.00000000000E+00 -0.86031302662E+03  0.35080687141E+04  0.34009421635E+04 0.  0.
        3    1    3    3  502    0  0.22997289076E+03  0.15176652829E+04  0.32460655933E+03  0.15689374971E+04  0.10100000352E+00 0.  1.
       -3    1    3    3    0  502 -0.22997289076E+03 -0.15176652829E+04 -0.11849195860E+04  0.19391312170E+04  0.10100000352E+00 0. -1.
</event>
<event>
 5   0  0.6584420E-08  0.3430702E+04  0.7818609E-02  0.8130412E-01
        1   -1    0    0  501    0  0.00000000000E+00  0.00000000000E+00  0.23458134550E+04  0.23458134550E+04  0.50400001928E-02 0.  1.
       -1   -1    0    0    0  501  0.00000000000E+00  0.00000000000E+00 -0.12543319572E+04  0.12543319572E+04  0.50400001928E-02 0. -1.
    10030    2    1    2    0    0  0.00000000000E+00  0.00000000000E+00  0.10914814978E+04  0.36001454123E+04  0.34307018421E+04 0.  0.
        1    1    3    3  502    0  0.40080992570E+03  0.91076207326E+02  0.22933728036E+04  0.23299146526E+04  0.50400001928E-02 0.  1.
       -1    1    3    3    0  502 -0.40080992570E+03 -0.91076207326E+02 -0.12018913057E+04  0.12702307597E+04  0.50400001928E-02 0. -1.
</event>
<event>
 5   0  0.6367111E-08  0.3398839E+04  0.7818609E-02  0.8138191E-01
       -1   -1    0    0    0  501  0.00000000000E+00  0.00000000000E+00  0.16429199781E+04  0.16429199781E+04  0.50400001928E-02 0. -1.
        1   -1    0    0  501    0  0.00000000000E+00  0.00000000000E+00 -0.17578620839E+04  0.17578620839E+04  0.50400001928E-02 0.  1.
    10030    2    1    2    0    0  0.00000000000E+00  0.00000000000E+00 -0.11494210571E+03  0.34007820620E+04  0.33988390585E+04 0.  0.
        3    1    3    3  502    0 -0.10943366034E+04  0.60527647035E+03  0.10938798205E+04  0.16614768367E+04  0.10100000352E+00 0. -1.
       -3    1    3    3    0  502  0.10943366034E+04 -0.60527647035E+03 -0.12088219262E+04  0.17393052253E+04  0.10100000352E+00 0.  1.
</event>
<event>
 5   0  0.6584420E-08  0.3394726E+04  0.7818609E-02  0.8139202E-01
       -1   -1    0    0    0  501  0.00000000000E+00  0.00000000000E+00  0.13845962936E+04  0.13845962936E+04  0.50400001928E-02 0.  1.
        1   -1    0    0  501    0  0.00000000000E+00  0.00000000000E+00 -0.20807807408E+04  0.20807807408E+04  0.50400001928E-02 0. -1.
    10030    2    1    2    0    0  0.00000000000E+00  0.00000000000E+00 -0.69618444719E+03  0.34653770344E+04  0.33947260870E+04 0.  0.
        1    1    3    3  502    0 -0.10212754015E+04 -0.91599477655E+03  0.67220483679E+03  0.15277137228E+04  0.50400001928E-02 0.  1.
       -1    1    3    3    0  502  0.10212754015E+04  0.91599477655E+03 -0.13683892840E+04  0.19376633115E+04  0.50400001928E-02 0. -1.
</event>
<event>
 5   0  0.6311750E-08  0.3402203E+04  0.7818609E-02  0.8137366E-01
       -1   -1    0    0    0  501  0.00000000000E+00  0.00000000000E+00  0.18930113707E+04  0.18930113707E+04  0.50400001928E-02 0. -1.
        1   -1    0    0  501    0  0.00000000000E+00  0.00000000000E+00 -0.15286470371E+04  0.15286470371E+04  0.50400001928E-02 0.  1.
    10030    2    1    2    0    0  0.00000000000E+00  0.00000000000E+00  0.36436433366E+03  0.34216584078E+04  0.34022029469E+04 0.  0.
        4    1    3    3  502    0 -0.16847184321E+04 -0.25980008650E+02 -0.53236433070E+02  0.16857600324E+04  0.12699999809E+01 0.  1.
       -4    1    3    3    0  502  0.16847184321E+04  0.25980008650E+02  0.41760076673E+03  0.17358983753E+04  0.12699999809E+01 0. -1.
</event>
<event>
 5   0  0.1963852E-07  0.3388267E+04  0.7818609E-02  0.8140792E-01
        2   -1    0    0  501    0  0.00000000000E+00  0.00000000000E+00  0.14867417862E+04  0.14867417862E+04  0.25500000920E-02 0.  1.
       -2   -1    0    0    0  501  0.00000000000E+00  0.00000000000E+00 -0.19304550624E+04  0.19304550624E+04  0.25500000920E-02 0. -1.
    10030    2    1    2    0    0  0.00000000000E+00  0.00000000000E+00 -0.44371327621E+03  0.34171968485E+04  0.33882669361E+04 0.  0.
        4    1    3    3  502    0  0.65410406779E+03  0.37190517015E+03 -0.17526838434E+04  0.19073719760E+04  0.12699999809E+01 0. -1.
       -4    1    3    3    0  502 -0.65410406779E+03 -0.37190517015E+03  0.13089705672E+04  0.15098248725E+04  0.12699999809E+01 0.  1.
</event>
<event>
 5   0  0.1986613E-07  0.3395889E+04  0.7818609E-02  0.8138916E-01
        2   -1    0    0  501    0  0.00000000000E+00  0.00000000000E+00  0.19489571086E+04  0.19489571086E+04  0.25500000920E-02 0.  1.
       -2   -1    0    0    0  501  0.00000000000E+00  0.00000000000E+00 -0.14792606832E+04  0.14792606832E+04  0.25500000920E-02 0. -1.
    10030    2    1    2    0    0  0.00000000000E+00  0.00000000000E+00  0.46969642543E+03  0.34282177918E+04  0.33958890583E+04 0.  0.
        5    1    3    3  502    0 -0.15053105739E+04  0.70467226022E+03 -0.11554483127E+03  0.16661019225E+04  0.46999998093E+01 0.  1.
       -5    1    3    3    0  502  0.15053105739E+04 -0.70467226022E+03  0.58524125671E+03  0.17621158693E+04  0.46999998093E+01 0. -1.
</event>
<event>
 5   0  0.6584420E-08  0.3402940E+04  0.7818609E-02  0.8137185E-01
        1   -1    0    0  501    0  0.00000000000E+00  0.00000000000E+00  0.24912992144E+04  0.24912992144E+04  0.50400001928E-02 0. -1.
       -1   -1    0    0    0  501  0.00000000000E+00  0.00000000000E+00 -0.11620443112E+04  0.11620443112E+04  0.50400001928E-02 0.  1.
    10030    2    1    2    0    0  0.00000000000E+00  0.00000000000E+00  0.13292549032E+04  0.36533435257E+04  0.34029399523E+04 0.  0.
        1    1    3    3  502    0 -0.16563193499E+04  0.36864913668E+03  0.53009011731E+03  0.17777208744E+04  0.50400001928E-02 0.  1.
       -1    1    3    3    0  502  0.16563193499E+04 -0.36864913668E+03  0.79916478590E+03  0.18756226513E+04  0.50400001928E-02 0. -1.
</event>
<event>
 5   0  0.1897313E-07  0.3400295E+04  0.7818609E-02  0.8137834E-01
        2   -1    0    0  501    0  0.00000000000E+00  0.00000000000E+00  0.20117664172E+04  0.20117664172E+04  0.25500000920E-02 0.  1.
       -2   -1    0    0    0  501  0.00000000000E+00  0.00000000000E+00 -0.14367979345E+04  0.14367979345E+04  0.25500000920E-02 0. -1.
    10030    2    1    2    0    0  0.00000000000E+00  0.00000000000E+00  0.57496848269E+03  0.34485643517E+04  0.34002951830E+04 0.  0.
        3    1    3    3  502    0  0.12191443681E+03 -0.26743071171E+03 -0.14108375168E+04  0.14411262348E+04  0.10100000352E+00 0. -1.
       -3    1    3    3    0  502 -0.12191443681E+03  0.26743071171E+03  0.19858059995E+04  0.20074381169E+04  0.10100000352E+00 0.  1.
</event>
<event>
 5   0  0.1970449E-07  0.3396620E+04  0.7818609E-02  0.8138736E-01
       -2   -1    0    0    0  501  0.00000000000E+00  0.00000000000E+00  0.10978789710E+04  0.10978789710E+04  0.25500000920E-02 0.  1.
        2   -1    0    0  501    0  0.00000000000E+00  0.00000000000E+00 -0.26271177090E+04  0.26271177090E+04  0.25500000920E-02 0. -1.
    10030    2    1    2    0    0  0.00000000000E+00  0.00000000000E+00 -0.15292387381E+04  0.37249966800E+04  0.33966202537E+04 0.  0.
        1    1    3    3  502    0 -0.13689430613E+04  0.50070002337E+03  0.19115978939E+03  0.14701182550E+04  0.50400001928E-02 0.  1.
       -1    1    3    3    0  502  0.13689430613E+04 -0.50070002337E+03 -0.17203985275E+04  0.22548784250E+04  0.50400001928E-02 0. -1.
</event>
<event>
 5   0  0.1928004E-07  0.3398300E+04  0.7818609E-02  0.8138324E-01
        2   -1    0    0  501    0  0.00000000000E+00  0.00000000000E+00  0.10972921543E+04  0.10972921543E+04  0.25500000920E-02 0.  1.
       -2   -1    0    0    0  501  0.00000000000E+00  0.00000000000E+00 -0.26311238311E+04  0.26311238311E+04  0.25500000920E-02 0. -1.
    10030    2    1    2    0    0  0.00000000000E+00  0.00000000000E+00 -0.15338316768E+04  0.37284159854E+04  0.33983004793E+04 0.  0.
        2    1    3    3  502    0  0.14907549244E+04  0.24060291723E+03 -0.16216104501E+04  0.22158204937E+04  0.25500000920E-02 0. -1.
       -2    1    3    3    0  502 -0.14907549244E+04 -0.24060291723E+03  0.87778773380E+02  0.15125954917E+04  0.25500000920E-02 0.  1.
</event>
<event>
 5   0  0.6788600E-08  0.3421136E+04  0.7818609E-02  0.8132738E-01
        1   -1    0    0  501    0  0.00000000000E+00  0.00000000000E+00  0.19752276963E+04  0.19752276963E+04  0.50400001928E-02 0. -1.
       -1   -1    0    0    0  501  0.00000000000E+00  0.00000000000E+00 -0.14813696283E+04  0.14813696283E+04  0.50400001928E-02 0.  1.
    10030    2    1    2    0    0  0.00000000000E+00  0.00000000000E+00  0.49385806798E+03  0.34565973246E+04  0.34211356701E+04 0.  0.
        2    1    3    3  502    0 -0.15429118763E+04 -0.73574594628E+03  0.31196363791E+03  0.17375904197E+04  0.25500000920E-02 0. -1.
       -2    1    3    3    0  502  0.15429118763E+04  0.73574594628E+03  0.18189443007E+03  0.17190069049E+04  0.25500000920E-02 0.  1.
</event>
<event>
 5   0  0.6311750E-08  0.3392856E+04  0.7818609E-02  0.8139662E-01
        1   -1    0    0  501    0  0.00000000000E+00  0.00000000000E+00  0.18206738072E+04  0.18206738073E+04  0.50400001928E-02 0. -1.
       -1   -1    0    0    0  501  0.00000000000E+00  0.00000000000E+00 -0.15806605641E+04  0.15806605641E+04  0.50400001928E-02 0.  1.
    10030    2    1    2    0    0  0.00000000000E+00  0.00000000000E+00  0.24001324313E+03  0.34013343714E+04  0.33928556039E+04 0.  0.
        4    1    3    3  502    0  0.29079942085E+03  0.16250636884E+04 -0.27144245025E+03  0.16730448025E+04  0.12699999809E+01 0.  1.
       -4    1    3    3    0  502 -0.29079942085E+03 -0.16250636884E+04  0.51145569338E+03  0.17282895688E+04  0.12699999809E+01 0. -1.
</event>
<event>
 5   0  0.1986613E-07  0.3381212E+04  0.7818609E-02  0.8142533E-01
       -2   -1    0    0    0  501  0.00000000000E+00  0.00000000000E+00  0.14192910641E+04  0.14192910641E+04  0.25500000920E-02 0. -1.
        2   -1    0    0  501    0  0.00000000000E+00  0.00000000000E+00 -0.20137866445E+04  0.20137866445E+04  0.25500000920E-02 0.  1.
    10030    2    1    2    0    0  0.00000000000E+00  0.00000000000E+00 -0.59449558037E+03  0.34330777086E+04  0.33812124391E+04 0.  0.
        5    1    3    3  502    0 -0.41975794444E+02  0.10017070067E+04  0.10848629416E+04  0.14772029606E+04  0.46999998093E+01 0. -1.
       -5    1    3    3    0  502  0.41975794444E+02 -0.10017070067E+04 -0.16793585220E+04  0.19558747480E+04  0.46999998093E+01 0.  1.
</event>
<event>
 5   0  0.6311750E-08  0.3404822E+04  0.7818609E-02  0.8136724E-01
       -4   -1    0    0    0  501  0.00000000000E+00  0.00000000000E+00  0.15355684772E+04  0.15355690024E+04  0.12699999809E+01 0.  1.
        4   -1    0    0  501    0  0.00000000000E+00  0.00000000000E+00 -0.18873799089E+04  0.18873803362E+04  0.12699999809E+01 0. -1.
    10030    2    1    2    0    0  0.00000000000E+00  0.00000000000E+00 -0.35181143170E+03  0.34229493386E+04  0.34048217121E+04 0.  0.
        2    1    3    3  502    0 -0.55106362897E+03 -0.10607166730E+04 -0.13945525041E+04  0.18367274349E+04  0.25500000920E-02 0. -1.
       -2    1    3    3    0  502  0.55106362897E+03  0.10607166730E+04  0.10427410724E+04  0.15862219037E+04  0.25500000920E-02 0.  1.
</event>
<event>
 5   0  0.6341535E-08  0.3353830E+04  0.7818609E-02  0.8149332E-01
       -1   -1    0    0    0  501  0.00000000000E+00  0.00000000000E+00  0.13030297761E+04  0.13030297761E+04  0.50400001928E-02 0. -1.
        1   -1    0    0  501    0  0.00000000000E+00  0.00000000000E+00 -0.21580807595E+04  0.21580807595E+04  0.50400001928E-02 0.  1.
    10030    2    1    2    0    0  0.00000000000E+00  0.00000000000E+00 -0.85505098333E+03  0.34611105356E+04  0.33538297446E+04 0.  0.
        5    1    3    3  502    0 -0.30213162932E+03 -0.13618829828E+04  0.53284004625E+03  0.14933015051E+04  0.46999998093E+01 0. -1.
       -5    1    3    3    0  502  0.30213162932E+03  0.13618829828E+04 -0.13878910296E+04  0.19678090305E+04  0.46999998093E+01 0.  1.
</event>
<event>
 5   0  0.6311750E-08  0.3383319E+04  0.7818609E-02  0.8142012E-01
        1   -1    0    0  501    0  0.00000000000E+00  0.00000000000E+00  0.14037967831E+04  0.14037967831E+04  0.50400001928E-02 0. -1.
       -1   -1    0    0    0  501  0.00000000000E+00  0.00000000000E+00 -0.20385517510E+04  0.20385517510E+04  0.50400001928E-02 0.  1.
    10030    2    1    2    0    0  0.00000000000E+00  0.00000000000E+00 -0.63475496786E+03  0.34423485342E+04  0.33833193112E+04 0.  0.
        4    1    3    3  502    0 -0.13005812565E+04  0.10815354721E+04 -0.29508180199E+03  0.17170630347E+04  0.12699999809E+01 0. -1.
       -4    1    3    3    0  502  0.13005812565E+04 -0.10815354721E+04 -0.33967316588E+03  0.17252854995E+04  0.12699999809E+01 0.  1.
</event>
<event>
 5   0  0.6367111E-08  0.3404551E+04  0.7818609E-02  0.8136790E-01
        1   -1    0    0  501    0  0.00000000000E+00  0.00000000000E+00  0.18948309931E+04  0.18948309931E+04  0.50400001928E-02 0.  1.
       -1   -1    0    0    0  501  0.00000000000E+00  0.00000000000E+00 -0.15292873721E+04  0.15292873721E+04  0.50400001928E-02 0. -1.
    10030    2    1    2    0    0  0.00000000000E+00  0.00000000000E+00  0.36554362100E+03  0.34241183652E+04  0.34045505489E+04 0.  0.
        3    1    3    3  502    0  0.16076930291E+04  0.30749079024E+03 -0.28736932950E+03  0.16618690091E+04  0.10100000352E+00 0. -1.
       -3    1    3    3    0  502 -0.16076930291E+04 -0.30749079024E+03  0.65291295050E+03  0.17622493561E+04  0.10100000352E+00 0.  1.
</event>
<event>
 5   0  0.6341535E-08  0.3407377E+04  0.7818609E-02  0.8136098E-01
        1   -1    0    0  501    0  0.00000000000E+00  0.00000000000E+00  0.30096779690E+04  0.30096779690E+04  0.50400001928E-02 0.  1.
       -1   -1    0    0    0  501  0.00000000000E+00  0.00000000000E+00 -0.96440712487E+03  0.96440712488E+03  0.50400001928E-02 0. -1.
    10030    2    1    2    0    0  0.00000000000E+00  0.00000000000E+00  0.20452708441E+04  0.39740850939E+04  0.34073772183E+04 0.  0.
        5    1    3    3  502    0 -0.33653251220E+03 -0.90763281410E+03  0.26577621141E+04  0.28285637702E+04  0.46999998093E+01 0.  1.
       -5    1    3    3    0  502  0.33653251220E+03  0.90763281410E+03 -0.61249127003E+03  0.11455213236E+04  0.46999998093E+01 0. -1.
</event>
<event>
 5   0  0.6584420E-08  0.3396885E+04  0.7818609E-02  0.8138671E-01
       -1   -1    0    0    0  501  0.00000000000E+00  0.00000000000E+00  0.12322055874E+04  0.12322055874E+04  0.50400001928E-02 0.  1.
        1   -1    0    0  501    0  0.00000000000E+00  0.00000000000E+00 -0.23410927141E+04  0.23410927141E+04  0.50400001928E-02 0. -1.
    10030    2    1    2    0    0  0.00000000000E+00  0.00000000000E+00 -0.11088871267E+04  0.35732983016E+04  0.33968853516E+04 0.  0.
        1    1    3    3  502    0 -0.14695562120E+04  0.98424787097E+02  0.33531120813E+03  0.15105351718E+04  0.50400001928E-02 0.  1.
       -1    1    3    3    0  502  0.14695562120E+04 -0.98424787097E+02 -0.14441983349E+04  0.20627631297E+04  0.50400001928E-02 0. -1.
</event>
<event>
 5   0  0.6311750E-08  0.3384694E+04  0.7818609E-02  0.8141673E-01
       -3   -1    0    0    0  501  0.00000000000E+00  0.00000000000E+00  0.16415465316E+04  0.16415465347E+04  0.10100000352E+00 0.  1.
        3   -1    0    0  501    0  0.00000000000E+00  0.00000000000E+00 -0.17447190955E+04  0.17447190984E+04  0.10100000352E+00 0. -1.
    10030    2    1    2    0    0  0.00000000000E+00  0.00000000000E+00 -0.10317256391E+03  0.33862656332E+04  0.33846935401E+04 0.  0.
        5    1    3    3  502    0 -0.57835332682E+03 -0.46195890783E+03  0.14709999837E+04  0.16467427380E+04  0.46999998093E+01 0.  1.
       -5    1    3    3    0  502  0.57835332682E+03  0.46195890783E+03 -0.15741725476E+04  0.17395228952E+04  0.46999998093E+01 0. -1.
</event>
<event>
 5   0  0.1970449E-07  0.3405896E+04  0.7818609E-02  0.8136461E-01
       -2   -1    0    0    0  501  0.00000000000E+00  0.00000000000E+00  0.16069266437E+04  0.16069266437E+04  0.25500000920E-02 0. -1.
        2   -1    0    0  501    0  0.00000000000E+00  0.00000000000E+00 -0.18047073354E+04  0.18047073354E+04  0.25500000920E-02 0.  1.
    10030    2    1    2    0    0  0.00000000000E+00  0.00000000000E+00 -0.19778069165E+03  0.34116339791E+04  0.34058962411E+04 0.  0.
        1    1    3    3  502    0  0.11030688757E+04  0.12809509576E+04 -0.30523738540E+03  0.17177794276E+04  0.50400001928E-02 0. -1.
       -1    1    3    3    0  502 -0.11030688757E+04 -0.12809509576E+04  0.10745669375E+03  0.16938545515E+04  0.50400001928E-02 0.  1.
</event>
<event>
 5   0  0.6584420E-08  0.3391937E+04  0.7818609E-02  0.8139888E-01
        1   -1    0    0  501    0  0.00000000000E+00  0.00000000000E+00  0.23010347530E+04  0.23010347530E+04  0.50400001928E-02 0. -1.
       -1   -1    0    0    0  501  0.00000000000E+00  0.00000000000E+00 -0.12500065639E+04  0.12500065639E+04  0.50400001928E-02 0.  1.
    10030    2    1    2    0    0  0.00000000000E+00  0.00000000000E+00  0.10510281892E+04  0.35510413169E+04  0.33919366415E+04 0.  0.
        1    1    3    3  502    0 -0.52377456929E+03  0.40138450271E+03 -0.11100944112E+04  0.12914174074E+04  0.50400001928E-02 0.  1.
       -1    1    3    3    0  502  0.52377456929E+03 -0.40138450271E+03  0.21611226004E+04  0.22596239095E+04  0.50400001928E-02 0. -1.
</event>
<event>
 5   0  0.1963852E-07  0.3397253E+04  0.7818609E-02  0.8138581E-01
       -2   -1    0    0    0  501  0.00000000000E+00  0.00000000000E+00  0.11727556206E+04  0.11727556206E+04  0.25500000920E-02 0.  1.
        2   -1    0    0  501    0  0.00000000000E+00  0.00000000000E+00 -0.24603015191E+04  0.24603015191E+04  0.25500000920E-02 0. -1.
    10030    2    1    2    0    0  0.00000000000E+00  0.00000000000E+00 -0.12875458985E+04  0.36330571397E+04  0.33972532640E+04 0.  0.
        4    1    3    3  502    0 -0.10390044778E+04  0.11805707900E+04 -0.13302419192E+04  0.20598113680E+04  0.12699999809E+01 0. -1.
       -4    1    3    3    0  502  0.10390044778E+04 -0.11805707900E+04  0.42696020691E+02  0.15732457717E+04  0.12699999809E+01 0.  1.
</event>
<event>
 5   0  0.1986613E-07  0.3394584E+04  0.7818609E-02  0.8139237E-01
        2   -1    0    0  501    0  0.00000000000E+00  0.00000000000E+00  0.17511763128E+04  0.17511763128E+04  0.25500000920E-02 0. -1.
       -2   -1    0    0    0  501  0.00000000000E+00  0.00000000000E+00 -0.16450656633E+04  0.16450656634E+04  0.25500000920E-02 0.  1.
    10030    2    1    2    0    0  0.00000000000E+00  0.00000000000E+00  0.10611064941E+03  0.33962419761E+04  0.33945839348E+04 0.  0.
        5    1    3    3  502    0 -0.26459594172E+03 -0.98277990745E+03  0.14119936088E+04  0.17405790416E+04  0.46999998093E+01 0. -1.
       -5    1    3    3    0  502  0.26459594172E+03  0.98277990745E+03 -0.13058829594E+04  0.16556629345E+04  0.46999998093E+01 0.  1.
</event>
<event>
 5   0  0.6788600E-08  0.3395509E+04  0.7818609E-02  0.8139009E-01
       -1   -1    0    0    0  501  0.00000000000E+00  0.00000000000E+00  0.15044598324E+04  0.15044598325E+04  0.50400001928E-02 0. -1.
        1   -1    0    0  501    0  0.00000000000E+00  0.00000000000E+00 -0.19158838177E+04  0.19158838177E+04  0.50400001928E-02 0.  1.
    10030    2    1    2    0    0  0.00000000000E+00  0.00000000000E+00 -0.41142398529E+03  0.34203436502E+04  0.33955089441E+04 0.  0.
        2    1    3    3  502    0 -0.94562664607E+03  0.13308310688E+04  0.26358083720E+03  0.16537218464E+04  0.25500000920E-02 0. -1.
       -2    1    3    3    0  502  0.94562664607E+03 -0.13308310688E+04 -0.67500482249E+03  0.17666218038E+04  0.25500000920E-02 0.  1.
</event>
<event>
 5   0  0.6584420E-08  0.3400917E+04  0.7818609E-02  0.8137681E-01
        1   -1    0    0  501    0  0.00000000000E+00  0.00000000000E+00  0.20932907650E+04  0.20932907650E+04  0.50400001928E-02 0.  1.
       -1   -1    0    0    0  501  0.00000000000E+00  0.00000000000E+00 -0.13813464908E+04  0.13813464908E+04  0.50400001928E-02 0. -1.
    10030    2    1    2    0    0  0.00000000000E+00  0.00000000000E+00  0.71194427420E+03  0.34746372558E+04  0.34009174365E+04 0.  0.
        1    1    3    3  502    0  0.21933243676E+03 -0.16216612109E+04  0.82823432860E+03  0.18340839414E+04  0.50400001928E-02 0.  1.
       -1    1    3    3    0  502 -0.21933243676E+03  0.16216612109E+04 -0.11629005440E+03  0.16405533145E+04  0.50400001928E-02 0. -1.
</event>
<event>
 5   0  0.1928004E-07  0.3442498E+04  0.7818609E-02  0.8127554E-01
       -2   -1    0    0    0  501  0.00000000000E+00  0.00000000000E+00  0.22988595112E+04  0.22988595112E+04  0.25500000920E-02 0. -1.
        2   -1    0    0  501    0  0.00000000000E+00  0.00000000000E+00 -0.12887688922E+04  0.12887688922E+04  0.25500000920E-02 0.  1.
    10030    2    1    2    0    0  0.00000000000E+00  0.00000000000E+00  0.10100906190E+04  0.35876284033E+04  0.34424982937E+04 0.  0.
        2    1    3    3  502    0  0.14195072368E+04  0.11384620216E+03  0.15126226854E+04  0.20774958824E+04  0.25500000920E-02 0. -1.
       -2    1    3    3    0  502 -0.14195072368E+04 -0.11384620216E+03 -0.50253206641E+03  0.15101325209E+04  0.25500000920E-02 0.  1.
</event>
<event>
 5   0  0.6367111E-08  0.3397961E+04  0.7818609E-02  0.8138407E-01
       -1   -1    0    0    0  501  0.00000000000E+00  0.00000000000E+00  0.20196328315E+04  0.20196328315E+04  0.50400001928E-02 0. -1.
        1   -1    0    0  501    0  0.00000000000E+00  0.00000000000E+00 -0.14292374063E+04  0.14292374063E+04  0.50400001928E-02 0.  1.
    10030    2    1    2    0    0  0.00000000000E+00  0.00000000000E+00  0.59039542516E+03  0.34488702378E+04  0.33979610297E+04 0.  0.
        3    1    3    3  502    0  0.42462338712E+03  0.16258746524E+04  0.40922116954E+02  0.16809069088E+04  0.10100000352E+00 0.  1.
       -3    1    3    3    0  502 -0.42462338712E+03 -0.16258746524E+04  0.54947330821E+03  0.17679633290E+04  0.10100000352E+00 0. -1.
</event>
<event>
 5   0  0.6367111E-08  0.3404609E+04  0.7818609E-02  0.8136776E-01
       -1   -1    0    0    0  501  0.00000000000E+00  0.00000000000E+00  0.10638196354E+04  0.10638196354E+04  0.50400001928E-02 0.  1.
        1   -1    0    0  501    0  0.00000000000E+00  0.00000000000E+00 -0.27239953976E+04  0.27239953976E+04  0.50400001928E-02 0. -1.
    10030    2    1    2    0    0  0.00000000000E+00  0.00000000000E+00 -0.16601757622E+04  0.37878150330E+04  0.34046085183E+04 0.  0.
        3    1    3    3  502    0  0.76084841159E+03  0.53117081703E+03  0.75771477986E+03  0.11979834891E+04  0.10100000352E+00 0.  1.
       -3    1    3    3    0  502 -0.76084841159E+03 -0.53117081703E+03 -0.24178905421E+04  0.25898315440E+04  0.10100000352E+00 0. -1.
</event>
<event>
 5   0  0.1928004E-07  0.3405294E+04  0.7818609E-02  0.8136608E-01
       -2   -1    0    0    0  501  0.00000000000E+00  0.00000000000E+00  0.15614284704E+04  0.15614284704E+04  0.25500000920E-02 0. -1.
        2   -1    0    0  501    0  0.00000000000E+00  0.00000000000E+00 -0.18566371262E+04  0.18566371262E+04  0.25500000920E-02 0.  1.
    10030    2    1    2    0    0  0.00000000000E+00  0.00000000000E+00 -0.29520865583E+03  0.34180655967E+04  0.34052935663E+04 0.  0.
        2    1    3    3  502    0  0.13195576481E+04  0.90445751242E+03 -0.73265430931E+03  0.17595619101E+04  0.25500000920E-02 0.  1.
       -2    1    3    3    0  502 -0.13195576481E+04 -0.90445751242E+03  0.43744565348E+03  0.16585036866E+04  0.25500000920E-02 0. -1.
</event>
<event>
 5   0  0.6341535E-08  0.3364459E+04  0.7818609E-02  0.8146685E-01
       -1   -1    0    0    0  501  0.00000000000E+00  0.00000000000E+00  0.19367672273E+04  0.19367672273E+04  0.50400001928E-02 0.  1.
        1   -1    0    0  501    0  0.00000000000E+00  0.00000000000E+00 -0.14611440045E+04  0.14611440045E+04  0.50400001928E-02 0. -1.
    10030    2    1    2    0    0  0.00000000000E+00  0.00000000000E+00  0.47562322287E+03  0.33979112318E+04  0.33644588405E+04 0.  0.
        5    1    3    3  502    0 -0.16655591721E+04 -0.20662401748E+03  0.35337349168E+03  0.17151314104E+04  0.46999998093E+01 0.  1.
       -5    1    3    3    0  502  0.16655591721E+04  0.20662401748E+03  0.12224973119E+03  0.16827798214E+04  0.46999998093E+01 0. -1.
</event>
<event>
 5   0  0.1897313E-07  0.3412541E+04  0.7818609E-02  0.8134835E-01
        2   -1    0    0  501    0  0.00000000000E+00  0.00000000000E+00  0.17141949050E+04  0.17141949050E+04  0.25500000920E-02 0.  1.
       -2   -1    0    0    0  501  0.00000000000E+00  0.00000000000E+00 -0.16983826572E+04  0.16983826572E+04  0.25500000920E-02 0. -1.
    10030    2    1    2    0    0  0.00000000000E+00  0.00000000000E+00  0.15812247825E+02  0.34125775622E+04  0.34125409288E+04 0.  0.
        3    1    3    3  502    0 -0.10094347717E+03 -0.13723241243E+04  0.10168251762E+04  0.17109636281E+04  0.10100000352E+00 0.  1.
       -3    1    3    3    0  502  0.10094347717E+03  0.13723241243E+04 -0.10010129284E+04  0.17016139341E+04  0.10100000352E+00 0. -1.
</event>
<event>
 5   0  0.1897313E-07  0.3403649E+04  0.7818609E-02  0.8137011E-01
       -2   -1    0    0    0  501  0.00000000000E+00  0.00000000000E+00  0.19548899033E+04  0.19548899034E+04  0.25500000920E-02 0.  1.
        2   -1    0    0  501    0  0.00000000000E+00  0.00000000000E+00 -0.14815191853E+04  0.14815191853E+04  0.25500000920E-02 0. -1.
    10030    2    1    2    0    0  0.00000000000E+00  0.00000000000E+00  0.47337071807E+03  0.34364090886E+04  0.34036491576E+04 0.  0.
        3    1    3    3  502    0 -0.94878416882E+03 -0.10877810771E+04 -0.67351704278E+03  0.15928227421E+04  0.10100000352E+00 0. -1.
       -3    1    3    3    0  502  0.94878416882E+03  0.10877810771E+04  0.11468877608E+04  0.18435863465E+04  0.10100000352E+00 0.  1.
</event>
<event>
 5   0  0.1928004E-07  0.3403813E+04  0.7818609E-02  0.8136971E-01
       -2   -1    0    0    0  501  0.00000000000E+00  0.00000000000E+00  0.12301275798E+04  0.12301275798E+04  0.25500000920E-02 0. -1.
        2   -1    0    0  501    0  0.00000000000E+00  0.00000000000E+00 -0.23546228659E+04  0.23546228659E+04  0.25500000920E-02 0.  1.
    10030    2    1    2    0    0  0.00000000000E+00  0.00000000000E+00 -0.11244952861E+04  0.35847504457E+04  0.34038134657E+04 0.  0.
        2    1    3    3  502    0  0.31898357390E+03  0.10466906801E+04  0.81056788395E+03  0.13617386661E+04  0.25500000920E-02 0. -1.
       -2    1    3    3    0  502 -0.31898357390E+03 -0.10466906801E+04 -0.19350631701E+04  0.22230117796E+04  0.25500000920E-02 0.  1.
</event>
<event>
 5   0  0.6311750E-08  0.3398502E+04  0.7818609E-02  0.8138274E-01
        1   -1    0    0  501    0  0.00000000000E+00  0.00000000000E+00  0.15047340183E+04  0.15047340183E+04  0.50400001928E-02 0. -1.
       -1   -1    0    0    0  501  0.00000000000E+00  0.00000000000E+00 -0.19189129225E+04  0.19189129226E+04  0.50400001928E-02 0.  1.
    10030    2    1    2    0    0  0.00000000000E+00  0.00000000000E+00 -0.41417890429E+03  0.34236469408E+04  0.33985017597E+04 0.  0.
        4    1    3    3  502    0 -0.15713711509E+04 -0.39801041717E+03  0.30641957985E+03  0.16497012330E+04  0.12699999809E+01 0. -1.
       -4    1    3    3    0  502  0.15713711509E+04  0.39801041717E+03 -0.72059848414E+03  0.17739457079E+04  0.12699999809E+01 0.  1.
</event>
<event>
 5   0  0.1970449E-07  0.3381344E+04  0.7818609E-02  0.8142500E-01
        2   -1    0    0  501    0  0.00000000000E+00  0.00000000000E+00  0.10525651686E+04  0.10525651686E+04  0.25500000920E-02 0.  1.
       -2   -1    0    0    0  501  0.00000000000E+00  0.00000000000E+00 -0.27156238957E+04  0.27156238957E+04  0.25500000920E-02 0. -1.
    10030    2    1    2    0    0  0.00000000000E+00  0.00000000000E+00 -0.16630587271E+04  0.37681890643E+04  0.33813435932E+04 0.  0.
        1    1    3    3  502    0  0.16412773508E+04  0.40467501631E+03 -0.86340044867E+03  0.18981605690E+04  0.50400001928E-02 0. -1.
       -1    1    3    3    0  502 -0.16412773508E+04 -0.40467501631E+03 -0.79965827839E+03  0.18700284953E+04  0.50400001928E-02 0.  1.
</event>
<event>
 5   0  0.1928004E-07  0.3414331E+04  0.7818609E-02  0.8134398E-01
        2   -1    0    0  501    0  0.00000000000E+00  0.00000000000E+00  0.16908580451E+04  0.16908580451E+04  0.25500000920E-02 0.  1.
       -2   -1    0    0    0  501  0.00000000000E+00  0.00000000000E+00 -0.17236299242E+04  0.17236299242E+04  0.25500000920E-02 0. -1.
    10030    2    1    2    0    0  0.00000000000E+00  0.00000000000E+00 -0.32771879052E+02  0.34144879693E+04  0.34143306953E+04 0.  0.
        2    1    3    3  502    0 -0.14442755671E+04 -0.90326773564E+03  0.95819978470E+02  0.17061670446E+04  0.25500000920E-02 0.  1.
       -2    1    3    3    0  502  0.14442755671E+04  0.90326773564E+03 -0.12859185752E+03  0.17083209247E+04  0.25500000920E-02 0. -1.
</event>
<event>
 5   0  0.1970449E-07  0.3400061E+04  0.7818609E-02  0.8137891E-01
       -2   -1    0    0    0  501  0.00000000000E+00  0.00000000000E+00  0.13547518640E+04  0.13547518640E+04  0.25500000920E-02 0. -1.
        2   -1    0    0  501    0  0.00000000000E+00  0.00000000000E+00 -0.21333085751E+04  0.21333085751E+04  0.25500000920E-02 0.  1.
    10030    2    1    2    0    0  0.00000000000E+00  0.00000000000E+00 -0.77855671105E+03  0.34880604391E+04  0.34000610398E+04 0.  0.
        1    1    3    3  502    0  0.48004148646E+03  0.87361780322E+03  0.10234825185E+04  0.14286932353E+04  0.50400001928E-02 0. -1.
       -1    1    3    3    0  502 -0.48004148646E+03 -0.87361780322E+03 -0.18020392296E+04  0.20593672037E+04  0.50400001928E-02 0.  1.
</event>
<event>
 5   0  0.1897313E-07  0.3394411E+04  0.7818609E-02  0.8139280E-01
        2   -1    0    0  501    0  0.00000000000E+00  0.00000000000E+00  0.18596450101E+04  0.18596450101E+04  0.25500000920E-02 0.  1.
       -2   -1    0    0    0  501  0.00000000000E+00  0.00000000000E+00 -0.15489546375E+04  0.15489546375E+04  0.25500000920E-02 0. -1.
    10030    2    1    2    0    0  0.00000000000E+00  0.00000000000E+00  0.31069037265E+03  0.34085996476E+04  0.33944105600E+04 0.  0.
        3    1    3    3  502    0 -0.37471173448E+03 -0.34481220064E+02 -0.15065374121E+04  0.15528209242E+04  0.10100000352E+00 0. -1.
       -3    1    3    3    0  502  0.37471173448E+03  0.34481220064E+02  0.18172277847E+04  0.18557787234E+04  0.10100000352E+00 0.  1.
</event>
<event>
 5   0  0.6788600E-08  0.3396186E+04  0.7818609E-02  0.8138843E-01
       -1   -1    0    0    0  501  0.00000000000E+00  0.00000000000E+00  0.15038295250E+04  0.15038295250E+04  0.50400001928E-02 0. -1.
        1   -1    0    0  501    0  0.00000000000E+00  0.00000000000E+00 -0.19174512266E+04  0.19174512266E+04  0.50400001928E-02 0.  1.
    10030    2    1    2    0    0  0.00000000000E+00  0.00000000000E+00 -0.41362170162E+03  0.34212807516E+04  0.33961859592E+04 0.  0.
        2    1    3    3  502    0 -0.44106500911E+03  0.29923340917E+03  0.14173805873E+04  0.15142809200E+04  0.25500000920E-02 0. -1.
       -2    1    3    3    0  502  0.44106500911E+03 -0.29923340917E+03 -0.18310022890E+04  0.19069998316E+04  0.25500000920E-02 0.  1.
</event>
<event>
 5   0  0.1970449E-07  0.3397822E+04  0.7818609E-02  0.8138441E-01
        2   -1    0    0  501    0  0.00000000000E+00  0.00000000000E+00  0.18889372049E+04  0.18889372049E+04  0.25500000920E-02 0.  1.
       -2   -1    0    0    0  501  0.00000000000E+00  0.00000000000E+00 -0.15280011142E+04  0.15280011142E+04  0.25500000920E-02 0. -1.
    10030    2    1    2    0    0  0.00000000000E+00  0.00000000000E+00  0.36093609066E+03  0.34169383191E+04  0.33978217456E+04 0.  0.
        1    1    3    3  502    0  0.10773420567E+04  0.12167423659E+04 -0.31746441960E+03  0.16558718398E+04  0.50400001928E-02 0. -1.
       -1    1    3    3    0  502 -0.10773420567E+04 -0.12167423659E+04  0.67840051027E+03  0.17610664793E+04  0.50400001928E-02 0.  1.
</event>
<event>
 5   0  0.1963852E-07  0.3398567E+04  0.7818609E-02  0.8138258E-01
        2   -1    0    0  501    0  0.00000000000E+00  0.00000000000E+00  0.15035453529E+04  0.15035453529E+04  0.25500000920E-02 0. -1.
       -2   -1    0    0    0  501  0.00000000000E+00  0.00000000000E+00 -0.19205036994E+04  0.19205036994E+04  0.25500000920E-02 0.  1.
    10030    2    1    2    0    0  0.00000000000E+00  0.00000000000E+00 -0.41695834651E+03  0.34240490523E+04  0.33985669995E+04 0.  0.
        4    1    3    3  502    0  0.10860839302E+04  0.10306595575E+04 -0.10180746395E+04  0.18106117782E+04  0.12699999809E+01 0. -1.
       -4    1    3    3    0  502 -0.10860839302E+04 -0.10306595575E+04  0.60111629297E+03  0.16134372741E+04  0.12699999809E+01 0.  1.
</event>
<event>
 5   0  0.6584420E-08  0.3402114E+04  0.7818609E-02  0.8137388E-01
        1   -1    0    0  501    0  0.00000000000E+00  0.00000000000E+00  0.19711110642E+04  0.19711110642E+04  0.50400001928E-02 0. -1.
       -1   -1    0    0    0  501  0.00000000000E+00  0.00000000000E+00 -0.14680017986E+04  0.14680017986E+04  0.50400001928E-02 0.  1.
    10030    2    1    2    0    0  0.00000000000E+00  0.00000000000E+00  0.50310926561E+03  0.34391128628E+04  0.34021138061E+04 0.  0.
        1    1    3    3  502    0  0.10670490618E+04  0.60831031054E+03  0.14411961731E+04  0.18935895921E+04  0.50400001928E-02 0. -1.
       -1    1    3    3    0  502 -0.10670490618E+04 -0.60831031054E+03 -0.93808690744E+03  0.15455232706E+04  0.50400001928E-02 0.  1.
</event>
<event>
 5   0  0.6788600E-08  0.3399392E+04  0.7818609E-02  0.8138056E-01
        1   -1    0    0  501    0  0.00000000000E+00  0.00000000000E+00  0.14818508078E+04  0.14818508078E+04  0.50400001928E-02 0. -1.
       -1   -1    0    0    0  501  0.00000000000E+00  0.00000000000E+00 -0.19495658249E+04  0.19495658249E+04  0.50400001928E-02 0.  1.
    10030    2    1    2    0    0  0.00000000000E+00  0.00000000000E+00 -0.46771501709E+03  0.34314166326E+04  0.33993915293E+04 0.  0.
        2    1    3    3  502    0  0.13205903171E+04 -0.91239993883E+03  0.33045591875E+03  0.16387902698E+04  0.25500000920E-02 0. -1.
       -2    1    3    3    0  502 -0.13205903171E+04  0.91239993883E+03 -0.79817093584E+03  0.17926263629E+04  0.25500000920E-02 0.  1.
</event>
<event>
 5   0  0.6341535E-08  0.3318296E+04  0.7818609E-02  0.8158255E-01
        1   -1    0    0  501    0  0.00000000000E+00  0.00000000000E+00  0.20167048465E+04  0.20167048465E+04  0.50400001928E-02 0.  1.
       -1   -1    0    0    0  501  0.00000000000E+00  0.00000000000E+00 -0.13649852089E+04  0.13649852089E+04  0.50400001928E-02 0. -1.
    10030    2    1    2    0    0  0.00000000000E+00  0.00000000000E+00  0.65171963758E+03  0.33816900554E+04  0.33182961207E+04 0.  0.
        5    1    3    3  502    0 -0.76301456115E+03 -0.14332639903E+04 -0.21703045912E+02  0.16238626785E+04  0.46999998093E+01 0. -1.
       -5    1    3    3    0  502  0.76301456115E+03  0.14332639903E+04  0.67342268349E+03  0.17578273769E+04  0.46999998093E+01 0.  1.
</event>
<event>
 5   0  0.6311750E-08  0.3397994E+04  0.7818609E-02  0.8138399E-01
       -3   -1    0    0    0  501  0.00000000000E+00  0.00000000000E+00  0.22883318931E+04  0.22883318954E+04  0.10100000352E+00 0.  1.
        3   -1    0    0  501    0  0.00000000000E+00  0.00000000000E+00 -0.12614386685E+04  0.12614386726E+04  0.10100000352E+00 0. -1.
    10030    2    1    2    0    0  0.00000000000E+00  0.00000000000E+00  0.10268932246E+04  0.35497705679E+04  0.33979937302E+04 0.  0.
        3    1    3    3  502    0  0.50800141346E+03  0.61972735254E+03 -0.10516239671E+04  0.13221347911E+04  0.10100000352E+00 0. -1.
       -3    1    3    3    0  502 -0.50800141346E+03 -0.61972735254E+03  0.20785171917E+04  0.22276357768E+04  0.10100000352E+00 0.  1.
</event>
<event>
 5   0  0.6367111E-08  0.3400607E+04  0.7818609E-02  0.8137757E-01
       -1   -1    0    0    0  501  0.00000000000E+00  0.00000000000E+00  0.14594092402E+04  0.14594092403E+04  0.50400001928E-02 0.  1.
        1   -1    0    0  501    0  0.00000000000E+00  0.00000000000E+00 -0.19809600322E+04  0.19809600322E+04  0.50400001928E-02 0. -1.
    10030    2    1    2    0    0  0.00000000000E+00  0.00000000000E+00 -0.52155079192E+03  0.34403692724E+04  0.34006066374E+04 0.  0.
        3    1    3    3  502    0 -0.70286932849E+03 -0.12871040200E+04 -0.11312835974E+04  0.18521513543E+04  0.10100000352E+00 0. -1.
       -3    1    3    3    0  502  0.70286932849E+03  0.12871040200E+04  0.60973280544E+03  0.15882179181E+04  0.10100000352E+00 0.  1.
</event>
<event>
 5   0  0.1963852E-07  0.3396026E+04  0.7818609E-02  0.8138882E-01
        2   -1    0    0  501    0  0.00000000000E+00  0.00000000000E+00  0.14542075222E+04  0.14542075222E+04  0.25500000920E-02 0. -1.
       -2   -1    0    0    0  501  0.00000000000E+00  0.00000000000E+00 -0.19826934927E+04  0.19826934927E+04  0.25500000920E-02 0.  1.
    10030    2    1    2    0    0  0.00000000000E+00  0.00000000000E+00 -0.52848597054E+03  0.34369010149E+04  0.33960257898E+04 0.  0.
        4    1    3    3  502    0  0.49207088357E+03 -0.58840999459E+03  0.12688786507E+04  0.14827052031E+04  0.12699999809E+01 0. -1.
       -4    1    3    3    0  502 -0.49207088357E+03  0.58840999459E+03 -0.17973646213E+04  0.19541958118E+04  0.12699999809E+01 0.  1.
</event>
<event>
 5   0  0.6584420E-08  0.3399931E+04  0.7818609E-02  0.8137923E-01
       -1   -1    0    0    0  501  0.00000000000E+00  0.00000000000E+00  0.16529269287E+04  0.16529269287E+04  0.50400001928E-02 0. -1.
        1   -1    0    0  501    0  0.00000000000E+00  0.00000000000E+00 -0.17483425728E+04  0.17483425728E+04  0.50400001928E-02 0.  1.
    10030    2    1    2    0    0  0.00000000000E+00  0.00000000000E+00 -0.95415644115E+02  0.34012695015E+04  0.33999308929E+04 0.  0.
        1    1    3    3  502    0  0.12766928265E+04 -0.79904633879E+03  0.74093173503E+03  0.16785110845E+04  0.50400001928E-02 0. -1.
       -1    1    3    3    0  502 -0.12766928265E+04  0.79904633879E+03 -0.83634737914E+03  0.17227584170E+04  0.50400001928E-02 0.  1.
</event>
<event>
 5   0  0.1986613E-07  0.3402181E+04  0.7818609E-02  0.8137371E-01
       -2   -1    0    0    0  501  0.00000000000E+00  0.00000000000E+00  0.26352596839E+04  0.26352596839E+04  0.25500000920E-02 0.  1.
        2   -1    0    0  501    0  0.00000000000E+00  0.00000000000E+00 -0.10980736079E+04  0.10980736079E+04  0.25500000920E-02 0. -1.
    10030    2    1    2    0    0  0.00000000000E+00  0.00000000000E+00  0.15371860760E+04  0.37333332918E+04  0.34021811292E+04 0.  0.
        5    1    3    3  502    0 -0.75218905420E+03 -0.15155040440E+04  0.96225371050E+03  0.19464057064E+04  0.46999998093E+01 0.  1.
       -5    1    3    3    0  502  0.75218905420E+03  0.15155040440E+04  0.57493236546E+03  0.17869275854E+04  0.46999998093E+01 0. -1.
</event>
<event>
 5   0  0.1986613E-07  0.3396654E+04  0.7818609E-02  0.8138728E-01
        2   -1    0    0  501    0  0.00000000000E+00  0.00000000000E+00  0.12002523191E+04  0.12002523191E+04  0.25500000920E-02 0. -1.
       -2   -1    0    0    0  501  0.00000000000E+00  0.00000000000E+00 -0.24030905703E+04  0.24030905703E+04  0.25500000920E-02 0.  1.
    10030    2    1    2    0    0  0.00000000000E+00  0.00000000000E+00 -0.12028382512E+04  0.36033428894E+04  0.33966542538E+04 0.  0.
        5    1    3    3  502    0 -0.12257113574E+03 -0.38250195133E+03 -0.23519710626E+04  0.23860262772E+04  0.46999998093E+01 0.  1.
       -5    1    3    3    0  502  0.12257113574E+03  0.38250195133E+03  0.11491328114E+04  0.12173166122E+04  0.46999998093E+01 0. -1.
</event>
<event>
 5   0  0.1986613E-07  0.3394152E+04  0.7818609E-02  0.8139343E-01
       -2   -1    0    0    0  501  0.00000000000E+00  0.00000000000E+00  0.14397827926E+04  0.14397827926E+04  0.25500000920E-02 0.  1.
        2   -1    0    0  501    0  0.00000000000E+00  0.00000000000E+00 -0.20003486944E+04  0.20003486944E+04  0.25500000920E-02 0. -1.
    10030    2    1    2    0    0  0.00000000000E+00  0.00000000000E+00 -0.56056590171E+03  0.34401314870E+04  0.33941524005E+04 0.  0.
        5    1    3    3  502    0  0.15279069913E+04  0.58954546737E+03  0.17069619047E+03  0.16465791544E+04  0.46999998093E+01 0.  1.
       -5    1    3    3    0  502 -0.15279069913E+04 -0.58954546737E+03 -0.73126209219E+03  0.17935523326E+04  0.46999998093E+01 0. -1.
</event>
<event>
 5   0  0.1928004E-07  0.3485838E+04  0.7818609E-02  0.8117154E-01
        2   -1    0    0  501    0  0.00000000000E+00  0.00000000000E+00  0.21358694163E+04  0.21358694163E+04  0.25500000920E-02 0.  1.
       -2   -1    0    0    0  501  0.00000000000E+00  0.00000000000E+00 -0.14222627344E+04  0.14222627344E+04  0.25500000920E-02 0. -1.
    10030    2    1    2    0    0  0.00000000000E+00  0.00000000000E+00  0.71360668185E+03  0.35581321507E+04  0.34858384796E+04 0.  0.
        2    1    3    3  502    0 -0.13291434530E+04 -0.95563372954E+03  0.96746594565E+03  0.19015384560E+04  0.25500000920E-02 0.  1.
       -2    1    3    3    0  502  0.13291434530E+04  0.95563372954E+03 -0.25385926380E+03  0.16565936947E+04  0.25500000920E-02 0. -1.
</event>
<event>
 5   0  0.6311750E-08  0.3410421E+04  0.7818609E-02  0.8135353E-01
       -1   -1    0    0    0  501  0.00000000000E+00  0.00000000000E+00  0.11361087253E+04  0.11361087253E+04  0.50400001928E-02 0.  1.
        1   -1    0    0  501    0  0.00000000000E+00  0.00000000000E+00 -0.25593876803E+04  0.25593876803E+04  0.50400001928E-02 0. -1.
    10030    2    1    2    0    0  0.00000000000E+00  0.00000000000E+00 -0.14232789550E+04  0.36954964056E+04  0.34104208977E+04 0.  0.
        4    1    3    3  502    0 -0.10937461652E+04 -0.89534560169E+03 -0.17452138716E+04  0.22458177778E+04  0.12699999809E+01 0. -1.
       -4    1    3    3    0  502  0.10937461652E+04  0.89534560169E+03  0.32193491667E+03  0.14496786278E+04  0.12699999809E+01 0.  1.
</event>
<event>
 5   0  0.1970449E-07  0.3401256E+04  0.7818609E-02  0.8137598E-01
       -2   -1    0    0    0  501  0.00000000000E+00  0.00000000000E+00  0.14417641787E+04  0.14417641787E+04  0.25500000920E-02 0. -1.
        2   -1    0    0  501    0  0.00000000000E+00  0.00000000000E+00 -0.20059699076E+04  0.20059699076E+04  0.25500000920E-02 0.  1.
    10030    2    1    2    0    0  0.00000000000E+00  0.00000000000E+00 -0.56420572889E+03  0.34477340863E+04  0.34012559777E+04 0.  0.
        1    1    3    3  502    0 -0.33310596490E+03  0.52756020495E+03  0.13215574941E+04  0.14614354464E+04  0.50400001928E-02 0. -1.
       -1    1    3    3    0  502  0.33310596490E+03 -0.52756020495E+03 -0.18857632230E+04  0.19862986399E+04  0.50400001928E-02 0.  1.
</event>
<event>
 5   0  0.1986613E-07  0.3402397E+04  0.7818609E-02  0.8137318E-01
       -2   -1    0    0    0  501  0.00000000000E+00  0.00000000000E+00  0.18331379004E+04  0.18331379004E+04  0.25500000920E-02 0.  1.
        2   -1    0    0  501    0  0.00000000000E+00  0.00000000000E+00 -0.15787557825E+04  0.15787557825E+04  0.25500000920E-02 0. -1.
    10030    2    1    2    0    0  0.00000000000E+00  0.00000000000E+00  0.25438211787E+03  0.34118936829E+04  0.34023974256E+04 0.  0.
        5    1    3    3  502    0 -0.44751538176E+03  0.11360626868E+04 -0.10606599235E+04  0.16173836924E+04  0.46999998093E+01 0. -1.
       -5    1    3    3    0  502  0.44751538176E+03 -0.11360626868E+04  0.13150420413E+04  0.17945099905E+04  0.46999998093E+01 0.  1.
</event>
<event>
 5   0  0.1963852E-07  0.3397447E+04  0.7818609E-02  0.8138533E-01
        2   -1    0    0  501    0  0.00000000000E+00  0.00000000000E+00  0.21478061780E+04  0.21478061780E+04  0.25500000920E-02 0.  1.
       -2   -1    0    0    0  501  0.00000000000E+00  0.00000000000E+00 -0.13435393637E+04  0.13435393637E+04  0.25500000920E-02 0. -1.
    10030    2    1    2    0    0  0.00000000000E+00  0.00000000000E+00  0.80426681426E+03  0.34913455417E+04  0.33974473628E+04 0.  0.
        4    1    3    3  502    0  0.15046619911E+04 -0.78184284469E+03  0.50680422152E+03  0.17697847533E+04  0.12699999809E+01 0. -1.
       -4    1    3    3    0  502 -0.15046619911E+04  0.78184284469E+03  0.29746259274E+03  0.17215607884E+04  0.12699999809E+01 0.  1.
</event>
<event>
 5   0  0.1897313E-07  0.3318750E+04  0.7818609E-02  0.8158141E-01
        2   -1    0    0  501    0  0.00000000000E+00  0.00000000000E+00  0.17429098828E+04  0.17429098828E+04  0.25500000920E-02 0. -1.
       -2   -1    0    0    0  501  0.00000000000E+00  0.00000000000E+00 -0.15798437451E+04  0.15798437451E+04  0.25500000920E-02 0.  1.
    10030    2    1    2    0    0  0.00000000000E+00  0.00000000000E+00  0.16306613773E+03  0.33227536279E+04  0.33187499313E+04 0.  0.
        3    1    3    3  502    0  0.29711831140E+03  0.71271158821E+03 -0.13890098090E+04  0.15892090356E+04  0.10100000352E+00 0.  1.
       -3    1    3    3    0  502 -0.29711831140E+03 -0.71271158821E+03  0.15520759468E+04  0.17335445923E+04  0.10100000352E+00 0. -1.
</event>
<event>
 5   0  0.1986613E-07  0.3402444E+04  0.7818609E-02  0.8137307E-01
        2   -1    0    0  501    0  0.00000000000E+00  0.00000000000E+00  0.22558722879E+04  0.22558722879E+04  0.25500000920E-02 0. -1.
       -2   -1    0    0    0  501  0.00000000000E+00  0.00000000000E+00 -0.12829431446E+04  0.12829431447E+04  0.25500000920E-02 0.  1.
    10030    2    1    2    0    0  0.00000000000E+00  0.00000000000E+00  0.97292914328E+03  0.35388154326E+04  0.34024437612E+04 0.  0.
        5    1    3    3  502    0  0.66465330310E+02 -0.92020758566E+03  0.19730646173E+04  0.21781197659E+04  0.46999998093E+01 0. -1.
       -5    1    3    3    0  502 -0.66465330310E+02  0.92020758566E+03 -0.10001354740E+04  0.13606956666E+04  0.46999998093E+01 0.  1.
</event>
<event>
 5   0  0.6311750E-08  0.3403288E+04  0.7818609E-02  0.8137100E-01
       -1   -1    0    0    0  501  0.00000000000E+00  0.00000000000E+00  0.14411404652E+04  0.14411404652E+04  0.50400001928E-02 0.  1.
        1   -1    0    0  501    0  0.00000000000E+00  0.00000000000E+00 -0.20092362643E+04  0.20092362643E+04  0.50400001928E-02 0. -1.
    10030    2    1    2    0    0  0.00000000000E+00  0.00000000000E+00 -0.56809579910E+03  0.34503767296E+04  0.34032876368E+04 0.  0.
        4    1    3    3  502    0  0.65301140143E+03 -0.11458109788E+04  0.80613659828E+03  0.15456922454E+04  0.12699999809E+01 0.  1.
       -4    1    3    3    0  502 -0.65301140143E+03  0.11458109788E+04 -0.13742323974E+04  0.19046844842E+04  0.12699999809E+01 0. -1.
</event>
<event>
 5   0  0.6367111E-08  0.3395026E+04  0.7818609E-02  0.8139128E-01
        1   -1    0    0  501    0  0.00000000000E+00  0.00000000000E+00  0.28116897233E+04  0.28116897233E+04  0.50400001928E-02 0.  1.
       -1   -1    0    0    0  501  0.00000000000E+00  0.00000000000E+00 -0.10248467224E+04  0.10248467224E+04  0.50400001928E-02 0. -1.
    10030    2    1    2    0    0  0.00000000000E+00  0.00000000000E+00  0.17868430009E+04  0.38365364458E+04  0.33950263607E+04 0.  0.
        3    1    3    3  502    0 -0.15733189602E+04 -0.62223734289E+03  0.73749509116E+03  0.18456464670E+04  0.10100000352E+00 0. -1.
       -3    1    3    3    0  502  0.15733189602E+04  0.62223734289E+03  0.10493479098E+04  0.19908899787E+04  0.10100000352E+00 0.  1.
</event>
<event>
 5   0  0.6341535E-08  0.3394246E+04  0.7818609E-02  0.8139320E-01
       -1   -1    0    0    0  501  0.00000000000E+00  0.00000000000E+00  0.14835078301E+04  0.14835078301E+04  0.50400001928E-02 0. -1.
        1   -1    0    0  501    0  0.00000000000E+00  0.00000000000E+00 -0.19414976945E+04  0.19414976945E+04  0.50400001928E-02 0.  1.
    10030    2    1    2    0    0  0.00000000000E+00  0.00000000000E+00 -0.45798986439E+03  0.34250055246E+04  0.33942463269E+04 0.  0.
        5    1    3    3  502    0 -0.15327567698E+04  0.57747459870E+03  0.21931119895E+03  0.16525555118E+04  0.46999998093E+01 0. -1.
       -5    1    3    3    0  502  0.15327567698E+04 -0.57747459870E+03 -0.67730106334E+03  0.17724500128E+04  0.46999998093E+01 0.  1.
</event>
<event>
 5   0  0.1970449E-07  0.3394248E+04  0.7818609E-02  0.8139320E-01
       -2   -1    0    0    0  501  0.00000000000E+00  0.00000000000E+00  0.11299168762E+04  0.11299168762E+04  0.25500000920E-02 0. -1.
        2   -1    0    0  501    0  0.00000000000E+00  0.00000000000E+00 -0.25490633241E+04  0.25490633241E+04  0.25500000920E-02 0.  1.
    10030    2    1    2    0    0  0.00000000000E+00  0.00000000000E+00 -0.14191464479E+04  0.36789802004E+04  0.33942478805E+04 0.  0.
        1    1    3    3  502    0 -0.14371058031E+04  0.27506952219E+03 -0.16415225339E+04  0.21989844385E+04  0.50400001928E-02 0. -1.
       -1    1    3    3    0  502  0.14371058031E+04 -0.27506952219E+03  0.22237608604E+03  0.14799957618E+04  0.50400001928E-02 0.  1.
</event>
<event>
 5   0  0.1986613E-07  0.3401126E+04  0.7818609E-02  0.8137630E-01
       -2   -1    0    0    0  501  0.00000000000E+00  0.00000000000E+00  0.12698371607E+04  0.12698371607E+04  0.25500000920E-02 0. -1.
        2   -1    0    0  501    0  0.00000000000E+00  0.00000000000E+00 -0.22773904903E+04  0.22773904903E+04  0.25500000920E-02 0.  1.
    10030    2    1    2    0    0  0.00000000000E+00  0.00000000000E+00 -0.10075533296E+04  0.35472276510E+04  0.34011263275E+04 0.  0.
        5    1    3    3  502    0 -0.14703288714E+04  0.16811033763E+02  0.38716933210E+03  0.15205498290E+04  0.46999998093E+01 0. -1.
       -5    1    3    3    0  502  0.14703288714E+04 -0.16811033763E+02 -0.13947226617E+04  0.20266778219E+04  0.46999998093E+01 0.  1.
</event>
<event>
 5   0  0.6341535E-08  0.3399814E+04  0.7818609E-02  0.8137952E-01
        1   -1    0    0  501    0  0.00000000000E+00  0.00000000000E+00  0.17401795835E+04  0.17401795835E+04  0.50400001928E-02 0. -1.
       -1   -1    0    0    0  501  0.00000000000E+00  0.00000000000E+00 -0.16605667644E+04  0.16605667644E+04  0.50400001928E-02 0.  1.
    10030    2    1    2    0    0  0.00000000000E+00  0.00000000000E+00  0.79612819112E+02  0.34007463479E+04  0.33998143364E+04 0.  0.
        5    1    3    3  502    0  0.11159929108E+04  0.32695954823E+03 -0.12004204053E+04  0.16713389729E+04  0.46999998093E+01 0.  1.
       -5    1    3    3    0  502 -0.11159929108E+04 -0.32695954823E+03  0.12800332244E+04  0.17294073750E+04  0.46999998093E+01 0. -1.
</event>
<event>
 5   0  0.6584420E-08  0.3408530E+04  0.7818609E-02  0.8135816E-01
       -1   -1    0    0    0  501  0.00000000000E+00  0.00000000000E+00  0.10921786271E+04  0.10921786271E+04  0.50400001928E-02 0. -1.
        1   -1    0    0  501    0  0.00000000000E+00  0.00000000000E+00 -0.26593806443E+04  0.26593806443E+04  0.50400001928E-02 0.  1.
    10030    2    1    2    0    0  0.00000000000E+00  0.00000000000E+00 -0.15672020172E+04  0.37515592715E+04  0.34085297130E+04 0.  0.
        1    1    3    3  502    0  0.14109152599E+04  0.94663030640E+03 -0.63705523551E+03  0.18145606026E+04  0.50400001928E-02 0.  1.
       -1    1    3    3    0  502 -0.14109152599E+04 -0.94663030640E+03 -0.93014678168E+03  0.19369986688E+04  0.50400001928E-02 0. -1.
</event>
<event>
 5   0  0.1928004E-07  0.3399756E+04  0.7818609E-02  0.8137966E-01
       -2   -1    0    0    0  501  0.00000000000E+00  0.00000000000E+00  0.16844260177E+04  0.16844260177E+04  0.25500000920E-02 0. -1.
        2   -1    0    0  501    0  0.00000000000E+00  0.00000000000E+00 -0.17154714572E+04  0.17154714572E+04  0.25500000920E-02 0.  1.
    10030    2    1    2    0    0  0.00000000000E+00  0.00000000000E+00 -0.31045439542E+02  0.33998974749E+04  0.33997557295E+04 0.  0.
        2    1    3    3  502    0 -0.56337258021E+03  0.63522736919E+03  0.14571833341E+04  0.16865010358E+04  0.25500000920E-02 0. -1.
       -2    1    3    3    0  502  0.56337258021E+03 -0.63522736919E+03 -0.14882287736E+04  0.17133964390E+04  0.25500000920E-02 0.  1.
</event>
<event>
 5   0  0.6584420E-08  0.3400288E+04  0.7818609E-02  0.8137836E-01
       -1   -1    0    0    0  501  0.00000000000E+00  0.00000000000E+00  0.11839407194E+04  0.11839407195E+04  0.50400001928E-02 0.  1.
        1   -1    0    0  501    0  0.00000000000E+00  0.00000000000E+00 -0.24414137009E+04  0.24414137009E+04  0.50400001928E-02 0. -1.
    10030    2    1    2    0    0  0.00000000000E+00  0.00000000000E+00 -0.12574729814E+04  0.36253544203E+04  0.34002876899E+04 0.  0.
        1    1    3    3  502    0 -0.71256094687E+03 -0.10372287504E+04 -0.18476037269E+04  0.22354476320E+04  0.50400001928E-02 0. -1.
       -1    1    3    3    0  502  0.71256094687E+03  0.10372287504E+04  0.59013074546E+03  0.13899067884E+04  0.50400001928E-02 0.  1.
</event>
<event>
 5   0  0.1963852E-07  0.3396291E+04  0.7818609E-02  0.8138817E-01
        2   -1    0    0  501    0  0.00000000000E+00  0.00000000000E+00  0.18961871302E+04  0.18961871302E+04  0.25500000920E-02 0. -1.
       -2   -1    0    0    0  501  0.00000000000E+00  0.00000000000E+00 -0.15207881720E+04  0.15207881720E+04  0.25500000920E-02 0.  1.
    10030    2    1    2    0    0  0.00000000000E+00  0.00000000000E+00  0.37539895819E+03  0.34169753022E+04  0.33962914831E+04 0.  0.
        4    1    3    3  502    0 -0.12640562523E+04 -0.10578479190E+04 -0.22322019042E+03  0.16633428075E+04  0.12699999809E+01 0.  1.
       -4    1    3    3    0  502  0.12640562523E+04  0.10578479190E+04  0.59861914860E+03  0.17536324948E+04  0.12699999809E+01 0. -1.
</event>
<event>
 5   0  0.1970449E-07  0.3394783E+04  0.7818609E-02  0.8139188E-01
       -2   -1    0    0    0  501  0.00000000000E+00  0.00000000000E+00  0.15150821386E+04  0.15150821386E+04  0.25500000920E-02 0.  1.
        2   -1    0    0  501    0  0.00000000000E+00  0.00000000000E+00 -0.19016383583E+04  0.19016383583E+04  0.25500000920E-02 0. -1.
    10030    2    1    2    0    0  0.00000000000E+00  0.00000000000E+00 -0.38655621979E+03  0.34167204969E+04  0.33947832394E+04 0.  0.
        1    1    3    3  502    0 -0.12948042150E+04  0.10294320689E+04 -0.57638200402E+03  0.17517033294E+04  0.50400001928E-02 0. -1.
       -1    1    3    3    0  502  0.12948042150E+04 -0.10294320689E+04  0.18982578423E+03  0.16650171675E+04  0.50400001928E-02 0.  1.
</event>
<event>
 5   0  0.1986613E-07  0.3414175E+04  0.7818609E-02  0.8134436E-01
        2   -1    0    0  501    0  0.00000000000E+00  0.00000000000E+00  0.22116492315E+04  0.22116492315E+04  0.25500000920E-02 0.  1.
       -2   -1    0    0    0  501  0.00000000000E+00  0.00000000000E+00 -0.13176353213E+04  0.13176353213E+04  0.25500000920E-02 0. -1.
    10030    2    1    2    0    0  0.00000000000E+00  0.00000000000E+00  0.89401391014E+03  0.35292845528E+04  0.34141746562E+04 0.  0.
        5    1    3    3  502    0  0.16306234300E+04 -0.47852478614E+03  0.61434855408E+03  0.18070320908E+04  0.46999998093E+01 0. -1.
       -5    1    3    3    0  502 -0.16306234300E+04  0.47852478614E+03  0.27966535606E+03  0.17222524620E+04  0.46999998093E+01 0.  1.
</event>
<event>
 5   0  0.6584420E-08  0.3401191E+04  0.7818609E-02  0.8137614E-01
       -1   -1    0    0    0  501  0.00000000000E+00  0.00000000000E+00  0.25709416104E+04  0.25709416104E+04  0.50400001928E-02 0.  1.
        1   -1    0    0  501    0  0.00000000000E+00  0.00000000000E+00 -0.11248891586E+04  0.11248891587E+04  0.50400001928E-02 0. -1.
    10030    2    1    2    0    0  0.00000000000E+00  0.00000000000E+00  0.14460524517E+04  0.36958307690E+04  0.34011905827E+04 0.  0.
        1    1    3    3  502    0  0.78073884519E+03 -0.43545851959E+03 -0.84896405623E+03  0.12328492347E+04  0.50400001928E-02 0. -1.
       -1    1    3    3    0  502 -0.78073884519E+03  0.43545851959E+03  0.22950165080E+04  0.24629815343E+04  0.50400001928E-02 0.  1.
</event>
<event>
 5   0  0.6311750E-08  0.3413182E+04  0.7818609E-02  0.8134679E-01
        3   -1    0    0  501    0  0.00000000000E+00  0.00000000000E+00  0.31992284820E+04  0.31992284836E+04  0.10100000352E+00 0.  1.
       -3   -1    0    0    0  501  0.00000000000E+00  0.00000000000E+00 -0.91036113077E+03  0.91036113638E+03  0.10100000352E+00 0. -1.
    10030    2    1    2    0    0  0.00000000000E+00  0.00000000000E+00  0.22888673512E+04  0.41095896200E+04  0.34131822531E+04 0.  0.
        4    1    3    3  502    0 -0.58885940076E+03  0.11357586647E+04  0.25043792055E+04  0.28122268679E+04  0.12699999809E+01 0.  1.
       -4    1    3    3    0  502  0.58885940076E+03 -0.11357586647E+04 -0.21551185432E+03  0.12973627521E+04  0.12699999809E+01 0. -1.
</event>
<event>
 5   0  0.1963852E-07  0.3363776E+04  0.7818609E-02  0.8146855E-01
       -2   -1    0    0    0  501  0.00000000000E+00  0.00000000000E+00  0.19333768234E+04  0.19333768234E+04  0.25500000920E-02 0.  1.
        2   -1    0    0  501    0  0.00000000000E+00  0.00000000000E+00 -0.14631122423E+04  0.14631122423E+04  0.25500000920E-02 0. -1.
    10030    2    1    2    0    0  0.00000000000E+00  0.00000000000E+00  0.47026458104E+03  0.33964890657E+04  0.33637760326E+04 0.  0.
        4    1    3    3  502    0 -0.25287740866E+03 -0.75156388335E+03 -0.12625151782E+04  0.14908861266E+04  0.12699999809E+01 0. -1.
       -4    1    3    3    0  502  0.25287740866E+03  0.75156388335E+03  0.17327797592E+04  0.19056029391E+04  0.12699999809E+01 0.  1.
</event>
<event>
 5   0  0.6311750E-08  0.3401586E+04  0.7818609E-02  0.8137517E-01
       -1   -1    0    0    0  501  0.00000000000E+00  0.00000000000E+00  0.13387667757E+04  0.13387667757E+04  0.50400001928E-02 0. -1.
        1   -1    0    0  501    0  0.00000000000E+00  0.00000000000E+00 -0.21607173049E+04  0.21607173049E+04  0.50400001928E-02 0.  1.
    10030    2    1    2    0    0  0.00000000000E+00  0.00000000000E+00 -0.82195052919E+03  0.34994840806E+04  0.34015858298E+04 0.  0.
        4    1    3    3  502    0  0.41454206020E+03 -0.67087652413E+03 -0.19612532948E+04  0.21138676708E+04  0.12699999809E+01 0.  1.
       -4    1    3    3    0  502 -0.41454206020E+03  0.67087652413E+03  0.11393027656E+04  0.13856164098E+04  0.12699999809E+01 0. -1.
</event>
<event>
 5   0  0.1963852E-07  0.3382672E+04  0.7818609E-02  0.8142172E-01
        2   -1    0    0  501    0  0.00000000000E+00  0.00000000000E+00  0.24462449363E+04  0.24462449363E+04  0.25500000920E-02 0.  1.
       -2   -1    0    0    0  501  0.00000000000E+00  0.00000000000E+00 -0.11693911925E+04  0.11693911925E+04  0.25500000920E-02 0. -1.
    10030    2    1    2    0    0  0.00000000000E+00  0.00000000000E+00  0.12768537439E+04  0.36156361288E+04  0.33826718925E+04 0.  0.
        4    1    3    3  502    0  0.14845552136E+04  0.57646501743E+03  0.12472133235E+04  0.20228096266E+04  0.12699999809E+01 0.  1.
       -4    1    3    3    0  502 -0.14845552136E+04 -0.57646501743E+03  0.29640420398E+02  0.15928265021E+04  0.12699999809E+01 0. -1.
</event>
<event>
 5   0  0.6788600E-08  0.3407062E+04  0.7818609E-02  0.8136175E-01
       -1   -1    0    0    0  501  0.00000000000E+00  0.00000000000E+00  0.14874211357E+04  0.14874211358E+04  0.50400001928E-02 0.  1.
        1   -1    0    0  501    0  0.00000000000E+00  0.00000000000E+00 -0.19510394661E+04  0.19510394661E+04  0.50400001928E-02 0. -1.
    10030    2    1    2    0    0  0.00000000000E+00  0.00000000000E+00 -0.46361833039E+03  0.34384606019E+04  0.34070616893E+04 0.  0.
        2    1    3    3  502    0  0.15975209990E+04 -0.27789820658E+03 -0.75884461628E+03  0.17902921290E+04  0.25500000920E-02 0. -1.
       -2    1    3    3    0  502 -0.15975209990E+04  0.27789820658E+03  0.29522628589E+03  0.16481684729E+04  0.25500000920E-02 0.  1.
</event>
<event>
 5   0  0.1970449E-07  0.3402363E+04  0.7818609E-02  0.8137327E-01
        2   -1    0    0  501    0  0.00000000000E+00  0.00000000000E+00  0.25382892023E+04  0.25382892023E+04  0.25500000920E-02 0.  1.
       -2   -1    0    0    0  501  0.00000000000E+00  0.00000000000E+00 -0.11401454053E+04  0.11401454053E+04  0.25500000920E-02 0. -1.
    10030    2    1    2    0    0  0.00000000000E+00  0.00000000000E+00  0.13981437971E+04  0.36784346076E+04  0.34023631618E+04 0.  0.
        1    1    3    3  502    0  0.95157654921E+03  0.13424358957E+03 -0.81857429497E+03  0.12623720318E+04  0.50400001928E-02 0. -1.
       -1    1    3    3    0  502 -0.95157654921E+03 -0.13424358957E+03  0.22167180920E+04  0.24160625757E+04  0.50400001928E-02 0.  1.
</event>
<event>
 5   0  0.6367111E-08  0.3331753E+04  0.7818609E-02  0.8154863E-01
        1   -1    0    0  501    0  0.00000000000E+00  0.00000000000E+00  0.25790378070E+04  0.25790378070E+04  0.50400001928E-02 0.  1.
       -1   -1    0    0    0  501  0.00000000000E+00  0.00000000000E+00 -0.10760385604E+04  0.10760385604E+04  0.50400001928E-02 0. -1.
    10030    2    1    2    0    0  0.00000000000E+00  0.00000000000E+00  0.15029992466E+04  0.36550763675E+04  0.33317527695E+04 0.  0.
        3    1    3    3  502    0 -0.24604698638E+03 -0.43882835166E+02 -0.10553537644E+04  0.10845443288E+04  0.10100000352E+00 0. -1.
       -3    1    3    3    0  502  0.24604698638E+03  0.43882835166E+02  0.25583530110E+04  0.25705320387E+04  0.10100000352E+00 0.  1.
</event>
<event>
 5   0  0.6584420E-08  0.3400175E+04  0.7818609E-02  0.8137863E-01
       -1   -1    0    0    0  501  0.00000000000E+00  0.00000000000E+00  0.18903778059E+04  0.18903778059E+04  0.50400001928E-02 0. -1.
        1   -1    0    0  501    0  0.00000000000E+00  0.00000000000E+00 -0.15289522851E+04  0.15289522851E+04  0.50400001928E-02 0.  1.
    10030    2    1    2    0    0  0.00000000000E+00  0.00000000000E+00  0.36142552086E+03  0.34193300910E+04  0.34001749755E+04 0.  0.
        1    1    3    3  502    0 -0.15782342235E+04 -0.36335074433E+02 -0.45383641420E+03  0.16425927653E+04  0.50400001928E-02 0.  1.
       -1    1    3    3    0  502  0.15782342235E+04  0.36335074433E+02  0.81526193506E+03  0.17767373257E+04  0.50400001928E-02 0. -1.
</event>
<event>
 5   0  0.6367111E-08  0.3389917E+04  0.7818609E-02  0.8140385E-01
        1   -1    0    0  501    0  0.00000000000E+00  0.00000000000E+00  0.13716619405E+04  0.13716619405E+04  0.50400001928E-02 0. -1.
       -1   -1    0    0    0  501  0.00000000000E+00  0.00000000000E+00 -0.20944549450E+04  0.20944549450E+04  0.50400001928E-02 0.  1.
    10030    2    1    2    0    0  0.00000000000E+00  0.00000000000E+00 -0.72279300448E+03  0.34661168856E+04  0.33899168923E+04 0.  0.
        3    1    3    3  502    0  0.11128491074E+04 -0.10841555286E+04 -0.10541645171E+04  0.18775220865E+04  0.10100000352E+00 0.  1.
       -3    1    3    3    0  502 -0.11128491074E+04  0.10841555286E+04  0.33137151258E+03  0.15885947991E+04  0.10100000352E+00 0. -1.
</event>
<event>
 5   0  0.1897313E-07  0.3398888E+04  0.7818609E-02  0.8138179E-01
        2   -1    0    0  501    0  0.00000000000E+00  0.00000000000E+00  0.20645163767E+04  0.20645163767E+04  0.25500000920E-02 0. -1.
       -2   -1    0    0    0  501  0.00000000000E+00  0.00000000000E+00 -0.13989281608E+04  0.13989281608E+04  0.25500000920E-02 0.  1.
    10030    2    1    2    0    0  0.00000000000E+00  0.00000000000E+00  0.66558821593E+03  0.34634445376E+04  0.33988881111E+04 0.  0.
        3    1    3    3  502    0  0.14155601750E+04 -0.74372502450E+03  0.91920029812E+03  0.18444150074E+04  0.10100000352E+00 0.  1.
       -3    1    3    3    0  502 -0.14155601750E+04  0.74372502450E+03 -0.25361208219E+03  0.16190295302E+04  0.10100000352E+00 0. -1.
</event>
<event>
 5   0  0.1928004E-07  0.3398621E+04  0.7818609E-02  0.8138245E-01
        2   -1    0    0  501    0  0.00000000000E+00  0.00000000000E+00  0.19820859697E+04  0.19820859697E+04  0.25500000920E-02 0.  1.
       -2   -1    0    0    0  501  0.00000000000E+00  0.00000000000E+00 -0.14568774731E+04  0.14568774731E+04  0.25500000920E-02 0. -1.
    10030    2    1    2    0    0  0.00000000000E+00  0.00000000000E+00  0.52520849652E+03  0.34389634428E+04  0.33986211316E+04 0.  0.
        2    1    3    3  502    0  0.10048819598E+04  0.17487495785E+03  0.16378871359E+04  0.19295189229E+04  0.25500000920E-02 0.  1.
       -2    1    3    3    0  502 -0.10048819598E+04 -0.17487495785E+03 -0.11126786394E+04  0.15094445199E+04  0.25500000920E-02 0. -1.
</event>
<event>
 5   0  0.6311750E-08  0.3404425E+04  0.7818609E-02  0.8136821E-01
       -1   -1    0    0    0  501  0.00000000000E+00  0.00000000000E+00  0.17521102295E+04  0.17521102295E+04  0.50400001928E-02 0. -1.
        1   -1    0    0  501    0  0.00000000000E+00  0.00000000000E+00 -0.16537361670E+04  0.16537361670E+04  0.50400001928E-02 0.  1.
    10030    2    1    2    0    0  0.00000000000E+00  0.00000000000E+00  0.98374062478E+02  0.34058463965E+04  0.34044253876E+04 0.  0.
        4    1    3    3  502    0 -0.35204506144E+03 -0.14565281883E+04 -0.75868725021E+03  0.16795886535E+04  0.12699999809E+01 0.  1.
       -4    1    3    3    0  502  0.35204506144E+03  0.14565281883E+04  0.85706131269E+03  0.17262577429E+04  0.12699999809E+01 0. -1.
</event>
<event>
 5   0  0.1970449E-07  0.3395627E+04  0.7818609E-02  0.8138980E-01
       -2   -1    0    0    0  501  0.00000000000E+00  0.00000000000E+00  0.11484568721E+04  0.11484568721E+04  0.25500000920E-02 0. -1.
        2   -1    0    0  501    0  0.00000000000E+00  0.00000000000E+00 -0.25099509923E+04  0.25099509923E+04  0.25500000920E-02 0.  1.
    10030    2    1    2    0    0  0.00000000000E+00  0.00000000000E+00 -0.13614941202E+04  0.36584078644E+04  0.33956268733E+04 0.  0.
        1    1    3    3  502    0  0.11224131388E+04  0.11617561838E+04 -0.12437601903E+04  0.20387319823E+04  0.50400001928E-02 0.  1.
       -1    1    3    3    0  502 -0.11224131388E+04 -0.11617561838E+04 -0.11773392990E+03  0.16196758821E+04  0.50400001928E-02 0. -1.
</event>
<event>
 5   0  0.1986613E-07  0.3381111E+04  0.7818609E-02  0.8142558E-01
        2   -1    0    0  501    0  0.00000000000E+00  0.00000000000E+00  0.24250683736E+04  0.24250683736E+04  0.25500000920E-02 0.  1.
       -2   -1    0    0    0  501  0.00000000000E+00  0.00000000000E+00 -0.11785143835E+04  0.11785143835E+04  0.25500000920E-02 0. -1.
    10030    2    1    2    0    0  0.00000000000E+00  0.00000000000E+00  0.12465539900E+04  0.36035827571E+04  0.33811110359E+04 0.  0.
        5    1    3    3  502    0  0.26078009336E+03  0.24627736155E+03 -0.11374842541E+04  0.11927075560E+04  0.46999998093E+01 0. -1.
       -5    1    3    3    0  502 -0.26078009336E+03 -0.24627736155E+03  0.23840382441E+04  0.24108752011E+04  0.46999998093E+01 0.  1.
</event>
<event>
 5   0  0.6311750E-08  0.3400268E+04  0.7818609E-02  0.8137841E-01
        1   -1    0    0  501    0  0.00000000000E+00  0.00000000000E+00  0.20449799584E+04  0.20449799584E+04  0.50400001928E-02 0.  1.
       -1   -1    0    0    0  501  0.00000000000E+00  0.00000000000E+00 -0.14134392375E+04  0.14134392375E+04  0.50400001928E-02 0. -1.
    10030    2    1    2    0    0  0.00000000000E+00  0.00000000000E+00  0.63154072088E+03  0.34584191959E+04  0.34002675854E+04 0.  0.
        4    1    3    3  502    0  0.50275051982E+03  0.16177082316E+04  0.46215990884E+03  0.17559417422E+04  0.12699999809E+01 0. -1.
       -4    1    3    3    0  502 -0.50275051982E+03 -0.16177082316E+04  0.16938081204E+03  0.17024774537E+04  0.12699999809E+01 0.  1.
</event>
<event>
 5   0  0.1970449E-07  0.3402470E+04  0.7818609E-02  0.8137300E-01
        2   -1    0    0  501    0  0.00000000000E+00  0.00000000000E+00  0.16832783128E+04  0.16832783128E+04  0.25500000920E-02 0.  1.
       -2   -1    0    0    0  501  0.00000000000E+00  0.00000000000E+00 -0.17193828780E+04  0.17193828780E+04  0.25500000920E-02 0. -1.
    10030    2    1    2    0    0  0.00000000000E+00  0.00000000000E+00 -0.36104565187E+02  0.34026611908E+04  0.34024696383E+04 0.  0.
        1    1    3    3  502    0 -0.84734067810E+03 -0.14645248655E+04 -0.19520796777E+03  0.17032103385E+04  0.50400001928E-02 0.  1.
       -1    1    3    3    0  502  0.84734067810E+03  0.14645248655E+04  0.15910340259E+03  0.16994508523E+04  0.50400001928E-02 0. -1.
</event>
<event>
 5   0  0.6584420E-08  0.3381083E+04  0.7818609E-02  0.8142565E-01
        1   -1    0    0  501    0  0.00000000000E+00  0.00000000000E+00  0.32802128402E+04  0.32802128402E+04  0.50400001928E-02 0.  1.
       -1   -1    0    0    0  501  0.00000000000E+00  0.00000000000E+00 -0.87126386225E+03  0.87126386226E+03  0.50400001928E-02 0. -1.
    10030    2    1    2    0    0  0.00000000000E+00  0.00000000000E+00  0.24089489780E+04  0.41514767025E+04  0.33810832041E+04 0.  0.
        1    1    3    3  502    0  0.31118150081E+02  0.54139336830E+02  0.32787962714E+04  0.32793908576E+04  0.50400001928E-02 0.  1.
       -1    1    3    3    0  502 -0.31118150081E+02 -0.54139336830E+02 -0.86984729343E+03  0.87208584496E+03  0.50400001928E-02 0. -1.
</event>
<event>
 5   0  0.1970449E-07  0.3399358E+04  0.7818609E-02  0.8138064E-01
       -2   -1    0    0    0  501  0.00000000000E+00  0.00000000000E+00  0.15969268605E+04  0.15969268605E+04  0.25500000920E-02 0. -1.
        2   -1    0    0  501    0  0.00000000000E+00  0.00000000000E+00 -0.18090430827E+04  0.18090430827E+04  0.25500000920E-02 0.  1.
    10030    2    1    2    0    0  0.00000000000E+00  0.00000000000E+00 -0.21211622226E+03  0.34059699432E+04  0.33993584634E+04 0.  0.
        1    1    3    3  502    0 -0.58410309897E+03  0.14873238388E+04 -0.68649549952E+03  0.17391333194E+04  0.50400001928E-02 0.  1.
       -1    1    3    3    0  502  0.58410309897E+03 -0.14873238388E+04  0.47437927727E+03  0.16668366238E+04  0.50400001928E-02 0. -1.
</event>
<event>
 5   0  0.6311750E-08  0.3407100E+04  0.7818609E-02  0.8136166E-01
        1   -1    0    0  501    0  0.00000000000E+00  0.00000000000E+00  0.20954689129E+04  0.20954689129E+04  0.50400001928E-02 0.  1.
       -1   -1    0    0    0  501  0.00000000000E+00  0.00000000000E+00 -0.13849326450E+04  0.13849326450E+04  0.50400001928E-02 0. -1.
    10030    2    1    2    0    0  0.00000000000E+00  0.00000000000E+00  0.71053626785E+03  0.34804015579E+04  0.34071004118E+04 0.  0.
        4    1    3    3  502    0  0.61480030275E+03 -0.23225900568E+01  0.19781893278E+04  0.20715258714E+04  0.12699999809E+01 0.  1.
       -4    1    3    3    0  502 -0.61480030275E+03  0.23225900568E+01 -0.12676530599E+04  0.14088756865E+04  0.12699999809E+01 0. -1.
</event>
<event>
 5   0  0.1928004E-07  0.3420570E+04  0.7818609E-02  0.8132876E-01
       -2   -1    0    0    0  501  0.00000000000E+00  0.00000000000E+00  0.17869963913E+04  0.17869963913E+04  0.25500000920E-02 0. -1.
        2   -1    0    0  501    0  0.00000000000E+00  0.00000000000E+00 -0.16368665957E+04  0.16368665957E+04  0.25500000920E-02 0.  1.
    10030    2    1    2    0    0  0.00000000000E+00  0.00000000000E+00  0.15012979563E+03  0.34238629870E+04  0.34205699523E+04 0.  0.
        2    1    3    3  502    0 -0.75341690521E+03  0.12659962850E+04 -0.79450101555E+03  0.16738027035E+04  0.25500000920E-02 0.  1.
       -2    1    3    3    0  502  0.75341690521E+03 -0.12659962850E+04  0.94463081117E+03  0.17500602835E+04  0.25500000920E-02 0. -1.
</event>
<event>
 5   0  0.1928004E-07  0.3393674E+04  0.7818609E-02  0.8139461E-01
        2   -1    0    0  501    0  0.00000000000E+00  0.00000000000E+00  0.15759666016E+04  0.15759666016E+04  0.25500000920E-02 0. -1.
       -2   -1    0    0    0  501  0.00000000000E+00  0.00000000000E+00 -0.18269771622E+04  0.18269771622E+04  0.25500000920E-02 0.  1.
    10030    2    1    2    0    0  0.00000000000E+00  0.00000000000E+00 -0.25101056052E+03  0.34029437638E+04  0.33936735197E+04 0.  0.
        2    1    3    3  502    0  0.65445328509E+03 -0.47198290132E+03  0.13712805256E+04  0.15910648137E+04  0.25500000920E-02 0. -1.
       -2    1    3    3    0  502 -0.65445328509E+03  0.47198290132E+03 -0.16222910861E+04  0.18118789501E+04  0.25500000920E-02 0.  1.
</event>
<event>
 5   0  0.6311750E-08  0.3399116E+04  0.7818609E-02  0.8138123E-01
        1   -1    0    0  501    0  0.00000000000E+00  0.00000000000E+00  0.15148858191E+04  0.15148858191E+04  0.50400001928E-02 0.  1.
       -1   -1    0    0    0  501  0.00000000000E+00  0.00000000000E+00 -0.19067424919E+04  0.19067424919E+04  0.50400001928E-02 0. -1.
    10030    2    1    2    0    0  0.00000000000E+00  0.00000000000E+00 -0.39185667276E+03  0.34216283110E+04  0.33991158624E+04 0.  0.
        4    1    3    3  502    0 -0.81857453131E+03 -0.10828178862E+03  0.12994088507E+04  0.15395629845E+04  0.12699999809E+01 0.  1.
       -4    1    3    3    0  502  0.81857453131E+03  0.10828178862E+03 -0.16912655235E+04  0.18820653264E+04  0.12699999809E+01 0. -1.
</event>
<event>
 5   0  0.6341535E-08  0.3405058E+04  0.7818609E-02  0.8136666E-01
       -1   -1    0    0    0  501  0.00000000000E+00  0.00000000000E+00  0.12946738369E+04  0.12946738369E+04  0.50400001928E-02 0. -1.
        1   -1    0    0  501    0  0.00000000000E+00  0.00000000000E+00 -0.22388683867E+04  0.22388683867E+04  0.50400001928E-02 0.  1.
    10030    2    1    2    0    0  0.00000000000E+00  0.00000000000E+00 -0.94419454974E+03  0.35335422236E+04  0.34050576057E+04 0.  0.
        5    1    3    3  502    0 -0.74115073861E+03  0.84567080098E+03 -0.17986594912E+04  0.21212405748E+04  0.46999998093E+01 0.  1.
       -5    1    3    3    0  502  0.74115073861E+03 -0.84567080098E+03  0.85446494147E+03  0.14123016488E+04  0.46999998093E+01 0. -1.
</event>
<event>
 5   0  0.6788600E-08  0.3398156E+04  0.7818609E-02  0.8138359E-01
       -1   -1    0    0    0  501  0.00000000000E+00  0.00000000000E+00  0.15365125757E+04  0.15365125758E+04  0.50400001928E-02 0. -1.
        1   -1    0    0  501    0  0.00000000000E+00  0.00000000000E+00 -0.18788430105E+04  0.18788430105E+04  0.50400001928E-02 0.  1.
    10030    2    1    2    0    0  0.00000000000E+00  0.00000000000E+00 -0.34233043475E+03  0.34153555863E+04  0.33981559196E+04 0.  0.
        2    1    3    3  502    0  0.73647908998E+03  0.14746124888E+04  0.24321087826E+03  0.16661437433E+04  0.25500000920E-02 0. -1.
       -2    1    3    3    0  502 -0.73647908998E+03 -0.14746124888E+04 -0.58554131301E+03  0.17492118429E+04  0.25500000920E-02 0.  1.
</event>
<event>
 5   0  0.1897313E-07  0.3396030E+04  0.7818609E-02  0.8138881E-01
       -2   -1    0    0    0  501  0.00000000000E+00  0.00000000000E+00  0.10705947333E+04  0.10705947333E+04  0.25500000920E-02 0. -1.
        2   -1    0    0  501    0  0.00000000000E+00  0.00000000000E+00 -0.26931344487E+04  0.26931344487E+04  0.25500000920E-02 0.  1.
    10030    2    1    2    0    0  0.00000000000E+00  0.00000000000E+00 -0.16225397154E+04  0.37637291821E+04  0.33960303632E+04 0.  0.
        3    1    3    3  502    0 -0.31531816534E+03  0.11513895781E+04 -0.21495444366E+04  0.24587933628E+04  0.10100000352E+00 0.  1.
       -3    1    3    3    0  502  0.31531816534E+03 -0.11513895781E+04  0.52700472115E+03  0.13049358192E+04  0.10100000352E+00 0. -1.
</event>
<event>
 5   0  0.6788600E-08  0.3392374E+04  0.7818609E-02  0.8139781E-01
        1   -1    0    0  501    0  0.00000000000E+00  0.00000000000E+00  0.25797945395E+04  0.25797945395E+04  0.50400001928E-02 0.  1.
       -1   -1    0    0    0  501  0.00000000000E+00  0.00000000000E+00 -0.11152243510E+04  0.11152243510E+04  0.50400001928E-02 0. -1.
    10030    2    1    2    0    0  0.00000000000E+00  0.00000000000E+00  0.14645701886E+04  0.36950188905E+04  0.33923736180E+04 0.  0.
        2    1    3    3  502    0  0.65676267095E+03 -0.12956021698E+04 -0.22171136428E+03  0.14693801813E+04  0.25500000920E-02 0. -1.
       -2    1    3    3    0  502 -0.65676267095E+03  0.12956021698E+04  0.16862815529E+04  0.22256387092E+04  0.25500000920E-02 0.  1.
</event>
<event>
 5   0  0.6584420E-08  0.3402874E+04  0.7818609E-02  0.8137201E-01
       -1   -1    0    0    0  501  0.00000000000E+00  0.00000000000E+00  0.10401221895E+04  0.10401221895E+04  0.50400001928E-02 0. -1.
        1   -1    0    0  501    0  0.00000000000E+00  0.00000000000E+00 -0.27832190727E+04  0.27832190727E+04  0.50400001928E-02 0.  1.
    10030    2    1    2    0    0  0.00000000000E+00  0.00000000000E+00 -0.17430968832E+04  0.38233412622E+04  0.34028740298E+04 0.  0.
        1    1    3    3  502    0 -0.96918048050E+03 -0.13609846161E+03  0.69220432608E+03  0.11987411831E+04  0.50400001928E-02 0. -1.
       -1    1    3    3    0  502  0.96918048050E+03  0.13609846161E+03 -0.24353012093E+04  0.26246000790E+04  0.50400001928E-02 0.  1.
</event>
<event>
 5   0  0.1970449E-07  0.3399622E+04  0.7818609E-02  0.8137999E-01
       -2   -1    0    0    0  501  0.00000000000E+00  0.00000000000E+00  0.13243180877E+04  0.13243180877E+04  0.25500000920E-02 0.  1.
        2   -1    0    0  501    0  0.00000000000E+00  0.00000000000E+00 -0.21817699345E+04  0.21817699345E+04  0.25500000920E-02 0. -1.
    10030    2    1    2    0    0  0.00000000000E+00  0.00000000000E+00 -0.85745184679E+03  0.35060880221E+04  0.33996219715E+04 0.  0.
        1    1    3    3  502    0  0.11623991083E+04  0.11959778641E+04 -0.90078959607E+02  0.16702242237E+04  0.50400001928E-02 0.  1.
       -1    1    3    3    0  502 -0.11623991083E+04 -0.11959778641E+04 -0.76737288719E+03  0.18358637984E+04  0.50400001928E-02 0. -1.
</event>
<event>
 5   0  0.6341535E-08  0.3398032E+04  0.7818609E-02  0.8138389E-01
       -1   -1    0    0    0  501  0.00000000000E+00  0.00000000000E+00  0.12899056183E+04  0.12899056183E+04  0.50400001928E-02 0.  1.
        1   -1    0    0  501    0  0.00000000000E+00  0.00000000000E+00 -0.22378812439E+04  0.22378812439E+04  0.50400001928E-02 0. -1.
    10030    2    1    2    0    0  0.00000000000E+00  0.00000000000E+00 -0.94797562561E+03  0.35277868621E+04  0.33980321302E+04 0.  0.
        5    1    3    3  502    0  0.10173563040E+04  0.21604189525E+03  0.92079603677E+03  0.13890915669E+04  0.46999998093E+01 0.  1.
       -5    1    3    3    0  502 -0.10173563040E+04 -0.21604189525E+03 -0.18687716624E+04  0.21386952953E+04  0.46999998093E+01 0. -1.
</event>
<event>
 5   0  0.6341535E-08  0.3402116E+04  0.7818609E-02  0.8137387E-01
        1   -1    0    0  501    0  0.00000000000E+00  0.00000000000E+00  0.16745305768E+04  0.16745305768E+04  0.50400001928E-02 0. -1.
       -1   -1    0    0    0  501  0.00000000000E+00  0.00000000000E+00 -0.17280054462E+04  0.17280054462E+04  0.50400001928E-02 0.  1.
    10030    2    1    2    0    0  0.00000000000E+00  0.00000000000E+00 -0.53474869394E+02  0.34025360231E+04  0.34021157868E+04 0.  0.
        5    1    3    3  502    0  0.76288591643E+03  0.62870029508E+03 -0.14112194057E+04  0.17230267797E+04  0.46999998093E+01 0.  1.
       -5    1    3    3    0  502 -0.76288591643E+03 -0.62870029508E+03  0.13577445363E+04  0.16795092433E+04  0.46999998093E+01 0. -1.
</event>
<event>
 5   0  0.1928004E-07  0.3402286E+04  0.7818609E-02  0.8137346E-01
        2   -1    0    0  501    0  0.00000000000E+00  0.00000000000E+00  0.17566270645E+04  0.17566270645E+04  0.25500000920E-02 0. -1.
       -2   -1    0    0    0  501  0.00000000000E+00  0.00000000000E+00 -0.16474110657E+04  0.16474110657E+04  0.25500000920E-02 0.  1.
    10030    2    1    2    0    0  0.00000000000E+00  0.00000000000E+00  0.10921599885E+03  0.34040381302E+04  0.34022856225E+04 0.  0.
        2    1    3    3  502    0 -0.54662222529E+03 -0.43493835658E+03 -0.14972936844E+04  0.16522274687E+04  0.25500000920E-02 0.  1.
       -2    1    3    3    0  502  0.54662222529E+03  0.43493835658E+03  0.16065096832E+04  0.17518106614E+04  0.25500000920E-02 0. -1.
</event>
<event>
 5   0  0.1928004E-07  0.3369863E+04  0.7818609E-02  0.8145343E-01
        2   -1    0    0  501    0  0.00000000000E+00  0.00000000000E+00  0.19541725178E+04  0.19541725178E+04  0.25500000920E-02 0. -1.
       -2   -1    0    0    0  501  0.00000000000E+00  0.00000000000E+00 -0.14527862039E+04  0.14527862039E+04  0.25500000920E-02 0.  1.
    10030    2    1    2    0    0  0.00000000000E+00  0.00000000000E+00  0.50138631388E+03  0.34069587218E+04  0.33698634239E+04 0.  0.
        2    1    3    3  502    0  0.15485123555E+04  0.59282778351E+03 -0.52035069653E+02  0.16589282518E+04  0.25500000920E-02 0.  1.
       -2    1    3    3    0  502 -0.15485123555E+04 -0.59282778351E+03  0.55342138353E+03  0.17480304700E+04  0.25500000920E-02 0. -1.
</event>
<event>
 5   0  0.6367111E-08  0.3393418E+04  0.7818609E-02  0.8139524E-01
        1   -1    0    0  501    0  0.00000000000E+00  0.00000000000E+00  0.27116113175E+04  0.27116113175E+04  0.50400001928E-02 0.  1.
       -1   -1    0    0    0  501  0.00000000000E+00  0.00000000000E+00 -0.10616642236E+04  0.10616642236E+04  0.50400001928E-02 0. -1.
    10030    2    1    2    0    0  0.00000000000E+00  0.00000000000E+00  0.16499470939E+04  0.37732755412E+04  0.33934175836E+04 0.  0.
        3    1    3    3  502    0  0.15367282899E+04 -0.61746486291E+03  0.41487425687E+03  0.17073129043E+04  0.10100000352E+00 0. -1.
       -3    1    3    3    0  502 -0.15367282899E+04  0.61746486291E+03  0.12350728370E+04  0.20659626369E+04  0.10100000352E+00 0.  1.
</event>
<event>
 5   0  0.1986613E-07  0.3422342E+04  0.7818609E-02  0.8132445E-01
        2   -1    0    0  501    0  0.00000000000E+00  0.00000000000E+00  0.18848258426E+04  0.18848258426E+04  0.25500000920E-02 0. -1.
       -2   -1    0    0    0  501  0.00000000000E+00  0.00000000000E+00 -0.15535152941E+04  0.15535152941E+04  0.25500000920E-02 0.  1.
    10030    2    1    2    0    0  0.00000000000E+00  0.00000000000E+00  0.33131054852E+03  0.34383411367E+04  0.34223417557E+04 0.  0.
        5    1    3    3  502    0  0.93944938331E+03  0.62809362130E+03  0.14565812869E+04  0.18435611940E+04  0.46999998093E+01 0. -1.
       -5    1    3    3    0  502 -0.93944938331E+03 -0.62809362130E+03 -0.11252707383E+04  0.15947799426E+04  0.46999998093E+01 0.  1.
</event>
<event>
 5   0  0.6311750E-08  0.3399357E+04  0.7818609E-02  0.8138064E-01
        1   -1    0    0  501    0  0.00000000000E+00  0.00000000000E+00  0.10378200059E+04  0.10378200059E+04  0.50400001928E-02 0. -1.
       -1   -1    0    0    0  501  0.00000000000E+00  0.00000000000E+00 -0.27836294827E+04  0.27836294827E+04  0.50400001928E-02 0.  1.
    10030    2    1    2    0    0  0.00000000000E+00  0.00000000000E+00 -0.17458094768E+04  0.38214494887E+04  0.33993566252E+04 0.  0.
        4    1    3    3  502    0 -0.10316264879E+04  0.12571935445E+04 -0.31747457716E+03  0.16569793417E+04  0.12699999809E+01 0.  1.
       -4    1    3    3    0  502  0.10316264879E+04 -0.12571935445E+04 -0.14283348997E+04  0.21644701470E+04  0.12699999809E+01 0. -1.
</event>
<event>
 5   0  0.1928004E-07  0.3383340E+04  0.7818609E-02  0.8142007E-01
       -2   -1    0    0    0  501  0.00000000000E+00  0.00000000000E+00  0.14124407677E+04  0.14124407677E+04  0.25500000920E-02 0.  1.
        2   -1    0    0  501    0  0.00000000000E+00  0.00000000000E+00 -0.20261010450E+04  0.20261010450E+04  0.25500000920E-02 0. -1.
    10030    2    1    2    0    0  0.00000000000E+00  0.00000000000E+00 -0.61366027735E+03  0.34385418127E+04  0.33833401930E+04 0.  0.
        2    1    3    3  502    0 -0.30031421659E+02 -0.79369533356E+03 -0.18248171840E+04  0.19901788673E+04  0.25500000920E-02 0. -1.
       -2    1    3    3    0  502  0.30031421659E+02  0.79369533356E+03  0.12111569067E+04  0.14483629453E+04  0.25500000920E-02 0.  1.
</event>
<event>
 5   0  0.6341535E-08  0.3408442E+04  0.7818609E-02  0.8135838E-01
       -1   -1    0    0    0  501  0.00000000000E+00  0.00000000000E+00  0.13176956820E+04  0.13176956820E+04  0.50400001928E-02 0. -1.
        1   -1    0    0  501    0  0.00000000000E+00  0.00000000000E+00 -0.22041272782E+04  0.22041272782E+04  0.50400001928E-02 0.  1.
    10030    2    1    2    0    0  0.00000000000E+00  0.00000000000E+00 -0.88643159626E+03  0.35218229602E+04  0.34084418710E+04 0.  0.
        5    1    3    3  502    0  0.16987612875E+04  0.23324721343E+02 -0.30453891212E+03  0.17260069506E+04  0.46999998093E+01 0.  1.
       -5    1    3    3    0  502 -0.16987612875E+04 -0.23324721343E+02 -0.58189268414E+03  0.17958160096E+04  0.46999998093E+01 0. -1.
</event>
<event>
 5   0  0.6341535E-08  0.3398742E+04  0.7818609E-02  0.8138215E-01
       -1   -1    0    0    0  501  0.00000000000E+00  0.00000000000E+00  0.13576479284E+04  0.13576479285E+04  0.50400001928E-02 0.  1.
        1   -1    0    0  501    0  0.00000000000E+00  0.00000000000E+00 -0.21271071579E+04  0.21271071580E+04  0.50400001928E-02 0. -1.
    10030    2    1    2    0    0  0.00000000000E+00  0.00000000000E+00 -0.76945922950E+03  0.34847550864E+04  0.33987424890E+04 0.  0.
        5    1    3    3  502    0  0.21086551839E+03  0.12573491305E+04  0.76729297665E+03  0.14880025890E+04  0.46999998093E+01 0.  1.
       -5    1    3    3    0  502 -0.21086551839E+03 -0.12573491305E+04 -0.15367522062E+04  0.19967524974E+04  0.46999998093E+01 0. -1.
</event>
<event>
 5   0  0.6788600E-08  0.3402357E+04  0.7818609E-02  0.8137328E-01
        1   -1    0    0  501    0  0.00000000000E+00  0.00000000000E+00  0.16734586840E+04  0.16734586840E+04  0.50400001928E-02 0. -1.
       -1   -1    0    0    0  501  0.00000000000E+00  0.00000000000E+00 -0.17293571922E+04  0.17293571922E+04  0.50400001928E-02 0.  1.
    10030    2    1    2    0    0  0.00000000000E+00  0.00000000000E+00 -0.55898508199E+02  0.34028158762E+04  0.34023567191E+04 0.  0.
        2    1    3    3  502    0 -0.91761556349E+03 -0.12374710441E+04 -0.74961083730E+03  0.17132627688E+04  0.25500000920E-02 0.  1.
       -2    1    3    3    0  502  0.91761556349E+03  0.12374710441E+04  0.69371232910E+03  0.16895531075E+04  0.25500000920E-02 0. -1.
</event>
<event>
 5   0  0.6341535E-08  0.3403230E+04  0.7818609E-02  0.8137114E-01
        1   -1    0    0  501    0  0.00000000000E+00  0.00000000000E+00  0.97331333901E+03  0.97331333902E+03  0.50400001928E-02 0.  1.
       -1   -1    0    0    0  501  0.00000000000E+00  0.00000000000E+00 -0.29748835647E+04  0.29748835647E+04  0.50400001928E-02 0. -1.
    10030    2    1    2    0    0  0.00000000000E+00  0.00000000000E+00 -0.20015702257E+04  0.39481969037E+04  0.34032301453E+04 0.  0.
        5    1    3    3  502    0 -0.52712228921E+03 -0.90764823087E+03 -0.25545779228E+04  0.27618062337E+04  0.46999998093E+01 0. -1.
       -5    1    3    3    0  502  0.52712228921E+03  0.90764823087E+03  0.55300769714E+03  0.11863906700E+04  0.46999998093E+01 0.  1.
</event>
<event>
 5   0  0.1928004E-07  0.3400146E+04  0.7818609E-02  0.8137871E-01
       -2   -1    0    0    0  501  0.00000000000E+00  0.00000000000E+00  0.13653526032E+04  0.13653526032E+04  0.25500000920E-02 0. -1.
        2   -1    0    0  501    0  0.00000000000E+00  0.00000000000E+00 -0.21168506335E+04  0.21168506335E+04  0.25500000920E-02 0.  1.
    10030    2    1    2    0    0  0.00000000000E+00  0.00000000000E+00 -0.75149803034E+03  0.34822032367E+04  0.34001455986E+04 0.  0.
        2    1    3    3  502    0  0.44902005858E+03  0.12518324331E+04 -0.14603369575E+04  0.19751677101E+04  0.25500000920E-02 0.  1.
       -2    1    3    3    0  502 -0.44902005858E+03 -0.12518324331E+04  0.70883892716E+03  0.15070355265E+04  0.25500000920E-02 0. -1.
</event>
<event>
 5   0  0.1928004E-07  0.3397570E+04  0.7818609E-02  0.8138503E-01
       -2   -1    0    0    0  501  0.00000000000E+00  0.00000000000E+00  0.19117665576E+04  0.19117665576E+04  0.25500000920E-02 0.  1.
        2   -1    0    0  501    0  0.00000000000E+00  0.00000000000E+00 -0.15095308712E+04  0.15095308712E+04  0.25500000920E-02 0. -1.
    10030    2    1    2    0    0  0.00000000000E+00  0.00000000000E+00  0.40223568640E+03  0.34212974289E+04  0.33975700949E+04 0.  0.
        2    1    3    3  502    0 -0.42671458989E+03  0.13460933063E+04  0.11520741182E+04  0.18224509059E+04  0.25500000920E-02 0. -1.
       -2    1    3    3    0  502  0.42671458989E+03 -0.13460933063E+04 -0.74983843177E+03  0.15988465230E+04  0.25500000920E-02 0.  1.
</event>
<event>
 5   0  0.6311750E-08  0.3413740E+04  0.7818609E-02  0.8134542E-01
       -1   -1    0    0    0  501  0.00000000000E+00  0.00000000000E+00  0.14622212410E+04  0.14622212410E+04  0.50400001928E-02 0.  1.
        1   -1    0    0  501    0  0.00000000000E+00  0.00000000000E+00 -0.19924518529E+04  0.19924518529E+04  0.50400001928E-02 0. -1.
    10030    2    1    2    0    0  0.00000000000E+00  0.00000000000E+00 -0.53023061189E+03  0.34546730938E+04  0.34137401312E+04 0.  0.
        4    1    3    3  502    0  0.14651154501E+04  0.78331583026E+03  0.13105911094E+03  0.16665308505E+04  0.12699999809E+01 0. -1.
       -4    1    3    3    0  502 -0.14651154501E+04 -0.78331583026E+03 -0.66128972283E+03  0.17881422434E+04  0.12699999809E+01 0.  1.
</event>
<event>
 5   0  0.1963852E-07  0.3358479E+04  0.7818609E-02  0.8148173E-01
       -2   -1    0    0    0  501  0.00000000000E+00  0.00000000000E+00  0.16241730620E+04  0.16241730620E+04  0.25500000920E-02 0. -1.
        2   -1    0    0  501    0  0.00000000000E+00  0.00000000000E+00 -0.17361726294E+04  0.17361726294E+04  0.25500000920E-02 0.  1.
    10030    2    1    2    0    0  0.00000000000E+00  0.00000000000E+00 -0.11199956741E+03  0.33603456914E+04  0.33584787126E+04 0.  0.
        4    1    3    3  502    0  0.15700607098E+04 -0.57377079669E+03 -0.21589989657E+03  0.16855022806E+04  0.12699999809E+01 0.  1.
       -4    1    3    3    0  502 -0.15700607098E+04  0.57377079669E+03  0.10390032916E+03  0.16748434109E+04  0.12699999809E+01 0. -1.
</event>
<event>
 5   0  0.6311750E-08  0.3404470E+04  0.7818609E-02  0.8136810E-01
        3   -1    0    0  501    0  0.00000000000E+00  0.00000000000E+00  0.98623190790E+03  0.98623191307E+03  0.10100000352E+00 0. -1.
       -3   -1    0    0    0  501  0.00000000000E+00  0.00000000000E+00 -0.29380547523E+04  0.29380547541E+04  0.10100000352E+00 0.  1.
    10030    2    1    2    0    0  0.00000000000E+00  0.00000000000E+00 -0.19518228444E+04  0.39242866672E+04  0.34044696253E+04 0.  0.
        1    1    3    3  502    0  0.62853231368E+03  0.80243937553E+03  0.59556938165E+03  0.11805357721E+04  0.50400001928E-02 0. -1.
       -1    1    3    3    0  502 -0.62853231368E+03 -0.80243937553E+03 -0.25473922261E+04  0.27437508951E+04  0.50400001928E-02 0.  1.
</event>
<event>
 5   0  0.6341535E-08  0.3398420E+04  0.7818609E-02  0.8138294E-01
       -1   -1    0    0    0  501  0.00000000000E+00  0.00000000000E+00  0.11133233268E+04  0.11133233268E+04  0.50400001928E-02 0. -1.
        1   -1    0    0  501    0  0.00000000000E+00  0.00000000000E+00 -0.25934196138E+04  0.25934196138E+04  0.50400001928E-02 0.  1.
    10030    2    1    2    0    0  0.00000000000E+00  0.00000000000E+00 -0.14800962870E+04  0.37067429406E+04  0.33984199577E+04 0.  0.
        5    1    3    3  502    0 -0.49838443637E+03  0.25769625843E+03  0.10093672798E+04  0.11548328033E+04  0.46999998093E+01 0. -1.
       -5    1    3    3    0  502  0.49838443637E+03 -0.25769625843E+03 -0.24894635669E+04  0.25519101373E+04  0.46999998093E+01 0.  1.
</event>
<event>
 5   0  0.6367111E-08  0.3400506E+04  0.7818609E-02  0.8137782E-01
       -1   -1    0    0    0  501  0.00000000000E+00  0.00000000000E+00  0.11684003545E+04  0.11684003545E+04  0.50400001928E-02 0.  1.
        1   -1    0    0  501    0  0.00000000000E+00  0.00000000000E+00 -0.24742032524E+04  0.24742032524E+04  0.50400001928E-02 0. -1.
    10030    2    1    2    0    0  0.00000000000E+00  0.00000000000E+00 -0.13058028979E+04  0.36426036069E+04  0.34005058195E+04 0.  0.
        3    1    3    3  502    0 -0.49416279334E+03 -0.44795390714E+03  0.10224142214E+04  0.12207335579E+04  0.10100000352E+00 0.  1.
       -3    1    3    3    0  502  0.49416279334E+03  0.44795390714E+03 -0.23282171193E+04  0.24218700489E+04  0.10100000352E+00 0. -1.
</event>
<event>
 5   0  0.1928004E-07  0.3399885E+04  0.7818609E-02  0.8137935E-01
       -2   -1    0    0    0  501  0.00000000000E+00  0.00000000000E+00  0.11580953480E+04  0.11580953480E+04  0.25500000920E-02 0. -1.
        2   -1    0    0  501    0  0.00000000000E+00  0.00000000000E+00 -0.24953080102E+04  0.24953080102E+04  0.25500000920E-02 0.  1.
    10030    2    1    2    0    0  0.00000000000E+00  0.00000000000E+00 -0.13372126622E+04  0.36534033582E+04  0.33998850559E+04 0.  0.
        2    1    3    3  502    0 -0.75406424568E+03 -0.18490618524E+03 -0.22936558733E+04  0.24214996282E+04  0.25500000920E-02 0.  1.
       -2    1    3    3    0  502  0.75406424568E+03  0.18490618524E+03  0.95644321110E+03  0.12319037300E+04  0.25500000920E-02 0. -1.
</event>
<event>
 5   0  0.6584420E-08  0.3422414E+04  0.7818609E-02  0.8132427E-01
       -1   -1    0    0    0  501  0.00000000000E+00  0.00000000000E+00  0.27001907337E+04  0.27001907337E+04  0.50400001928E-02 0.  1.
        1   -1    0    0  501    0  0.00000000000E+00  0.00000000000E+00 -0.10844527357E+04  0.10844527357E+04  0.50400001928E-02 0. -1.
    10030    2    1    2    0    0  0.00000000000E+00  0.00000000000E+00  0.16157379980E+04  0.37846434695E+04  0.34224139014E+04 0.  0.
        1    1    3    3  502    0 -0.11524492270E+04 -0.27464567234E+03 -0.55759077772E+03  0.13093803655E+04  0.50400001928E-02 0. -1.
       -1    1    3    3    0  502  0.11524492270E+04  0.27464567234E+03  0.21733287757E+04  0.24752631039E+04  0.50400001928E-02 0.  1.
</event>
<event>
 5   0  0.1928004E-07  0.3405466E+04  0.7818609E-02  0.8136566E-01
       -2   -1    0    0    0  501  0.00000000000E+00  0.00000000000E+00  0.11676727681E+04  0.11676727681E+04  0.25500000920E-02 0.  1.
        2   -1    0    0  501    0  0.00000000000E+00  0.00000000000E+00 -0.24829729614E+04  0.24829729614E+04  0.25500000920E-02 0. -1.
    10030    2    1    2    0    0  0.00000000000E+00  0.00000000000E+00 -0.13153001933E+04  0.36506457295E+04  0.34054661419E+04 0.  0.
        2    1    3    3  502    0 -0.69493179001E+03  0.12230678181E+04  0.37083755482E+03  0.14547665010E+04  0.25500000920E-02 0.  1.
       -2    1    3    3    0  502  0.69493179001E+03 -0.12230678181E+04 -0.16861377482E+04  0.21958792285E+04  0.25500000920E-02 0. -1.
</event>
<event>
 5   0  0.1928004E-07  0.3401851E+04  0.7818609E-02  0.8137452E-01
        2   -1    0    0  501    0  0.00000000000E+00  0.00000000000E+00  0.14833739895E+04  0.14833739895E+04  0.25500000920E-02 0. -1.
       -2   -1    0    0    0  501  0.00000000000E+00  0.00000000000E+00 -0.19503835347E+04  0.19503835347E+04  0.25500000920E-02 0.  1.
    10030    2    1    2    0    0  0.00000000000E+00  0.00000000000E+00 -0.46700954520E+03  0.34337575243E+04  0.34018513812E+04 0.  0.
        2    1    3    3  502    0  0.78477637688E+03  0.13137192759E+04 -0.98304325145E+03  0.18188200383E+04  0.25500000920E-02 0.  1.
       -2    1    3    3    0  502 -0.78477637688E+03 -0.13137192759E+04  0.51603370625E+03  0.16149374859E+04  0.25500000920E-02 0. -1.
</event>
<event>
 5   0  0.6367111E-08  0.3398806E+04  0.7818609E-02  0.8138199E-01
       -1   -1    0    0    0  501  0.00000000000E+00  0.00000000000E+00  0.24798511427E+04  0.24798511427E+04  0.50400001928E-02 0. -1.
        1   -1    0    0  501    0  0.00000000000E+00  0.00000000000E+00 -0.11645741360E+04  0.11645741360E+04  0.50400001928E-02 0.  1.
    10030    2    1    2    0    0  0.00000000000E+00  0.00000000000E+00  0.13152770067E+04  0.36444252787E+04  0.33988059679E+04 0.  0.
        3    1    3    3  502    0 -0.68456424858E+03 -0.13629607660E+04  0.14612520475E+04  0.21122376326E+04  0.10100000352E+00 0.  1.
       -3    1    3    3    0  502  0.68456424858E+03  0.13629607660E+04 -0.14597504084E+03  0.15321876461E+04  0.10100000352E+00 0. -1.
</event>
<event>
 5   0  0.6584420E-08  0.3347461E+04  0.7818609E-02  0.8150923E-01
       -1   -1    0    0    0  501  0.00000000000E+00  0.00000000000E+00  0.25954047874E+04  0.25954047874E+04  0.50400001928E-02 0. -1.
        1   -1    0    0  501    0  0.00000000000E+00  0.00000000000E+00 -0.10793592723E+04  0.10793592723E+04  0.50400001928E-02 0.  1.
    10030    2    1    2    0    0  0.00000000000E+00  0.00000000000E+00  0.15160455151E+04  0.36747640597E+04  0.33474612605E+04 0.  0.
        1    1    3    3  502    0 -0.23600032074E+03  0.85172656903E+03  0.23183488645E+04  0.24811037377E+04  0.50400001928E-02 0. -1.
       -1    1    3    3    0  502  0.23600032074E+03 -0.85172656903E+03 -0.80230334938E+03  0.11936603220E+04  0.50400001928E-02 0.  1.
</event>
<event>
 5   0  0.6367111E-08  0.3397782E+04  0.7818609E-02  0.8138451E-01
       -1   -1    0    0    0  501  0.00000000000E+00  0.00000000000E+00  0.14334503000E+04  0.14334503000E+04  0.50400001928E-02 0. -1.
        1   -1    0    0  501    0  0.00000000000E+00  0.00000000000E+00 -0.20134846246E+04  0.20134846246E+04  0.50400001928E-02 0.  1.
    10030    2    1    2    0    0  0.00000000000E+00  0.00000000000E+00 -0.58003432461E+03  0.34469349247E+04  0.33977817112E+04 0.  0.
        3    1    3    3  502    0 -0.70298810027E+03  0.15271117522E+04 -0.41591883467E+02  0.16816636012E+04  0.10100000352E+00 0. -1.
       -3    1    3    3    0  502  0.70298810027E+03 -0.15271117522E+04 -0.53844244115E+03  0.17652713234E+04  0.10100000352E+00 0.  1.
</event>
<event>
 5   0  0.6311750E-08  0.3390304E+04  0.7818609E-02  0.8140290E-01
       -3   -1    0    0    0  501  0.00000000000E+00  0.00000000000E+00  0.10961053290E+04  0.10961053337E+04  0.10100000352E+00 0.  1.
        3   -1    0    0  501    0  0.00000000000E+00  0.00000000000E+00 -0.26215911913E+04  0.26215911933E+04  0.10100000352E+00 0. -1.
    10030    2    1    2    0    0  0.00000000000E+00  0.00000000000E+00 -0.15254858623E+04  0.37176965270E+04  0.33903038729E+04 0.  0.
        4    1    3    3  502    0  0.14020702309E+04 -0.91471848725E+03 -0.10549892006E+04  0.19787659462E+04  0.12699999809E+01 0. -1.
       -4    1    3    3    0  502 -0.14020702309E+04  0.91471848725E+03 -0.47049666167E+03  0.17389305808E+04  0.12699999809E+01 0.  1.
</event>
<event>
 5   0  0.6311750E-08  0.3400333E+04  0.7818609E-02  0.8137825E-01
        1   -1    0    0  501    0  0.00000000000E+00  0.00000000000E+00  0.13365790857E+04  0.13365790857E+04  0.50400001928E-02 0.  1.
       -1   -1    0    0    0  501  0.00000000000E+00  0.00000000000E+00 -0.21626603995E+04  0.21626603995E+04  0.50400001928E-02 0. -1.
    10030    2    1    2    0    0  0.00000000000E+00  0.00000000000E+00 -0.82608131381E+03  0.34992394852E+04  0.34003333128E+04 0.  0.
        4    1    3    3  502    0 -0.98819127000E+03 -0.78230981643E+01 -0.18367491791E+04  0.20857210616E+04  0.12699999809E+01 0. -1.
       -4    1    3    3    0  502  0.98819127000E+03  0.78230981643E+01  0.10106678653E+04  0.14135184236E+04  0.12699999809E+01 0.  1.
</event>
<event>
 5   0  0.6311750E-08  0.3399957E+04  0.7818609E-02  0.8137917E-01
       -1   -1    0    0    0  501  0.00000000000E+00  0.00000000000E+00  0.88830278272E+03  0.88830278273E+03  0.50400001928E-02 0.  1.
        1   -1    0    0  501    0  0.00000000000E+00  0.00000000000E+00 -0.32533129186E+04  0.32533129186E+04  0.50400001928E-02 0. -1.
    10030    2    1    2    0    0  0.00000000000E+00  0.00000000000E+00 -0.23650101358E+04  0.41416157013E+04  0.33999570107E+04 0.  0.
        4    1    3    3  502    0  0.16642079731E+03  0.16199267626E+04 -0.58815036211E+03  0.17314101361E+04  0.12699999809E+01 0.  1.
       -4    1    3    3    0  502 -0.16642079731E+03 -0.16199267626E+04 -0.17768597737E+04  0.24102055652E+04  0.12699999809E+01 0. -1.
</event>
<event>
 5   0  0.1970449E-07  0.3400232E+04  0.7818609E-02  0.8137849E-01
        2   -1    0    0  501    0  0.00000000000E+00  0.00000000000E+00  0.20752870954E+04  0.20752870954E+04  0.25500000920E-02 0. -1.
       -2   -1    0    0    0  501  0.00000000000E+00  0.00000000000E+00 -0.13927687326E+04  0.13927687326E+04  0.25500000920E-02 0.  1.
    10030    2    1    2    0    0  0.00000000000E+00  0.00000000000E+00  0.68251836286E+03  0.34680558280E+04  0.34002323319E+04 0.  0.
        1    1    3    3  502    0  0.11356161600E+04  0.38180297545E+03  0.15715523045E+04  0.19761513658E+04  0.50400001928E-02 0. -1.
       -1    1    3    3    0  502 -0.11356161600E+04 -0.38180297545E+03 -0.88903394165E+03  0.14919044622E+04  0.50400001928E-02 0.  1.
</event>
<event>
 5   0  0.1897313E-07  0.3391138E+04  0.7818609E-02  0.8140085E-01
       -2   -1    0    0    0  501  0.00000000000E+00  0.00000000000E+00  0.15461580616E+04  0.15461580616E+04  0.25500000920E-02 0.  1.
        2   -1    0    0  501    0  0.00000000000E+00  0.00000000000E+00 -0.18594177573E+04  0.18594177573E+04  0.25500000920E-02 0. -1.
    10030    2    1    2    0    0  0.00000000000E+00  0.00000000000E+00 -0.31325969568E+03  0.34055758189E+04  0.33911377178E+04 0.  0.
        3    1    3    3  502    0  0.11505142340E+04  0.18302329119E+03  0.10805948152E+04  0.15889825966E+04  0.10100000352E+00 0.  1.
       -3    1    3    3    0  502 -0.11505142340E+04 -0.18302329119E+03 -0.13938545108E+04  0.18165932223E+04  0.10100000352E+00 0. -1.
</event>
<event>
 5   0  0.6341535E-08  0.3399141E+04  0.7818609E-02  0.8138117E-01
        1   -1    0    0  501    0  0.00000000000E+00  0.00000000000E+00  0.15057965849E+04  0.15057965850E+04  0.50400001928E-02 0.  1.
       -1   -1    0    0    0  501  0.00000000000E+00  0.00000000000E+00 -0.19182807452E+04  0.19182807452E+04  0.50400001928E-02 0. -1.
    10030    2    1    2    0    0  0.00000000000E+00  0.00000000000E+00 -0.41248416024E+03  0.34240773302E+04  0.33991414181E+04 0.  0.
        5    1    3    3  502    0 -0.16239682715E+03  0.15762152825E+04 -0.82531633041E+03  0.17866159300E+04  0.46999998093E+01 0. -1.
       -5    1    3    3    0  502  0.16239682715E+03 -0.15762152825E+04  0.41283217017E+03  0.16374614001E+04  0.46999998093E+01 0.  1.
</event>
<event>
 5   0  0.1928004E-07  0.3398973E+04  0.7818609E-02  0.8138158E-01
       -2   -1    0    0    0  501  0.00000000000E+00  0.00000000000E+00  0.12985969694E+04  0.12985969694E+04  0.25500000920E-02 0.  1.
        2   -1    0    0  501    0  0.00000000000E+00  0.00000000000E+00 -0.22241343470E+04  0.22241343471E+04  0.25500000920E-02 0. -1.
    10030    2    1    2    0    0  0.00000000000E+00  0.00000000000E+00 -0.92553737763E+03  0.35227313165E+04  0.33989728582E+04 0.  0.
        2    1    3    3  502    0 -0.65755252483E+03  0.15567542440E+04 -0.64930826008E+03  0.18103757388E+04  0.25500000920E-02 0. -1.
       -2    1    3    3    0  502  0.65755252483E+03 -0.15567542440E+04 -0.27622911754E+03  0.17123555777E+04  0.25500000920E-02 0.  1.
</event>
<event>
 5   0  0.1963852E-07  0.3400968E+04  0.7818609E-02  0.8137669E-01
       -2   -1    0    0    0  501  0.00000000000E+00  0.00000000000E+00  0.13329807723E+04  0.13329807724E+04  0.25500000920E-02 0. -1.
        2   -1    0    0  501    0  0.00000000000E+00  0.00000000000E+00 -0.21693076407E+04  0.21693076407E+04  0.25500000920E-02 0.  1.
    10030    2    1    2    0    0  0.00000000000E+00  0.00000000000E+00 -0.83632686839E+03  0.35022884131E+04  0.34009677296E+04 0.  0.
        4    1    3    3  502    0  0.18651845073E+03  0.46602581264E+03  0.12549469342E+04  0.13516148161E+04  0.12699999809E+01 0. -1.
       -4    1    3    3    0  502 -0.18651845073E+03 -0.46602581264E+03 -0.20912738026E+04  0.21506735970E+04  0.12699999809E+01 0.  1.
</event>
<event>
 5   0  0.6311750E-08  0.3401918E+04  0.7818609E-02  0.8137436E-01
       -1   -1    0    0    0  501  0.00000000000E+00  0.00000000000E+00  0.25479176618E+04  0.25479176619E+04  0.50400001928E-02 0.  1.
        1   -1    0    0  501    0  0.00000000000E+00  0.00000000000E+00 -0.11355394225E+04  0.11355394225E+04  0.50400001928E-02 0. -1.
    10030    2    1    2    0    0  0.00000000000E+00  0.00000000000E+00  0.14123782394E+04  0.36834570844E+04  0.34019176653E+04 0.  0.
        4    1    3    3  502    0  0.71920988679E+03 -0.11103423469E+04  0.18638486012E+04  0.22856194367E+04  0.12699999809E+01 0.  1.
       -4    1    3    3    0  502 -0.71920988679E+03  0.11103423469E+04 -0.45147036181E+03  0.13978376476E+04  0.12699999809E+01 0. -1.
</event>
<event>
 5   0  0.1986613E-07  0.3395299E+04  0.7818609E-02  0.8139061E-01
       -2   -1    0    0    0  501  0.00000000000E+00  0.00000000000E+00  0.17760865835E+04  0.17760865835E+04  0.25500000920E-02 0.  1.
        2   -1    0    0  501    0  0.00000000000E+00  0.00000000000E+00 -0.16226765314E+04  0.16226765314E+04  0.25500000920E-02 0. -1.
    10030    2    1    2    0    0  0.00000000000E+00  0.00000000000E+00  0.15341005207E+03  0.33987631148E+04  0.33952991130E+04 0.  0.
        5    1    3    3  502    0 -0.26812039151E+03  0.78771979369E+03  0.15579447101E+04  0.17662403085E+04  0.46999998093E+01 0.  1.
       -5    1    3    3    0  502  0.26812039151E+03 -0.78771979369E+03 -0.14045346580E+04  0.16325228063E+04  0.46999998093E+01 0. -1.
</event>
<event>
 5   0  0.1970449E-07  0.3404011E+04  0.7818609E-02  0.8136923E-01
        2   -1    0    0  501    0  0.00000000000E+00  0.00000000000E+00  0.22793494701E+04  0.22793494701E+04  0.25500000920E-02 0. -1.
       -2   -1    0    0    0  501  0.00000000000E+00  0.00000000000E+00 -0.12708988367E+04  0.12708988367E+04  0.25500000920E-02 0.  1.
    10030    2    1    2    0    0  0.00000000000E+00  0.00000000000E+00  0.10084506334E+04  0.35502483068E+04  0.34040109224E+04 0.  0.
        1    1    3    3  502    0  0.79761287704E+03 -0.64522378191E+03 -0.91217567876E+03  0.13727944126E+04  0.50400001928E-02 0.  1.
       -1    1    3    3    0  502 -0.79761287704E+03  0.64522378191E+03  0.19206263121E+04  0.21774538942E+04  0.50400001928E-02 0. -1.
</event>
<event>
 5   0  0.6311750E-08  0.3413345E+04  0.7818609E-02  0.8134639E-01
        1   -1    0    0  501    0  0.00000000000E+00  0.00000000000E+00  0.18704162756E+04  0.18704162756E+04  0.50400001928E-02 0. -1.
       -1   -1    0    0    0  501  0.00000000000E+00  0.00000000000E+00 -0.15572637786E+04  0.15572637786E+04  0.50400001928E-02 0.  1.
    10030    2    1    2    0    0  0.00000000000E+00  0.00000000000E+00  0.31315249705E+03  0.34276800542E+04  0.34133452898E+04 0.  0.
        4    1    3    3  502    0  0.10958494938E+04 -0.92169929432E+03 -0.77593230361E+03  0.16286461417E+04  0.12699999809E+01 0.  1.
       -4    1    3    3    0  502 -0.10958494938E+04  0.92169929432E+03  0.10890848007E+04  0.17990339125E+04  0.12699999809E+01 0. -1.
</event>
<event>
 5   0  0.6367111E-08  0.3397180E+04  0.7818609E-02  0.8138599E-01
       -1   -1    0    0    0  501  0.00000000000E+00  0.00000000000E+00  0.14601506633E+04  0.14601506633E+04  0.50400001928E-02 0. -1.
        1   -1    0    0  501    0  0.00000000000E+00  0.00000000000E+00 -0.19759661679E+04  0.19759661679E+04  0.50400001928E-02 0.  1.
    10030    2    1    2    0    0  0.00000000000E+00  0.00000000000E+00 -0.51581550461E+03  0.34361168312E+04  0.33971801899E+04 0.  0.
        3    1    3    3  502    0  0.57580782695E+03  0.15739862483E+04 -0.53715344327E+03  0.17599776122E+04  0.10100000352E+00 0.  1.
       -3    1    3    3    0  502 -0.57580782695E+03 -0.15739862483E+04  0.21337938664E+02  0.16761392190E+04  0.10100000352E+00 0. -1.
</event>
<event>
 5   0  0.1963852E-07  0.3387965E+04  0.7818609E-02  0.8140866E-01
        2   -1    0    0  501    0  0.00000000000E+00  0.00000000000E+00  0.23711575525E+04  0.23711575525E+04  0.25500000920E-02 0.  1.
       -2   -1    0    0    0  501  0.00000000000E+00  0.00000000000E+00 -0.12102007706E+04  0.12102007706E+04  0.25500000920E-02 0. -1.
    10030    2    1    2    0    0  0.00000000000E+00  0.00000000000E+00  0.11609567819E+04  0.35813583232E+04  0.33879649924E+04 0.  0.
        4    1    3    3  502    0 -0.48322359576E+02 -0.12429154586E+04  0.17960777937E+04  0.21847358974E+04  0.12699999809E+01 0.  1.
       -4    1    3    3    0  502  0.48322359576E+02  0.12429154586E+04 -0.63512101181E+03  0.13966224258E+04  0.12699999809E+01 0. -1.
</event>
<event>
 5   0  0.1897313E-07  0.3391478E+04  0.7818609E-02  0.8140001E-01
        2   -1    0    0  501    0  0.00000000000E+00  0.00000000000E+00  0.15496529259E+04  0.15496529259E+04  0.25500000920E-02 0. -1.
       -2   -1    0    0    0  501  0.00000000000E+00  0.00000000000E+00 -0.18555967277E+04  0.18555967277E+04  0.25500000920E-02 0.  1.
    10030    2    1    2    0    0  0.00000000000E+00  0.00000000000E+00 -0.30594380173E+03  0.34052496536E+04  0.33914780839E+04 0.  0.
        3    1    3    3  502    0 -0.16895582040E+04  0.50139689253E+02 -0.16737575866E+02  0.16903848880E+04  0.10100000352E+00 0.  1.
       -3    1    3    3    0  502  0.16895582040E+04 -0.50139689253E+02 -0.28920622586E+03  0.17148647656E+04  0.10100000352E+00 0. -1.
</event>
<event>
 5   0  0.1928004E-07  0.3389693E+04  0.7818609E-02  0.8140441E-01
       -2   -1    0    0    0  501  0.00000000000E+00  0.00000000000E+00  0.12912719622E+04  0.12912719622E+04  0.25500000920E-02 0. -1.
        2   -1    0    0  501    0  0.00000000000E+00  0.00000000000E+00 -0.22245545787E+04  0.22245545787E+04  0.25500000920E-02 0.  1.
    10030    2    1    2    0    0  0.00000000000E+00  0.00000000000E+00 -0.93328261659E+03  0.35158265409E+04  0.33896931754E+04 0.  0.
        2    1    3    3  502    0  0.16249479902E+03  0.14669921651E+04  0.39744583762E+03  0.15285397496E+04  0.25500000920E-02 0. -1.
       -2    1    3    3    0  502 -0.16249479902E+03 -0.14669921651E+04 -0.13307284542E+04  0.19872867913E+04  0.25500000920E-02 0.  1.
</event>
<event>
 5   0  0.1928004E-07  0.3402531E+04  0.7818609E-02  0.8137285E-01
        2   -1    0    0  501    0  0.00000000000E+00  0.00000000000E+00  0.19295826190E+04  0.19295826190E+04  0.25500000920E-02 0.  1.
       -2   -1    0    0    0  501  0.00000000000E+00  0.00000000000E+00 -0.14999640922E+04  0.14999640922E+04  0.25500000920E-02 0. -1.
    10030    2    1    2    0    0  0.00000000000E+00  0.00000000000E+00  0.42961852679E+03  0.34295467112E+04  0.34025311998E+04 0.  0.
        2    1    3    3  502    0  0.16602743131E+02  0.14735628140E+04 -0.64202355536E+03  0.16074381057E+04  0.25500000920E-02 0. -1.
       -2    1    3    3    0  502 -0.16602743131E+02 -0.14735628140E+04  0.10716420822E+04  0.18221086055E+04  0.25500000920E-02 0.  1.
</event>
<event>
 5   0  0.1963852E-07  0.3398024E+04  0.7818609E-02  0.8138392E-01
        2   -1    0    0  501    0  0.00000000000E+00  0.00000000000E+00  0.18338833081E+04  0.18338833081E+04  0.25500000920E-02 0.  1.
       -2   -1    0    0    0  501  0.00000000000E+00  0.00000000000E+00 -0.15740592194E+04  0.15740592194E+04  0.25500000920E-02 0. -1.
    10030    2    1    2    0    0  0.00000000000E+00  0.00000000000E+00  0.25982408868E+03  0.34079425275E+04  0.33980235011E+04 0.  0.
        4    1    3    3  502    0 -0.10916357752E+04 -0.74664370430E+03  0.11995588746E+04  0.17855219386E+04  0.12699999809E+01 0.  1.
       -4    1    3    3    0  502  0.10916357752E+04  0.74664370430E+03 -0.93973478587E+03  0.16224205889E+04  0.12699999809E+01 0. -1.
</event>
<event>
 5   0  0.1986613E-07  0.3399379E+04  0.7818609E-02  0.8138059E-01
        2   -1    0    0  501    0  0.00000000000E+00  0.00000000000E+00  0.22257957509E+04  0.22257957509E+04  0.25500000920E-02 0.  1.
       -2   -1    0    0    0  501  0.00000000000E+00  0.00000000000E+00 -0.12979374943E+04  0.12979374943E+04  0.25500000920E-02 0. -1.
    10030    2    1    2    0    0  0.00000000000E+00  0.00000000000E+00  0.92785825661E+03  0.35237332452E+04  0.33993786254E+04 0.  0.
        5    1    3    3  502    0  0.16402129636E+03 -0.16234081510E+04  0.95732960903E+03  0.18917872715E+04  0.46999998093E+01 0.  1.
       -5    1    3    3    0  502 -0.16402129636E+03  0.16234081510E+04 -0.29471352421E+02  0.16319459737E+04  0.46999998093E+01 0. -1.
</event>
<event>
 5   0  0.1986613E-07  0.3412180E+04  0.7818609E-02  0.8134923E-01
        2   -1    0    0  501    0  0.00000000000E+00  0.00000000000E+00  0.22529757572E+04  0.22529757572E+04  0.25500000920E-02 0. -1.
       -2   -1    0    0    0  501  0.00000000000E+00  0.00000000000E+00 -0.12919546416E+04  0.12919546416E+04  0.25500000920E-02 0.  1.
    10030    2    1    2    0    0  0.00000000000E+00  0.00000000000E+00  0.96102111559E+03  0.35449303988E+04  0.34121796476E+04 0.  0.
        5    1    3    3  502    0  0.79026547194E+02  0.16407746131E+04  0.17862689344E+01  0.16426843297E+04  0.46999998093E+01 0. -1.
       -5    1    3    3    0  502 -0.79026547194E+02 -0.16407746131E+04  0.95923484665E+03  0.19022460691E+04  0.46999998093E+01 0.  1.
</event>
<event>
 5   0  0.1897313E-07  0.3390936E+04  0.7818609E-02  0.8140135E-01
       -2   -1    0    0    0  501  0.00000000000E+00  0.00000000000E+00  0.97779017179E+03  0.97779017179E+03  0.25500000920E-02 0.  1.
        2   -1    0    0  501    0  0.00000000000E+00  0.00000000000E+00 -0.29399057962E+04  0.29399057962E+04  0.25500000920E-02 0. -1.
    10030    2    1    2    0    0  0.00000000000E+00  0.00000000000E+00 -0.19621156244E+04  0.39176959680E+04  0.33909355603E+04 0.  0.
        3    1    3    3  502    0 -0.14514714613E+04  0.87219673958E+03 -0.88360796115E+03  0.19100417783E+04  0.10100000352E+00 0. -1.
       -3    1    3    3    0  502  0.14514714613E+04 -0.87219673958E+03 -0.10785076632E+04  0.20076541897E+04  0.10100000352E+00 0.  1.
</event>
<event>
 5   0  0.6584420E-08  0.3401724E+04  0.7818609E-02  0.8137483E-01
       -1   -1    0    0    0  501  0.00000000000E+00  0.00000000000E+00  0.14267466108E+04  0.14267466108E+04  0.50400001928E-02 0.  1.
        1   -1    0    0  501    0  0.00000000000E+00  0.00000000000E+00 -0.20276421334E+04  0.20276421334E+04  0.50400001928E-02 0. -1.
    10030    2    1    2    0    0  0.00000000000E+00  0.00000000000E+00 -0.60089552261E+03  0.34543887441E+04  0.34017239992E+04 0.  0.
        1    1    3    3  502    0  0.11264274115E+04 -0.87437129889E+03 -0.12419300828E+04  0.18909664758E+04  0.50400001928E-02 0. -1.
       -1    1    3    3    0  502 -0.11264274115E+04  0.87437129889E+03  0.64103456023E+03  0.15634222684E+04  0.50400001928E-02 0.  1.
</event>
<event>
 5   0  0.6584420E-08  0.3409562E+04  0.7818609E-02  0.8135564E-01
        1   -1    0    0  501    0  0.00000000000E+00  0.00000000000E+00  0.22703301596E+04  0.22703301596E+04  0.50400001928E-02 0. -1.
       -1   -1    0    0    0  501  0.00000000000E+00  0.00000000000E+00 -0.12801124358E+04  0.12801124358E+04  0.50400001928E-02 0.  1.
    10030    2    1    2    0    0  0.00000000000E+00  0.00000000000E+00  0.99021772384E+03  0.35504425954E+04  0.34095617729E+04 0.  0.
        1    1    3    3  502    0 -0.54486067740E+03  0.15483894635E+04  0.15768429437E+02  0.16415333478E+04  0.50400001928E-02 0. -1.
       -1    1    3    3    0  502  0.54486067740E+03 -0.15483894635E+04  0.97444929440E+03  0.19089092477E+04  0.50400001928E-02 0.  1.
</event>
<event>
 5   0  0.1928004E-07  0.3393096E+04  0.7818609E-02  0.8139603E-01
        2   -1    0    0  501    0  0.00000000000E+00  0.00000000000E+00  0.14891502247E+04  0.14891502247E+04  0.25500000920E-02 0. -1.
       -2   -1    0    0    0  501  0.00000000000E+00  0.00000000000E+00 -0.19328304204E+04  0.19328304204E+04  0.25500000920E-02 0.  1.
    10030    2    1    2    0    0  0.00000000000E+00  0.00000000000E+00 -0.44368019575E+03  0.34219806451E+04  0.33930958458E+04 0.  0.
        2    1    3    3  502    0  0.16617741360E+03  0.16777147500E+04 -0.41301417594E+03  0.17357771817E+04  0.25500000920E-02 0. -1.
       -2    1    3    3    0  502 -0.16617741360E+03 -0.16777147500E+04 -0.30666019805E+02  0.16862034633E+04  0.25500000920E-02 0.  1.
</event>
<event>
 5   0  0.1963852E-07  0.3399686E+04  0.7818609E-02  0.8137983E-01
       -2   -1    0    0    0  501  0.00000000000E+00  0.00000000000E+00  0.11881456561E+04  0.11881456561E+04  0.25500000920E-02 0. -1.
        2   -1    0    0  501    0  0.00000000000E+00  0.00000000000E+00 -0.24319127057E+04  0.24319127057E+04  0.25500000920E-02 0.  1.
    10030    2    1    2    0    0  0.00000000000E+00  0.00000000000E+00 -0.12437670496E+04  0.36200583618E+04  0.33996861722E+04 0.  0.
        4    1    3    3  502    0  0.16529919744E+04 -0.39151100259E+03 -0.55622995450E+03  0.17874721558E+04  0.12699999809E+01 0. -1.
       -4    1    3    3    0  502 -0.16529919744E+04  0.39151100259E+03 -0.68753709507E+03  0.18325862060E+04  0.12699999809E+01 0.  1.
</event>
<event>
 5   0  0.6341535E-08  0.3403000E+04  0.7818609E-02  0.8137170E-01
        1   -1    0    0  501    0  0.00000000000E+00  0.00000000000E+00  0.17595602423E+04  0.17595602423E+04  0.50400001928E-02 0.  1.
       -1   -1    0    0    0  501  0.00000000000E+00  0.00000000000E+00 -0.16453553460E+04  0.16453553460E+04  0.50400001928E-02 0. -1.
    10030    2    1    2    0    0  0.00000000000E+00  0.00000000000E+00  0.11420489624E+03  0.34049155883E+04  0.34029997657E+04 0.  0.
        5    1    3    3  502    0  0.27751507985E+03 -0.65712865930E+03 -0.14885154363E+04  0.16506159421E+04  0.46999998093E+01 0. -1.
       -5    1    3    3    0  502 -0.27751507985E+03  0.65712865930E+03  0.16027203325E+04  0.17542996462E+04  0.46999998093E+01 0.  1.
</event>
<event>
 5   0  0.1963852E-07  0.3400710E+04  0.7818609E-02  0.8137732E-01
        2   -1    0    0  501    0  0.00000000000E+00  0.00000000000E+00  0.19817637920E+04  0.19817637920E+04  0.25500000920E-02 0. -1.
       -2   -1    0    0    0  501  0.00000000000E+00  0.00000000000E+00 -0.14589061481E+04  0.14589061481E+04  0.25500000920E-02 0.  1.
    10030    2    1    2    0    0  0.00000000000E+00  0.00000000000E+00  0.52285764394E+03  0.34406699401E+04  0.34007101495E+04 0.  0.
        4    1    3    3  502    0 -0.14330858871E+04  0.72272817253E+03 -0.30653599980E+03  0.16340248172E+04  0.12699999809E+01 0.  1.
       -4    1    3    3    0  502  0.14330858871E+04 -0.72272817253E+03  0.82939364374E+03  0.18066451229E+04  0.12699999809E+01 0. -1.
</event>
<event>
 5   0  0.6341535E-08  0.3399628E+04  0.7818609E-02  0.8137998E-01
        1   -1    0    0  501    0  0.00000000000E+00  0.00000000000E+00  0.12775324596E+04  0.12775324596E+04  0.50400001928E-02 0.  1.
       -1   -1    0    0    0  501  0.00000000000E+00  0.00000000000E+00 -0.22616787517E+04  0.22616787517E+04  0.50400001928E-02 0. -1.
    10030    2    1    2    0    0  0.00000000000E+00  0.00000000000E+00 -0.98414629217E+03  0.35392112113E+04  0.33996282258E+04 0.  0.
        5    1    3    3  502    0  0.96109303796E+03 -0.13909524391E+04 -0.67506683538E+03  0.18204905487E+04  0.46999998093E+01 0.  1.
       -5    1    3    3    0  502 -0.96109303796E+03  0.13909524391E+04 -0.30907945680E+03  0.17187206626E+04  0.46999998093E+01 0. -1.
</event>
<event>
 5   0  0.6311750E-08  0.3429218E+04  0.7818609E-02  0.8130772E-01
        1   -1    0    0  501    0  0.00000000000E+00  0.00000000000E+00  0.23262823472E+04  0.23262823472E+04  0.50400001928E-02 0.  1.
       -1   -1    0    0    0  501  0.00000000000E+00  0.00000000000E+00 -0.12637692627E+04  0.12637692627E+04  0.50400001928E-02 0. -1.
    10030    2    1    2    0    0  0.00000000000E+00  0.00000000000E+00  0.10625130845E+04  0.35900516100E+04  0.34292180606E+04 0.  0.
        4    1    3    3  502    0 -0.27117922017E+03  0.49310706773E+03 -0.11643318865E+04  0.12931987877E+04  0.12699999809E+01 0. -1.
       -4    1    3    3    0  502  0.27117922017E+03 -0.49310706773E+03  0.22268449709E+04  0.22968528223E+04  0.12699999809E+01 0.  1.
</event>
<event>
 5   0  0.6584420E-08  0.3396845E+04  0.7818609E-02  0.8138681E-01
       -1   -1    0    0    0  501  0.00000000000E+00  0.00000000000E+00  0.11758847911E+04  0.11758847911E+04  0.50400001928E-02 0.  1.
        1   -1    0    0  501    0  0.00000000000E+00  0.00000000000E+00 -0.24531640225E+04  0.24531640225E+04  0.50400001928E-02 0. -1.
    10030    2    1    2    0    0  0.00000000000E+00  0.00000000000E+00 -0.12772792314E+04  0.36290488136E+04  0.33968445735E+04 0.  0.
        1    1    3    3  502    0 -0.97084783568E+03 -0.11170234542E+04 -0.15288789419E+04  0.21278528465E+04  0.50400001928E-02 0. -1.
       -1    1    3    3    0  502  0.97084783568E+03  0.11170234542E+04  0.25159971046E+03  0.15011959671E+04  0.50400001928E-02 0.  1.
</event>
<event>
 5   0  0.6584420E-08  0.3391975E+04  0.7818609E-02  0.8139879E-01
       -1   -1    0    0    0  501  0.00000000000E+00  0.00000000000E+00  0.18077772993E+04  0.18077772993E+04  0.50400001928E-02 0.  1.
        1   -1    0    0  501    0  0.00000000000E+00  0.00000000000E+00 -0.15911102260E+04  0.15911102260E+04  0.50400001928E-02 0. -1.
    10030    2    1    2    0    0  0.00000000000E+00  0.00000000000E+00  0.21666707329E+03  0.33988875252E+04  0.33919746150E+04 0.  0.
        1    1    3    3  502    0 -0.11661952034E+04  0.69962200617E+03  0.11237549541E+04  0.17641732911E+04  0.50400001928E-02 0.  1.
       -1    1    3    3    0  502  0.11661952034E+04 -0.69962200617E+03 -0.90708788085E+03  0.16347142342E+04  0.50400001928E-02 0. -1.
</event>
<event>
 5   0  0.6584420E-08  0.3381483E+04  0.7818609E-02  0.8142466E-01
        1   -1    0    0  501    0  0.00000000000E+00  0.00000000000E+00  0.25856609437E+04  0.25856609437E+04  0.50400001928E-02 0.  1.
       -1   -1    0    0    0  501  0.00000000000E+00  0.00000000000E+00 -0.11055612697E+04  0.11055612697E+04  0.50400001928E-02 0. -1.
    10030    2    1    2    0    0  0.00000000000E+00  0.00000000000E+00  0.14800996741E+04  0.36912222134E+04  0.33814828676E+04 0.  0.
        1    1    3    3  502    0  0.97285717904E+03 -0.65018846697E+03 -0.59215252539E+03  0.13114269887E+04  0.50400001928E-02 0. -1.
       -1    1    3    3    0  502 -0.97285717904E+03  0.65018846697E+03  0.20722521994E+04  0.23797952247E+04  0.50400001928E-02 0.  1.
</event>
<event>
 5   0  0.6788600E-08  0.3398290E+04  0.7818609E-02  0.8138326E-01
        1   -1    0    0  501    0  0.00000000000E+00  0.00000000000E+00  0.29421144645E+04  0.29421144645E+04  0.50400001928E-02 0.  1.
       -1   -1    0    0    0  501  0.00000000000E+00  0.00000000000E+00 -0.98129896261E+03  0.98129896262E+03  0.50400001928E-02 0. -1.
    10030    2    1    2    0    0  0.00000000000E+00  0.00000000000E+00  0.19608155019E+04  0.39234134271E+04  0.33982900829E+04 0.  0.
        2    1    3    3  502    0 -0.97392799780E+03  0.10973764448E+04  0.19697514925E+04  0.24561538528E+04  0.25500000920E-02 0. -1.
       -2    1    3    3    0  502  0.97392799780E+03 -0.10973764448E+04 -0.89359906600E+01  0.14672595743E+04  0.25500000920E-02 0.  1.
</event>
<event>
 5   0  0.6341535E-08  0.3422051E+04  0.7818609E-02  0.8132515E-01
       -1   -1    0    0    0  501  0.00000000000E+00  0.00000000000E+00  0.14428356825E+04  0.14428356825E+04  0.50400001928E-02 0.  1.
        1   -1    0    0  501    0  0.00000000000E+00  0.00000000000E+00 -0.20290652477E+04  0.20290652477E+04  0.50400001928E-02 0. -1.
    10030    2    1    2    0    0  0.00000000000E+00  0.00000000000E+00 -0.58622956516E+03  0.34719009302E+04  0.34220506960E+04 0.  0.
        5    1    3    3  502    0 -0.90848785064E+03 -0.11442024940E+04  0.61038358428E+03  0.15833950019E+04  0.46999998093E+01 0.  1.
       -5    1    3    3    0  502  0.90848785064E+03  0.11442024940E+04 -0.11966131494E+04  0.18885059284E+04  0.46999998093E+01 0. -1.
</event>
<event>
 5   0  0.1897313E-07  0.3401927E+04  0.7818609E-02  0.8137434E-01
       -2   -1    0    0    0  501  0.00000000000E+00  0.00000000000E+00  0.10069030338E+04  0.10069030338E+04  0.25500000920E-02 0. -1.
        2   -1    0    0  501    0  0.00000000000E+00  0.00000000000E+00 -0.28734413399E+04  0.28734413399E+04  0.25500000920E-02 0.  1.
    10030    2    1    2    0    0  0.00000000000E+00  0.00000000000E+00 -0.18665383061E+04  0.38803443737E+04  0.34019269849E+04 0.  0.
        3    1    3    3  502    0 -0.78972472030E+03 -0.14593543884E+04 -0.13598964056E+04  0.21453900832E+04  0.10100000352E+00 0.  1.
       -3    1    3    3    0  502  0.78972472030E+03  0.14593543884E+04 -0.50664190047E+03  0.17349542905E+04  0.10100000352E+00 0. -1.
</event>
<event>
 5   0  0.6367111E-08  0.3401779E+04  0.7818609E-02  0.8137470E-01
        1   -1    0    0  501    0  0.00000000000E+00  0.00000000000E+00  0.14437561941E+04  0.14437561941E+04  0.50400001928E-02 0. -1.
       -1   -1    0    0    0  501  0.00000000000E+00  0.00000000000E+00 -0.20038187329E+04  0.20038187329E+04  0.50400001928E-02 0.  1.
    10030    2    1    2    0    0  0.00000000000E+00  0.00000000000E+00 -0.56006253875E+03  0.34475749270E+04  0.34017793623E+04 0.  0.
        3    1    3    3  502    0  0.13936257814E+04 -0.88564620382E+03  0.13346092691E+03  0.16566151774E+04  0.10100000352E+00 0.  1.
       -3    1    3    3    0  502 -0.13936257814E+04  0.88564620382E+03 -0.69352346566E+03  0.17909597495E+04  0.10100000352E+00 0. -1.
</event>
<event>
 5   0  0.6788600E-08  0.3400159E+04  0.7818609E-02  0.8137867E-01
        1   -1    0    0  501    0  0.00000000000E+00  0.00000000000E+00  0.12568919574E+04  0.12568919574E+04  0.50400001928E-02 0. -1.
       -1   -1    0    0    0  501  0.00000000000E+00  0.00000000000E+00 -0.22995371728E+04  0.22995371728E+04  0.50400001928E-02 0.  1.
    10030    2    1    2    0    0  0.00000000000E+00  0.00000000000E+00 -0.10426452154E+04  0.35564291302E+04  0.34001586894E+04 0.  0.
        2    1    3    3  502    0  0.10028472242E+04  0.91675250840E+03  0.54746814621E+03  0.14648751100E+04  0.25500000920E-02 0. -1.
       -2    1    3    3    0  502 -0.10028472242E+04 -0.91675250840E+03 -0.15901133616E+04  0.20915540202E+04  0.25500000920E-02 0.  1.
</event>
<event>
 5   0  0.1986613E-07  0.3398017E+04  0.7818609E-02  0.8138393E-01
       -2   -1    0    0    0  501  0.00000000000E+00  0.00000000000E+00  0.16141985210E+04  0.16141985210E+04  0.25500000920E-02 0.  1.
        2   -1    0    0  501    0  0.00000000000E+00  0.00000000000E+00 -0.17882741827E+04  0.17882741827E+04  0.25500000920E-02 0. -1.
    10030    2    1    2    0    0  0.00000000000E+00  0.00000000000E+00 -0.17407566174E+03  0.34024727037E+04  0.33980167986E+04 0.  0.
        5    1    3    3  502    0  0.10098918421E+04  0.13227396376E+04  0.25558885446E+03  0.16837070512E+04  0.46999998093E+01 0. -1.
       -5    1    3    3    0  502 -0.10098918421E+04 -0.13227396376E+04 -0.42966451620E+03  0.17187656525E+04  0.46999998093E+01 0.  1.
</event>
<event>
 5   0  0.1897313E-07  0.3394939E+04  0.7818609E-02  0.8139150E-01
        2   -1    0    0  501    0  0.00000000000E+00  0.00000000000E+00  0.17031603663E+04  0.17031603663E+04  0.25500000920E-02 0. -1.
       -2   -1    0    0    0  501  0.00000000000E+00  0.00000000000E+00 -0.16917972965E+04  0.16917972965E+04  0.25500000920E-02 0.  1.
    10030    2    1    2    0    0  0.00000000000E+00  0.00000000000E+00  0.11363069796E+02  0.33949576628E+04  0.33949386464E+04 0.  0.
        3    1    3    3  502    0 -0.25734293786E+03 -0.95958723716E+03  0.13820500400E+04  0.17020855962E+04  0.10100000352E+00 0. -1.
       -3    1    3    3    0  502  0.25734293786E+03  0.95958723716E+03 -0.13706869702E+04  0.16928720666E+04  0.10100000352E+00 0.  1.
</event>
<event>
 5   0  0.6584420E-08  0.3398562E+04  0.7818609E-02  0.8138259E-01
       -1   -1    0    0    0  501  0.00000000000E+00  0.00000000000E+00  0.22396238453E+04  0.22396238453E+04  0.50400001928E-02 0.  1.
        1   -1    0    0  501    0  0.00000000000E+00  0.00000000000E+00 -0.12893039776E+04  0.12893039776E+04  0.50400001928E-02 0. -1.
    10030    2    1    2    0    0  0.00000000000E+00  0.00000000000E+00  0.95031986773E+03  0.35289278229E+04  0.33985620089E+04 0.  0.
        1    1    3    3  502    0  0.15904790936E+04 -0.14302764334E+03  0.10783699712E+04  0.19269048883E+04  0.50400001928E-02 0.  1.
       -1    1    3    3    0  502 -0.15904790936E+04  0.14302764334E+03 -0.12805010348E+03  0.16020229346E+04  0.50400001928E-02 0. -1.
</event>
<event>
 5   0  0.1963852E-07  0.3385478E+04  0.7818609E-02  0.8141480E-01
       -2   -1    0    0    0  501  0.00000000000E+00  0.00000000000E+00  0.15202187488E+04  0.15202187489E+04  0.25500000920E-02 0. -1.
        2   -1    0    0  501    0  0.00000000000E+00  0.00000000000E+00 -0.18848372662E+04  0.18848372662E+04  0.25500000920E-02 0.  1.
    10030    2    1    2    0    0  0.00000000000E+00  0.00000000000E+00 -0.36461851737E+03  0.34050560151E+04  0.33854777805E+04 0.  0.
        4    1    3    3  502    0  0.54849130104E+03 -0.86220288115E+03 -0.15396046934E+04  0.18478692433E+04  0.12699999809E+01 0.  1.
       -4    1    3    3    0  502 -0.54849130104E+03  0.86220288115E+03  0.11749861760E+04  0.15571867718E+04  0.12699999809E+01 0. -1.
</event>
<event>
 5   0  0.1970449E-07  0.3399260E+04  0.7818609E-02  0.8138088E-01
        2   -1    0    0  501    0  0.00000000000E+00  0.00000000000E+00  0.23176578532E+04  0.23176578532E+04  0.25500000920E-02 0.  1.
       -2   -1    0    0    0  501  0.00000000000E+00  0.00000000000E+00 -0.12464055472E+04  0.12464055472E+04  0.25500000920E-02 0. -1.
    10030    2    1    2    0    0  0.00000000000E+00  0.00000000000E+00  0.10712523061E+04  0.35640634004E+04  0.33992596869E+04 0.  0.
        1    1    3    3  502    0  0.10561449583E+04  0.12979945061E+04  0.84755568693E+03  0.18757885151E+04  0.50400001928E-02 0. -1.
       -1    1    3    3    0  502 -0.10561449583E+04 -0.12979945061E+04  0.22369661914E+03  0.16882748853E+04  0.50400001928E-02 0.  1.
</event>
<event>
 5   0  0.1897313E-07  0.3402481E+04  0.7818609E-02  0.8137298E-01
       -2   -1    0    0    0  501  0.00000000000E+00  0.00000000000E+00  0.11602635863E+04  0.11602635863E+04  0.25500000920E-02 0.  1.
        2   -1    0    0  501    0  0.00000000000E+00  0.00000000000E+00 -0.24944496729E+04  0.24944496729E+04  0.25500000920E-02 0. -1.
    10030    2    1    2    0    0  0.00000000000E+00  0.00000000000E+00 -0.13341860866E+04  0.36547132591E+04  0.34024809320E+04 0.  0.
        3    1    3    3  502    0  0.47382137685E+03  0.12213061748E+04  0.49878478857E+03  0.14017423962E+04  0.10100000352E+00 0.  1.
       -3    1    3    3    0  502 -0.47382137685E+03 -0.12213061748E+04 -0.18329708752E+04  0.22529708629E+04  0.10100000352E+00 0. -1.
</event>
<event>
 5   0  0.6341535E-08  0.3401254E+04  0.7818609E-02  0.8137599E-01
        1   -1    0    0  501    0  0.00000000000E+00  0.00000000000E+00  0.15234815291E+04  0.15234815291E+04  0.50400001928E-02 0. -1.
       -1   -1    0    0    0  501  0.00000000000E+00  0.00000000000E+00 -0.18983704206E+04  0.18983704206E+04  0.50400001928E-02 0.  1.
    10030    2    1    2    0    0  0.00000000000E+00  0.00000000000E+00 -0.37488889144E+03  0.34218519497E+04  0.34012540459E+04 0.  0.
        5    1    3    3  502    0  0.89244201972E+03  0.41985590235E+03 -0.15812508333E+04  0.18636276519E+04  0.46999998093E+01 0.  1.
       -5    1    3    3    0  502 -0.89244201972E+03 -0.41985590235E+03  0.12063619419E+04  0.15582242977E+04  0.46999998093E+01 0. -1.
</event>
<event>
 5   0  0.6788600E-08  0.3389663E+04  0.7818609E-02  0.8140448E-01
        1   -1    0    0  501    0  0.00000000000E+00  0.00000000000E+00  0.18610927314E+04  0.18610927314E+04  0.50400001928E-02 0.  1.
       -1   -1    0    0    0  501  0.00000000000E+00  0.00000000000E+00 -0.15434236278E+04  0.15434236278E+04  0.50400001928E-02 0. -1.
    10030    2    1    2    0    0  0.00000000000E+00  0.00000000000E+00  0.31766910368E+03  0.34045163592E+04  0.33896634023E+04 0.  0.
        2    1    3    3  502    0 -0.15234013427E+03 -0.15943544666E+04  0.71559268885E+03  0.17542082482E+04  0.25500000920E-02 0. -1.
       -2    1    3    3    0  502  0.15234013427E+03  0.15943544666E+04 -0.39792358518E+03  0.16503081110E+04  0.25500000920E-02 0.  1.
</event>
<event>
 5   0  0.6367111E-08  0.3399785E+04  0.7818609E-02  0.8137959E-01
       -1   -1    0    0    0  501  0.00000000000E+00  0.00000000000E+00  0.23402415206E+04  0.23402415206E+04  0.50400001928E-02 0. -1.
        1   -1    0    0  501    0  0.00000000000E+00  0.00000000000E+00 -0.12347594248E+04  0.12347594248E+04  0.50400001928E-02 0.  1.
    10030    2    1    2    0    0  0.00000000000E+00  0.00000000000E+00  0.11054820958E+04  0.35750009454E+04  0.33997854485E+04 0.  0.
        3    1    3    3  502    0 -0.14661984840E+04 -0.25294223222E+03 -0.31177188487E+03  0.15201708738E+04  0.10100000352E+00 0.  1.
       -3    1    3    3    0  502  0.14661984840E+04  0.25294223222E+03  0.14172539807E+04  0.20548300716E+04  0.10100000352E+00 0. -1.
</event>
<event>
 5   0  0.1928004E-07  0.3397720E+04  0.7818609E-02  0.8138466E-01
        2   -1    0    0  501    0  0.00000000000E+00  0.00000000000E+00  0.25668691775E+04  0.25668691775E+04  0.25500000920E-02 0.  1.
       -2   -1    0    0    0  501  0.00000000000E+00  0.00000000000E+00 -0.11243755069E+04  0.11243755069E+04  0.25500000920E-02 0. -1.
    10030    2    1    2    0    0  0.00000000000E+00  0.00000000000E+00  0.14424936705E+04  0.36912446844E+04  0.33977197251E+04 0.  0.
        2    1    3    3  502    0  0.40455655933E+03 -0.16110120546E+04  0.33393896637E+03  0.16942671227E+04  0.25500000920E-02 0. -1.
       -2    1    3    3    0  502 -0.40455655933E+03  0.16110120546E+04  0.11085547042E+04  0.19969775617E+04  0.25500000920E-02 0.  1.
</event>
<event>
 5   0  0.1963852E-07  0.3406708E+04  0.7818609E-02  0.8136262E-01
       -2   -1    0    0    0  501  0.00000000000E+00  0.00000000000E+00  0.12744363620E+04  0.12744363620E+04  0.25500000920E-02 0. -1.
        2   -1    0    0  501    0  0.00000000000E+00  0.00000000000E+00 -0.22766259211E+04  0.22766259211E+04  0.25500000920E-02 0.  1.
    10030    2    1    2    0    0  0.00000000000E+00  0.00000000000E+00 -0.10021895591E+04  0.35510622832E+04  0.34067080043E+04 0.  0.
        4    1    3    3  502    0 -0.45950317383E+03 -0.15863332440E+04 -0.93567444262E+03  0.18981792863E+04  0.12699999809E+01 0.  1.
       -4    1    3    3    0  502  0.45950317383E+03  0.15863332440E+04 -0.66515116499E+02  0.16528829968E+04  0.12699999809E+01 0. -1.
</event>
<event>
 5   0  0.6788600E-08  0.3401251E+04  0.7818609E-02  0.8137599E-01
       -1   -1    0    0    0  501  0.00000000000E+00  0.00000000000E+00  0.16757676950E+04  0.16757676950E+04  0.50400001928E-02 0.  1.
        1   -1    0    0  501    0  0.00000000000E+00  0.00000000000E+00 -0.17258518177E+04  0.17258518177E+04  0.50400001928E-02 0. -1.
    10030    2    1    2    0    0  0.00000000000E+00  0.00000000000E+00 -0.50084122718E+02  0.34016195127E+04  0.34012507831E+04 0.  0.
        2    1    3    3  502    0 -0.40298616177E+03 -0.12468731538E+04  0.10590663278E+04  0.16848477661E+04  0.25500000920E-02 0.  1.
       -2    1    3    3    0  502  0.40298616177E+03  0.12468731538E+04 -0.11091504505E+04  0.17167717466E+04  0.25500000920E-02 0. -1.
</event>
<event>
 5   0  0.6341535E-08  0.3383322E+04  0.7818609E-02  0.8142012E-01
       -1   -1    0    0    0  501  0.00000000000E+00  0.00000000000E+00  0.17156005194E+04  0.17156005194E+04  0.50400001928E-02 0. -1.
        1   -1    0    0  501    0  0.00000000000E+00  0.00000000000E+00 -0.16680553415E+04  0.16680553416E+04  0.50400001928E-02 0.  1.
    10030    2    1    2    0    0  0.00000000000E+00  0.00000000000E+00  0.47545177813E+02  0.33836558609E+04  0.33833218057E+04 0.  0.
        5    1    3    3  502    0  0.51650900882E+03 -0.28483001588E+03 -0.15618759384E+04  0.16695473132E+04  0.46999998093E+01 0.  1.
       -5    1    3    3    0  502 -0.51650900882E+03  0.28483001588E+03  0.16094211162E+04  0.17141085477E+04  0.46999998093E+01 0. -1.
</event>
<event>
 5   0  0.6788600E-08  0.3401602E+04  0.7818609E-02  0.8137513E-01
        1   -1    0    0  501    0  0.00000000000E+00  0.00000000000E+00  0.19089280809E+04  0.19089280809E+04  0.50400001928E-02 0.  1.
       -1   -1    0    0    0  501  0.00000000000E+00  0.00000000000E+00 -0.15153652248E+04  0.15153652248E+04  0.50400001928E-02 0. -1.
    10030    2    1    2    0    0  0.00000000000E+00  0.00000000000E+00  0.39356285609E+03  0.34242933056E+04  0.34016015230E+04 0.  0.
        2    1    3    3  502    0 -0.53978764883E+03 -0.61799554635E+03  0.16964960983E+04  0.18845127255E+04  0.25500000920E-02 0.  1.
       -2    1    3    3    0  502  0.53978764883E+03  0.61799554635E+03 -0.13029332422E+04  0.15397805801E+04  0.25500000920E-02 0. -1.
</event>
<event>
 5   0  0.1928004E-07  0.3398088E+04  0.7818609E-02  0.8138376E-01
        2   -1    0    0  501    0  0.00000000000E+00  0.00000000000E+00  0.30567046739E+04  0.30567046740E+04  0.25500000920E-02 0.  1.
       -2   -1    0    0    0  501  0.00000000000E+00  0.00000000000E+00 -0.94439933314E+03  0.94439933314E+03  0.25500000920E-02 0. -1.
    10030    2    1    2    0    0  0.00000000000E+00  0.00000000000E+00  0.21123053408E+04  0.40011040071E+04  0.33980876126E+04 0.  0.
        2    1    3    3  502    0 -0.12528393975E+03 -0.12805193233E+04  0.23627189643E+04  0.26903283643E+04  0.25500000920E-02 0.  1.
       -2    1    3    3    0  502  0.12528393975E+03  0.12805193233E+04 -0.25041362354E+03  0.13107756428E+04  0.25500000920E-02 0. -1.
</event>
<event>
 5   0  0.1897313E-07  0.3390726E+04  0.7818609E-02  0.8140186E-01
        2   -1    0    0  501    0  0.00000000000E+00  0.00000000000E+00  0.21932242291E+04  0.21932242291E+04  0.25500000920E-02 0. -1.
       -2   -1    0    0    0  501  0.00000000000E+00  0.00000000000E+00 -0.13105160667E+04  0.13105160667E+04  0.25500000920E-02 0.  1.
    10030    2    1    2    0    0  0.00000000000E+00  0.00000000000E+00  0.88270816235E+03  0.35037402958E+04  0.33907259342E+04 0.  0.
        3    1    3    3  502    0  0.76321868318E+02 -0.64778057437E+03  0.20583794856E+04  0.21592523745E+04  0.10100000352E+00 0. -1.
       -3    1    3    3    0  502 -0.76321868318E+02  0.64778057437E+03 -0.11756713232E+04  0.13444879213E+04  0.10100000352E+00 0.  1.
</event>
<event>
 5   0  0.1928004E-07  0.3362107E+04  0.7818609E-02  0.8147270E-01
       -2   -1    0    0    0  501  0.00000000000E+00  0.00000000000E+00  0.18717472881E+04  0.18717472881E+04  0.25500000920E-02 0. -1.
        2   -1    0    0  501    0  0.00000000000E+00  0.00000000000E+00 -0.15097872959E+04  0.15097872959E+04  0.25500000920E-02 0.  1.
    10030    2    1    2    0    0  0.00000000000E+00  0.00000000000E+00  0.36195999218E+03  0.33815345840E+04  0.33621066471E+04 0.  0.
        2    1    3    3  502    0 -0.13670163868E+04  0.18665084565E+03 -0.78496955945E+03  0.15873719001E+04  0.25500000920E-02 0.  1.
       -2    1    3    3    0  502  0.13670163868E+04 -0.18665084565E+03  0.11469295516E+04  0.17941626839E+04  0.25500000920E-02 0. -1.
</event>
<event>
 5   0  0.6367111E-08  0.3417429E+04  0.7818609E-02  0.8133642E-01
        1   -1    0    0  501    0  0.00000000000E+00  0.00000000000E+00  0.88196509653E+03  0.88196509654E+03  0.50400001928E-02 0.  1.
       -1   -1    0    0    0  501  0.00000000000E+00  0.00000000000E+00 -0.33104552909E+04  0.33104552909E+04  0.50400001928E-02 0. -1.
    10030    2    1    2    0    0  0.00000000000E+00  0.00000000000E+00 -0.24284901944E+04  0.41924203875E+04  0.34174294552E+04 0.  0.
        3    1    3    3  502    0  0.14116029501E+04  0.60826903629E+03 -0.29859680812E+03  0.15658142205E+04  0.10100000352E+00 0.  1.
       -3    1    3    3    0  502 -0.14116029501E+04 -0.60826903629E+03 -0.21298933863E+04  0.26266061669E+04  0.10100000352E+00 0. -1.
</event>
<event>
 5   0  0.6341535E-08  0.3398560E+04  0.7818609E-02  0.8138260E-01
       -1   -1    0    0    0  501  0.00000000000E+00  0.00000000000E+00  0.12259807644E+04  0.12259807644E+04  0.50400001928E-02 0. -1.
        1   -1    0    0  501    0  0.00000000000E+00  0.00000000000E+00 -0.23553006791E+04  0.23553006791E+04  0.50400001928E-02 0.  1.
    10030    2    1    2    0    0  0.00000000000E+00  0.00000000000E+00 -0.11293199146E+04  0.35812814435E+04  0.33985604759E+04 0.  0.
        5    1    3    3  502    0  0.13729233223E+04  0.82816404156E+03 -0.11577308843E+04  0.19776594800E+04  0.46999998093E+01 0.  1.
       -5    1    3    3    0  502 -0.13729233223E+04 -0.82816404156E+03  0.28410969613E+02  0.16036219635E+04  0.46999998093E+01 0. -1.
</event>
<event>
 5   0  0.1897313E-07  0.3385389E+04  0.7818609E-02  0.8141502E-01
        2   -1    0    0  501    0  0.00000000000E+00  0.00000000000E+00  0.13218038859E+04  0.13218038859E+04  0.25500000920E-02 0. -1.
       -2   -1    0    0    0  501  0.00000000000E+00  0.00000000000E+00 -0.21676551587E+04  0.21676551587E+04  0.25500000920E-02 0.  1.
    10030    2    1    2    0    0  0.00000000000E+00  0.00000000000E+00 -0.84585127279E+03  0.34894590446E+04  0.33853892019E+04 0.  0.
        3    1    3    3  502    0 -0.12926349422E+04  0.74159844804E+03  0.40445928756E+03  0.15441698991E+04  0.10100000352E+00 0. -1.
       -3    1    3    3    0  502  0.12926349422E+04 -0.74159844804E+03 -0.12503105603E+04  0.19452891455E+04  0.10100000352E+00 0.  1.
</event>
<event>
 5   0  0.6341535E-08  0.3366791E+04  0.7818609E-02  0.8146105E-01
       -1   -1    0    0    0  501  0.00000000000E+00  0.00000000000E+00  0.13030189005E+04  0.13030189005E+04  0.50400001928E-02 0.  1.
        1   -1    0    0  501    0  0.00000000000E+00  0.00000000000E+00 -0.21748115361E+04  0.21748115361E+04  0.50400001928E-02 0. -1.
    10030    2    1    2    0    0  0.00000000000E+00  0.00000000000E+00 -0.87179263564E+03  0.34778304366E+04  0.33667910755E+04 0.  0.
        5    1    3    3  502    0 -0.95141174315E+03  0.32129781021E+03  0.95972984300E+03  0.13890716502E+04  0.46999998093E+01 0.  1.
       -5    1    3    3    0  502  0.95141174315E+03 -0.32129781021E+03 -0.18315224786E+04  0.20887587864E+04  0.46999998093E+01 0. -1.
</event>
<event>
 5   0  0.6788600E-08  0.3400786E+04  0.7818609E-02  0.8137713E-01
       -1   -1    0    0    0  501  0.00000000000E+00  0.00000000000E+00  0.18706161252E+04  0.18706161252E+04  0.50400001928E-02 0.  1.
        1   -1    0    0  501    0  0.00000000000E+00  0.00000000000E+00 -0.15456598241E+04  0.15456598241E+04  0.50400001928E-02 0. -1.
    10030    2    1    2    0    0  0.00000000000E+00  0.00000000000E+00  0.32495630114E+03  0.34162759493E+04  0.34007859039E+04 0.  0.
        2    1    3    3  502    0  0.50744140480E+03 -0.12833754369E+04  0.11603742828E+04  0.18030578936E+04  0.25500000920E-02 0.  1.
       -2    1    3    3    0  502 -0.50744140480E+03  0.12833754369E+04 -0.83541798171E+03  0.16132180558E+04  0.25500000920E-02 0. -1.
</event>
<event>
 5   0  0.1986613E-07  0.3406967E+04  0.7818609E-02  0.8136198E-01
       -2   -1    0    0    0  501  0.00000000000E+00  0.00000000000E+00  0.10781539503E+04  0.10781539503E+04  0.25500000920E-02 0.  1.
        2   -1    0    0  501    0  0.00000000000E+00  0.00000000000E+00 -0.26915044001E+04  0.26915044001E+04  0.25500000920E-02 0. -1.
    10030    2    1    2    0    0  0.00000000000E+00  0.00000000000E+00 -0.16133504498E+04  0.37696583503E+04  0.34069670390E+04 0.  0.
        5    1    3    3  502    0  0.18597503127E+03 -0.74689517513E+03  0.87477168772E+03  0.11651981422E+04  0.46999998093E+01 0.  1.
       -5    1    3    3    0  502 -0.18597503127E+03  0.74689517513E+03 -0.24881221375E+04  0.26044602082E+04  0.46999998093E+01 0. -1.
</event>
<event>
 5   0  0.6584420E-08  0.3400185E+04  0.7818609E-02  0.8137861E-01
        1   -1    0    0  501    0  0.00000000000E+00  0.00000000000E+00  0.20033912815E+04  0.20033912815E+04  0.50400001928E-02 0. -1.
       -1   -1    0    0    0  501  0.00000000000E+00  0.00000000000E+00 -0.14427111959E+04  0.14427111959E+04  0.50400001928E-02 0.  1.
    10030    2    1    2    0    0  0.00000000000E+00  0.00000000000E+00  0.56068008554E+03  0.34461024774E+04  0.34001853077E+04 0.  0.
        1    1    3    3  502    0 -0.15164358428E+03 -0.90365664329E+03  0.17317135814E+04  0.19591893818E+04  0.50400001928E-02 0. -1.
       -1    1    3    3    0  502  0.15164358428E+03  0.90365664329E+03 -0.11710334959E+04  0.14869130957E+04  0.50400001928E-02 0.  1.
</event>
<event>
 5   0  0.1897313E-07  0.3399917E+04  0.7818609E-02  0.8137927E-01
       -2   -1    0    0    0  501  0.00000000000E+00  0.00000000000E+00  0.27635789691E+04  0.27635789691E+04  0.25500000920E-02 0.  1.
        2   -1    0    0  501    0  0.00000000000E+00  0.00000000000E+00 -0.10456943124E+04  0.10456943124E+04  0.25500000920E-02 0. -1.
    10030    2    1    2    0    0  0.00000000000E+00  0.00000000000E+00  0.17178846568E+04  0.38092732815E+04  0.33999169459E+04 0.  0.
        3    1    3    3  502    0 -0.11855354275E+04 -0.12138015750E+04  0.97671935503E+03  0.19577510623E+04  0.10100000352E+00 0. -1.
       -3    1    3    3    0  502  0.11855354275E+04  0.12138015750E+04  0.74116530176E+03  0.18515222192E+04  0.10100000352E+00 0.  1.
</event>
<event>
 5   0  0.1970449E-07  0.3399058E+04  0.7818609E-02  0.8138137E-01
        2   -1    0    0  501    0  0.00000000000E+00  0.00000000000E+00  0.98656544287E+03  0.98656544287E+03  0.25500000920E-02 0.  1.
       -2   -1    0    0    0  501  0.00000000000E+00  0.00000000000E+00 -0.29277320060E+04  0.29277320060E+04  0.25500000920E-02 0. -1.
    10030    2    1    2    0    0  0.00000000000E+00  0.00000000000E+00 -0.19411665631E+04  0.39142974489E+04  0.33990582361E+04 0.  0.
        1    1    3    3  502    0  0.96829947326E+03 -0.50252440491E+02  0.63680129207E+03  0.11600194237E+04  0.50400001928E-02 0.  1.
       -1    1    3    3    0  502 -0.96829947326E+03  0.50252440491E+02 -0.25779678552E+04  0.27542780252E+04  0.50400001928E-02 0. -1.
</event>
<event>
 5   0  0.1897313E-07  0.3412869E+04  0.7818609E-02  0.8134755E-01
        2   -1    0    0  501    0  0.00000000000E+00  0.00000000000E+00  0.12679250682E+04  0.12679250682E+04  0.25500000920E-02 0. -1.
       -2   -1    0    0    0  501  0.00000000000E+00  0.00000000000E+00 -0.22966016757E+04  0.22966016757E+04  0.25500000920E-02 0.  1.
    10030    2    1    2    0    0  0.00000000000E+00  0.00000000000E+00 -0.10286766075E+04  0.35645267439E+04  0.34128690782E+04 0.  0.
        3    1    3    3  502    0  0.10293816361E+04 -0.13170262441E+04 -0.15596680119E+03  0.16788419620E+04  0.10100000352E+00 0. -1.
       -3    1    3    3    0  502 -0.10293816361E+04  0.13170262441E+04 -0.87270980628E+03  0.18856847818E+04  0.10100000352E+00 0.  1.
</event>
<event>
 5   0  0.6788600E-08  0.3402811E+04  0.7818609E-02  0.8137217E-01
       -1   -1    0    0    0  501  0.00000000000E+00  0.00000000000E+00  0.13360273643E+04  0.13360273643E+04  0.50400001928E-02 0. -1.
        1   -1    0    0  501    0  0.00000000000E+00  0.00000000000E+00 -0.21667075189E+04  0.21667075189E+04  0.50400001928E-02 0.  1.
    10030    2    1    2    0    0  0.00000000000E+00  0.00000000000E+00 -0.83068015455E+03  0.35027348832E+04  0.34028109179E+04 0.  0.
        2    1    3    3  502    0  0.38485106532E+03  0.90313043968E+03 -0.18457597217E+04  0.20905941461E+04  0.25500000920E-02 0.  1.
       -2    1    3    3    0  502 -0.38485106532E+03 -0.90313043968E+03  0.10150795672E+04  0.14121407371E+04  0.25500000920E-02 0. -1.
</event>
<event>
 5   0  0.1963852E-07  0.3386654E+04  0.7818609E-02  0.8141190E-01
        2   -1    0    0  501    0  0.00000000000E+00  0.00000000000E+00  0.13032602810E+04  0.13032602810E+04  0.25500000920E-02 0.  1.
       -2   -1    0    0    0  501  0.00000000000E+00  0.00000000000E+00 -0.22001407704E+04  0.22001407704E+04  0.25500000920E-02 0. -1.
    10030    2    1    2    0    0  0.00000000000E+00  0.00000000000E+00 -0.89688048945E+03  0.35034010514E+04  0.33866538522E+04 0.  0.
        4    1    3    3  502    0  0.70575228294E+03  0.42615858196E+03 -0.19785009635E+04  0.21434003586E+04  0.12699999809E+01 0. -1.
       -4    1    3    3    0  502 -0.70575228294E+03 -0.42615858196E+03  0.10816204740E+04  0.13600006929E+04  0.12699999809E+01 0.  1.
</event>
<event>
 5   0  0.6341535E-08  0.3390507E+04  0.7818609E-02  0.8140240E-01
       -1   -1    0    0    0  501  0.00000000000E+00  0.00000000000E+00  0.26969635037E+04  0.26969635037E+04  0.50400001928E-02 0. -1.
        1   -1    0    0  501    0  0.00000000000E+00  0.00000000000E+00 -0.10655998827E+04  0.10655998827E+04  0.50400001928E-02 0.  1.
    10030    2    1    2    0    0  0.00000000000E+00  0.00000000000E+00  0.16313636209E+04  0.37625633864E+04  0.33905067428E+04 0.  0.
        5    1    3    3  502    0  0.95254369416E+03  0.11437577042E+04 -0.84737031536E+02  0.14908801527E+04  0.46999998093E+01 0.  1.
       -5    1    3    3    0  502 -0.95254369416E+03 -0.11437577042E+04  0.17161006525E+04  0.22716832338E+04  0.46999998093E+01 0. -1.
</event>
<event>
 5   0  0.6311750E-08  0.3400385E+04  0.7818609E-02  0.8137812E-01
       -4   -1    0    0    0  501  0.00000000000E+00  0.00000000000E+00  0.18210120601E+04  0.18210125030E+04  0.12699999809E+01 0. -1.
        4   -1    0    0  501    0  0.00000000000E+00  0.00000000000E+00 -0.15873877545E+04  0.15873882625E+04  0.12699999809E+01 0.  1.
    10030    2    1    2    0    0  0.00000000000E+00  0.00000000000E+00  0.23362430568E+03  0.34084007655E+04  0.34003846050E+04 0.  0.
        3    1    3    3  502    0  0.15390186163E+04  0.35829330616E+03  0.74574767741E+03  0.17473099333E+04  0.10100000352E+00 0.  1.
       -3    1    3    3    0  502 -0.15390186163E+04 -0.35829330616E+03 -0.51212337173E+03  0.16610908322E+04  0.10100000352E+00 0. -1.
</event>
<event>
 5   0  0.6311750E-08  0.3398214E+04  0.7818609E-02  0.8138345E-01
        3   -1    0    0  501    0  0.00000000000E+00  0.00000000000E+00  0.15316035135E+04  0.15316035169E+04  0.10100000352E+00 0.  1.
       -3   -1    0    0    0  501  0.00000000000E+00  0.00000000000E+00 -0.18849299359E+04  0.18849299386E+04  0.10100000352E+00 0. -1.
    10030    2    1    2    0    0  0.00000000000E+00  0.00000000000E+00 -0.35332642238E+03  0.34165334555E+04  0.33982144270E+04 0.  0.
        5    1    3    3  502    0 -0.96033137162E+03  0.12107315609E+04  0.53342741970E+03  0.16348315381E+04  0.46999998093E+01 0.  1.
       -5    1    3    3    0  502  0.96033137162E+03 -0.12107315609E+04 -0.88675384208E+03  0.17817019174E+04  0.46999998093E+01 0. -1.
</event>
<event>
 5   0  0.6788600E-08  0.3399407E+04  0.7818609E-02  0.8138052E-01
        1   -1    0    0  501    0  0.00000000000E+00  0.00000000000E+00  0.19987252184E+04  0.19987252184E+04  0.50400001928E-02 0.  1.
       -1   -1    0    0    0  501  0.00000000000E+00  0.00000000000E+00 -0.14454168654E+04  0.14454168654E+04  0.50400001928E-02 0. -1.
    10030    2    1    2    0    0  0.00000000000E+00  0.00000000000E+00  0.55330835295E+03  0.34441420838E+04  0.33994065012E+04 0.  0.
        2    1    3    3  502    0 -0.33439256131E+03  0.58330150839E+03  0.18582651648E+04  0.19761600283E+04  0.25500000920E-02 0.  1.
       -2    1    3    3    0  502  0.33439256131E+03 -0.58330150839E+03 -0.13049568118E+04  0.14679820556E+04  0.25500000920E-02 0. -1.
</event>
<event>
 5   0  0.6367111E-08  0.3404986E+04  0.7818609E-02  0.8136684E-01
        1   -1    0    0  501    0  0.00000000000E+00  0.00000000000E+00  0.82509691874E+03  0.82509691875E+03  0.50400001928E-02 0. -1.
       -1   -1    0    0    0  501  0.00000000000E+00  0.00000000000E+00 -0.35128984972E+04  0.35128984972E+04  0.50400001928E-02 0.  1.
    10030    2    1    2    0    0  0.00000000000E+00  0.00000000000E+00 -0.26878015785E+04  0.43379954160E+04  0.34049855952E+04 0.  0.
        3    1    3    3  502    0  0.16921791919E+04  0.16129611555E+03 -0.14647297511E+04  0.22438627651E+04  0.10100000352E+00 0.  1.
       -3    1    3    3    0  502 -0.16921791919E+04 -0.16129611555E+03 -0.12230718274E+04  0.20941326509E+04  0.10100000352E+00 0. -1.
</event>
<event>
 5   0  0.6341535E-08  0.3432820E+04  0.7818609E-02  0.8129898E-01
       -1   -1    0    0    0  501  0.00000000000E+00  0.00000000000E+00  0.16607151353E+04  0.16607151353E+04  0.50400001928E-02 0.  1.
        1   -1    0    0  501    0  0.00000000000E+00  0.00000000000E+00 -0.17739726322E+04  0.17739726322E+04  0.50400001928E-02 0. -1.
    10030    2    1    2    0    0  0.00000000000E+00  0.00000000000E+00 -0.11325749694E+03  0.34346877675E+04  0.34328199487E+04 0.  0.
        5    1    3    3  502    0  0.25974169343E+03  0.43045722340E+03 -0.16986438526E+04  0.17714886949E+04  0.46999998093E+01 0. -1.
       -5    1    3    3    0  502 -0.25974169343E+03 -0.43045722340E+03  0.15853863556E+04  0.16631990726E+04  0.46999998093E+01 0.  1.
</event>
<event>
 5   0  0.1986613E-07  0.3385342E+04  0.7818609E-02  0.8141513E-01
        2   -1    0    0  501    0  0.00000000000E+00  0.00000000000E+00  0.29918630026E+04  0.29918630026E+04  0.25500000920E-02 0.  1.
       -2   -1    0    0    0  501  0.00000000000E+00  0.00000000000E+00 -0.95764261216E+03  0.95764261217E+03  0.25500000920E-02 0. -1.
    10030    2    1    2    0    0  0.00000000000E+00  0.00000000000E+00  0.20342203904E+04  0.39495056147E+04  0.33853422285E+04 0.  0.
        5    1    3    3  502    0 -0.75380156281E+03 -0.73154908230E+03  0.25656064055E+04  0.27723165717E+04  0.46999998093E+01 0.  1.
       -5    1    3    3    0  502  0.75380156281E+03  0.73154908230E+03 -0.53138601511E+03  0.11771890430E+04  0.46999998093E+01 0. -1.
</event>
<event>
 5   0  0.6584420E-08  0.3403035E+04  0.7818609E-02  0.8137162E-01
       -1   -1    0    0    0  501  0.00000000000E+00  0.00000000000E+00  0.17260412430E+04  0.17260412430E+04  0.50400001928E-02 0. -1.
        1   -1    0    0  501    0  0.00000000000E+00  0.00000000000E+00 -0.16773419301E+04  0.16773419301E+04  0.50400001928E-02 0.  1.
    10030    2    1    2    0    0  0.00000000000E+00  0.00000000000E+00  0.48699312941E+02  0.34033831732E+04  0.34030347339E+04 0.  0.
        1    1    3    3  502    0  0.12510909229E+04 -0.56497743109E+03 -0.98110563597E+03  0.16873044372E+04  0.50400001928E-02 0.  1.
       -1    1    3    3    0  502 -0.12510909229E+04  0.56497743109E+03  0.10298049489E+04  0.17160787359E+04  0.50400001928E-02 0. -1.
</event>
<event>
 5   0  0.6341535E-08  0.3401844E+04  0.7818609E-02  0.8137454E-01
        1   -1    0    0  501    0  0.00000000000E+00  0.00000000000E+00  0.21268476990E+04  0.21268476990E+04  0.50400001928E-02 0. -1.
       -1   -1    0    0    0  501  0.00000000000E+00  0.00000000000E+00 -0.13602925383E+04  0.13602925383E+04  0.50400001928E-02 0.  1.
    10030    2    1    2    0    0  0.00000000000E+00  0.00000000000E+00  0.76655516067E+03  0.34871402373E+04  0.34018436502E+04 0.  0.
        5    1    3    3  502    0 -0.90092173039E+03  0.52533663169E+03  0.17606479435E+04  0.20463484092E+04  0.46999998093E+01 0. -1.
       -5    1    3    3    0  502  0.90092173039E+03 -0.52533663169E+03 -0.99409278285E+03  0.14407918281E+04  0.46999998093E+01 0.  1.
</event>
<event>
 5   0  0.6311750E-08  0.3423439E+04  0.7818609E-02  0.8132177E-01
       -1   -1    0    0    0  501  0.00000000000E+00  0.00000000000E+00  0.12232979772E+04  0.12232979772E+04  0.50400001928E-02 0. -1.
        1   -1    0    0  501    0  0.00000000000E+00  0.00000000000E+00 -0.23951516934E+04  0.23951516935E+04  0.50400001928E-02 0.  1.
    10030    2    1    2    0    0  0.00000000000E+00  0.00000000000E+00 -0.11718537162E+04  0.36184496707E+04  0.34234393360E+04 0.  0.
        4    1    3    3  502    0  0.10432234046E+04 -0.84333943628E+03  0.53786229518E+03  0.14452798823E+04  0.12699999809E+01 0. -1.
       -4    1    3    3    0  502 -0.10432234046E+04  0.84333943628E+03 -0.17097160114E+04  0.21731697884E+04  0.12699999809E+01 0.  1.
</event>
<event>
 5   0  0.6788600E-08  0.3456089E+04  0.7818609E-02  0.8124276E-01
       -1   -1    0    0    0  501  0.00000000000E+00  0.00000000000E+00  0.13021648476E+04  0.13021648476E+04  0.50400001928E-02 0. -1.
        1   -1    0    0  501    0  0.00000000000E+00  0.00000000000E+00 -0.22932099715E+04  0.22932099715E+04  0.50400001928E-02 0.  1.
    10030    2    1    2    0    0  0.00000000000E+00  0.00000000000E+00 -0.99104512383E+03  0.35953748191E+04  0.34560887796E+04 0.  0.
        2    1    3    3  502    0 -0.16331379265E+04  0.45207624565E+03 -0.84773034282E+03  0.18947715305E+04  0.25500000920E-02 0. -1.
       -2    1    3    3    0  502  0.16331379265E+04 -0.45207624565E+03 -0.14331478101E+03  0.17006032886E+04  0.25500000920E-02 0.  1.
</event>
<event>
 5   0  0.1928004E-07  0.3397499E+04  0.7818609E-02  0.8138520E-01
       -2   -1    0    0    0  501  0.00000000000E+00  0.00000000000E+00  0.19414286994E+04  0.19414286994E+04  0.25500000920E-02 0.  1.
        2   -1    0    0  501    0  0.00000000000E+00  0.00000000000E+00 -0.14864050931E+04  0.14864050931E+04  0.25500000920E-02 0. -1.
    10030    2    1    2    0    0  0.00000000000E+00  0.00000000000E+00  0.45502360628E+03  0.34278337925E+04  0.33974987898E+04 0.  0.
        2    1    3    3  502    0  0.35071232474E+03  0.26351832372E+03  0.18832950846E+04  0.19337118238E+04  0.25500000920E-02 0.  1.
       -2    1    3    3    0  502 -0.35071232474E+03 -0.26351832372E+03 -0.14282714783E+04  0.14941219687E+04  0.25500000920E-02 0. -1.
</event>
<event>
 5   0  0.1897313E-07  0.3295893E+04  0.7818609E-02  0.8163941E-01
       -2   -1    0    0    0  501  0.00000000000E+00  0.00000000000E+00  0.12113689433E+04  0.12113689433E+04  0.25500000920E-02 0. -1.
        2   -1    0    0  501    0  0.00000000000E+00  0.00000000000E+00 -0.22418662926E+04  0.22418662926E+04  0.25500000920E-02 0.  1.
    10030    2    1    2    0    0  0.00000000000E+00  0.00000000000E+00 -0.10304973494E+04  0.34532352359E+04  0.32958927178E+04 0.  0.
        3    1    3    3  502    0 -0.68511551140E+03 -0.13889458887E+04 -0.11053157333E+04  0.19027025060E+04  0.10100000352E+00 0.  1.
       -3    1    3    3    0  502  0.68511551140E+03  0.13889458887E+04  0.74818383922E+02  0.15505327299E+04  0.10100000352E+00 0. -1.
</event>
<event>
 5   0  0.1963852E-07  0.3395498E+04  0.7818609E-02  0.8139012E-01
       -2   -1    0    0    0  501  0.00000000000E+00  0.00000000000E+00  0.15554050567E+04  0.15554050567E+04  0.25500000920E-02 0. -1.
        2   -1    0    0  501    0  0.00000000000E+00  0.00000000000E+00 -0.18531197764E+04  0.18531197764E+04  0.25500000920E-02 0.  1.
    10030    2    1    2    0    0  0.00000000000E+00  0.00000000000E+00 -0.29771471967E+03  0.34085248330E+04  0.33954981200E+04 0.  0.
        4    1    3    3  502    0  0.23046924979E+03 -0.29514202271E+03 -0.18111467060E+04  0.18494536740E+04  0.12699999809E+01 0.  1.
       -4    1    3    3    0  502 -0.23046924979E+03  0.29514202271E+03  0.15134319864E+04  0.15590711590E+04  0.12699999809E+01 0. -1.
</event>
<event>
 5   0  0.6341535E-08  0.3401910E+04  0.7818609E-02  0.8137438E-01
        1   -1    0    0  501    0  0.00000000000E+00  0.00000000000E+00  0.21536549156E+04  0.21536549157E+04  0.50400001928E-02 0. -1.
       -1   -1    0    0    0  501  0.00000000000E+00  0.00000000000E+00 -0.13434129902E+04  0.13434129902E+04  0.50400001928E-02 0.  1.
    10030    2    1    2    0    0  0.00000000000E+00  0.00000000000E+00  0.81024192543E+03  0.34970679059E+04  0.34019100459E+04 0.  0.
        5    1    3    3  502    0 -0.58365597133E+03 -0.14987262194E+04  0.97413040512E+03  0.18803687696E+04  0.46999998093E+01 0. -1.
       -5    1    3    3    0  502  0.58365597133E+03  0.14987262194E+04 -0.16388847970E+03  0.16166991363E+04  0.46999998093E+01 0.  1.
</event>
<event>
 5   0  0.1970449E-07  0.3399540E+04  0.7818609E-02  0.8138019E-01
        2   -1    0    0  501    0  0.00000000000E+00  0.00000000000E+00  0.12681801501E+04  0.12681801501E+04  0.25500000920E-02 0. -1.
       -2   -1    0    0    0  501  0.00000000000E+00  0.00000000000E+00 -0.22782390331E+04  0.22782390331E+04  0.25500000920E-02 0.  1.
    10030    2    1    2    0    0  0.00000000000E+00  0.00000000000E+00 -0.10100588830E+04  0.35464191832E+04  0.33995396858E+04 0.  0.
        1    1    3    3  502    0 -0.12929990283E+04  0.80728938385E+03 -0.12896247772E+04  0.19966709049E+04  0.50400001928E-02 0. -1.
       -1    1    3    3    0  502  0.12929990283E+04 -0.80728938385E+03  0.27956589429E+03  0.15497482782E+04  0.50400001928E-02 0.  1.
</event>
<event>
 5   0  0.1986613E-07  0.3388235E+04  0.7818609E-02  0.8140800E-01
       -2   -1    0    0    0  501  0.00000000000E+00  0.00000000000E+00  0.15364247166E+04  0.15364247166E+04  0.25500000920E-02 0.  1.
        2   -1    0    0  501    0  0.00000000000E+00  0.00000000000E+00 -0.18679949052E+04  0.18679949052E+04  0.25500000920E-02 0. -1.
    10030    2    1    2    0    0  0.00000000000E+00  0.00000000000E+00 -0.33157018860E+03  0.34044196218E+04  0.33882346688E+04 0.  0.
        5    1    3    3  502    0  0.14178404496E+04  0.66527670370E+03  0.48316914152E+03  0.16390055346E+04  0.46999998093E+01 0.  1.
       -5    1    3    3    0  502 -0.14178404496E+04 -0.66527670370E+03 -0.81473933011E+03  0.17654140872E+04  0.46999998093E+01 0. -1.
</event>
<event>
 5   0  0.6311750E-08  0.3396283E+04  0.7818609E-02  0.8138819E-01
       -1   -1    0    0    0  501  0.00000000000E+00  0.00000000000E+00  0.10838553684E+04  0.10838553684E+04  0.50400001928E-02 0. -1.
        1   -1    0    0  501    0  0.00000000000E+00  0.00000000000E+00 -0.26605806494E+04  0.26605806494E+04  0.50400001928E-02 0.  1.
    10030    2    1    2    0    0  0.00000000000E+00  0.00000000000E+00 -0.15767252809E+04  0.37444360178E+04  0.33962830388E+04 0.  0.
        4    1    3    3  502    0  0.16535465070E+04  0.30067266857E+03 -0.52042117314E+03  0.17593919162E+04  0.12699999809E+01 0. -1.
       -4    1    3    3    0  502 -0.16535465070E+04 -0.30067266857E+03 -0.10563041078E+04  0.19850441016E+04  0.12699999809E+01 0.  1.
</event>
<event>
 5   0  0.6788600E-08  0.3392311E+04  0.7818609E-02  0.8139796E-01
        1   -1    0    0  501    0  0.00000000000E+00  0.00000000000E+00  0.12534334525E+04  0.12534334525E+04  0.50400001928E-02 0.  1.
       -1   -1    0    0    0  501  0.00000000000E+00  0.00000000000E+00 -0.22952499695E+04  0.22952499695E+04  0.50400001928E-02 0. -1.
    10030    2    1    2    0    0  0.00000000000E+00  0.00000000000E+00 -0.10418165170E+04  0.35486834220E+04  0.33923107721E+04 0.  0.
        2    1    3    3  502    0 -0.45028238625E+03  0.11363283206E+04  0.70928789653E+03  0.14131827906E+04  0.25500000920E-02 0.  1.
       -2    1    3    3    0  502  0.45028238625E+03 -0.11363283206E+04 -0.17511044136E+04  0.21355006314E+04  0.25500000920E-02 0. -1.
</event>
<event>
 5   0  0.6788600E-08  0.3413696E+04  0.7818609E-02  0.8134553E-01
       -1   -1    0    0    0  501  0.00000000000E+00  0.00000000000E+00  0.10845236143E+04  0.10845236143E+04  0.50400001928E-02 0.  1.
        1   -1    0    0  501    0  0.00000000000E+00  0.00000000000E+00 -0.26862763738E+04  0.26862763738E+04  0.50400001928E-02 0. -1.
    10030    2    1    2    0    0  0.00000000000E+00  0.00000000000E+00 -0.16017527595E+04  0.37707999881E+04  0.34136960392E+04 0.  0.
        2    1    3    3  502    0  0.13834836437E+04  0.40200670382E+03  0.21012394270E+03  0.14559493307E+04  0.25500000920E-02 0.  1.
       -2    1    3    3    0  502 -0.13834836437E+04 -0.40200670382E+03 -0.18118767022E+04  0.23148506574E+04  0.25500000920E-02 0. -1.
</event>
<event>
 5   0  0.6341535E-08  0.3396179E+04  0.7818609E-02  0.8138845E-01
        1   -1    0    0  501    0  0.00000000000E+00  0.00000000000E+00  0.18436581096E+04  0.18436581096E+04  0.50400001928E-02 0. -1.
       -1   -1    0    0    0  501  0.00000000000E+00  0.00000000000E+00 -0.15640145943E+04  0.15640145943E+04  0.50400001928E-02 0.  1.
    10030    2    1    2    0    0  0.00000000000E+00  0.00000000000E+00  0.27964351529E+03  0.34076727039E+04  0.33961791416E+04 0.  0.
        5    1    3    3  502    0  0.84233277753E+03 -0.14359809464E+04 -0.19585536585E+03  0.16762897127E+04  0.46999998093E+01 0. -1.
       -5    1    3    3    0  502 -0.84233277753E+03  0.14359809464E+04  0.47549888115E+03  0.17313829913E+04  0.46999998093E+01 0.  1.
</event>
<event>
 5   0  0.6788600E-08  0.3404470E+04  0.7818609E-02  0.8136810E-01
       -1   -1    0    0    0  501  0.00000000000E+00  0.00000000000E+00  0.24530669150E+04  0.24530669150E+04  0.50400001928E-02 0. -1.
        1   -1    0    0  501    0  0.00000000000E+00  0.00000000000E+00 -0.11812170489E+04  0.11812170489E+04  0.50400001928E-02 0.  1.
    10030    2    1    2    0    0  0.00000000000E+00  0.00000000000E+00  0.12718498661E+04  0.36342839639E+04  0.34044702743E+04 0.  0.
        2    1    3    3  502    0  0.13034586181E+04  0.10946936565E+04  0.61918549091E+03  0.18112838659E+04  0.25500000920E-02 0.  1.
       -2    1    3    3    0  502 -0.13034586181E+04 -0.10946936565E+04  0.65266437517E+03  0.18230000980E+04  0.25500000920E-02 0. -1.
</event>
<event>
 5   0  0.1928004E-07  0.3411543E+04  0.7818609E-02  0.8135079E-01
       -2   -1    0    0    0  501  0.00000000000E+00  0.00000000000E+00  0.17182741931E+04  0.17182741931E+04  0.25500000920E-02 0.  1.
        2   -1    0    0  501    0  0.00000000000E+00  0.00000000000E+00 -0.16933596301E+04  0.16933596301E+04  0.25500000920E-02 0. -1.
    10030    2    1    2    0    0  0.00000000000E+00  0.00000000000E+00  0.24914563001E+02  0.34116338231E+04  0.34115428486E+04 0.  0.
        2    1    3    3  502    0 -0.28478806671E+03 -0.14988192084E+03 -0.16627253888E+04  0.16935833465E+04  0.25500000920E-02 0. -1.
       -2    1    3    3    0  502  0.28478806671E+03  0.14988192084E+03  0.16876399518E+04  0.17180504766E+04  0.25500000920E-02 0.  1.
</event>
<event>
 5   0  0.1928004E-07  0.3396488E+04  0.7818609E-02  0.8138769E-01
        2   -1    0    0  501    0  0.00000000000E+00  0.00000000000E+00  0.28123604643E+04  0.28123604643E+04  0.25500000920E-02 0.  1.
       -2   -1    0    0    0  501  0.00000000000E+00  0.00000000000E+00 -0.10254847414E+04  0.10254847414E+04  0.25500000920E-02 0. -1.
    10030    2    1    2    0    0  0.00000000000E+00  0.00000000000E+00  0.17868757229E+04  0.38378452056E+04  0.33964880352E+04 0.  0.
        2    1    3    3  502    0  0.15092300598E+04 -0.43810570898E+02  0.17718479559E+04  0.23279046196E+04  0.25500000920E-02 0.  1.
       -2    1    3    3    0  502 -0.15092300598E+04  0.43810570898E+02  0.15027767006E+02  0.15099405860E+04  0.25500000920E-02 0. -1.
</event>
<event>
 5   0  0.1897313E-07  0.3404177E+04  0.7818609E-02  0.8136882E-01
       -2   -1    0    0    0  501  0.00000000000E+00  0.00000000000E+00  0.11668552216E+04  0.11668552216E+04  0.25500000920E-02 0.  1.
        2   -1    0    0  501    0  0.00000000000E+00  0.00000000000E+00 -0.24828315425E+04  0.24828315425E+04  0.25500000920E-02 0. -1.
    10030    2    1    2    0    0  0.00000000000E+00  0.00000000000E+00 -0.13159763209E+04  0.36496867641E+04  0.34041768166E+04 0.  0.
        3    1    3    3  502    0 -0.85558885658E+03 -0.11732093580E+04  0.29412005229E+03  0.14815394374E+04  0.10100000352E+00 0.  1.
       -3    1    3    3    0  502  0.85558885658E+03  0.11732093580E+04 -0.16100963732E+04  0.21681473267E+04  0.10100000352E+00 0. -1.
</event>
<event>
 5   0  0.6584420E-08  0.3401980E+04  0.7818609E-02  0.8137421E-01
       -1   -1    0    0    0  501  0.00000000000E+00  0.00000000000E+00  0.15634546009E+04  0.15634546009E+04  0.50400001928E-02 0. -1.
        1   -1    0    0  501    0  0.00000000000E+00  0.00000000000E+00 -0.18506242332E+04  0.18506242332E+04  0.50400001928E-02 0.  1.
    10030    2    1    2    0    0  0.00000000000E+00  0.00000000000E+00 -0.28716963230E+03  0.34140788341E+04  0.34019799952E+04 0.  0.
        1    1    3    3  502    0 -0.10906596610E+04 -0.12931637716E+04 -0.32185648039E+03  0.17220344452E+04  0.50400001928E-02 0. -1.
       -1    1    3    3    0  502  0.10906596610E+04  0.12931637716E+04  0.34686848088E+02  0.16920443889E+04  0.50400001928E-02 0.  1.
</event>
<event>
 5   0  0.6788600E-08  0.3405164E+04  0.7818609E-02  0.8136640E-01
        1   -1    0    0  501    0  0.00000000000E+00  0.00000000000E+00  0.21394643737E+04  0.21394643737E+04  0.50400001928E-02 0. -1.
       -1   -1    0    0    0  501  0.00000000000E+00  0.00000000000E+00 -0.13549119994E+04  0.13549119994E+04  0.50400001928E-02 0.  1.
    10030    2    1    2    0    0  0.00000000000E+00  0.00000000000E+00  0.78455237432E+03  0.34943763731E+04  0.34051642852E+04 0.  0.
        2    1    3    3  502    0 -0.48835832517E+03 -0.12894046290E+04 -0.63275634119E+03  0.15170493526E+04  0.25500000920E-02 0. -1.
       -2    1    3    3    0  502  0.48835832517E+03  0.12894046290E+04  0.14173087155E+04  0.19773270205E+04  0.25500000920E-02 0.  1.
</event>
<event>
 5   0  0.6788600E-08  0.3399907E+04  0.7818609E-02  0.8137929E-01
       -1   -1    0    0    0  501  0.00000000000E+00  0.00000000000E+00  0.21652539227E+04  0.21652539227E+04  0.50400001928E-02 0.  1.
        1   -1    0    0  501    0  0.00000000000E+00  0.00000000000E+00 -0.13346431350E+04  0.13346431350E+04  0.50400001928E-02 0. -1.
    10030    2    1    2    0    0  0.00000000000E+00  0.00000000000E+00  0.83061078772E+03  0.34998970577E+04  0.33999066360E+04 0.  0.
        2    1    3    3  502    0 -0.41452290735E+03  0.16481085678E+04  0.45837104956E+03  0.17601690575E+04  0.25500000920E-02 0.  1.
       -2    1    3    3    0  502  0.41452290735E+03 -0.16481085678E+04  0.37223973815E+03  0.17397280002E+04  0.25500000920E-02 0. -1.
</event>
<event>
 5   0  0.1897313E-07  0.3395084E+04  0.7818609E-02  0.8139114E-01
        2   -1    0    0  501    0  0.00000000000E+00  0.00000000000E+00  0.22431783590E+04  0.22431783590E+04  0.25500000920E-02 0. -1.
       -2   -1    0    0    0  501  0.00000000000E+00  0.00000000000E+00 -0.12846276754E+04  0.12846276754E+04  0.25500000920E-02 0.  1.
    10030    2    1    2    0    0  0.00000000000E+00  0.00000000000E+00  0.95855068356E+03  0.35278060344E+04  0.33950840937E+04 0.  0.
        3    1    3    3  502    0 -0.13874019598E+04  0.95053870862E+03  0.23951514589E+03  0.16987570604E+04  0.10100000352E+00 0. -1.
       -3    1    3    3    0  502  0.13874019598E+04 -0.95053870862E+03  0.71903553767E+03  0.18290489740E+04  0.10100000352E+00 0.  1.
</event>
<event>
 5   0  0.1928004E-07  0.3398822E+04  0.7818609E-02  0.8138195E-01
        2   -1    0    0  501    0  0.00000000000E+00  0.00000000000E+00  0.20581037441E+04  0.20581037441E+04  0.25500000920E-02 0. -1.
       -2   -1    0    0    0  501  0.00000000000E+00  0.00000000000E+00 -0.14032325460E+04  0.14032325460E+04  0.25500000920E-02 0.  1.
    10030    2    1    2    0    0  0.00000000000E+00  0.00000000000E+00  0.65487119813E+03  0.34613362902E+04  0.33988222412E+04 0.  0.
        2    1    3    3  502    0  0.16613564105E+04 -0.33136540697E+03  0.19046270200E+03  0.17047534122E+04  0.25500000920E-02 0.  1.
       -2    1    3    3    0  502 -0.16613564105E+04  0.33136540697E+03  0.46440849612E+03  0.17565828779E+04  0.25500000920E-02 0. -1.
</event>
<event>
 5   0  0.1928004E-07  0.3407856E+04  0.7818609E-02  0.8135981E-01
        2   -1    0    0  501    0  0.00000000000E+00  0.00000000000E+00  0.18200368916E+04  0.18200368916E+04  0.25500000920E-02 0.  1.
       -2   -1    0    0    0  501  0.00000000000E+00  0.00000000000E+00 -0.15952264964E+04  0.15952264964E+04  0.25500000920E-02 0. -1.
    10030    2    1    2    0    0  0.00000000000E+00  0.00000000000E+00  0.22481039521E+03  0.34152633880E+04  0.34078562610E+04 0.  0.
        2    1    3    3  502    0  0.69081477800E+03 -0.10283824557E+02 -0.14485553827E+04  0.16048811518E+04  0.25500000920E-02 0. -1.
       -2    1    3    3    0  502 -0.69081477800E+03  0.10283824557E+02  0.16733657779E+04  0.18103822362E+04  0.25500000920E-02 0.  1.
</event>
<event>
 5   0  0.6311750E-08  0.3400383E+04  0.7818609E-02  0.8137812E-01
       -1   -1    0    0    0  501  0.00000000000E+00  0.00000000000E+00  0.23884958635E+04  0.23884958635E+04  0.50400001928E-02 0. -1.
        1   -1    0    0  501    0  0.00000000000E+00  0.00000000000E+00 -0.12102393347E+04  0.12102393347E+04  0.50400001928E-02 0.  1.
    10030    2    1    2    0    0  0.00000000000E+00  0.00000000000E+00  0.11782565288E+04  0.35987351982E+04  0.34003832988E+04 0.  0.
        4    1    3    3  502    0  0.98497670982E+03  0.33899467059E+03  0.20112186525E+04  0.22649720940E+04  0.12699999809E+01 0. -1.
       -4    1    3    3    0  502 -0.98497670982E+03 -0.33899467059E+03 -0.83296212369E+03  0.13337631041E+04  0.12699999809E+01 0.  1.
</event>
<event>
 5   0  0.6311750E-08  0.3399231E+04  0.7818609E-02  0.8138095E-01
       -3   -1    0    0    0  501  0.00000000000E+00  0.00000000000E+00  0.23493799892E+04  0.23493799914E+04  0.10100000352E+00 0. -1.
        3   -1    0    0  501    0  0.00000000000E+00  0.00000000000E+00 -0.12295556154E+04  0.12295556196E+04  0.10100000352E+00 0.  1.
    10030    2    1    2    0    0  0.00000000000E+00  0.00000000000E+00  0.11198243738E+04  0.35789356109E+04  0.33992313071E+04 0.  0.
        4    1    3    3  502    0  0.10444580600E+04 -0.10468669518E+04 -0.32215386083E+03  0.15134753969E+04  0.12699999809E+01 0.  1.
       -4    1    3    3    0  502 -0.10444580600E+04  0.10468669518E+04  0.14419782346E+04  0.20654602141E+04  0.12699999809E+01 0. -1.
</event>
<event>
 5   0  0.1970449E-07  0.3403936E+04  0.7818609E-02  0.8136941E-01
        2   -1    0    0  501    0  0.00000000000E+00  0.00000000000E+00  0.16310363828E+04  0.16310363828E+04  0.25500000920E-02 0.  1.
       -2   -1    0    0    0  501  0.00000000000E+00  0.00000000000E+00 -0.17759844760E+04  0.17759844760E+04  0.25500000920E-02 0. -1.
    10030    2    1    2    0    0  0.00000000000E+00  0.00000000000E+00 -0.14494809325E+03  0.34070208588E+04  0.34039361308E+04 0.  0.
        1    1    3    3  502    0 -0.40960647823E+03 -0.27883349376E+03 -0.17021908916E+04  0.17728450061E+04  0.50400001928E-02 0. -1.
       -1    1    3    3    0  502  0.40960647823E+03  0.27883349376E+03  0.15572427984E+04  0.16341758526E+04  0.50400001928E-02 0.  1.
</event>
<event>
 5   0  0.1897313E-07  0.3401599E+04  0.7818609E-02  0.8137514E-01
        2   -1    0    0  501    0  0.00000000000E+00  0.00000000000E+00  0.16394962180E+04  0.16394962180E+04  0.25500000920E-02 0.  1.
       -2   -1    0    0    0  501  0.00000000000E+00  0.00000000000E+00 -0.17643954680E+04  0.17643954680E+04  0.25500000920E-02 0. -1.
    10030    2    1    2    0    0  0.00000000000E+00  0.00000000000E+00 -0.12489925008E+03  0.34038916860E+04  0.34015994455E+04 0.  0.
        3    1    3    3  502    0 -0.11813081975E+04 -0.12147938890E+04  0.84299927686E+02  0.16965611508E+04  0.10100000352E+00 0.  1.
       -3    1    3    3    0  502  0.11813081975E+04  0.12147938890E+04 -0.20919917777E+03  0.17073305352E+04  0.10100000352E+00 0. -1.
</event>
<event>
 5   0  0.6788600E-08  0.3398480E+04  0.7818609E-02  0.8138279E-01
       -1   -1    0    0    0  501  0.00000000000E+00  0.00000000000E+00  0.26689693343E+04  0.26689693343E+04  0.50400001928E-02 0. -1.
        1   -1    0    0  501    0  0.00000000000E+00  0.00000000000E+00 -0.10818470526E+04  0.10818470526E+04  0.50400001928E-02 0.  1.
    10030    2    1    2    0    0  0.00000000000E+00  0.00000000000E+00  0.15871222816E+04  0.37508163869E+04  0.33984800178E+04 0.  0.
        2    1    3    3  502    0  0.14039570523E+04 -0.27681201479E+03 -0.21779055449E+03  0.14474643421E+04  0.25500000920E-02 0.  1.
       -2    1    3    3    0  502 -0.14039570523E+04  0.27681201479E+03  0.18049128361E+04  0.23033520448E+04  0.25500000920E-02 0. -1.
</event>
<event>
 5   0  0.1897313E-07  0.3389429E+04  0.7818609E-02  0.8140506E-01
        2   -1    0    0  501    0  0.00000000000E+00  0.00000000000E+00  0.13593205581E+04  0.13593205581E+04  0.25500000920E-02 0.  1.
       -2   -1    0    0    0  501  0.00000000000E+00  0.00000000000E+00 -0.21128622104E+04  0.21128622104E+04  0.25500000920E-02 0. -1.
    10030    2    1    2    0    0  0.00000000000E+00  0.00000000000E+00 -0.75354165235E+03  0.34721827685E+04  0.33894288835E+04 0.  0.
        3    1    3    3  502    0 -0.12917714695E+03 -0.84736401564E+03  0.11208894726E+04  0.14110654592E+04  0.10100000352E+00 0.  1.
       -3    1    3    3    0  502  0.12917714695E+03  0.84736401564E+03 -0.18744311249E+04  0.20611173093E+04  0.10100000352E+00 0. -1.
</event>
<event>
 5   0  0.1928004E-07  0.3403298E+04  0.7818609E-02  0.8137097E-01
       -2   -1    0    0    0  501  0.00000000000E+00  0.00000000000E+00  0.14236472023E+04  0.14236472023E+04  0.25500000920E-02 0. -1.
        2   -1    0    0  501    0  0.00000000000E+00  0.00000000000E+00 -0.20339375371E+04  0.20339375371E+04  0.25500000920E-02 0.  1.
    10030    2    1    2    0    0  0.00000000000E+00  0.00000000000E+00 -0.61029033479E+03  0.34575847394E+04  0.34032980971E+04 0.  0.
        2    1    3    3  502    0 -0.13719097349E+04 -0.34249666121E+03 -0.12669076882E+04  0.18985508616E+04  0.25500000920E-02 0.  1.
       -2    1    3    3    0  502  0.13719097349E+04  0.34249666121E+03  0.65661735338E+03  0.15590338779E+04  0.25500000920E-02 0. -1.
</event>
<event>
 5   0  0.1897313E-07  0.3398065E+04  0.7818609E-02  0.8138381E-01
        2   -1    0    0  501    0  0.00000000000E+00  0.00000000000E+00  0.17985104204E+04  0.17985104204E+04  0.25500000920E-02 0. -1.
       -2   -1    0    0    0  501  0.00000000000E+00  0.00000000000E+00 -0.16050564615E+04  0.16050564615E+04  0.25500000920E-02 0.  1.
    10030    2    1    2    0    0  0.00000000000E+00  0.00000000000E+00  0.19345395893E+03  0.34035668818E+04  0.33980646087E+04 0.  0.
        3    1    3    3  502    0  0.16723264837E+04 -0.27082337693E+03  0.22612436803E+03  0.17091382067E+04  0.10100000352E+00 0.  1.
       -3    1    3    3    0  502 -0.16723264837E+04  0.27082337693E+03 -0.32670409101E+02  0.16944286752E+04  0.10100000352E+00 0. -1.
</event>
<event>
 5   0  0.6341535E-08  0.3397787E+04  0.7818609E-02  0.8138450E-01
       -1   -1    0    0    0  501  0.00000000000E+00  0.00000000000E+00  0.99002957172E+03  0.99002957173E+03  0.50400001928E-02 0. -1.
        1   -1    0    0  501    0  0.00000000000E+00  0.00000000000E+00 -0.29153053999E+04  0.29153053999E+04  0.50400001928E-02 0.  1.
    10030    2    1    2    0    0  0.00000000000E+00  0.00000000000E+00 -0.19252758282E+04  0.39053349716E+04  0.33977866658E+04 0.  0.
        5    1    3    3  502    0 -0.35470482997E+03  0.15709738840E+04 -0.34107934256E+03  0.16462477543E+04  0.46999998093E+01 0.  1.
       -5    1    3    3    0  502  0.35470482997E+03 -0.15709738840E+04 -0.15841964856E+04  0.22590872174E+04  0.46999998093E+01 0. -1.
</event>
<event>
 5   0  0.6341535E-08  0.3397630E+04  0.7818609E-02  0.8138488E-01
        1   -1    0    0  501    0  0.00000000000E+00  0.00000000000E+00  0.20489452122E+04  0.20489452122E+04  0.50400001928E-02 0.  1.
       -1   -1    0    0    0  501  0.00000000000E+00  0.00000000000E+00 -0.14085162955E+04  0.14085162955E+04  0.50400001928E-02 0. -1.
    10030    2    1    2    0    0  0.00000000000E+00  0.00000000000E+00  0.64042891675E+03  0.34574615077E+04  0.33976301859E+04 0.  0.
        5    1    3    3  502    0 -0.64247081703E+03  0.12014393968E+04 -0.71240886382E+03  0.15374569438E+04  0.46999998093E+01 0. -1.
       -5    1    3    3    0  502  0.64247081703E+03 -0.12014393968E+04  0.13528377806E+04  0.19200045639E+04  0.46999998093E+01 0.  1.
</event>
<event>
 5   0  0.1970449E-07  0.3402296E+04  0.7818609E-02  0.8137343E-01
       -2   -1    0    0    0  501  0.00000000000E+00  0.00000000000E+00  0.13079522434E+04  0.13079522434E+04  0.25500000920E-02 0. -1.
        2   -1    0    0  501    0  0.00000000000E+00  0.00000000000E+00 -0.22125458025E+04  0.22125458025E+04  0.25500000920E-02 0.  1.
    10030    2    1    2    0    0  0.00000000000E+00  0.00000000000E+00 -0.90459355909E+03  0.35204980460E+04  0.34022958402E+04 0.  0.
        1    1    3    3  502    0 -0.51735020374E+02  0.39541861668E+03 -0.21634958044E+04  0.21999423834E+04  0.50400001928E-02 0.  1.
       -1    1    3    3    0  502  0.51735020374E+02 -0.39541861668E+03  0.12589022453E+04  0.13205556626E+04  0.50400001928E-02 0. -1.
</event>
<event>
 5   0  0.6311750E-08  0.3427041E+04  0.7818609E-02  0.8131301E-01
       -1   -1    0    0    0  501  0.00000000000E+00  0.00000000000E+00  0.20717145541E+04  0.20717145541E+04  0.50400001928E-02 0. -1.
        1   -1    0    0  501    0  0.00000000000E+00  0.00000000000E+00 -0.14172570004E+04  0.14172570004E+04  0.50400001928E-02 0.  1.
    10030    2    1    2    0    0  0.00000000000E+00  0.00000000000E+00  0.65445755363E+03  0.34889715545E+04  0.34270406794E+04 0.  0.
        4    1    3    3  502    0  0.52882116692E+03 -0.11823872406E+04 -0.81485428938E+03  0.15302550569E+04  0.12699999809E+01 0.  1.
       -4    1    3    3    0  502 -0.52882116692E+03  0.11823872406E+04  0.14693118430E+04  0.19587164976E+04  0.12699999809E+01 0. -1.
</event>
<event>
 5   0  0.1928004E-07  0.3400638E+04  0.7818609E-02  0.8137750E-01
        2   -1    0    0  501    0  0.00000000000E+00  0.00000000000E+00  0.16691926811E+04  0.16691926811E+04  0.25500000920E-02 0. -1.
       -2   -1    0    0    0  501  0.00000000000E+00  0.00000000000E+00 -0.17320254433E+04  0.17320254433E+04  0.25500000920E-02 0.  1.
    10030    2    1    2    0    0  0.00000000000E+00  0.00000000000E+00 -0.62832762211E+02  0.34012181244E+04  0.34006377010E+04 0.  0.
        2    1    3    3  502    0 -0.11674734302E+04  0.84939878709E+02  0.12020317989E+04  0.16778228270E+04  0.25500000920E-02 0. -1.
       -2    1    3    3    0  502  0.11674734302E+04 -0.84939878709E+02 -0.12648645611E+04  0.17233952974E+04  0.25500000920E-02 0.  1.
</event>
<event>
 5   0  0.6584420E-08  0.3400965E+04  0.7818609E-02  0.8137669E-01
        1   -1    0    0  501    0  0.00000000000E+00  0.00000000000E+00  0.31489430057E+04  0.31489430057E+04  0.50400001928E-02 0. -1.
       -1   -1    0    0    0  501  0.00000000000E+00  0.00000000000E+00 -0.91828943428E+03  0.91828943430E+03  0.50400001928E-02 0.  1.
    10030    2    1    2    0    0  0.00000000000E+00  0.00000000000E+00  0.22306535714E+04  0.40672324400E+04  0.34009652108E+04 0.  0.
        1    1    3    3  502    0  0.75951349565E+03  0.99853830008E+03  0.24881206857E+04  0.27865182636E+04  0.50400001928E-02 0. -1.
       -1    1    3    3    0  502 -0.75951349565E+03 -0.99853830008E+03 -0.25746711423E+03  0.12807141764E+04  0.50400001928E-02 0.  1.
</event>
<event>
 5   0  0.1963852E-07  0.3392186E+04  0.7818609E-02  0.8139827E-01
       -2   -1    0    0    0  501  0.00000000000E+00  0.00000000000E+00  0.13162346465E+04  0.13162346465E+04  0.25500000920E-02 0. -1.
        2   -1    0    0  501    0  0.00000000000E+00  0.00000000000E+00 -0.21855761898E+04  0.21855761898E+04  0.25500000920E-02 0.  1.
    10030    2    1    2    0    0  0.00000000000E+00  0.00000000000E+00 -0.86934154328E+03  0.35018108363E+04  0.33921857871E+04 0.  0.
        4    1    3    3  502    0  0.89327837511E+03 -0.41302431699E+02 -0.19224530677E+04  0.21202545971E+04  0.12699999809E+01 0.  1.
       -4    1    3    3    0  502 -0.89327837511E+03  0.41302431699E+02  0.10531115244E+04  0.13815562392E+04  0.12699999809E+01 0. -1.
</event>
<event>
 5   0  0.6311750E-08  0.3404318E+04  0.7818609E-02  0.8136847E-01
       -1   -1    0    0    0  501  0.00000000000E+00  0.00000000000E+00  0.13293783333E+04  0.13293783333E+04  0.50400001928E-02 0. -1.
        1   -1    0    0  501    0  0.00000000000E+00  0.00000000000E+00 -0.21794742997E+04  0.21794742997E+04  0.50400001928E-02 0.  1.
    10030    2    1    2    0    0  0.00000000000E+00  0.00000000000E+00 -0.85009596640E+03  0.35088526330E+04  0.34043183823E+04 0.  0.
        4    1    3    3  502    0  0.16778469261E+04  0.18511089277E+03 -0.65064780338E+03  0.18090827861E+04  0.12699999809E+01 0. -1.
       -4    1    3    3    0  502 -0.16778469261E+04 -0.18511089277E+03 -0.19944816301E+03  0.16997698469E+04  0.12699999809E+01 0.  1.
</event>
<event>
 5   0  0.1986613E-07  0.3373420E+04  0.7818609E-02  0.8144461E-01
        2   -1    0    0  501    0  0.00000000000E+00  0.00000000000E+00  0.25873152323E+04  0.25873152323E+04  0.25500000920E-02 0. -1.
       -2   -1    0    0    0  501  0.00000000000E+00  0.00000000000E+00 -0.10995920153E+04  0.10995920153E+04  0.25500000920E-02 0.  1.
    10030    2    1    2    0    0  0.00000000000E+00  0.00000000000E+00  0.14877232170E+04  0.36869072476E+04  0.33734203239E+04 0.  0.
        5    1    3    3  502    0 -0.10887719368E+04  0.11576919833E+04  0.12629024658E+03  0.15942541752E+04  0.46999998093E+01 0.  1.
       -5    1    3    3    0  502  0.10887719368E+04 -0.11576919833E+04  0.13614329704E+04  0.20926530724E+04  0.46999998093E+01 0. -1.
</event>
<event>
 5   0  0.6311750E-08  0.3350710E+04  0.7818609E-02  0.8150111E-01
       -1   -1    0    0    0  501  0.00000000000E+00  0.00000000000E+00  0.14439474204E+04  0.14439474204E+04  0.50400001928E-02 0. -1.
        1   -1    0    0  501    0  0.00000000000E+00  0.00000000000E+00 -0.19438478361E+04  0.19438478361E+04  0.50400001928E-02 0.  1.
    10030    2    1    2    0    0  0.00000000000E+00  0.00000000000E+00 -0.49990041570E+03  0.33877952566E+04  0.33507098165E+04 0.  0.
        4    1    3    3  502    0 -0.18875999421E+03 -0.10780544101E+04 -0.15324454708E+04  0.18831416252E+04  0.12699999809E+01 0.  1.
       -4    1    3    3    0  502  0.18875999421E+03  0.10780544101E+04  0.10325450551E+04  0.15046536314E+04  0.12699999809E+01 0. -1.
</event>
<event>
 5   0  0.6341535E-08  0.3397558E+04  0.7818609E-02  0.8138506E-01
        1   -1    0    0  501    0  0.00000000000E+00  0.00000000000E+00  0.97099458213E+03  0.97099458215E+03  0.50400001928E-02 0.  1.
       -1   -1    0    0    0  501  0.00000000000E+00  0.00000000000E+00 -0.29720564904E+04  0.29720564904E+04  0.50400001928E-02 0. -1.
    10030    2    1    2    0    0  0.00000000000E+00  0.00000000000E+00 -0.20010619083E+04  0.39430510726E+04  0.33975583880E+04 0.  0.
        5    1    3    3  502    0  0.77695329389E+03  0.11059036143E+04 -0.21949152729E+04  0.25776645185E+04  0.46999998093E+01 0. -1.
       -5    1    3    3    0  502 -0.77695329389E+03 -0.11059036143E+04  0.19385336458E+03  0.13653865540E+04  0.46999998093E+01 0.  1.
</event>
<event>
 5   0  0.1970449E-07  0.3398243E+04  0.7818609E-02  0.8138338E-01
        2   -1    0    0  501    0  0.00000000000E+00  0.00000000000E+00  0.14916020306E+04  0.14916020306E+04  0.25500000920E-02 0.  1.
       -2   -1    0    0    0  501  0.00000000000E+00  0.00000000000E+00 -0.19355126575E+04  0.19355126575E+04  0.25500000920E-02 0. -1.
    10030    2    1    2    0    0  0.00000000000E+00  0.00000000000E+00 -0.44391062694E+03  0.34271146881E+04  0.33982434346E+04 0.  0.
        1    1    3    3  502    0  0.48716046735E+03 -0.46082532990E+03  0.13525033279E+04  0.15096193419E+04  0.50400001928E-02 0.  1.
       -1    1    3    3    0  502 -0.48716046735E+03  0.46082532990E+03 -0.17964139548E+04  0.19174953462E+04  0.50400001928E-02 0. -1.
</event>
<event>
 5   0  0.6367111E-08  0.3398646E+04  0.7818609E-02  0.8138239E-01
       -1   -1    0    0    0  501  0.00000000000E+00  0.00000000000E+00  0.99625712036E+03  0.99625712038E+03  0.50400001928E-02 0.  1.
        1   -1    0    0  501    0  0.00000000000E+00  0.00000000000E+00 -0.28985467677E+04  0.28985467677E+04  0.50400001928E-02 0. -1.
    10030    2    1    2    0    0  0.00000000000E+00  0.00000000000E+00 -0.19022896473E+04  0.38948038881E+04  0.33986455279E+04 0.  0.
        3    1    3    3  502    0  0.70258146747E+03  0.72120740533E+03 -0.25199073904E+04  0.27136127407E+04  0.10100000352E+00 0. -1.
       -3    1    3    3    0  502 -0.70258146747E+03 -0.72120740533E+03  0.61761774307E+03  0.11811911474E+04  0.10100000352E+00 0.  1.
</event>
<event>
 5   0  0.1970449E-07  0.3403376E+04  0.7818609E-02  0.8137078E-01
       -2   -1    0    0    0  501  0.00000000000E+00  0.00000000000E+00  0.13537376233E+04  0.13537376233E+04  0.25500000920E-02 0. -1.
        2   -1    0    0  501    0  0.00000000000E+00  0.00000000000E+00 -0.21390719822E+04  0.21390719822E+04  0.25500000920E-02 0.  1.
    10030    2    1    2    0    0  0.00000000000E+00  0.00000000000E+00 -0.78533435898E+03  0.34928096055E+04  0.34033761010E+04 0.  0.
        1    1    3    3  502    0 -0.42146407864E+03  0.10428837378E+04 -0.17031335194E+04  0.20410541994E+04  0.50400001928E-02 0.  1.
       -1    1    3    3    0  502  0.42146407864E+03 -0.10428837378E+04  0.91779916039E+03  0.14517554061E+04  0.50400001928E-02 0. -1.
</event>
<event>
 5   0  0.6367111E-08  0.3397241E+04  0.7818609E-02  0.8138584E-01
       -1   -1    0    0    0  501  0.00000000000E+00  0.00000000000E+00  0.87672064644E+03  0.87672064645E+03  0.50400001928E-02 0.  1.
        1   -1    0    0  501    0  0.00000000000E+00  0.00000000000E+00 -0.32910277445E+04  0.32910277445E+04  0.50400001928E-02 0. -1.
    10030    2    1    2    0    0  0.00000000000E+00  0.00000000000E+00 -0.24143070980E+04  0.41677483909E+04  0.33972412170E+04 0.  0.
        3    1    3    3  502    0 -0.77644660477E+03  0.13254419697E+04 -0.31770285289E+03  0.15686302489E+04  0.10100000352E+00 0.  1.
       -3    1    3    3    0  502  0.77644660477E+03 -0.13254419697E+04 -0.20966042451E+04  0.25991181420E+04  0.10100000352E+00 0. -1.
</event>
<event>
 5   0  0.6341535E-08  0.3397043E+04  0.7818609E-02  0.8138632E-01
        1   -1    0    0  501    0  0.00000000000E+00  0.00000000000E+00  0.23751375242E+04  0.23751375242E+04  0.50400001928E-02 0.  1.
       -1   -1    0    0    0  501  0.00000000000E+00  0.00000000000E+00 -0.12146561728E+04  0.12146561728E+04  0.50400001928E-02 0. -1.
    10030    2    1    2    0    0  0.00000000000E+00  0.00000000000E+00  0.11604813514E+04  0.35897936970E+04  0.33970430995E+04 0.  0.
        5    1    3    3  502    0  0.33994628934E+03 -0.15498704016E+04  0.12206740352E+04  0.20019313004E+04  0.46999998093E+01 0.  1.
       -5    1    3    3    0  502 -0.33994628934E+03  0.15498704016E+04 -0.60192683750E+02  0.15878623966E+04  0.46999998093E+01 0. -1.
</event>
<event>
 5   0  0.1963852E-07  0.3400596E+04  0.7818609E-02  0.8137760E-01
       -2   -1    0    0    0  501  0.00000000000E+00  0.00000000000E+00  0.11069289684E+04  0.11069289684E+04  0.25500000920E-02 0.  1.
        2   -1    0    0  501    0  0.00000000000E+00  0.00000000000E+00 -0.26117425257E+04  0.26117425257E+04  0.25500000920E-02 0. -1.
    10030    2    1    2    0    0  0.00000000000E+00  0.00000000000E+00 -0.15048135573E+04  0.37186714940E+04  0.34005961005E+04 0.  0.
        4    1    3    3  502    0 -0.96096835581E+03  0.88097983825E+03 -0.19460274559E+04  0.23423514101E+04  0.12699999809E+01 0. -1.
       -4    1    3    3    0  502  0.96096835581E+03 -0.88097983825E+03  0.44121389863E+03  0.13763200840E+04  0.12699999809E+01 0.  1.
</event>
<event>
 5   0  0.1928004E-07  0.3403013E+04  0.7818609E-02  0.8137167E-01
        2   -1    0    0  501    0  0.00000000000E+00  0.00000000000E+00  0.30369055714E+04  0.30369055714E+04  0.25500000920E-02 0. -1.
       -2   -1    0    0    0  501  0.00000000000E+00  0.00000000000E+00 -0.95331393442E+03  0.95331393442E+03  0.25500000920E-02 0.  1.
    10030    2    1    2    0    0  0.00000000000E+00  0.00000000000E+00  0.20835916370E+04  0.39902195058E+04  0.34030130172E+04 0.  0.
        2    1    3    3  502    0  0.75392570430E+03 -0.53032466501E+03  0.27187854993E+04  0.28707913211E+04  0.25500000920E-02 0. -1.
       -2    1    3    3    0  502 -0.75392570430E+03  0.53032466501E+03 -0.63519386237E+03  0.11194281847E+04  0.25500000920E-02 0.  1.
</event>
<event>
 5   0  0.6311750E-08  0.3398853E+04  0.7818609E-02  0.8138188E-01
        1   -1    0    0  501    0  0.00000000000E+00  0.00000000000E+00  0.19766458886E+04  0.19766458886E+04  0.50400001928E-02 0.  1.
       -1   -1    0    0    0  501  0.00000000000E+00  0.00000000000E+00 -0.14610867574E+04  0.14610867574E+04  0.50400001928E-02 0. -1.
    10030    2    1    2    0    0  0.00000000000E+00  0.00000000000E+00  0.51555913120E+03  0.34377326459E+04  0.33988534136E+04 0.  0.
        4    1    3    3  502    0  0.51497456581E+03 -0.44430963884E+03  0.18329766567E+04  0.19550997150E+04  0.12699999809E+01 0.  1.
       -4    1    3    3    0  502 -0.51497456581E+03  0.44430963884E+03 -0.13174175255E+04  0.14826329310E+04  0.12699999809E+01 0. -1.
</event>
<event>
 5   0  0.1986613E-07  0.3397346E+04  0.7818609E-02  0.8138558E-01
        2   -1    0    0  501    0  0.00000000000E+00  0.00000000000E+00  0.13932117557E+04  0.13932117557E+04  0.25500000920E-02 0. -1.
       -2   -1    0    0    0  501  0.00000000000E+00  0.00000000000E+00 -0.20711059338E+04  0.20711059338E+04  0.25500000920E-02 0.  1.
    10030    2    1    2    0    0  0.00000000000E+00  0.00000000000E+00 -0.67789417811E+03  0.34643176895E+04  0.33973455134E+04 0.  0.
        5    1    3    3  502    0 -0.92159538005E+03 -0.13417793205E+04 -0.83406715462E+03  0.18290434379E+04  0.46999998093E+01 0.  1.
       -5    1    3    3    0  502  0.92159538005E+03  0.13417793205E+04  0.15617297650E+03  0.16352742516E+04  0.46999998093E+01 0. -1.
</event>
<event>
 5   0  0.6584420E-08  0.3392713E+04  0.7818609E-02  0.8139697E-01
        1   -1    0    0  501    0  0.00000000000E+00  0.00000000000E+00  0.23427793367E+04  0.23427793367E+04  0.50400001928E-02 0. -1.
       -1   -1    0    0    0  501  0.00000000000E+00  0.00000000000E+00 -0.12282956748E+04  0.12282956748E+04  0.50400001928E-02 0.  1.
    10030    2    1    2    0    0  0.00000000000E+00  0.00000000000E+00  0.11144836620E+04  0.35710750115E+04  0.33927132070E+04 0.  0.
        1    1    3    3  502    0  0.12199473750E+04  0.19725537029E+03 -0.66593764443E+03  0.14037999235E+04  0.50400001928E-02 0.  1.
       -1    1    3    3    0  502 -0.12199473750E+04 -0.19725537029E+03  0.17804213064E+04  0.21672750880E+04  0.50400001928E-02 0. -1.
</event>
<event>
 5   0  0.1963852E-07  0.3393120E+04  0.7818609E-02  0.8139597E-01
        2   -1    0    0  501    0  0.00000000000E+00  0.00000000000E+00  0.23826862541E+04  0.23826862541E+04  0.25500000920E-02 0.  1.
       -2   -1    0    0    0  501  0.00000000000E+00  0.00000000000E+00 -0.12080127868E+04  0.12080127868E+04  0.25500000920E-02 0. -1.
    10030    2    1    2    0    0  0.00000000000E+00  0.00000000000E+00  0.11746734673E+04  0.35906990409E+04  0.33931197809E+04 0.  0.
        4    1    3    3  502    0 -0.31008522031E+03  0.10831568025E+04  0.19296340013E+04  0.22344732029E+04  0.12699999809E+01 0.  1.
       -4    1    3    3    0  502  0.31008522031E+03 -0.10831568025E+04 -0.75496053402E+03  0.13562258379E+04  0.12699999809E+01 0. -1.
</event>
<event>
 5   0  0.6788600E-08  0.3403209E+04  0.7818609E-02  0.8137119E-01
       -1   -1    0    0    0  501  0.00000000000E+00  0.00000000000E+00  0.16265736115E+04  0.16265736115E+04  0.50400001928E-02 0.  1.
        1   -1    0    0  501    0  0.00000000000E+00  0.00000000000E+00 -0.17800967889E+04  0.17800967889E+04  0.50400001928E-02 0. -1.
    10030    2    1    2    0    0  0.00000000000E+00  0.00000000000E+00 -0.15352317738E+03  0.34066704004E+04  0.34032093457E+04 0.  0.
        2    1    3    3  502    0  0.45196466651E+03 -0.73943793160E+03  0.13891108139E+04  0.16372749823E+04  0.25500000920E-02 0.  1.
       -2    1    3    3    0  502 -0.45196466651E+03  0.73943793160E+03 -0.15426339913E+04  0.17693954181E+04  0.25500000920E-02 0. -1.
</event>
<event>
 5   0  0.6788600E-08  0.3393556E+04  0.7818609E-02  0.8139490E-01
        1   -1    0    0  501    0  0.00000000000E+00  0.00000000000E+00  0.27077184106E+04  0.27077184106E+04  0.50400001928E-02 0. -1.
       -1   -1    0    0    0  501  0.00000000000E+00  0.00000000000E+00 -0.10632771948E+04  0.10632771948E+04  0.50400001928E-02 0.  1.
    10030    2    1    2    0    0  0.00000000000E+00  0.00000000000E+00  0.16444412158E+04  0.37709956053E+04  0.33935557964E+04 0.  0.
        2    1    3    3  502    0 -0.76116768053E+03  0.83614672252E+03  0.22280544065E+04  0.24985483821E+04  0.25500000920E-02 0. -1.
       -2    1    3    3    0  502  0.76116768053E+03 -0.83614672252E+03 -0.58361319071E+03  0.12724472232E+04  0.25500000920E-02 0.  1.
</event>
<event>
 5   0  0.1928004E-07  0.3382078E+04  0.7818609E-02  0.8142319E-01
        2   -1    0    0  501    0  0.00000000000E+00  0.00000000000E+00  0.22474555639E+04  0.22474555639E+04  0.25500000920E-02 0.  1.
       -2   -1    0    0    0  501  0.00000000000E+00  0.00000000000E+00 -0.12723778259E+04  0.12723778259E+04  0.25500000920E-02 0. -1.
    10030    2    1    2    0    0  0.00000000000E+00  0.00000000000E+00  0.97507773801E+03  0.35198333897E+04  0.33820778371E+04 0.  0.
        2    1    3    3  502    0 -0.99544113969E+03 -0.49752573532E+02 -0.93420572385E+03  0.13660595579E+04  0.25500000920E-02 0. -1.
       -2    1    3    3    0  502  0.99544113969E+03  0.49752573532E+02  0.19092834619E+04  0.21537738319E+04  0.25500000920E-02 0.  1.
</event>
<event>
 5   0  0.6341535E-08  0.3398952E+04  0.7818609E-02  0.8138164E-01
       -1   -1    0    0    0  501  0.00000000000E+00  0.00000000000E+00  0.31905928358E+04  0.31905928358E+04  0.50400001928E-02 0. -1.
        1   -1    0    0  501    0  0.00000000000E+00  0.00000000000E+00 -0.90522924786E+03  0.90522924787E+03  0.50400001928E-02 0.  1.
    10030    2    1    2    0    0  0.00000000000E+00  0.00000000000E+00  0.22853635879E+04  0.40958220837E+04  0.33989515754E+04 0.  0.
        5    1    3    3  502    0  0.10885376955E+03 -0.36839392653E+03 -0.85221998886E+03  0.93480705371E+03  0.46999998093E+01 0.  1.
       -5    1    3    3    0  502 -0.10885376955E+03  0.36839392653E+03  0.31375835768E+04  0.31610150299E+04  0.46999998093E+01 0. -1.
</event>
<event>
 5   0  0.6311750E-08  0.3400142E+04  0.7818609E-02  0.8137872E-01
       -1   -1    0    0    0  501  0.00000000000E+00  0.00000000000E+00  0.14178867150E+04  0.14178867150E+04  0.50400001928E-02 0. -1.
        1   -1    0    0  501    0  0.00000000000E+00  0.00000000000E+00 -0.20384146980E+04  0.20384146980E+04  0.50400001928E-02 0.  1.
    10030    2    1    2    0    0  0.00000000000E+00  0.00000000000E+00 -0.62052798303E+03  0.34563014130E+04  0.34001418323E+04 0.  0.
        4    1    3    3  502    0 -0.69106090471E+03 -0.14152608081E+04 -0.96092305217E+03  0.18449669520E+04  0.12699999809E+01 0.  1.
       -4    1    3    3    0  502  0.69106090471E+03  0.14152608081E+04  0.34039506914E+03  0.16113344610E+04  0.12699999809E+01 0. -1.
</event>
<event>
 5   0  0.6341535E-08  0.3404165E+04  0.7818609E-02  0.8136885E-01
       -1   -1    0    0    0  501  0.00000000000E+00  0.00000000000E+00  0.19815127839E+04  0.19815127839E+04  0.50400001928E-02 0.  1.
        1   -1    0    0  501    0  0.00000000000E+00  0.00000000000E+00 -0.14620567894E+04  0.14620567895E+04  0.50400001928E-02 0. -1.
    10030    2    1    2    0    0  0.00000000000E+00  0.00000000000E+00  0.51945599443E+03  0.34435695733E+04  0.34041646371E+04 0.  0.
        5    1    3    3  502    0  0.16059150609E+04  0.74430878283E+02 -0.30581327410E+03  0.16364739494E+04  0.46999998093E+01 0. -1.
       -5    1    3    3    0  502 -0.16059150609E+04 -0.74430878283E+02  0.82526926853E+03  0.18070956239E+04  0.46999998093E+01 0.  1.
</event>
<event>
 5   0  0.1928004E-07  0.3382450E+04  0.7818609E-02  0.8142227E-01
        2   -1    0    0  501    0  0.00000000000E+00  0.00000000000E+00  0.22813062040E+04  0.22813062040E+04  0.25500000920E-02 0. -1.
       -2   -1    0    0    0  501  0.00000000000E+00  0.00000000000E+00 -0.12537739414E+04  0.12537739414E+04  0.25500000920E-02 0.  1.
    10030    2    1    2    0    0  0.00000000000E+00  0.00000000000E+00  0.10275322626E+04  0.35350801453E+04  0.33824501598E+04 0.  0.
        2    1    3    3  502    0  0.45631463556E+03 -0.67492997092E+03  0.20626981265E+04  0.22177639805E+04  0.25500000920E-02 0. -1.
       -2    1    3    3    0  502 -0.45631463556E+03  0.67492997092E+03 -0.10351658639E+04  0.13173161648E+04  0.25500000920E-02 0.  1.
</event>
<event>
 5   0  0.1928004E-07  0.3394629E+04  0.7818609E-02  0.8139226E-01
        2   -1    0    0  501    0  0.00000000000E+00  0.00000000000E+00  0.28253521137E+04  0.28253521137E+04  0.25500000920E-02 0.  1.
       -2   -1    0    0    0  501  0.00000000000E+00  0.00000000000E+00 -0.10196523151E+04  0.10196523151E+04  0.25500000920E-02 0. -1.
    10030    2    1    2    0    0  0.00000000000E+00  0.00000000000E+00  0.18056997986E+04  0.38450044287E+04  0.33946291836E+04 0.  0.
        2    1    3    3  502    0  0.13111804957E+04  0.23866694795E+03  0.20933535565E+04  0.24815892723E+04  0.25500000920E-02 0. -1.
       -2    1    3    3    0  502 -0.13111804957E+04 -0.23866694795E+03 -0.28765375785E+03  0.13634151564E+04  0.25500000920E-02 0.  1.
</event>
<event>
 5   0  0.6584420E-08  0.3400316E+04  0.7818609E-02  0.8137829E-01
        1   -1    0    0  501    0  0.00000000000E+00  0.00000000000E+00  0.15740799827E+04  0.15740799827E+04  0.50400001928E-02 0. -1.
       -1   -1    0    0    0  501  0.00000000000E+00  0.00000000000E+00 -0.18363342204E+04  0.18363342204E+04  0.50400001928E-02 0.  1.
    10030    2    1    2    0    0  0.00000000000E+00  0.00000000000E+00 -0.26225423768E+03  0.34104142031E+04  0.34003158312E+04 0.  0.
        1    1    3    3  502    0  0.48355413339E+03  0.15789527079E+04  0.27457471711E+03  0.16740094173E+04  0.50400001928E-02 0.  1.
       -1    1    3    3    0  502 -0.48355413339E+03 -0.15789527079E+04 -0.53682895479E+03  0.17364047859E+04  0.50400001928E-02 0. -1.
</event>
<event>
 5   0  0.1897313E-07  0.3390474E+04  0.7818609E-02  0.8140248E-01
       -2   -1    0    0    0  501  0.00000000000E+00  0.00000000000E+00  0.15594455092E+04  0.15594455092E+04  0.25500000920E-02 0.  1.
        2   -1    0    0  501    0  0.00000000000E+00  0.00000000000E+00 -0.18428532235E+04  0.18428532235E+04  0.25500000920E-02 0. -1.
    10030    2    1    2    0    0  0.00000000000E+00  0.00000000000E+00 -0.28340771428E+03  0.34022987327E+04  0.33904744114E+04 0.  0.
        3    1    3    3  502    0  0.14027760928E+04  0.10831156747E+03 -0.10906852963E+04  0.17801984687E+04  0.10100000352E+00 0. -1.
       -3    1    3    3    0  502 -0.14027760928E+04 -0.10831156747E+03  0.80727758199E+03  0.16221002641E+04  0.10100000352E+00 0.  1.
</event>
<event>
 5   0  0.1897313E-07  0.3388657E+04  0.7818609E-02  0.8140696E-01
       -2   -1    0    0    0  501  0.00000000000E+00  0.00000000000E+00  0.14519373282E+04  0.14519373282E+04  0.25500000920E-02 0. -1.
        2   -1    0    0  501    0  0.00000000000E+00  0.00000000000E+00 -0.19771847764E+04  0.19771847764E+04  0.25500000920E-02 0.  1.
    10030    2    1    2    0    0  0.00000000000E+00  0.00000000000E+00 -0.52524744818E+03  0.34291221045E+04  0.33886565961E+04 0.  0.
        3    1    3    3  502    0 -0.20583511176E+02  0.60277666248E+03  0.13396298768E+04  0.14691397492E+04  0.10100000352E+00 0. -1.
       -3    1    3    3    0  502  0.20583511176E+02 -0.60277666248E+03 -0.18648773250E+04  0.19599823553E+04  0.10100000352E+00 0.  1.
</event>
<event>
 5   0  0.1963852E-07  0.3398914E+04  0.7818609E-02  0.8138173E-01
       -2   -1    0    0    0  501  0.00000000000E+00  0.00000000000E+00  0.23450814520E+04  0.23450814520E+04  0.25500000920E-02 0. -1.
        2   -1    0    0  501    0  0.00000000000E+00  0.00000000000E+00 -0.12315793416E+04  0.12315793416E+04  0.25500000920E-02 0.  1.
    10030    2    1    2    0    0  0.00000000000E+00  0.00000000000E+00  0.11135021104E+04  0.35766607937E+04  0.33989138682E+04 0.  0.
        4    1    3    3  502    0  0.93007229787E+03 -0.44071474498E+02 -0.93927654440E+03  0.13225803620E+04  0.12699999809E+01 0.  1.
       -4    1    3    3    0  502 -0.93007229787E+03  0.44071474498E+02  0.20527786548E+04  0.22540804317E+04  0.12699999809E+01 0. -1.
</event>
<event>
 5   0  0.6311750E-08  0.3372436E+04  0.7818609E-02  0.8144705E-01
       -1   -1    0    0    0  501  0.00000000000E+00  0.00000000000E+00  0.12935955194E+04  0.12935955194E+04  0.50400001928E-02 0. -1.
        1   -1    0    0  501    0  0.00000000000E+00  0.00000000000E+00 -0.21980066269E+04  0.21980066269E+04  0.50400001928E-02 0.  1.
    10030    2    1    2    0    0  0.00000000000E+00  0.00000000000E+00 -0.90441110747E+03  0.34916021464E+04  0.33724362258E+04 0.  0.
        4    1    3    3  502    0 -0.30653621673E+03 -0.36103640740E+03  0.12233169375E+04  0.13117994062E+04  0.12699999809E+01 0. -1.
       -4    1    3    3    0  502  0.30653621673E+03  0.36103640740E+03 -0.21277280450E+04  0.21798027401E+04  0.12699999809E+01 0.  1.
</event>
<event>
 5   0  0.6311750E-08  0.3403441E+04  0.7818609E-02  0.8137062E-01
        1   -1    0    0  501    0  0.00000000000E+00  0.00000000000E+00  0.21450272161E+04  0.21450272161E+04  0.50400001928E-02 0.  1.
       -1   -1    0    0    0  501  0.00000000000E+00  0.00000000000E+00 -0.13500306417E+04  0.13500306417E+04  0.50400001928E-02 0. -1.
    10030    2    1    2    0    0  0.00000000000E+00  0.00000000000E+00  0.79499657446E+03  0.34950578578E+04  0.34034408877E+04 0.  0.
        4    1    3    3  502    0 -0.25021943942E+03 -0.75990861314E+03 -0.11448573576E+04  0.13966999858E+04  0.12699999809E+01 0. -1.
       -4    1    3    3    0  502  0.25021943942E+03  0.75990861314E+03  0.19398539321E+04  0.20983578720E+04  0.12699999809E+01 0.  1.
</event>
<event>
 5   0  0.1986613E-07  0.3398600E+04  0.7818609E-02  0.8138250E-01
        2   -1    0    0  501    0  0.00000000000E+00  0.00000000000E+00  0.26637983573E+04  0.26637983573E+04  0.25500000920E-02 0. -1.
       -2   -1    0    0    0  501  0.00000000000E+00  0.00000000000E+00 -0.10840236439E+04  0.10840236439E+04  0.25500000920E-02 0.  1.
    10030    2    1    2    0    0  0.00000000000E+00  0.00000000000E+00  0.15797747134E+04  0.37478220012E+04  0.33985999482E+04 0.  0.
        5    1    3    3  502    0 -0.93298520129E+03 -0.13805700424E+04  0.11575585415E+04  0.20288910505E+04  0.46999998093E+01 0. -1.
       -5    1    3    3    0  502  0.93298520129E+03  0.13805700424E+04  0.42221617187E+03  0.17189309508E+04  0.46999998093E+01 0.  1.
</event>
<event>
 5   0  0.6311750E-08  0.3389034E+04  0.7818609E-02  0.8140603E-01
        1   -1    0    0  501    0  0.00000000000E+00  0.00000000000E+00  0.20927402963E+04  0.20927402963E+04  0.50400001928E-02 0.  1.
       -1   -1    0    0    0  501  0.00000000000E+00  0.00000000000E+00 -0.13720705076E+04  0.13720705076E+04  0.50400001928E-02 0. -1.
    10030    2    1    2    0    0  0.00000000000E+00  0.00000000000E+00  0.72066978866E+03  0.34648108039E+04  0.33890336325E+04 0.  0.
        4    1    3    3  502    0  0.12820927937E+03 -0.12971557929E+03  0.20826760007E+04  0.20906469543E+04  0.12699999809E+01 0.  1.
       -4    1    3    3    0  502 -0.12820927937E+03  0.12971557929E+03 -0.13620062121E+04  0.13741638496E+04  0.12699999809E+01 0. -1.
</event>
<event>
 5   0  0.1897313E-07  0.3397530E+04  0.7818609E-02  0.8138513E-01
       -2   -1    0    0    0  501  0.00000000000E+00  0.00000000000E+00  0.13122391391E+04  0.13122391392E+04  0.25500000920E-02 0.  1.
        2   -1    0    0  501    0  0.00000000000E+00  0.00000000000E+00 -0.21991434121E+04  0.21991434121E+04  0.25500000920E-02 0. -1.
    10030    2    1    2    0    0  0.00000000000E+00  0.00000000000E+00 -0.88690427295E+03  0.35113825513E+04  0.33975297249E+04 0.  0.
        3    1    3    3  502    0 -0.10937558523E+04 -0.12997354053E+04 -0.42927910937E+03  0.17521114554E+04  0.10100000352E+00 0.  1.
       -3    1    3    3    0  502  0.10937558523E+04  0.12997354053E+04 -0.45762516358E+03  0.17592710959E+04  0.10100000352E+00 0. -1.
</event>
<event>
 5   0  0.1897313E-07  0.3406153E+04  0.7818609E-02  0.8136398E-01
        2   -1    0    0  501    0  0.00000000000E+00  0.00000000000E+00  0.27533755843E+04  0.27533755843E+04  0.25500000920E-02 0.  1.
       -2   -1    0    0    0  501  0.00000000000E+00  0.00000000000E+00 -0.10534233648E+04  0.10534233648E+04  0.25500000920E-02 0. -1.
    10030    2    1    2    0    0  0.00000000000E+00  0.00000000000E+00  0.16999522196E+04  0.38067989491E+04  0.34061533568E+04 0.  0.
        3    1    3    3  502    0 -0.16675308590E+04  0.34062231133E+03  0.91875711111E+03  0.19341141032E+04  0.10100000352E+00 0.  1.
       -3    1    3    3    0  502  0.16675308590E+04 -0.34062231133E+03  0.78119510847E+03  0.18726848460E+04  0.10100000352E+00 0. -1.
</event>
<event>
 5   0  0.6311750E-08  0.3407998E+04  0.7818609E-02  0.8135946E-01
        1   -1    0    0  501    0  0.00000000000E+00  0.00000000000E+00  0.20410566797E+04  0.20410566797E+04  0.50400001928E-02 0.  1.
       -1   -1    0    0    0  501  0.00000000000E+00  0.00000000000E+00 -0.14226022352E+04  0.14226022352E+04  0.50400001928E-02 0. -1.
    10030    2    1    2    0    0  0.00000000000E+00  0.00000000000E+00  0.61845444457E+03  0.34636589149E+04  0.34079975321E+04 0.  0.
        4    1    3    3  502    0  0.33885171540E+03  0.65187413975E+02  0.20051754884E+04  0.20346499050E+04  0.12699999809E+01 0.  1.
       -4    1    3    3    0  502 -0.33885171540E+03 -0.65187413975E+02 -0.13867210438E+04  0.14290090099E+04  0.12699999809E+01 0. -1.
</event>
<event>
 5   0  0.6367111E-08  0.3392920E+04  0.7818609E-02  0.8139646E-01
       -1   -1    0    0    0  501  0.00000000000E+00  0.00000000000E+00  0.14159152011E+04  0.14159152011E+04  0.50400001928E-02 0.  1.
        1   -1    0    0  501    0  0.00000000000E+00  0.00000000000E+00 -0.20325910112E+04  0.20325910112E+04  0.50400001928E-02 0. -1.
    10030    2    1    2    0    0  0.00000000000E+00  0.00000000000E+00 -0.61667581012E+03  0.34485062123E+04  0.33929199875E+04 0.  0.
        3    1    3    3  502    0  0.17750760150E+03  0.77096635402E+03  0.12169406010E+04  0.14514966428E+04  0.10100000352E+00 0.  1.
       -3    1    3    3    0  502 -0.17750760150E+03 -0.77096635402E+03 -0.18336164111E+04  0.19970095695E+04  0.10100000352E+00 0. -1.
</event>
<event>
 5   0  0.6311750E-08  0.3408053E+04  0.7818609E-02  0.8135933E-01
       -1   -1    0    0    0  501  0.00000000000E+00  0.00000000000E+00  0.12629150151E+04  0.12629150151E+04  0.50400001928E-02 0. -1.
        1   -1    0    0  501    0  0.00000000000E+00  0.00000000000E+00 -0.22992090515E+04  0.22992090515E+04  0.50400001928E-02 0.  1.
    10030    2    1    2    0    0  0.00000000000E+00  0.00000000000E+00 -0.10362940365E+04  0.35621240666E+04  0.34080526017E+04 0.  0.
        4    1    3    3  502    0 -0.10113692525E+04 -0.11449649491E+04  0.27089267307E+03  0.15515144063E+04  0.12699999809E+01 0. -1.
       -4    1    3    3    0  502  0.10113692525E+04  0.11449649491E+04 -0.13071867095E+04  0.20106096603E+04  0.12699999809E+01 0.  1.
</event>
<event>
 5   0  0.1986613E-07  0.3397329E+04  0.7818609E-02  0.8138562E-01
       -2   -1    0    0    0  501  0.00000000000E+00  0.00000000000E+00  0.14422287106E+04  0.14422287106E+04  0.25500000920E-02 0.  1.
        2   -1    0    0  501    0  0.00000000000E+00  0.00000000000E+00 -0.20006962721E+04  0.20006962721E+04  0.25500000920E-02 0. -1.
    10030    2    1    2    0    0  0.00000000000E+00  0.00000000000E+00 -0.55846756158E+03  0.34429249827E+04  0.33973293068E+04 0.  0.
        5    1    3    3  502    0 -0.95188061486E+03 -0.15812868082E+03  0.11375122005E+04  0.14916559526E+04  0.46999998093E+01 0.  1.
       -5    1    3    3    0  502  0.95188061486E+03  0.15812868082E+03 -0.16959797620E+04  0.19512690301E+04  0.46999998093E+01 0. -1.
</event>
<event>
 5   0  0.6311750E-08  0.3397563E+04  0.7818609E-02  0.8138505E-01
       -1   -1    0    0    0  501  0.00000000000E+00  0.00000000000E+00  0.24390898544E+04  0.24390898544E+04  0.50400001928E-02 0.  1.
        1   -1    0    0  501    0  0.00000000000E+00  0.00000000000E+00 -0.11831703074E+04  0.11831703074E+04  0.50400001928E-02 0. -1.
    10030    2    1    2    0    0  0.00000000000E+00  0.00000000000E+00  0.12559195470E+04  0.36222601618E+04  0.33975630636E+04 0.  0.
        4    1    3    3  502    0  0.15995957854E+04  0.74373350452E+02  0.12325804109E+04  0.20207657346E+04  0.12699999809E+01 0.  1.
       -4    1    3    3    0  502 -0.15995957854E+04 -0.74373350452E+02  0.23339136120E+02  0.16014944272E+04  0.12699999809E+01 0. -1.
</event>
<event>
 5   0  0.6788600E-08  0.3406844E+04  0.7818609E-02  0.8136229E-01
        1   -1    0    0  501    0  0.00000000000E+00  0.00000000000E+00  0.20853954345E+04  0.20853954345E+04  0.50400001928E-02 0.  1.
       -1   -1    0    0    0  501  0.00000000000E+00  0.00000000000E+00 -0.13914127390E+04  0.13914127390E+04  0.50400001928E-02 0. -1.
    10030    2    1    2    0    0  0.00000000000E+00  0.00000000000E+00  0.69398269553E+03  0.34768081735E+04  0.34068435676E+04 0.  0.
        2    1    3    3  502    0 -0.10403242354E+04  0.80859127230E+03  0.14487697507E+04  0.19583227903E+04  0.25500000920E-02 0.  1.
       -2    1    3    3    0  502  0.10403242354E+04 -0.80859127230E+03 -0.75478705513E+03  0.15184853832E+04  0.25500000920E-02 0. -1.
</event>
<event>
 5   0  0.6341535E-08  0.3396677E+04  0.7818609E-02  0.8138722E-01
        1   -1    0    0  501    0  0.00000000000E+00  0.00000000000E+00  0.20240110778E+04  0.20240110778E+04  0.50400001928E-02 0.  1.
       -1   -1    0    0    0  501  0.00000000000E+00  0.00000000000E+00 -0.14250683227E+04  0.14250683227E+04  0.50400001928E-02 0. -1.
    10030    2    1    2    0    0  0.00000000000E+00  0.00000000000E+00  0.59894275508E+03  0.34490794005E+04  0.33966772421E+04 0.  0.
        5    1    3    3  502    0 -0.76621772032E+03 -0.21591449956E+03  0.18228235550E+04  0.19890742743E+04  0.46999998093E+01 0.  1.
       -5    1    3    3    0  502  0.76621772032E+03  0.21591449956E+03 -0.12238807999E+04  0.14600051262E+04  0.46999998093E+01 0. -1.
</event>
<event>
 5   0  0.1928004E-07  0.3436892E+04  0.7818609E-02  0.8128911E-01
        2   -1    0    0  501    0  0.00000000000E+00  0.00000000000E+00  0.17703888748E+04  0.17703888748E+04  0.25500000920E-02 0. -1.
       -2   -1    0    0    0  501  0.00000000000E+00  0.00000000000E+00 -0.16680274981E+04  0.16680274981E+04  0.25500000920E-02 0.  1.
    10030    2    1    2    0    0  0.00000000000E+00  0.00000000000E+00  0.10236137674E+03  0.34384163729E+04  0.34368923902E+04 0.  0.
        2    1    3    3  502    0  0.11621807960E+04 -0.53478873643E+03 -0.10966702675E+04  0.16850367565E+04  0.25500000920E-02 0.  1.
       -2    1    3    3    0  502 -0.11621807960E+04  0.53478873643E+03  0.11990316442E+04  0.17533796164E+04  0.25500000920E-02 0. -1.
</event>
<event>
 5   0  0.1963852E-07  0.3398539E+04  0.7818609E-02  0.8138265E-01
        2   -1    0    0  501    0  0.00000000000E+00  0.00000000000E+00  0.25415070445E+04  0.25415070445E+04  0.25500000920E-02 0.  1.
       -2   -1    0    0    0  501  0.00000000000E+00  0.00000000000E+00 -0.11361435949E+04  0.11361435949E+04  0.25500000920E-02 0. -1.
    10030    2    1    2    0    0  0.00000000000E+00  0.00000000000E+00  0.14053634496E+04  0.36776506394E+04  0.33985390685E+04 0.  0.
        4    1    3    3  502    0  0.11008582314E+04 -0.85999773708E+03 -0.34426161173E+03  0.14387503688E+04  0.12699999809E+01 0. -1.
       -4    1    3    3    0  502 -0.11008582314E+04  0.85999773708E+03  0.17496250614E+04  0.22389002706E+04  0.12699999809E+01 0.  1.
</event>
<event>
 5   0  0.1897313E-07  0.3405874E+04  0.7818609E-02  0.8136466E-01
        2   -1    0    0  501    0  0.00000000000E+00  0.00000000000E+00  0.19227760125E+04  0.19227760125E+04  0.25500000920E-02 0.  1.
       -2   -1    0    0    0  501  0.00000000000E+00  0.00000000000E+00 -0.15082330649E+04  0.15082330649E+04  0.25500000920E-02 0. -1.
    10030    2    1    2    0    0  0.00000000000E+00  0.00000000000E+00  0.41454294758E+03  0.34310090775E+04  0.34058739604E+04 0.  0.
        3    1    3    3  502    0 -0.60287625034E+03  0.10237105178E+04 -0.10217945280E+04  0.15670057643E+04  0.10100000352E+00 0. -1.
       -3    1    3    3    0  502  0.60287625034E+03 -0.10237105178E+04  0.14363374756E+04  0.18640033132E+04  0.10100000352E+00 0.  1.
</event>
<event>
 5   0  0.6584420E-08  0.3391355E+04  0.7818609E-02  0.8140031E-01
       -1   -1    0    0    0  501  0.00000000000E+00  0.00000000000E+00  0.16926350959E+04  0.16926350960E+04  0.50400001928E-02 0. -1.
        1   -1    0    0  501    0  0.00000000000E+00  0.00000000000E+00 -0.16987256558E+04  0.16987256558E+04  0.50400001928E-02 0.  1.
    10030    2    1    2    0    0  0.00000000000E+00  0.00000000000E+00 -0.60905598769E+01  0.33913607518E+04  0.33913552828E+04 0.  0.
        1    1    3    3  502    0 -0.13665043912E+04 -0.80946838429E+03 -0.59697329309E+03  0.16967470139E+04  0.50400001928E-02 0.  1.
       -1    1    3    3    0  502  0.13665043912E+04  0.80946838429E+03  0.59088273322E+03  0.16946137379E+04  0.50400001928E-02 0. -1.
</event>
<event>
 5   0  0.6367111E-08  0.3401099E+04  0.7818609E-02  0.8137637E-01
        1   -1    0    0  501    0  0.00000000000E+00  0.00000000000E+00  0.25772342542E+04  0.25772342542E+04  0.50400001928E-02 0. -1.
       -1   -1    0    0    0  501  0.00000000000E+00  0.00000000000E+00 -0.11220821872E+04  0.11220821872E+04  0.50400001928E-02 0.  1.
    10030    2    1    2    0    0  0.00000000000E+00  0.00000000000E+00  0.14551520670E+04  0.36993164414E+04  0.34010990276E+04 0.  0.
        3    1    3    3  502    0 -0.14288000724E+04  0.91565587782E+03  0.60855896969E+03  0.18028420239E+04  0.10100000352E+00 0. -1.
       -3    1    3    3    0  502  0.14288000724E+04 -0.91565587782E+03  0.84659309735E+03  0.18964744175E+04  0.10100000352E+00 0.  1.
</event>
<event>
 5   0  0.6341535E-08  0.3404869E+04  0.7818609E-02  0.8136712E-01
       -1   -1    0    0    0  501  0.00000000000E+00  0.00000000000E+00  0.10049069701E+04  0.10049069701E+04  0.50400001928E-02 0. -1.
        1   -1    0    0  501    0  0.00000000000E+00  0.00000000000E+00 -0.28841309087E+04  0.28841309088E+04  0.50400001928E-02 0.  1.
    10030    2    1    2    0    0  0.00000000000E+00  0.00000000000E+00 -0.18792239386E+04  0.38890378789E+04  0.34048690154E+04 0.  0.
        5    1    3    3  502    0 -0.46020238073E+03 -0.14364161783E+04 -0.18412863597E+04  0.23802174726E+04  0.46999998093E+01 0.  1.
       -5    1    3    3    0  502  0.46020238073E+03  0.14364161783E+04 -0.37937578930E+02  0.15088204063E+04  0.46999998093E+01 0. -1.
</event>
<event>
 5   0  0.6341535E-08  0.3399111E+04  0.7818609E-02  0.8138125E-01
        1   -1    0    0  501    0  0.00000000000E+00  0.00000000000E+00  0.24215802099E+04  0.24215802099E+04  0.50400001928E-02 0.  1.
       -1   -1    0    0    0  501  0.00000000000E+00  0.00000000000E+00 -0.11928116236E+04  0.11928116236E+04  0.50400001928E-02 0. -1.
    10030    2    1    2    0    0  0.00000000000E+00  0.00000000000E+00  0.12287685862E+04  0.36143918335E+04  0.33991110731E+04 0.  0.
        5    1    3    3  502    0 -0.13849921239E+04 -0.93574106921E+03  0.28724275485E+03  0.16959790747E+04  0.46999998093E+01 0. -1.
       -5    1    3    3    0  502  0.13849921239E+04  0.93574106921E+03  0.94152583139E+03  0.19184127587E+04  0.46999998093E+01 0.  1.
</event>
<event>
 5   0  0.1928004E-07  0.3407843E+04  0.7818609E-02  0.8135984E-01
        2   -1    0    0  501    0  0.00000000000E+00  0.00000000000E+00  0.33770202701E+04  0.33770202701E+04  0.25500000920E-02 0. -1.
       -2   -1    0    0    0  501  0.00000000000E+00  0.00000000000E+00 -0.85973674337E+03  0.85973674337E+03  0.25500000920E-02 0.  1.
    10030    2    1    2    0    0  0.00000000000E+00  0.00000000000E+00  0.25172835267E+04  0.42367570135E+04  0.34078429596E+04 0.  0.
        2    1    3    3  502    0  0.84759700304E+03 -0.13109015699E+04  0.40953280286E+03  0.16138775425E+04  0.25500000920E-02 0.  1.
       -2    1    3    3    0  502 -0.84759700304E+03  0.13109015699E+04  0.21077507238E+04  0.26228794710E+04  0.25500000920E-02 0. -1.
</event>
<event>
 5   0  0.1928004E-07  0.3401078E+04  0.7818609E-02  0.8137642E-01
        2   -1    0    0  501    0  0.00000000000E+00  0.00000000000E+00  0.10168850401E+04  0.10168850401E+04  0.25500000920E-02 0.  1.
       -2   -1    0    0    0  501  0.00000000000E+00  0.00000000000E+00 -0.28438156014E+04  0.28438156014E+04  0.25500000920E-02 0. -1.
    10030    2    1    2    0    0  0.00000000000E+00  0.00000000000E+00 -0.18269305614E+04  0.38607006415E+04  0.34010783830E+04 0.  0.
        2    1    3    3  502    0 -0.69084999923E+03  0.11622546468E+04 -0.20842147155E+04  0.24843632114E+04  0.25500000920E-02 0. -1.
       -2    1    3    3    0  502  0.69084999923E+03 -0.11622546468E+04  0.25728415417E+03  0.13763374301E+04  0.25500000920E-02 0.  1.
</event>
<event>
 5   0  0.6367111E-08  0.3387757E+04  0.7818609E-02  0.8140918E-01
       -1   -1    0    0    0  501  0.00000000000E+00  0.00000000000E+00  0.17016235336E+04  0.17016235336E+04  0.50400001928E-02 0. -1.
        1   -1    0    0  501    0  0.00000000000E+00  0.00000000000E+00 -0.16861684491E+04  0.16861684491E+04  0.50400001928E-02 0.  1.
    10030    2    1    2    0    0  0.00000000000E+00  0.00000000000E+00  0.15455084578E+02  0.33877919827E+04  0.33877567295E+04 0.  0.
        3    1    3    3  502    0 -0.67053516169E+03 -0.14808375684E+04  0.48389066144E+03  0.16960682443E+04  0.10100000352E+00 0. -1.
       -3    1    3    3    0  502  0.67053516169E+03  0.14808375684E+04 -0.46843557687E+03  0.16917237384E+04  0.10100000352E+00 0.  1.
</event>
<event>
 5   0  0.6584420E-08  0.3400551E+04  0.7818609E-02  0.8137771E-01
       -1   -1    0    0    0  501  0.00000000000E+00  0.00000000000E+00  0.98201461214E+03  0.98201461215E+03  0.50400001928E-02 0.  1.
        1   -1    0    0  501    0  0.00000000000E+00  0.00000000000E+00 -0.29438835460E+04  0.29438835460E+04  0.50400001928E-02 0. -1.
    10030    2    1    2    0    0  0.00000000000E+00  0.00000000000E+00 -0.19618689339E+04  0.39258981582E+04  0.34005509310E+04 0.  0.
        1    1    3    3  502    0 -0.34386025449E+03  0.70109368864E+03 -0.27246195028E+04  0.28343118513E+04  0.50400001928E-02 0. -1.
       -1    1    3    3    0  502  0.34386025449E+03 -0.70109368864E+03  0.76275056899E+03  0.10915863069E+04  0.50400001928E-02 0.  1.
</event>
<event>
 5   0  0.1970449E-07  0.3404012E+04  0.7818609E-02  0.8136922E-01
        2   -1    0    0  501    0  0.00000000000E+00  0.00000000000E+00  0.20448299563E+04  0.20448299563E+04  0.25500000920E-02 0. -1.
       -2   -1    0    0    0  501  0.00000000000E+00  0.00000000000E+00 -0.14166581896E+04  0.14166581896E+04  0.25500000920E-02 0.  1.
    10030    2    1    2    0    0  0.00000000000E+00  0.00000000000E+00  0.62817176668E+03  0.34614881460E+04  0.34040123995E+04 0.  0.
        1    1    3    3  502    0 -0.40950720794E+03  0.11265308405E+04  0.15428164235E+04  0.19537273107E+04  0.50400001928E-02 0. -1.
       -1    1    3    3    0  502  0.40950720794E+03 -0.11265308405E+04 -0.91464465687E+03  0.15077608352E+04  0.50400001928E-02 0.  1.
</event>
<event>
 5   0  0.1986613E-07  0.3404120E+04  0.7818609E-02  0.8136896E-01
       -2   -1    0    0    0  501  0.00000000000E+00  0.00000000000E+00  0.16290621737E+04  0.16290621737E+04  0.25500000920E-02 0.  1.
        2   -1    0    0  501    0  0.00000000000E+00  0.00000000000E+00 -0.17783291284E+04  0.17783291284E+04  0.25500000920E-02 0. -1.
    10030    2    1    2    0    0  0.00000000000E+00  0.00000000000E+00 -0.14926695469E+03  0.34073913021E+04  0.34041202772E+04 0.  0.
        5    1    3    3  502    0 -0.90423668436E+03  0.28554612256E+03 -0.14894293251E+04  0.17656733486E+04  0.46999998093E+01 0. -1.
       -5    1    3    3    0  502  0.90423668436E+03 -0.28554612256E+03  0.13401623705E+04  0.16417179534E+04  0.46999998093E+01 0.  1.
</event>
<event>
 5   0  0.6788600E-08  0.3419128E+04  0.7818609E-02  0.8133228E-01
       -1   -1    0    0    0  501  0.00000000000E+00  0.00000000000E+00  0.19016688939E+04  0.19016688940E+04  0.50400001928E-02 0.  1.
        1   -1    0    0  501    0  0.00000000000E+00  0.00000000000E+00 -0.15368655948E+04  0.15368655948E+04  0.50400001928E-02 0. -1.
    10030    2    1    2    0    0  0.00000000000E+00  0.00000000000E+00  0.36480329919E+03  0.34385344887E+04  0.34191282490E+04 0.  0.
        2    1    3    3  502    0  0.95545821134E+03 -0.11232906725E+04 -0.68733475308E+03  0.16269945886E+04  0.25500000920E-02 0. -1.
       -2    1    3    3    0  502 -0.95545821134E+03  0.11232906725E+04  0.10521380523E+04  0.18115399001E+04  0.25500000920E-02 0.  1.
</event>
<event>
 5   0  0.6788600E-08  0.3396094E+04  0.7818609E-02  0.8138866E-01
       -1   -1    0    0    0  501  0.00000000000E+00  0.00000000000E+00  0.16621901308E+04  0.16621901308E+04  0.50400001928E-02 0. -1.
        1   -1    0    0  501    0  0.00000000000E+00  0.00000000000E+00 -0.17346774530E+04  0.17346774530E+04  0.50400001928E-02 0.  1.
    10030    2    1    2    0    0  0.00000000000E+00  0.00000000000E+00 -0.72487322189E+02  0.33968675838E+04  0.33960940756E+04 0.  0.
        2    1    3    3  502    0  0.28253859641E+03 -0.74096904939E+03  0.14655977611E+04  0.16663853060E+04  0.25500000920E-02 0. -1.
       -2    1    3    3    0  502 -0.28253859641E+03  0.74096904939E+03 -0.15380850833E+04  0.17304822779E+04  0.25500000920E-02 0.  1.
</event>
<event>
 5   0  0.6367111E-08  0.3399255E+04  0.7818609E-02  0.8138089E-01
        1   -1    0    0  501    0  0.00000000000E+00  0.00000000000E+00  0.27261956951E+04  0.27261956951E+04  0.50400001928E-02 0. -1.
       -1   -1    0    0    0  501  0.00000000000E+00  0.00000000000E+00 -0.10596209449E+04  0.10596209449E+04  0.50400001928E-02 0.  1.
    10030    2    1    2    0    0  0.00000000000E+00  0.00000000000E+00  0.16665747503E+04  0.37858166400E+04  0.33992552469E+04 0.  0.
        3    1    3    3  502    0  0.72173978534E+03  0.58130607674E+03 -0.75348299087E+03  0.11943875838E+04  0.10100000352E+00 0.  1.
       -3    1    3    3    0  502 -0.72173978534E+03 -0.58130607674E+03  0.24200577411E+04  0.25914290562E+04  0.10100000352E+00 0. -1.
</event>
<event>
 5   0  0.1897313E-07  0.3401338E+04  0.7818609E-02  0.8137578E-01
       -2   -1    0    0    0  501  0.00000000000E+00  0.00000000000E+00  0.21641753513E+04  0.21641753513E+04  0.25500000920E-02 0. -1.
        2   -1    0    0  501    0  0.00000000000E+00  0.00000000000E+00 -0.13364330943E+04  0.13364330943E+04  0.25500000920E-02 0.  1.
    10030    2    1    2    0    0  0.00000000000E+00  0.00000000000E+00  0.82774225703E+03  0.35006084456E+04  0.34013383021E+04 0.  0.
        3    1    3    3  502    0  0.11500828154E+04 -0.26671335722E+02 -0.87523210911E+03  0.14454871489E+04  0.10100000352E+00 0.  1.
       -3    1    3    3    0  502 -0.11500828154E+04  0.26671335722E+02  0.17029743661E+04  0.20551212968E+04  0.10100000352E+00 0. -1.
</event>
<event>
 5   0  0.6341535E-08  0.3404819E+04  0.7818609E-02  0.8136725E-01
       -1   -1    0    0    0  501  0.00000000000E+00  0.00000000000E+00  0.14843313082E+04  0.14843313082E+04  0.50400001928E-02 0. -1.
        1   -1    0    0  501    0  0.00000000000E+00  0.00000000000E+00 -0.19525278508E+04  0.19525278508E+04  0.50400001928E-02 0.  1.
    10030    2    1    2    0    0  0.00000000000E+00  0.00000000000E+00 -0.46819654257E+03  0.34368591591E+04  0.34048190667E+04 0.  0.
        5    1    3    3  502    0  0.13595098480E+04 -0.79049972044E+03  0.42397161846E+03  0.16287820168E+04  0.46999998093E+01 0. -1.
       -5    1    3    3    0  502 -0.13595098480E+04  0.79049972044E+03 -0.89216816103E+03  0.18080771423E+04  0.46999998093E+01 0.  1.
</event>
<event>
 5   0  0.6311750E-08  0.3419881E+04  0.7818609E-02  0.8133044E-01
       -1   -1    0    0    0  501  0.00000000000E+00  0.00000000000E+00  0.19393103094E+04  0.19393103094E+04  0.50400001928E-02 0.  1.
        1   -1    0    0  501    0  0.00000000000E+00  0.00000000000E+00 -0.15076989967E+04  0.15076989967E+04  0.50400001928E-02 0. -1.
    10030    2    1    2    0    0  0.00000000000E+00  0.00000000000E+00  0.43161131274E+03  0.34470093061E+04  0.34198808212E+04 0.  0.
        4    1    3    3  502    0 -0.11799420822E+04 -0.11712329052E+04  0.61878305159E+03  0.17739627711E+04  0.12699999809E+01 0.  1.
       -4    1    3    3    0  502  0.11799420822E+04  0.11712329052E+04 -0.18717173886E+03  0.16730465350E+04  0.12699999809E+01 0. -1.
</event>
<event>
 5   0  0.1897313E-07  0.3392237E+04  0.7818609E-02  0.8139814E-01
       -2   -1    0    0    0  501  0.00000000000E+00  0.00000000000E+00  0.14237652913E+04  0.14237652913E+04  0.25500000920E-02 0. -1.
        2   -1    0    0  501    0  0.00000000000E+00  0.00000000000E+00 -0.20205705894E+04  0.20205705894E+04  0.25500000920E-02 0.  1.
    10030    2    1    2    0    0  0.00000000000E+00  0.00000000000E+00 -0.59680529817E+03  0.34443358807E+04  0.33922371815E+04 0.  0.
        3    1    3    3  502    0  0.11700581366E+04  0.69778155731E+03 -0.13243080049E+04  0.18999281162E+04  0.10100000352E+00 0.  1.
       -3    1    3    3    0  502 -0.11700581366E+04 -0.69778155731E+03  0.72750270671E+03  0.15444077645E+04  0.10100000352E+00 0. -1.
</event>
<event>
 5   0  0.1986613E-07  0.3295867E+04  0.7818609E-02  0.8163948E-01
        2   -1    0    0  501    0  0.00000000000E+00  0.00000000000E+00  0.12247575280E+04  0.12247575280E+04  0.25500000920E-02 0.  1.
       -2   -1    0    0    0  501  0.00000000000E+00  0.00000000000E+00 -0.22173248376E+04  0.22173248376E+04  0.25500000920E-02 0. -1.
    10030    2    1    2    0    0  0.00000000000E+00  0.00000000000E+00 -0.99256730958E+03  0.34420823656E+04  0.32958672830E+04 0.  0.
        5    1    3    3  502    0 -0.27454243564E+03  0.14641116055E+04 -0.12322943614E+04  0.19332790346E+04  0.46999998093E+01 0.  1.
       -5    1    3    3    0  502  0.27454243564E+03 -0.14641116055E+04  0.23972705181E+03  0.15088033310E+04  0.46999998093E+01 0. -1.
</event>
<event>
 5   0  0.1986613E-07  0.3396991E+04  0.7818609E-02  0.8138645E-01
        2   -1    0    0  501    0  0.00000000000E+00  0.00000000000E+00  0.19125738630E+04  0.19125738630E+04  0.25500000920E-02 0. -1.
       -2   -1    0    0    0  501  0.00000000000E+00  0.00000000000E+00 -0.15083796581E+04  0.15083796581E+04  0.25500000920E-02 0.  1.
    10030    2    1    2    0    0  0.00000000000E+00  0.00000000000E+00  0.40419420492E+03  0.34209535211E+04  0.33969913215E+04 0.  0.
        5    1    3    3  502    0 -0.15719835974E+04 -0.43656449905E+03  0.67781091231E+03  0.17666835356E+04  0.46999998093E+01 0. -1.
       -5    1    3    3    0  502  0.15719835974E+04  0.43656449905E+03 -0.27361670739E+03  0.16542699854E+04  0.46999998093E+01 0.  1.
</event>
<event>
 5   0  0.1986613E-07  0.3399659E+04  0.7818609E-02  0.8137990E-01
        2   -1    0    0  501    0  0.00000000000E+00  0.00000000000E+00  0.12993134360E+04  0.12993134360E+04  0.25500000920E-02 0.  1.
       -2   -1    0    0    0  501  0.00000000000E+00  0.00000000000E+00 -0.22238055525E+04  0.22238055525E+04  0.25500000920E-02 0. -1.
    10030    2    1    2    0    0  0.00000000000E+00  0.00000000000E+00 -0.92449211642E+03  0.35231189885E+04  0.33996590614E+04 0.  0.
        5    1    3    3  502    0 -0.12150922250E+02 -0.15556606510E+04  0.24758885742E+03  0.15752936356E+04  0.46999998093E+01 0. -1.
       -5    1    3    3    0  502  0.12150922250E+02  0.15556606510E+04 -0.11720809738E+04  0.19478253529E+04  0.46999998093E+01 0.  1.
</event>
<event>
 5   0  0.1928004E-07  0.3401740E+04  0.7818609E-02  0.8137479E-01
        2   -1    0    0  501    0  0.00000000000E+00  0.00000000000E+00  0.18821643244E+04  0.18821643244E+04  0.25500000920E-02 0.  1.
       -2   -1    0    0    0  501  0.00000000000E+00  0.00000000000E+00 -0.15370384821E+04  0.15370384821E+04  0.25500000920E-02 0. -1.
    10030    2    1    2    0    0  0.00000000000E+00  0.00000000000E+00  0.34512584229E+03  0.34192028065E+04  0.34017401407E+04 0.  0.
        2    1    3    3  502    0  0.54482892666E+03 -0.12680099257E+04 -0.82665867209E+03  0.16087424564E+04  0.25500000920E-02 0.  1.
       -2    1    3    3    0  502 -0.54482892666E+03  0.12680099257E+04  0.11717845144E+04  0.18104603500E+04  0.25500000920E-02 0. -1.
</event>
<event>
 5   0  0.1963852E-07  0.3395073E+04  0.7818609E-02  0.8139117E-01
       -2   -1    0    0    0  501  0.00000000000E+00  0.00000000000E+00  0.21558115432E+04  0.21558115432E+04  0.25500000920E-02 0.  1.
        2   -1    0    0  501    0  0.00000000000E+00  0.00000000000E+00 -0.13366797726E+04  0.13366797726E+04  0.25500000920E-02 0. -1.
    10030    2    1    2    0    0  0.00000000000E+00  0.00000000000E+00  0.81913177059E+03  0.34924913158E+04  0.33950727140E+04 0.  0.
        4    1    3    3  502    0  0.71520819831E+03  0.11363969265E+04 -0.65884442259E+03  0.14956598302E+04  0.12699999809E+01 0. -1.
       -4    1    3    3    0  502 -0.71520819831E+03 -0.11363969265E+04  0.14779761932E+04  0.19968314856E+04  0.12699999809E+01 0.  1.
</event>
<event>
 5   0  0.1897313E-07  0.3399502E+04  0.7818609E-02  0.8138029E-01
       -2   -1    0    0    0  501  0.00000000000E+00  0.00000000000E+00  0.20089560932E+04  0.20089560932E+04  0.25500000920E-02 0. -1.
        2   -1    0    0  501    0  0.00000000000E+00  0.00000000000E+00 -0.14381367255E+04  0.14381367256E+04  0.25500000920E-02 0.  1.
    10030    2    1    2    0    0  0.00000000000E+00  0.00000000000E+00  0.57081936768E+03  0.34470928188E+04  0.33995020445E+04 0.  0.
        3    1    3    3  502    0 -0.55873301742E+03  0.13458323753E+04 -0.60188676126E+03  0.15766150610E+04  0.10100000352E+00 0. -1.
       -3    1    3    3    0  502  0.55873301742E+03 -0.13458323753E+04  0.11727061289E+04  0.18704777577E+04  0.10100000352E+00 0.  1.
</event>
<event>
 5   0  0.1986613E-07  0.3398962E+04  0.7818609E-02  0.8138161E-01
        2   -1    0    0  501    0  0.00000000000E+00  0.00000000000E+00  0.10250702079E+04  0.10250702079E+04  0.25500000920E-02 0. -1.
       -2   -1    0    0    0  501  0.00000000000E+00  0.00000000000E+00 -0.28175986744E+04  0.28175986744E+04  0.25500000920E-02 0.  1.
    10030    2    1    2    0    0  0.00000000000E+00  0.00000000000E+00 -0.17925284665E+04  0.38426688824E+04  0.33989624646E+04 0.  0.
        5    1    3    3  502    0  0.53783529999E+03 -0.16119957656E+04 -0.87317208397E+03  0.19105624136E+04  0.46999998093E+01 0. -1.
       -5    1    3    3    0  502 -0.53783529999E+03  0.16119957656E+04 -0.91935638258E+03  0.19321064687E+04  0.46999998093E+01 0.  1.
</event>
<event>
 5   0  0.1963852E-07  0.3417298E+04  0.7818609E-02  0.8133674E-01
       -2   -1    0    0    0  501  0.00000000000E+00  0.00000000000E+00  0.11045705637E+04  0.11045705637E+04  0.25500000920E-02 0.  1.
        2   -1    0    0  501    0  0.00000000000E+00  0.00000000000E+00 -0.26430914614E+04  0.26430914614E+04  0.25500000920E-02 0. -1.
    10030    2    1    2    0    0  0.00000000000E+00  0.00000000000E+00 -0.15385208977E+04  0.37476620250E+04  0.34172977777E+04 0.  0.
        4    1    3    3  502    0  0.13634544780E+04  0.95358901894E+03 -0.34291044541E+03  0.16988023185E+04  0.12699999809E+01 0.  1.
       -4    1    3    3    0  502 -0.13634544780E+04 -0.95358901894E+03 -0.11956104523E+04  0.20488597066E+04  0.12699999809E+01 0. -1.
</event>
<event>
 5   0  0.6311750E-08  0.3398846E+04  0.7818609E-02  0.8138190E-01
       -3   -1    0    0    0  501  0.00000000000E+00  0.00000000000E+00  0.15168305851E+04  0.15168305885E+04  0.10100000352E+00 0. -1.
        3   -1    0    0  501    0  0.00000000000E+00  0.00000000000E+00 -0.19039958967E+04  0.19039958994E+04  0.10100000352E+00 0.  1.
    10030    2    1    2    0    0  0.00000000000E+00  0.00000000000E+00 -0.38716531156E+03  0.34208264879E+04  0.33988464045E+04 0.  0.
        5    1    3    3  502    0 -0.22623102941E+03  0.22742995202E+03 -0.18732406469E+04  0.19005150546E+04  0.46999998093E+01 0.  1.
       -5    1    3    3    0  502  0.22623102941E+03 -0.22742995202E+03  0.14860753353E+04  0.15203114332E+04  0.46999998093E+01 0. -1.
</event>
<event>
 5   0  0.1970449E-07  0.3391978E+04  0.7818609E-02  0.8139878E-01
        2   -1    0    0  501    0  0.00000000000E+00  0.00000000000E+00  0.25562888085E+04  0.25562888085E+04  0.25500000920E-02 0. -1.
       -2   -1    0    0    0  501  0.00000000000E+00  0.00000000000E+00 -0.11252163603E+04  0.11252163603E+04  0.25500000920E-02 0.  1.
    10030    2    1    2    0    0  0.00000000000E+00  0.00000000000E+00  0.14310724482E+04  0.36815051688E+04  0.33919775878E+04 0.  0.
        1    1    3    3  502    0  0.14105568465E+04  0.91636597665E+03  0.95078777754E+03  0.19321994251E+04  0.50400001928E-02 0. -1.
       -1    1    3    3    0  502 -0.14105568465E+04 -0.91636597665E+03  0.48028467061E+03  0.17493057438E+04  0.50400001928E-02 0.  1.
</event>
<event>
 5   0  0.6788600E-08  0.3404468E+04  0.7818609E-02  0.8136811E-01
        1   -1    0    0  501    0  0.00000000000E+00  0.00000000000E+00  0.13681272446E+04  0.13681272446E+04  0.50400001928E-02 0.  1.
       -1   -1    0    0    0  501  0.00000000000E+00  0.00000000000E+00 -0.21179324044E+04  0.21179324044E+04  0.50400001928E-02 0. -1.
    10030    2    1    2    0    0  0.00000000000E+00  0.00000000000E+00 -0.74980515980E+03  0.34860596491E+04  0.34044682550E+04 0.  0.
        2    1    3    3  502    0  0.12094263429E+04  0.80938697301E+02  0.84887079711E+03  0.14798124144E+04  0.25500000920E-02 0.  1.
       -2    1    3    3    0  502 -0.12094263429E+04 -0.80938697301E+02 -0.15986759569E+04  0.20062472347E+04  0.25500000920E-02 0. -1.
</event>
<event>
 5   0  0.1897313E-07  0.3402017E+04  0.7818609E-02  0.8137411E-01
       -2   -1    0    0    0  501  0.00000000000E+00  0.00000000000E+00  0.24829021685E+04  0.24829021685E+04  0.25500000920E-02 0.  1.
        2   -1    0    0  501    0  0.00000000000E+00  0.00000000000E+00 -0.11653421551E+04  0.11653421551E+04  0.25500000920E-02 0. -1.
    10030    2    1    2    0    0  0.00000000000E+00  0.00000000000E+00  0.13175600135E+04  0.36482443236E+04  0.34020173803E+04 0.  0.
        3    1    3    3  502    0 -0.12655532908E+04 -0.81645348624E+03  0.15067100867E+04  0.21303513144E+04  0.10100000352E+00 0.  1.
       -3    1    3    3    0  502  0.12655532908E+04  0.81645348624E+03 -0.18915007319E+03  0.15178930092E+04  0.10100000352E+00 0. -1.
</event>
<event>
 5   0  0.6311750E-08  0.3401255E+04  0.7818609E-02  0.8137598E-01
        1   -1    0    0  501    0  0.00000000000E+00  0.00000000000E+00  0.25449608435E+04  0.25449608435E+04  0.50400001928E-02 0.  1.
       -1   -1    0    0    0  501  0.00000000000E+00  0.00000000000E+00 -0.11364157029E+04  0.11364157029E+04  0.50400001928E-02 0. -1.
    10030    2    1    2    0    0  0.00000000000E+00  0.00000000000E+00  0.14085451406E+04  0.36813765464E+04  0.34012547483E+04 0.  0.
        4    1    3    3  502    0  0.11666359573E+04  0.12296369081E+04  0.55474457367E+03  0.17834768116E+04  0.12699999809E+01 0.  1.
       -4    1    3    3    0  502 -0.11666359573E+04 -0.12296369081E+04  0.85380056695E+03  0.18978997348E+04  0.12699999809E+01 0. -1.
</event>
<event>
 5   0  0.6584420E-08  0.3403793E+04  0.7818609E-02  0.8136976E-01
        1   -1    0    0  501    0  0.00000000000E+00  0.00000000000E+00  0.16146994460E+04  0.16146994460E+04  0.50400001928E-02 0.  1.
       -1   -1    0    0    0  501  0.00000000000E+00  0.00000000000E+00 -0.17938020700E+04  0.17938020700E+04  0.50400001928E-02 0. -1.
    10030    2    1    2    0    0  0.00000000000E+00  0.00000000000E+00 -0.17910262400E+03  0.34085015159E+04  0.34037927132E+04 0.  0.
        1    1    3    3  502    0 -0.77212347518E+03  0.12052665088E+04  0.83237925784E+03  0.16558071286E+04  0.50400001928E-02 0.  1.
       -1    1    3    3    0  502  0.77212347518E+03 -0.12052665088E+04 -0.10114818818E+04  0.17526943874E+04  0.50400001928E-02 0. -1.
</event>
<event>
 5   0  0.6341535E-08  0.3403043E+04  0.7818609E-02  0.8137160E-01
        1   -1    0    0  501    0  0.00000000000E+00  0.00000000000E+00  0.20867059910E+04  0.20867059910E+04  0.50400001928E-02 0.  1.
       -1   -1    0    0    0  501  0.00000000000E+00  0.00000000000E+00 -0.13874382820E+04  0.13874382820E+04  0.50400001928E-02 0. -1.
    10030    2    1    2    0    0  0.00000000000E+00  0.00000000000E+00  0.69926770898E+03  0.34741442730E+04  0.34030432117E+04 0.  0.
        5    1    3    3  502    0  0.85551377158E+03 -0.80398962226E+03  0.16069711095E+04  0.19901460657E+04  0.46999998093E+01 0.  1.
       -5    1    3    3    0  502 -0.85551377158E+03  0.80398962226E+03 -0.90770340048E+03  0.14839982073E+04  0.46999998093E+01 0. -1.
</event>
<event>
 5   0  0.1963852E-07  0.3401155E+04  0.7818609E-02  0.8137623E-01
        2   -1    0    0  501    0  0.00000000000E+00  0.00000000000E+00  0.19718443005E+04  0.19718443005E+04  0.25500000920E-02 0.  1.
       -2   -1    0    0    0  501  0.00000000000E+00  0.00000000000E+00 -0.14666293145E+04  0.14666293145E+04  0.25500000920E-02 0. -1.
    10030    2    1    2    0    0  0.00000000000E+00  0.00000000000E+00  0.50521498594E+03  0.34384736150E+04  0.34011554829E+04 0.  0.
        4    1    3    3  502    0 -0.21641619354E+03  0.16173496037E+04  0.73672209391E+03  0.17903677739E+04  0.12699999809E+01 0.  1.
       -4    1    3    3    0  502  0.21641619354E+03 -0.16173496037E+04 -0.23150710797E+03  0.16481058411E+04  0.12699999809E+01 0. -1.
</event>
<event>
 5   0  0.6788600E-08  0.3406276E+04  0.7818609E-02  0.8136368E-01
        1   -1    0    0  501    0  0.00000000000E+00  0.00000000000E+00  0.18172576813E+04  0.18172576813E+04  0.50400001928E-02 0. -1.
       -1   -1    0    0    0  501  0.00000000000E+00  0.00000000000E+00 -0.15961844767E+04  0.15961844767E+04  0.50400001928E-02 0.  1.
    10030    2    1    2    0    0  0.00000000000E+00  0.00000000000E+00  0.22107320460E+03  0.34134421580E+04  0.34062756794E+04 0.  0.
        2    1    3    3  502    0  0.37625931668E+03  0.14064489888E+04  0.99614287022E+03  0.17640777901E+04  0.25500000920E-02 0. -1.
       -2    1    3    3    0  502 -0.37625931668E+03 -0.14064489888E+04 -0.77506966562E+03  0.16493643679E+04  0.25500000920E-02 0.  1.
</event>
<event>
 5   0  0.1928004E-07  0.3399438E+04  0.7818609E-02  0.8138044E-01
       -2   -1    0    0    0  501  0.00000000000E+00  0.00000000000E+00  0.13750437753E+04  0.13750437753E+04  0.25500000920E-02 0. -1.
        2   -1    0    0  501    0  0.00000000000E+00  0.00000000000E+00 -0.21010570997E+04  0.21010570997E+04  0.25500000920E-02 0.  1.
    10030    2    1    2    0    0  0.00000000000E+00  0.00000000000E+00 -0.72601332441E+03  0.34761008750E+04  0.33994384751E+04 0.  0.
        2    1    3    3  502    0 -0.51372629102E+03 -0.16201245695E+04 -0.38150223199E+03  0.17419133950E+04  0.25500000920E-02 0. -1.
       -2    1    3    3    0  502  0.51372629102E+03  0.16201245695E+04 -0.34451109243E+03  0.17341874799E+04  0.25500000920E-02 0.  1.
</event>
<event>
 5   0  0.1970449E-07  0.3390691E+04  0.7818609E-02  0.8140195E-01
       -2   -1    0    0    0  501  0.00000000000E+00  0.00000000000E+00  0.94228480612E+03  0.94228480612E+03  0.25500000920E-02 0. -1.
        2   -1    0    0  501    0  0.00000000000E+00  0.00000000000E+00 -0.30502420860E+04  0.30502420860E+04  0.25500000920E-02 0.  1.
    10030    2    1    2    0    0  0.00000000000E+00  0.00000000000E+00 -0.21079572799E+04  0.39925268922E+04  0.33906912408E+04 0.  0.
        1    1    3    3  502    0 -0.11410486047E+04 -0.11484904888E+04 -0.16464529780E+04  0.23090755142E+04  0.50400001928E-02 0.  1.
       -1    1    3    3    0  502  0.11410486047E+04  0.11484904888E+04 -0.46150430191E+03  0.16834513780E+04  0.50400001928E-02 0. -1.
</event>
<event>
 5   0  0.1986613E-07  0.3399699E+04  0.7818609E-02  0.8137980E-01
        2   -1    0    0  501    0  0.00000000000E+00  0.00000000000E+00  0.27382778553E+04  0.27382778553E+04  0.25500000920E-02 0.  1.
       -2   -1    0    0    0  501  0.00000000000E+00  0.00000000000E+00 -0.10552208299E+04  0.10552208299E+04  0.25500000920E-02 0. -1.
    10030    2    1    2    0    0  0.00000000000E+00  0.00000000000E+00  0.16830570254E+04  0.37934986852E+04  0.33996987108E+04 0.  0.
        5    1    3    3  502    0  0.62143667346E+03 -0.14529602261E+04  0.14273785269E+03  0.15867177261E+04  0.46999998093E+01 0. -1.
       -5    1    3    3    0  502 -0.62143667346E+03  0.14529602261E+04  0.15403191727E+04  0.22067809591E+04  0.46999998093E+01 0.  1.
</event>
<event>
 5   0  0.6788600E-08  0.3397923E+04  0.7818609E-02  0.8138416E-01
        1   -1    0    0  501    0  0.00000000000E+00  0.00000000000E+00  0.17813729548E+04  0.17813729548E+04  0.50400001928E-02 0. -1.
       -1   -1    0    0    0  501  0.00000000000E+00  0.00000000000E+00 -0.16203627803E+04  0.16203627803E+04  0.50400001928E-02 0.  1.
    10030    2    1    2    0    0  0.00000000000E+00  0.00000000000E+00  0.16101017443E+03  0.34017357351E+04  0.33979231503E+04 0.  0.
        2    1    3    3  502    0 -0.14777759705E+04 -0.76949277096E+03 -0.25232770122E+03  0.16851143025E+04  0.25500000920E-02 0.  1.
       -2    1    3    3    0  502  0.14777759705E+04  0.76949277096E+03  0.41333787565E+03  0.17166214326E+04  0.25500000920E-02 0. -1.
</event>
<event>
 5   0  0.6311750E-08  0.3399544E+04  0.7818609E-02  0.8138018E-01
       -1   -1    0    0    0  501  0.00000000000E+00  0.00000000000E+00  0.24674697018E+04  0.24674697018E+04  0.50400001928E-02 0.  1.
        1   -1    0    0  501    0  0.00000000000E+00  0.00000000000E+00 -0.11709260870E+04  0.11709260870E+04  0.50400001928E-02 0. -1.
    10030    2    1    2    0    0  0.00000000000E+00  0.00000000000E+00  0.12965436148E+04  0.36383957888E+04  0.33995438769E+04 0.  0.
        4    1    3    3  502    0 -0.10320446569E+04  0.12581839183E+04  0.12277515181E+03  0.16319369770E+04  0.12699999809E+01 0. -1.
       -4    1    3    3    0  502  0.10320446569E+04 -0.12581839183E+04  0.11737684629E+04  0.20064588118E+04  0.12699999809E+01 0.  1.
</event>
<event>
 5   0  0.1963852E-07  0.3406133E+04  0.7818609E-02  0.8136403E-01
        2   -1    0    0  501    0  0.00000000000E+00  0.00000000000E+00  0.23963832041E+04  0.23963832041E+04  0.25500000920E-02 0.  1.
       -2   -1    0    0    0  501  0.00000000000E+00  0.00000000000E+00 -0.12103389857E+04  0.12103389857E+04  0.25500000920E-02 0. -1.
    10030    2    1    2    0    0  0.00000000000E+00  0.00000000000E+00  0.11860442184E+04  0.36067221897E+04  0.34061333012E+04 0.  0.
        4    1    3    3  502    0 -0.11043854322E+04 -0.12552078526E+04  0.93650188056E+03  0.19163119060E+04  0.12699999809E+01 0. -1.
       -4    1    3    3    0  502  0.11043854322E+04  0.12552078526E+04  0.24954233785E+03  0.16904102837E+04  0.12699999809E+01 0.  1.
</event>
<event>
 5   0  0.1897313E-07  0.3410349E+04  0.7818609E-02  0.8135371E-01
        2   -1    0    0  501    0  0.00000000000E+00  0.00000000000E+00  0.14307556217E+04  0.14307556217E+04  0.25500000920E-02 0.  1.
       -2   -1    0    0    0  501  0.00000000000E+00  0.00000000000E+00 -0.20322268392E+04  0.20322268392E+04  0.25500000920E-02 0. -1.
    10030    2    1    2    0    0  0.00000000000E+00  0.00000000000E+00 -0.60147121742E+03  0.34629824609E+04  0.34103489410E+04 0.  0.
        3    1    3    3  502    0  0.64526276176E+02 -0.16361014122E+04  0.18266671088E+03  0.16475310646E+04  0.10100000352E+00 0.  1.
       -3    1    3    3    0  502 -0.64526276176E+02  0.16361014122E+04 -0.78413792830E+03  0.18154513963E+04  0.10100000352E+00 0. -1.
</event>
<event>
 5   0  0.6584420E-08  0.3400408E+04  0.7818609E-02  0.8137806E-01
       -1   -1    0    0    0  501  0.00000000000E+00  0.00000000000E+00  0.18386038168E+04  0.18386038168E+04  0.50400001928E-02 0. -1.
        1   -1    0    0  501    0  0.00000000000E+00  0.00000000000E+00 -0.15722224527E+04  0.15722224527E+04  0.50400001928E-02 0.  1.
    10030    2    1    2    0    0  0.00000000000E+00  0.00000000000E+00  0.26638136404E+03  0.34108262695E+04  0.34004083298E+04 0.  0.
        1    1    3    3  502    0  0.10879841374E+04 -0.13059861255E+04  0.95861623618E+02  0.17024977809E+04  0.50400001928E-02 0.  1.
       -1    1    3    3    0  502 -0.10879841374E+04  0.13059861255E+04  0.17051974042E+03  0.17083284886E+04  0.50400001928E-02 0. -1.
</event>
<event>
 5   0  0.6367111E-08  0.3406536E+04  0.7818609E-02  0.8136304E-01
       -1   -1    0    0    0  501  0.00000000000E+00  0.00000000000E+00  0.13572877953E+04  0.13572877953E+04  0.50400001928E-02 0. -1.
        1   -1    0    0  501    0  0.00000000000E+00  0.00000000000E+00 -0.21374401921E+04  0.21374401921E+04  0.50400001928E-02 0.  1.
    10030    2    1    2    0    0  0.00000000000E+00  0.00000000000E+00 -0.78015239683E+03  0.34947279874E+04  0.34065357688E+04 0.  0.
        3    1    3    3  502    0 -0.16274788412E+04 -0.45650971486E+03 -0.17480325407E+03  0.16993071194E+04  0.10100000352E+00 0. -1.
       -3    1    3    3    0  502  0.16274788412E+04  0.45650971486E+03 -0.60534914275E+03  0.17954208680E+04  0.10100000352E+00 0.  1.
</event>
<event>
 5   0  0.6788600E-08  0.3400704E+04  0.7818609E-02  0.8137733E-01
       -1   -1    0    0    0  501  0.00000000000E+00  0.00000000000E+00  0.11405144481E+04  0.11405144481E+04  0.50400001928E-02 0.  1.
        1   -1    0    0  501    0  0.00000000000E+00  0.00000000000E+00 -0.25349940790E+04  0.25349940790E+04  0.50400001928E-02 0. -1.
    10030    2    1    2    0    0  0.00000000000E+00  0.00000000000E+00 -0.13944796309E+04  0.36755085271E+04  0.34007042641E+04 0.  0.
        2    1    3    3  502    0  0.12852194793E+04 -0.70952794767E+03  0.22997655246E+03  0.14859704685E+04  0.25500000920E-02 0.  1.
       -2    1    3    3    0  502 -0.12852194793E+04  0.70952794767E+03 -0.16244561834E+04  0.21895380586E+04  0.25500000920E-02 0. -1.
</event>
<event>
 5   0  0.6788600E-08  0.3400021E+04  0.7818609E-02  0.8137901E-01
        1   -1    0    0  501    0  0.00000000000E+00  0.00000000000E+00  0.20750001520E+04  0.20750001520E+04  0.50400001928E-02 0. -1.
       -1   -1    0    0    0  501  0.00000000000E+00  0.00000000000E+00 -0.13927880177E+04  0.13927880177E+04  0.50400001928E-02 0.  1.
    10030    2    1    2    0    0  0.00000000000E+00  0.00000000000E+00  0.68221213427E+03  0.34677881697E+04  0.34000207931E+04 0.  0.
        2    1    3    3  502    0 -0.78008043225E+03 -0.14051462757E+04 -0.22408121082E+03  0.16227057422E+04  0.25500000920E-02 0. -1.
       -2    1    3    3    0  502  0.78008043225E+03  0.14051462757E+04  0.90629334509E+03  0.18450824275E+04  0.25500000920E-02 0.  1.
</event>
<event>
 5   0  0.1986613E-07  0.3411608E+04  0.7818609E-02  0.8135063E-01
       -2   -1    0    0    0  501  0.00000000000E+00  0.00000000000E+00  0.14459025347E+04  0.14459025347E+04  0.25500000920E-02 0. -1.
        2   -1    0    0  501    0  0.00000000000E+00  0.00000000000E+00 -0.20124232714E+04  0.20124232714E+04  0.25500000920E-02 0.  1.
    10030    2    1    2    0    0  0.00000000000E+00  0.00000000000E+00 -0.56652073672E+03  0.34583258061E+04  0.34116083650E+04 0.  0.
        5    1    3    3  502    0  0.53209669413E+03 -0.13394486752E+04 -0.12081669242E+04  0.18806751586E+04  0.46999998093E+01 0.  1.
       -5    1    3    3    0  502 -0.53209669413E+03  0.13394486752E+04  0.64164618750E+03  0.15776506475E+04  0.46999998093E+01 0. -1.
</event>
<event>
 5   0  0.6341535E-08  0.3406764E+04  0.7818609E-02  0.8136248E-01
        1   -1    0    0  501    0  0.00000000000E+00  0.00000000000E+00  0.10872629177E+04  0.10872629177E+04  0.50400001928E-02 0.  1.
       -1   -1    0    0    0  501  0.00000000000E+00  0.00000000000E+00 -0.26686366222E+04  0.26686366222E+04  0.50400001928E-02 0. -1.
    10030    2    1    2    0    0  0.00000000000E+00  0.00000000000E+00 -0.15813737045E+04  0.37558995399E+04  0.34067636490E+04 0.  0.
        5    1    3    3  502    0  0.10666229459E+04  0.13276396730E+04 -0.82849318384E+03  0.18938676447E+04  0.46999998093E+01 0. -1.
       -5    1    3    3    0  502 -0.10666229459E+04 -0.13276396730E+04 -0.75288052070E+03  0.18620318952E+04  0.46999998093E+01 0.  1.
</event>
<event>
 5   0  0.6367111E-08  0.3405229E+04  0.7818609E-02  0.8136624E-01
        1   -1    0    0  501    0  0.00000000000E+00  0.00000000000E+00  0.17390651324E+04  0.17390651324E+04  0.50400001928E-02 0.  1.
       -1   -1    0    0    0  501  0.00000000000E+00  0.00000000000E+00 -0.16669282430E+04  0.16669282430E+04  0.50400001928E-02 0. -1.
    10030    2    1    2    0    0  0.00000000000E+00  0.00000000000E+00  0.72136889412E+02  0.34059933753E+04  0.34052293817E+04 0.  0.
        3    1    3    3  502    0 -0.12538793451E+04  0.96730626251E+03  0.66151023020E+03  0.17162431682E+04  0.10100000352E+00 0.  1.
       -3    1    3    3    0  502  0.12538793451E+04 -0.96730626251E+03 -0.58937334079E+03  0.16897502071E+04  0.10100000352E+00 0. -1.
</event>
<event>
 5   0  0.6341535E-08  0.3400872E+04  0.7818609E-02  0.8137692E-01
       -1   -1    0    0    0  501  0.00000000000E+00  0.00000000000E+00  0.30864570178E+04  0.30864570178E+04  0.50400001928E-02 0. -1.
        1   -1    0    0  501    0  0.00000000000E+00  0.00000000000E+00 -0.93682896494E+03  0.93682896495E+03  0.50400001928E-02 0.  1.
    10030    2    1    2    0    0  0.00000000000E+00  0.00000000000E+00  0.21496280529E+04  0.40232859828E+04  0.34008718490E+04 0.  0.
        5    1    3    3  502    0 -0.13075467819E+04  0.71503388547E+03  0.10610647924E+03  0.14940658349E+04  0.46999998093E+01 0.  1.
       -5    1    3    3    0  502  0.13075467819E+04 -0.71503388547E+03  0.20435215736E+04  0.25292201478E+04  0.46999998093E+01 0. -1.
</event>
<event>
 5   0  0.6584420E-08  0.3397632E+04  0.7818609E-02  0.8138488E-01
       -1   -1    0    0    0  501  0.00000000000E+00  0.00000000000E+00  0.18152943344E+04  0.18152943344E+04  0.50400001928E-02 0.  1.
        1   -1    0    0  501    0  0.00000000000E+00  0.00000000000E+00 -0.15898113293E+04  0.15898113293E+04  0.50400001928E-02 0. -1.
    10030    2    1    2    0    0  0.00000000000E+00  0.00000000000E+00  0.22548300505E+03  0.34051056637E+04  0.33976318217E+04 0.  0.
        1    1    3    3  502    0 -0.10491516179E+03 -0.13541108074E+04 -0.90996991164E+03  0.16348298107E+04  0.50400001928E-02 0. -1.
       -1    1    3    3    0  502  0.10491516179E+03  0.13541108074E+04  0.11354529167E+04  0.17702758530E+04  0.50400001928E-02 0.  1.
</event>
<event>
 5   0  0.1928004E-07  0.3404606E+04  0.7818609E-02  0.8136777E-01
        2   -1    0    0  501    0  0.00000000000E+00  0.00000000000E+00  0.21612674259E+04  0.21612674259E+04  0.25500000920E-02 0.  1.
       -2   -1    0    0    0  501  0.00000000000E+00  0.00000000000E+00 -0.13408036735E+04  0.13408036735E+04  0.25500000920E-02 0. -1.
    10030    2    1    2    0    0  0.00000000000E+00  0.00000000000E+00  0.82046375235E+03  0.35020710994E+04  0.34046058827E+04 0.  0.
        2    1    3    3  502    0 -0.11911075347E+04 -0.21180293030E+03  0.16421126445E+04  0.20396400608E+04  0.25500000920E-02 0.  1.
       -2    1    3    3    0  502  0.11911075347E+04  0.21180293030E+03 -0.82164889216E+03  0.14624310386E+04  0.25500000920E-02 0. -1.
</event>
<event>
 5   0  0.1970449E-07  0.3401540E+04  0.7818609E-02  0.8137529E-01
        2   -1    0    0  501    0  0.00000000000E+00  0.00000000000E+00  0.21286125383E+04  0.21286125383E+04  0.25500000920E-02 0.  1.
       -2   -1    0    0    0  501  0.00000000000E+00  0.00000000000E+00 -0.13589218549E+04  0.13589218549E+04  0.25500000920E-02 0. -1.
    10030    2    1    2    0    0  0.00000000000E+00  0.00000000000E+00  0.76969068341E+03  0.34875343933E+04  0.34015397096E+04 0.  0.
        1    1    3    3  502    0  0.56500012351E+03  0.88805194781E+03  0.17545674452E+04  0.20460616612E+04  0.50400001928E-02 0.  1.
       -1    1    3    3    0  502 -0.56500012351E+03 -0.88805194781E+03 -0.98487676176E+03  0.14414727321E+04  0.50400001928E-02 0. -1.
</event>
<event>
 5   0  0.6341535E-08  0.3398084E+04  0.7818609E-02  0.8138377E-01
        1   -1    0    0  501    0  0.00000000000E+00  0.00000000000E+00  0.20930635610E+04  0.20930635610E+04  0.50400001928E-02 0. -1.
       -1   -1    0    0    0  501  0.00000000000E+00  0.00000000000E+00 -0.13791955062E+04  0.13791955063E+04  0.50400001928E-02 0.  1.
    10030    2    1    2    0    0  0.00000000000E+00  0.00000000000E+00  0.71386805473E+03  0.34722590672E+04  0.33980840823E+04 0.  0.
        5    1    3    3  502    0  0.15845045016E+04  0.35136702648E+03  0.87050675053E+03  0.18417158835E+04  0.46999998093E+01 0. -1.
       -5    1    3    3    0  502 -0.15845045016E+04 -0.35136702648E+03 -0.15663869580E+03  0.16305431837E+04  0.46999998093E+01 0.  1.
</event>
<event>
 5   0  0.6788600E-08  0.3395451E+04  0.7818609E-02  0.8139024E-01
        1   -1    0    0  501    0  0.00000000000E+00  0.00000000000E+00  0.23645354359E+04  0.23645354359E+04  0.50400001928E-02 0. -1.
       -1   -1    0    0    0  501  0.00000000000E+00  0.00000000000E+00 -0.12189592617E+04  0.12189592617E+04  0.50400001928E-02 0.  1.
    10030    2    1    2    0    0  0.00000000000E+00  0.00000000000E+00  0.11455761742E+04  0.35834946977E+04  0.33954512922E+04 0.  0.
        2    1    3    3  502    0 -0.10478459899E+04  0.66310131801E+03  0.17965694736E+04  0.21829673497E+04  0.25500000920E-02 0. -1.
       -2    1    3    3    0  502  0.10478459899E+04 -0.66310131801E+03 -0.65099329941E+03  0.14005273480E+04  0.25500000920E-02 0.  1.
</event>
<event>
 5   0  0.6367111E-08  0.3402589E+04  0.7818609E-02  0.8137271E-01
       -1   -1    0    0    0  501  0.00000000000E+00  0.00000000000E+00  0.11632931446E+04  0.11632931446E+04  0.50400001928E-02 0. -1.
        1   -1    0    0  501    0  0.00000000000E+00  0.00000000000E+00 -0.24881110030E+04  0.24881110030E+04  0.50400001928E-02 0.  1.
    10030    2    1    2    0    0  0.00000000000E+00  0.00000000000E+00 -0.13248178583E+04  0.36514041476E+04  0.34025887044E+04 0.  0.
        3    1    3    3  502    0  0.12413608981E+04  0.85706320130E+03 -0.15066170988E+04  0.21320012437E+04  0.10100000352E+00 0.  1.
       -3    1    3    3    0  502 -0.12413608981E+04 -0.85706320130E+03  0.18179924045E+03  0.15194029039E+04  0.10100000352E+00 0. -1.
</event>
<event>
 5   0  0.1928004E-07  0.3396592E+04  0.7818609E-02  0.8138743E-01
       -2   -1    0    0    0  501  0.00000000000E+00  0.00000000000E+00  0.24662406935E+04  0.24662406935E+04  0.25500000920E-02 0. -1.
        2   -1    0    0  501    0  0.00000000000E+00  0.00000000000E+00 -0.11694759676E+04  0.11694759676E+04  0.25500000920E-02 0.  1.
    10030    2    1    2    0    0  0.00000000000E+00  0.00000000000E+00  0.12967647259E+04  0.36357166611E+04  0.33965919515E+04 0.  0.
        2    1    3    3  502    0 -0.29148202775E+03 -0.16573145535E+04  0.89377270935E+03  0.19053826277E+04  0.25500000920E-02 0. -1.
       -2    1    3    3    0  502  0.29148202775E+03  0.16573145535E+04  0.40299201653E+03  0.17303340334E+04  0.25500000920E-02 0.  1.
</event>
<event>
 5   0  0.1970449E-07  0.3403552E+04  0.7818609E-02  0.8137035E-01
        2   -1    0    0  501    0  0.00000000000E+00  0.00000000000E+00  0.15852844911E+04  0.15852844911E+04  0.25500000920E-02 0. -1.
       -2   -1    0    0    0  501  0.00000000000E+00  0.00000000000E+00 -0.18268272440E+04  0.18268272440E+04  0.25500000920E-02 0.  1.
    10030    2    1    2    0    0  0.00000000000E+00  0.00000000000E+00 -0.24154275290E+03  0.34121117351E+04  0.34035516143E+04 0.  0.
        1    1    3    3  502    0  0.12430117418E+04 -0.69376544389E+02  0.10423835570E+04  0.16237163469E+04  0.50400001928E-02 0. -1.
       -1    1    3    3    0  502 -0.12430117418E+04  0.69376544389E+02 -0.12839263099E+04  0.17883953882E+04  0.50400001928E-02 0.  1.
</event>
<event>
 5   0  0.6584420E-08  0.3424571E+04  0.7818609E-02  0.8131902E-01
        1   -1    0    0  501    0  0.00000000000E+00  0.00000000000E+00  0.24781435246E+04  0.24781435246E+04  0.50400001928E-02 0.  1.
       -1   -1    0    0    0  501  0.00000000000E+00  0.00000000000E+00 -0.11831123562E+04  0.11831123562E+04  0.50400001928E-02 0. -1.
    10030    2    1    2    0    0  0.00000000000E+00  0.00000000000E+00  0.12950311683E+04  0.36612558808E+04  0.34245713451E+04 0.  0.
        1    1    3    3  502    0  0.24902523519E+03 -0.11015987154E+04  0.20234730947E+04  0.23173210098E+04  0.50400001928E-02 0.  1.
       -1    1    3    3    0  502 -0.24902523519E+03  0.11015987154E+04 -0.72844192636E+03  0.13439348710E+04  0.50400001928E-02 0. -1.
</event>
<event>
 5   0  0.1928004E-07  0.3398914E+04  0.7818609E-02  0.8138173E-01
       -2   -1    0    0    0  501  0.00000000000E+00  0.00000000000E+00  0.27881183383E+04  0.27881183383E+04  0.25500000920E-02 0. -1.
        2   -1    0    0  501    0  0.00000000000E+00  0.00000000000E+00 -0.10358795184E+04  0.10358795184E+04  0.25500000920E-02 0.  1.
    10030    2    1    2    0    0  0.00000000000E+00  0.00000000000E+00  0.17522388199E+04  0.38239978566E+04  0.33989143451E+04 0.  0.
        2    1    3    3  502    0  0.10158995523E+04 -0.10019914475E+03  0.24047433915E+04  0.26124476163E+04  0.25500000920E-02 0. -1.
       -2    1    3    3    0  502 -0.10158995523E+04  0.10019914475E+03 -0.65250457161E+03  0.12115502403E+04  0.25500000920E-02 0.  1.
</event>
<event>
 5   0  0.6311750E-08  0.3411971E+04  0.7818609E-02  0.8134975E-01
       -1   -1    0    0    0  501  0.00000000000E+00  0.00000000000E+00  0.16473831007E+04  0.16473831007E+04  0.50400001928E-02 0. -1.
        1   -1    0    0  501    0  0.00000000000E+00  0.00000000000E+00 -0.17666724408E+04  0.17666724408E+04  0.50400001928E-02 0.  1.
    10030    2    1    2    0    0  0.00000000000E+00  0.00000000000E+00 -0.11928934013E+03  0.34140555416E+04  0.34119708812E+04 0.  0.
        4    1    3    3  502    0  0.91868096554E+03  0.14368926967E+04 -0.17793615559E+02  0.17055654675E+04  0.12699999809E+01 0. -1.
       -4    1    3    3    0  502 -0.91868096554E+03 -0.14368926967E+04 -0.10149572457E+03  0.17084900741E+04  0.12699999809E+01 0.  1.
</event>
<event>
 5   0  0.6367111E-08  0.3399099E+04  0.7818609E-02  0.8138127E-01
       -1   -1    0    0    0  501  0.00000000000E+00  0.00000000000E+00  0.12033426863E+04  0.12033426863E+04  0.50400001928E-02 0.  1.
        1   -1    0    0  501    0  0.00000000000E+00  0.00000000000E+00 -0.24003706970E+04  0.24003706970E+04  0.50400001928E-02 0. -1.
    10030    2    1    2    0    0  0.00000000000E+00  0.00000000000E+00 -0.11970280107E+04  0.36037133833E+04  0.33990990116E+04 0.  0.
        3    1    3    3  502    0 -0.16027277284E+04  0.28231163992E+03 -0.11179373120E+04  0.19743910143E+04  0.10100000352E+00 0. -1.
       -3    1    3    3    0  502  0.16027277284E+04 -0.28231163992E+03 -0.79090698685E+02  0.16293223691E+04  0.10100000352E+00 0.  1.
</event>
<event>
 5   0  0.1986613E-07  0.3403422E+04  0.7818609E-02  0.8137067E-01
        2   -1    0    0  501    0  0.00000000000E+00  0.00000000000E+00  0.13597729948E+04  0.13597729948E+04  0.25500000920E-02 0.  1.
       -2   -1    0    0    0  501  0.00000000000E+00  0.00000000000E+00 -0.21296355734E+04  0.21296355734E+04  0.25500000920E-02 0. -1.
    10030    2    1    2    0    0  0.00000000000E+00  0.00000000000E+00 -0.76986257851E+03  0.34894085682E+04  0.34034223608E+04 0.  0.
        5    1    3    3  502    0 -0.12194827086E+04 -0.72904804328E+03 -0.13451559185E+04  0.19565570937E+04  0.46999998093E+01 0. -1.
       -5    1    3    3    0  502  0.12194827086E+04  0.72904804328E+03  0.57529333994E+03  0.15328514745E+04  0.46999998093E+01 0.  1.
</event>
<event>
 5   0  0.1928004E-07  0.3402089E+04  0.7818609E-02  0.8137394E-01
        2   -1    0    0  501    0  0.00000000000E+00  0.00000000000E+00  0.17075843992E+04  0.17075843992E+04  0.25500000920E-02 0. -1.
       -2   -1    0    0    0  501  0.00000000000E+00  0.00000000000E+00 -0.16945297693E+04  0.16945297693E+04  0.25500000920E-02 0.  1.
    10030    2    1    2    0    0  0.00000000000E+00  0.00000000000E+00  0.13054629939E+02  0.34021141685E+04  0.34020891217E+04 0.  0.
        2    1    3    3  502    0  0.70209967921E+03 -0.15076019354E+04  0.36394433149E+03  0.17024285687E+04  0.25500000920E-02 0. -1.
       -2    1    3    3    0  502 -0.70209967921E+03  0.15076019354E+04 -0.35088970155E+03  0.16996855997E+04  0.25500000920E-02 0.  1.
</event>
<event>
 5   0  0.6311750E-08  0.3400809E+04  0.7818609E-02  0.8137708E-01
       -3   -1    0    0    0  501  0.00000000000E+00  0.00000000000E+00  0.25882695233E+04  0.25882695253E+04  0.10100000352E+00 0.  1.
        3   -1    0    0  501    0  0.00000000000E+00  0.00000000000E+00 -0.11171078324E+04  0.11171078369E+04  0.10100000352E+00 0. -1.
    10030    2    1    2    0    0  0.00000000000E+00  0.00000000000E+00  0.14711616909E+04  0.37053773622E+04  0.34008094148E+04 0.  0.
        1    1    3    3  502    0  0.56158209048E+03 -0.12063030664E+04  0.18890896699E+04  0.23106711824E+04  0.50400001928E-02 0.  1.
       -1    1    3    3    0  502 -0.56158209048E+03  0.12063030664E+04 -0.41792797898E+03  0.13947061798E+04  0.50400001928E-02 0. -1.
</event>
<event>
 5   0  0.6341535E-08  0.3396883E+04  0.7818609E-02  0.8138672E-01
       -1   -1    0    0    0  501  0.00000000000E+00  0.00000000000E+00  0.12619591813E+04  0.12619591813E+04  0.50400001928E-02 0.  1.
        1   -1    0    0  501    0  0.00000000000E+00  0.00000000000E+00 -0.22858935407E+04  0.22858935407E+04  0.50400001928E-02 0. -1.
    10030    2    1    2    0    0  0.00000000000E+00  0.00000000000E+00 -0.10239343594E+04  0.35478527220E+04  0.33968834782E+04 0.  0.
        5    1    3    3  502    0 -0.21995227754E+03  0.97750866770E+03  0.92039860488E+03  0.13605358803E+04  0.46999998093E+01 0.  1.
       -5    1    3    3    0  502  0.21995227754E+03 -0.97750866770E+03 -0.19443329643E+04  0.21873168417E+04  0.46999998093E+01 0. -1.
</event>
<event>
 5   0  0.6788600E-08  0.3397283E+04  0.7818609E-02  0.8138574E-01
       -1   -1    0    0    0  501  0.00000000000E+00  0.00000000000E+00  0.14211781134E+04  0.14211781134E+04  0.50400001928E-02 0. -1.
        1   -1    0    0  501    0  0.00000000000E+00  0.00000000000E+00 -0.20302751178E+04  0.20302751178E+04  0.50400001928E-02 0.  1.
    10030    2    1    2    0    0  0.00000000000E+00  0.00000000000E+00 -0.60909700442E+03  0.34514532313E+04  0.33972827741E+04 0.  0.
        2    1    3    3  502    0 -0.49716992488E+03  0.36233612955E+03 -0.19131196961E+04  0.20096000538E+04  0.25500000920E-02 0.  1.
       -2    1    3    3    0  502  0.49716992488E+03 -0.36233612955E+03  0.13040226916E+04  0.14418531774E+04  0.25500000920E-02 0. -1.
</event>
<event>
 5   0  0.6584420E-08  0.3402713E+04  0.7818609E-02  0.8137241E-01
        1   -1    0    0  501    0  0.00000000000E+00  0.00000000000E+00  0.15743140912E+04  0.15743140912E+04  0.50400001928E-02 0.  1.
       -1   -1    0    0    0  501  0.00000000000E+00  0.00000000000E+00 -0.18386510444E+04  0.18386510444E+04  0.50400001928E-02 0. -1.
    10030    2    1    2    0    0  0.00000000000E+00  0.00000000000E+00 -0.26433695321E+03  0.34129651357E+04  0.34027131810E+04 0.  0.
        1    1    3    3  502    0 -0.58453831909E+03  0.78575680896E+03 -0.15275881075E+04  0.18145589645E+04  0.50400001928E-02 0. -1.
       -1    1    3    3    0  502  0.58453831909E+03 -0.78575680896E+03  0.12632511543E+04  0.15984061712E+04  0.50400001928E-02 0.  1.
</event>
<event>
 5   0  0.1928004E-07  0.3412529E+04  0.7818609E-02  0.8134838E-01
        2   -1    0    0  501    0  0.00000000000E+00  0.00000000000E+00  0.17981308181E+04  0.17981308181E+04  0.25500000920E-02 0.  1.
       -2   -1    0    0    0  501  0.00000000000E+00  0.00000000000E+00 -0.16190915806E+04  0.16190915806E+04  0.25500000920E-02 0. -1.
    10030    2    1    2    0    0  0.00000000000E+00  0.00000000000E+00  0.17903923750E+03  0.34172223986E+04  0.34125289557E+04 0.  0.
        2    1    3    3  502    0 -0.22632677772E+02  0.16656392030E+04  0.45944924699E+03  0.17279929986E+04  0.25500000920E-02 0. -1.
       -2    1    3    3    0  502  0.22632677772E+02 -0.16656392030E+04 -0.28041000949E+03  0.16892294001E+04  0.25500000920E-02 0.  1.
</event>
<event>
 5   0  0.6584420E-08  0.3375432E+04  0.7818609E-02  0.8143963E-01
       -1   -1    0    0    0  501  0.00000000000E+00  0.00000000000E+00  0.14191717425E+04  0.14191717425E+04  0.50400001928E-02 0.  1.
        1   -1    0    0  501    0  0.00000000000E+00  0.00000000000E+00 -0.20070756601E+04  0.20070756601E+04  0.50400001928E-02 0. -1.
    10030    2    1    2    0    0  0.00000000000E+00  0.00000000000E+00 -0.58790391761E+03  0.34262474025E+04  0.33754318608E+04 0.  0.
        1    1    3    3  502    0 -0.12409076908E+04 -0.77866452271E+03 -0.11445499255E+04  0.18590763480E+04  0.50400001928E-02 0. -1.
       -1    1    3    3    0  502  0.12409076908E+04  0.77866452271E+03  0.55664600788E+03  0.15671710545E+04  0.50400001928E-02 0.  1.
</event>
<event>
 5   0  0.1986613E-07  0.3402721E+04  0.7818609E-02  0.8137239E-01
        2   -1    0    0  501    0  0.00000000000E+00  0.00000000000E+00  0.12021942482E+04  0.12021942482E+04  0.25500000920E-02 0.  1.
       -2   -1    0    0    0  501  0.00000000000E+00  0.00000000000E+00 -0.24077866083E+04  0.24077866083E+04  0.25500000920E-02 0. -1.
    10030    2    1    2    0    0  0.00000000000E+00  0.00000000000E+00 -0.12055923601E+04  0.36099808564E+04  0.34027208004E+04 0.  0.
        5    1    3    3  502    0 -0.10101892164E+03 -0.15494206305E+04 -0.13406406638E+04  0.20514016165E+04  0.46999998093E+01 0. -1.
       -5    1    3    3    0  502  0.10101892164E+03  0.15494206305E+04  0.13504830374E+03  0.15585792399E+04  0.46999998093E+01 0.  1.
</event>
<event>
 5   0  0.6367111E-08  0.3401867E+04  0.7818609E-02  0.8137448E-01
       -1   -1    0    0    0  501  0.00000000000E+00  0.00000000000E+00  0.17826340485E+04  0.17826340485E+04  0.50400001928E-02 0.  1.
        1   -1    0    0  501    0  0.00000000000E+00  0.00000000000E+00 -0.16229773777E+04  0.16229773777E+04  0.50400001928E-02 0. -1.
    10030    2    1    2    0    0  0.00000000000E+00  0.00000000000E+00  0.15965667082E+03  0.34056114262E+04  0.34018669776E+04 0.  0.
        3    1    3    3  502    0 -0.15597293020E+04  0.49694804145E+03 -0.38269955235E+03  0.16811221874E+04  0.10100000352E+00 0. -1.
       -3    1    3    3    0  502  0.15597293020E+04 -0.49694804145E+03  0.54235622318E+03  0.17244892387E+04  0.10100000352E+00 0.  1.
</event>
<event>
 5   0  0.6311750E-08  0.3374176E+04  0.7818609E-02  0.8144274E-01
       -3   -1    0    0    0  501  0.00000000000E+00  0.00000000000E+00  0.19860239641E+04  0.19860239666E+04  0.10100000352E+00 0.  1.
        3   -1    0    0  501    0  0.00000000000E+00  0.00000000000E+00 -0.14331479946E+04  0.14331479981E+04  0.10100000352E+00 0. -1.
    10030    2    1    2    0    0  0.00000000000E+00  0.00000000000E+00  0.55287596949E+03  0.34191719648E+04  0.33741762086E+04 0.  0.
        4    1    3    3  502    0 -0.46121243428E+03 -0.78579809077E+03 -0.11623801159E+04  0.14769308365E+04  0.12699999809E+01 0. -1.
       -4    1    3    3    0  502  0.46121243428E+03  0.78579809077E+03  0.17152560854E+04  0.19422411283E+04  0.12699999809E+01 0.  1.
</event>
<event>
 5   0  0.6341535E-08  0.3403224E+04  0.7818609E-02  0.8137115E-01
        1   -1    0    0  501    0  0.00000000000E+00  0.00000000000E+00  0.20650648739E+04  0.20650648739E+04  0.50400001928E-02 0. -1.
       -1   -1    0    0    0  501  0.00000000000E+00  0.00000000000E+00 -0.14021273772E+04  0.14021273772E+04  0.50400001928E-02 0.  1.
    10030    2    1    2    0    0  0.00000000000E+00  0.00000000000E+00  0.66293749667E+03  0.34671922510E+04  0.34032243507E+04 0.  0.
        5    1    3    3  502    0 -0.10407991918E+04 -0.60417623027E+03  0.15570641514E+04  0.19679336210E+04  0.46999998093E+01 0. -1.
       -5    1    3    3    0  502  0.10407991918E+04  0.60417623027E+03 -0.89412665477E+03  0.14992586300E+04  0.46999998093E+01 0.  1.
</event>
<event>
 5   0  0.1928004E-07  0.3388948E+04  0.7818609E-02  0.8140624E-01
       -2   -1    0    0    0  501  0.00000000000E+00  0.00000000000E+00  0.12059337301E+04  0.12059337301E+04  0.25500000920E-02 0. -1.
        2   -1    0    0  501    0  0.00000000000E+00  0.00000000000E+00 -0.23809288957E+04  0.23809288957E+04  0.25500000920E-02 0.  1.
    10030    2    1    2    0    0  0.00000000000E+00  0.00000000000E+00 -0.11749951656E+04  0.35868626258E+04  0.33889481934E+04 0.  0.
        2    1    3    3  502    0  0.23887187581E+03  0.63658238846E+03  0.10552215150E+04  0.12553044874E+04  0.25500000920E-02 0. -1.
       -2    1    3    3    0  502 -0.23887187581E+03 -0.63658238846E+03 -0.22302166806E+04  0.23315581384E+04  0.25500000920E-02 0.  1.
</event>
<event>
 5   0  0.6311750E-08  0.3402349E+04  0.7818609E-02  0.8137330E-01
       -3   -1    0    0    0  501  0.00000000000E+00  0.00000000000E+00  0.12131054473E+04  0.12131054515E+04  0.10100000352E+00 0.  1.
        3   -1    0    0  501    0  0.00000000000E+00  0.00000000000E+00 -0.23856088808E+04  0.23856088830E+04  0.10100000352E+00 0. -1.
    10030    2    1    2    0    0  0.00000000000E+00  0.00000000000E+00 -0.11725034336E+04  0.35987143344E+04  0.34023492706E+04 0.  0.
        1    1    3    3  502    0 -0.13169533102E+04 -0.41834041571E+03 -0.16358011477E+04  0.21413127094E+04  0.50400001928E-02 0. -1.
       -1    1    3    3    0  502  0.13169533102E+04  0.41834041571E+03  0.46329771415E+03  0.14574016250E+04  0.50400001928E-02 0.  1.
</event>
<event>
 5   0  0.6584420E-08  0.3377199E+04  0.7818609E-02  0.8143525E-01
       -1   -1    0    0    0  501  0.00000000000E+00  0.00000000000E+00  0.15692673934E+04  0.15692673934E+04  0.50400001928E-02 0. -1.
        1   -1    0    0  501    0  0.00000000000E+00  0.00000000000E+00 -0.18170059599E+04  0.18170059599E+04  0.50400001928E-02 0.  1.
    10030    2    1    2    0    0  0.00000000000E+00  0.00000000000E+00 -0.24773856647E+03  0.33862733533E+04  0.33771989615E+04 0.  0.
        1    1    3    3  502    0 -0.11313222018E+04  0.58310293967E+03  0.98882831588E+03  0.16117321120E+04  0.50400001928E-02 0. -1.
       -1    1    3    3    0  502  0.11313222018E+04 -0.58310293967E+03 -0.12365668823E+04  0.17745412413E+04  0.50400001928E-02 0.  1.
</event>
<event>
 5   0  0.1928004E-07  0.3403121E+04  0.7818609E-02  0.8137141E-01
       -2   -1    0    0    0  501  0.00000000000E+00  0.00000000000E+00  0.13669802763E+04  0.13669802763E+04  0.25500000920E-02 0. -1.
        2   -1    0    0  501    0  0.00000000000E+00  0.00000000000E+00 -0.21180323118E+04  0.21180323118E+04  0.25500000920E-02 0.  1.
    10030    2    1    2    0    0  0.00000000000E+00  0.00000000000E+00 -0.75105203553E+03  0.34850125881E+04  0.34031211526E+04 0.  0.
        2    1    3    3  502    0  0.55084752837E+01 -0.40490595590E+03 -0.20679686867E+04  0.21072431435E+04  0.25500000920E-02 0.  1.
       -2    1    3    3    0  502 -0.55084752837E+01  0.40490595590E+03  0.13169166512E+04  0.13777694446E+04  0.25500000920E-02 0. -1.
</event>
<event>
 5   0  0.6788600E-08  0.3397342E+04  0.7818609E-02  0.8138559E-01
       -1   -1    0    0    0  501  0.00000000000E+00  0.00000000000E+00  0.16812727139E+04  0.16812727139E+04  0.50400001928E-02 0.  1.
        1   -1    0    0  501    0  0.00000000000E+00  0.00000000000E+00 -0.17162488484E+04  0.17162488484E+04  0.50400001928E-02 0. -1.
    10030    2    1    2    0    0  0.00000000000E+00  0.00000000000E+00 -0.34976134538E+02  0.33975215623E+04  0.33973415249E+04 0.  0.
        2    1    3    3  502    0 -0.82385567004E+03 -0.12630244789E+04  0.76454657007E+03  0.16907100453E+04  0.25500000920E-02 0.  1.
       -2    1    3    3    0  502  0.82385567004E+03  0.12630244789E+04 -0.79952270461E+03  0.17068115170E+04  0.25500000920E-02 0. -1.
</event>
<event>
 5   0  0.6788600E-08  0.3415679E+04  0.7818609E-02  0.8134069E-01
        1   -1    0    0  501    0  0.00000000000E+00  0.00000000000E+00  0.93348700277E+03  0.93348700278E+03  0.50400001928E-02 0.  1.
       -1   -1    0    0    0  501  0.00000000000E+00  0.00000000000E+00 -0.31245375971E+04  0.31245375971E+04  0.50400001928E-02 0. -1.
    10030    2    1    2    0    0  0.00000000000E+00  0.00000000000E+00 -0.21910505944E+04  0.40580245999E+04  0.34156786949E+04 0.  0.
        2    1    3    3  502    0 -0.49861568952E+03 -0.14931003715E+04 -0.30857792307E+03  0.16041155382E+04  0.25500000920E-02 0. -1.
       -2    1    3    3    0  502  0.49861568952E+03  0.14931003715E+04 -0.18824726713E+04  0.24539090618E+04  0.25500000920E-02 0.  1.
</event>
<event>
 5   0  0.6311750E-08  0.3399390E+04  0.7818609E-02  0.8138056E-01
       -1   -1    0    0    0  501  0.00000000000E+00  0.00000000000E+00  0.17774629060E+04  0.17774629060E+04  0.50400001928E-02 0. -1.
        1   -1    0    0  501    0  0.00000000000E+00  0.00000000000E+00 -0.16253292479E+04  0.16253292479E+04  0.50400001928E-02 0.  1.
    10030    2    1    2    0    0  0.00000000000E+00  0.00000000000E+00  0.15213365804E+03  0.34027921539E+04  0.33993896206E+04 0.  0.
        4    1    3    3  502    0  0.12000725342E+04 -0.47147255884E+03  0.11846501016E+04  0.17509591478E+04  0.12699999809E+01 0. -1.
       -4    1    3    3    0  502 -0.12000725342E+04  0.47147255884E+03 -0.10325164436E+04  0.16518330061E+04  0.12699999809E+01 0.  1.
</event>
<event>
 5   0  0.6311750E-08  0.3392697E+04  0.7818609E-02  0.8139701E-01
       -1   -1    0    0    0  501  0.00000000000E+00  0.00000000000E+00  0.32142926033E+04  0.32142926033E+04  0.50400001928E-02 0. -1.
        1   -1    0    0  501    0  0.00000000000E+00  0.00000000000E+00 -0.89525087547E+03  0.89525087549E+03  0.50400001928E-02 0.  1.
    10030    2    1    2    0    0  0.00000000000E+00  0.00000000000E+00  0.23190417278E+04  0.41095434788E+04  0.33926970199E+04 0.  0.
        4    1    3    3  502    0 -0.12356447452E+03  0.44193939691E+03 -0.81863942532E+03  0.93848320789E+03  0.12699999809E+01 0.  1.
       -4    1    3    3    0  502  0.12356447452E+03 -0.44193939691E+03  0.31376811532E+04  0.31710602709E+04  0.12699999809E+01 0. -1.
</event>
<event>
 5   0  0.6341535E-08  0.3410269E+04  0.7818609E-02  0.8135391E-01
        1   -1    0    0  501    0  0.00000000000E+00  0.00000000000E+00  0.25104155473E+04  0.25104155473E+04  0.50400001928E-02 0. -1.
       -1   -1    0    0    0  501  0.00000000000E+00  0.00000000000E+00 -0.11581680945E+04  0.11581680945E+04  0.50400001928E-02 0.  1.
    10030    2    1    2    0    0  0.00000000000E+00  0.00000000000E+00  0.13522474528E+04  0.36685836418E+04  0.34102687231E+04 0.  0.
        5    1    3    3  502    0 -0.16166441002E+04  0.52780071842E+03  0.54284682118E+03  0.17851656804E+04  0.46999998093E+01 0. -1.
       -5    1    3    3    0  502  0.16166441002E+04 -0.52780071842E+03  0.80940063159E+03  0.18834179614E+04  0.46999998093E+01 0.  1.
</event>
<event>
 5   0  0.6367111E-08  0.3302509E+04  0.7818609E-02  0.8162257E-01
        1   -1    0    0  501    0  0.00000000000E+00  0.00000000000E+00  0.16329505874E+04  0.16329505874E+04  0.50400001928E-02 0.  1.
       -1   -1    0    0    0  501  0.00000000000E+00  0.00000000000E+00 -0.16697634904E+04  0.16697634904E+04  0.50400001928E-02 0. -1.
    10030    2    1    2    0    0  0.00000000000E+00  0.00000000000E+00 -0.36812902993E+02  0.33027140778E+04  0.33025089084E+04 0.  0.
        3    1    3    3  502    0 -0.33047252709E+03 -0.21698673235E+03  0.15849229926E+04  0.16334859154E+04  0.10100000352E+00 0.  1.
       -3    1    3    3    0  502  0.33047252709E+03  0.21698673235E+03 -0.16217358956E+04  0.16692281625E+04  0.10100000352E+00 0. -1.
</event>
<event>
 5   0  0.1986613E-07  0.3401894E+04  0.7818609E-02  0.8137442E-01
       -2   -1    0    0    0  501  0.00000000000E+00  0.00000000000E+00  0.18438396767E+04  0.18438396767E+04  0.25500000920E-02 0. -1.
        2   -1    0    0  501    0  0.00000000000E+00  0.00000000000E+00 -0.15691278207E+04  0.15691278207E+04  0.25500000920E-02 0.  1.
    10030    2    1    2    0    0  0.00000000000E+00  0.00000000000E+00  0.27471185601E+03  0.34129674974E+04  0.34018936689E+04 0.  0.
        5    1    3    3  502    0  0.75734620780E+03  0.59916969335E+03 -0.12674236363E+04  0.15934121763E+04  0.46999998093E+01 0.  1.
       -5    1    3    3    0  502 -0.75734620780E+03 -0.59916969335E+03  0.15421354923E+04  0.18195553211E+04  0.46999998093E+01 0. -1.
</event>
<event>
 5   0  0.6341535E-08  0.3387590E+04  0.7818609E-02  0.8140959E-01
        1   -1    0    0  501    0  0.00000000000E+00  0.00000000000E+00  0.27063593765E+04  0.27063593765E+04  0.50400001928E-02 0. -1.
       -1   -1    0    0    0  501  0.00000000000E+00  0.00000000000E+00 -0.10600742546E+04  0.10600742546E+04  0.50400001928E-02 0.  1.
    10030    2    1    2    0    0  0.00000000000E+00  0.00000000000E+00  0.16462851219E+04  0.37664336312E+04  0.33875902343E+04 0.  0.
        5    1    3    3  502    0 -0.16162807286E+04  0.38836879552E+03  0.11846610725E+04  0.20412343476E+04  0.46999998093E+01 0. -1.
       -5    1    3    3    0  502  0.16162807286E+04 -0.38836879552E+03  0.46162404941E+03  0.17251992836E+04  0.46999998093E+01 0.  1.
</event>
<event>
 5   0  0.1970449E-07  0.3395647E+04  0.7818609E-02  0.8138975E-01
        2   -1    0    0  501    0  0.00000000000E+00  0.00000000000E+00  0.24100658154E+04  0.24100658154E+04  0.25500000920E-02 0.  1.
       -2   -1    0    0    0  501  0.00000000000E+00  0.00000000000E+00 -0.11960691412E+04  0.11960691412E+04  0.25500000920E-02 0. -1.
    10030    2    1    2    0    0  0.00000000000E+00  0.00000000000E+00  0.12139966742E+04  0.36061349566E+04  0.33956474199E+04 0.  0.
        1    1    3    3  502    0 -0.52983182125E+03 -0.14807368860E+04 -0.72426232657E+02  0.15743408283E+04  0.50400001928E-02 0. -1.
       -1    1    3    3    0  502  0.52983182125E+03  0.14807368860E+04  0.12864229069E+04  0.20317941283E+04  0.50400001928E-02 0.  1.
</event>
<event>
 5   0  0.6367111E-08  0.3397955E+04  0.7818609E-02  0.8138408E-01
        1   -1    0    0  501    0  0.00000000000E+00  0.00000000000E+00  0.15838091496E+04  0.15838091496E+04  0.50400001928E-02 0.  1.
       -1   -1    0    0    0  501  0.00000000000E+00  0.00000000000E+00 -0.18225201361E+04  0.18225201362E+04  0.50400001928E-02 0. -1.
    10030    2    1    2    0    0  0.00000000000E+00  0.00000000000E+00 -0.23871098659E+03  0.34063292857E+04  0.33979547183E+04 0.  0.
        3    1    3    3  502    0  0.10595643925E+04  0.11745406043E+04  0.50209309741E+03  0.16596143593E+04  0.10100000352E+00 0.  1.
       -3    1    3    3    0  502 -0.10595643925E+04 -0.11745406043E+04 -0.74080408400E+03  0.17467149264E+04  0.10100000352E+00 0. -1.
</event>
<event>
 5   0  0.6311750E-08  0.3391472E+04  0.7818609E-02  0.8140003E-01
        1   -1    0    0  501    0  0.00000000000E+00  0.00000000000E+00  0.29512025490E+04  0.29512025490E+04  0.50400001928E-02 0. -1.
       -1   -1    0    0    0  501  0.00000000000E+00  0.00000000000E+00 -0.97435540746E+03  0.97435540747E+03  0.50400001928E-02 0.  1.
    10030    2    1    2    0    0  0.00000000000E+00  0.00000000000E+00  0.19768471415E+04  0.39255579565E+04  0.33914717526E+04 0.  0.
        4    1    3    3  502    0  0.16138298081E+04 -0.48613015713E+03  0.12041913831E+04  0.20714361393E+04  0.12699999809E+01 0. -1.
       -4    1    3    3    0  502 -0.16138298081E+04  0.48613015713E+03  0.77265575845E+03  0.18541218172E+04  0.12699999809E+01 0.  1.
</event>
<event>
 5   0  0.1970449E-07  0.3395529E+04  0.7818609E-02  0.8139005E-01
        2   -1    0    0  501    0  0.00000000000E+00  0.00000000000E+00  0.29998500689E+04  0.29998500689E+04  0.25500000920E-02 0. -1.
       -2   -1    0    0    0  501  0.00000000000E+00  0.00000000000E+00 -0.96084922924E+03  0.96084922925E+03  0.25500000920E-02 0.  1.
    10030    2    1    2    0    0  0.00000000000E+00  0.00000000000E+00  0.20390008397E+04  0.39606992981E+04  0.33955286048E+04 0.  0.
        1    1    3    3  502    0 -0.12273874521E+03  0.37399982288E+03  0.29458890603E+04  0.29720704942E+04  0.50400001928E-02 0. -1.
       -1    1    3    3    0  502  0.12273874521E+03 -0.37399982288E+03 -0.90688822066E+03  0.98862880389E+03  0.50400001928E-02 0.  1.
</event>
<event>
 5   0  0.1897313E-07  0.3414031E+04  0.7818609E-02  0.8134471E-01
        2   -1    0    0  501    0  0.00000000000E+00  0.00000000000E+00  0.19429935430E+04  0.19429935430E+04  0.25500000920E-02 0. -1.
       -2   -1    0    0    0  501  0.00000000000E+00  0.00000000000E+00 -0.14996969142E+04  0.14996969142E+04  0.25500000920E-02 0.  1.
    10030    2    1    2    0    0  0.00000000000E+00  0.00000000000E+00  0.44329662877E+03  0.34426904572E+04  0.34140307092E+04 0.  0.
        3    1    3    3  502    0 -0.11244888446E+04  0.16747075578E+03 -0.10623750632E+04  0.15560084835E+04  0.10100000352E+00 0.  1.
       -3    1    3    3    0  502  0.11244888446E+04 -0.16747075578E+03  0.15056716920E+04  0.18866819737E+04  0.10100000352E+00 0. -1.
</event>
<event>
 5   0  0.1970449E-07  0.3397015E+04  0.7818609E-02  0.8138639E-01
        2   -1    0    0  501    0  0.00000000000E+00  0.00000000000E+00  0.24976597736E+04  0.24976597736E+04  0.25500000920E-02 0. -1.
       -2   -1    0    0    0  501  0.00000000000E+00  0.00000000000E+00 -0.11550525792E+04  0.11550525792E+04  0.25500000920E-02 0.  1.
    10030    2    1    2    0    0  0.00000000000E+00  0.00000000000E+00  0.13426071944E+04  0.36527123528E+04  0.33970153744E+04 0.  0.
        1    1    3    3  502    0  0.11267214242E+04 -0.39959492249E+03 -0.62605944901E+03  0.13494916463E+04  0.50400001928E-02 0.  1.
       -1    1    3    3    0  502 -0.11267214242E+04  0.39959492249E+03  0.19686666434E+04  0.23032207065E+04  0.50400001928E-02 0. -1.
</event>
<event>
 5   0  0.1897313E-07  0.3399859E+04  0.7818609E-02  0.8137941E-01
       -2   -1    0    0    0  501  0.00000000000E+00  0.00000000000E+00  0.19875001240E+04  0.19875001240E+04  0.25500000920E-02 0.  1.
        2   -1    0    0  501    0  0.00000000000E+00  0.00000000000E+00 -0.14539671019E+04  0.14539671019E+04  0.25500000920E-02 0. -1.
    10030    2    1    2    0    0  0.00000000000E+00  0.00000000000E+00  0.53353302209E+03  0.34414672259E+04  0.33998587002E+04 0.  0.
        3    1    3    3  502    0 -0.42407710452E+03  0.59521293022E+03 -0.12868263850E+04  0.14798790418E+04  0.10100000352E+00 0. -1.
       -3    1    3    3    0  502  0.42407710452E+03 -0.59521293022E+03  0.18203594071E+04  0.19615881841E+04  0.10100000352E+00 0.  1.
</event>
<event>
 5   0  0.1928004E-07  0.3407638E+04  0.7818609E-02  0.8136034E-01
        2   -1    0    0  501    0  0.00000000000E+00  0.00000000000E+00  0.12256595526E+04  0.12256595526E+04  0.25500000920E-02 0.  1.
       -2   -1    0    0    0  501  0.00000000000E+00  0.00000000000E+00 -0.23685202275E+04  0.23685202275E+04  0.25500000920E-02 0. -1.
    10030    2    1    2    0    0  0.00000000000E+00  0.00000000000E+00 -0.11428606749E+04  0.35941797801E+04  0.34076381512E+04 0.  0.
        2    1    3    3  502    0 -0.10951462893E+04  0.11874256687E+04  0.15268037505E+00  0.16153405638E+04  0.25500000920E-02 0.  1.
       -2    1    3    3    0  502  0.10951462893E+04 -0.11874256687E+04 -0.11430133553E+04  0.19788392163E+04  0.25500000920E-02 0. -1.
</event>
<event>
 5   0  0.1970449E-07  0.3427940E+04  0.7818609E-02  0.8131083E-01
        2   -1    0    0  501    0  0.00000000000E+00  0.00000000000E+00  0.15526851310E+04  0.15526851310E+04  0.25500000920E-02 0. -1.
       -2   -1    0    0    0  501  0.00000000000E+00  0.00000000000E+00 -0.18920086560E+04  0.18920086560E+04  0.25500000920E-02 0.  1.
    10030    2    1    2    0    0  0.00000000000E+00  0.00000000000E+00 -0.33932352506E+03  0.34446937870E+04  0.34279403191E+04 0.  0.
        1    1    3    3  502    0  0.34192724530E+03 -0.51968678751E+03  0.14352364584E+04  0.15642545476E+04  0.50400001928E-02 0. -1.
       -1    1    3    3    0  502 -0.34192724530E+03  0.51968678751E+03 -0.17745599834E+04  0.18804392394E+04  0.50400001928E-02 0.  1.
</event>
<event>
 5   0  0.6341535E-08  0.3398993E+04  0.7818609E-02  0.8138154E-01
        1   -1    0    0  501    0  0.00000000000E+00  0.00000000000E+00  0.21247822839E+04  0.21247822839E+04  0.50400001928E-02 0. -1.
       -1   -1    0    0    0  501  0.00000000000E+00  0.00000000000E+00 -0.13593334813E+04  0.13593334813E+04  0.50400001928E-02 0.  1.
    10030    2    1    2    0    0  0.00000000000E+00  0.00000000000E+00  0.76544880264E+03  0.34841157653E+04  0.33989926149E+04 0.  0.
        5    1    3    3  502    0  0.72317259599E+03  0.81702755878E+03 -0.95288542515E+03  0.14486287857E+04  0.46999998093E+01 0. -1.
       -5    1    3    3    0  502 -0.72317259599E+03 -0.81702755878E+03  0.17183342278E+04  0.20354869795E+04  0.46999998093E+01 0.  1.
</event>
<event>
 5   0  0.6341535E-08  0.3408281E+04  0.7818609E-02  0.8135877E-01
       -1   -1    0    0    0  501  0.00000000000E+00  0.00000000000E+00  0.12334234557E+04  0.12334234557E+04  0.50400001928E-02 0.  1.
        1   -1    0    0  501    0  0.00000000000E+00  0.00000000000E+00 -0.23544990055E+04  0.23544990055E+04  0.50400001928E-02 0. -1.
    10030    2    1    2    0    0  0.00000000000E+00  0.00000000000E+00 -0.11210755498E+04  0.35879224612E+04  0.34082806808E+04 0.  0.
        5    1    3    3  502    0  0.12266730033E+04 -0.11307885088E+04 -0.19486335809E+03  0.16797032854E+04  0.46999998093E+01 0. -1.
       -5    1    3    3    0  502 -0.12266730033E+04  0.11307885088E+04 -0.92621219170E+03  0.19082191758E+04  0.46999998093E+01 0.  1.
</event>
<event>
 5   0  0.1928004E-07  0.3396313E+04  0.7818609E-02  0.8138812E-01
        2   -1    0    0  501    0  0.00000000000E+00  0.00000000000E+00  0.12254717474E+04  0.12254717474E+04  0.25500000920E-02 0.  1.
       -2   -1    0    0    0  501  0.00000000000E+00  0.00000000000E+00 -0.23531640521E+04  0.23531640521E+04  0.25500000920E-02 0. -1.
    10030    2    1    2    0    0  0.00000000000E+00  0.00000000000E+00 -0.11276923047E+04  0.35786357994E+04  0.33963133323E+04 0.  0.
        2    1    3    3  502    0  0.42827797376E+03  0.74988666057E+03  0.97683220286E+03  0.13038225259E+04  0.25500000920E-02 0.  1.
       -2    1    3    3    0  502 -0.42827797376E+03 -0.74988666057E+03 -0.21045245076E+04  0.22748132735E+04  0.25500000920E-02 0. -1.
</event>
<event>
 5   0  0.6367111E-08  0.3398620E+04  0.7818609E-02  0.8138245E-01
       -1   -1    0    0    0  501  0.00000000000E+00  0.00000000000E+00  0.15294209178E+04  0.15294209178E+04  0.50400001928E-02 0.  1.
        1   -1    0    0  501    0  0.00000000000E+00  0.00000000000E+00 -0.18880700409E+04  0.18880700409E+04  0.50400001928E-02 0. -1.
    10030    2    1    2    0    0  0.00000000000E+00  0.00000000000E+00 -0.35864912315E+03  0.34174909587E+04  0.33986196109E+04 0.  0.
        3    1    3    3  502    0 -0.67096834661E+03 -0.45133726898E+03 -0.16821969081E+04  0.18664646528E+04  0.10100000352E+00 0. -1.
       -3    1    3    3    0  502  0.67096834661E+03  0.45133726898E+03  0.13235477849E+04  0.15510263059E+04  0.10100000352E+00 0.  1.
</event>
<event>
 5   0  0.6341535E-08  0.3417889E+04  0.7818609E-02  0.8133530E-01
        1   -1    0    0  501    0  0.00000000000E+00  0.00000000000E+00  0.19052345212E+04  0.19052345212E+04  0.50400001928E-02 0.  1.
       -1   -1    0    0    0  501  0.00000000000E+00  0.00000000000E+00 -0.15328778550E+04  0.15328778550E+04  0.50400001928E-02 0. -1.
    10030    2    1    2    0    0  0.00000000000E+00  0.00000000000E+00  0.37235666625E+03  0.34381123762E+04  0.34178892938E+04 0.  0.
        5    1    3    3  502    0  0.73850187306E+03 -0.52568136420E+03 -0.12710975892E+04  0.15612293503E+04  0.46999998093E+01 0. -1.
       -5    1    3    3    0  502 -0.73850187306E+03  0.52568136420E+03  0.16434542554E+04  0.18768830259E+04  0.46999998093E+01 0.  1.
</event>
<event>
 5   0  0.1986613E-07  0.3426270E+04  0.7818609E-02  0.8131489E-01
       -2   -1    0    0    0  501  0.00000000000E+00  0.00000000000E+00  0.14463322478E+04  0.14463322478E+04  0.25500000920E-02 0.  1.
        2   -1    0    0  501    0  0.00000000000E+00  0.00000000000E+00 -0.20291546028E+04  0.20291546028E+04  0.25500000920E-02 0. -1.
    10030    2    1    2    0    0  0.00000000000E+00  0.00000000000E+00 -0.58282235501E+03  0.34754868506E+04  0.34262701224E+04 0.  0.
        5    1    3    3  502    0  0.41500855011E+03  0.10322153761E+04 -0.16128556383E+04  0.19593432776E+04  0.46999998093E+01 0. -1.
       -5    1    3    3    0  502 -0.41500855011E+03 -0.10322153761E+04  0.10300332833E+04  0.15161435731E+04  0.46999998093E+01 0.  1.
</event>
<event>
 5   0  0.1897313E-07  0.3399204E+04  0.7818609E-02  0.8138102E-01
        2   -1    0    0  501    0  0.00000000000E+00  0.00000000000E+00  0.15562771307E+04  0.15562771307E+04  0.25500000920E-02 0.  1.
       -2   -1    0    0    0  501  0.00000000000E+00  0.00000000000E+00 -0.18561265018E+04  0.18561265018E+04  0.25500000920E-02 0. -1.
    10030    2    1    2    0    0  0.00000000000E+00  0.00000000000E+00 -0.29984937105E+03  0.34124036325E+04  0.33992041577E+04 0.  0.
        3    1    3    3  502    0  0.43927230683E+03  0.14585939579E+04  0.60678660781E+03  0.16397092703E+04  0.10100000352E+00 0.  1.
       -3    1    3    3    0  502 -0.43927230683E+03 -0.14585939579E+04 -0.90663597886E+03  0.17726943622E+04  0.10100000352E+00 0. -1.
</event>
<event>
 5   0  0.6341535E-08  0.3394475E+04  0.7818609E-02  0.8139264E-01
       -1   -1    0    0    0  501  0.00000000000E+00  0.00000000000E+00  0.15305960941E+04  0.15305960941E+04  0.50400001928E-02 0.  1.
        1   -1    0    0  501    0  0.00000000000E+00  0.00000000000E+00 -0.18820219501E+04  0.18820219501E+04  0.50400001928E-02 0. -1.
    10030    2    1    2    0    0  0.00000000000E+00  0.00000000000E+00 -0.35142585603E+03  0.34126180442E+04  0.33944751853E+04 0.  0.
        5    1    3    3  502    0 -0.82676946427E+03  0.70750178340E+03  0.11337412074E+04  0.15714635649E+04  0.46999998093E+01 0.  1.
       -5    1    3    3    0  502  0.82676946427E+03 -0.70750178340E+03 -0.14851670634E+04  0.18411544793E+04  0.46999998093E+01 0. -1.
</event>
<event>
 5   0  0.1928004E-07  0.3398031E+04  0.7818609E-02  0.8138390E-01
        2   -1    0    0  501    0  0.00000000000E+00  0.00000000000E+00  0.18486303058E+04  0.18486303058E+04  0.25500000920E-02 0.  1.
       -2   -1    0    0    0  501  0.00000000000E+00  0.00000000000E+00 -0.15615093530E+04  0.15615093530E+04  0.25500000920E-02 0. -1.
    10030    2    1    2    0    0  0.00000000000E+00  0.00000000000E+00  0.28712095275E+03  0.34101396588E+04  0.33980309079E+04 0.  0.
        2    1    3    3  502    0  0.73583290057E+03 -0.11000514732E+04 -0.92564218206E+03  0.16150469809E+04  0.25500000920E-02 0. -1.
       -2    1    3    3    0  502 -0.73583290057E+03  0.11000514732E+04  0.12127631348E+04  0.17950926779E+04  0.25500000920E-02 0.  1.
</event>
<event>
 5   0  0.6584420E-08  0.3388736E+04  0.7818609E-02  0.8140676E-01
       -1   -1    0    0    0  501  0.00000000000E+00  0.00000000000E+00  0.94821804913E+03  0.94821804915E+03  0.50400001928E-02 0.  1.
        1   -1    0    0  501    0  0.00000000000E+00  0.00000000000E+00 -0.30276605647E+04  0.30276605647E+04  0.50400001928E-02 0. -1.
    10030    2    1    2    0    0  0.00000000000E+00  0.00000000000E+00 -0.20794425155E+04  0.39758786138E+04  0.33887356900E+04 0.  0.
        1    1    3    3  502    0 -0.10284569044E+04  0.11558168534E+04 -0.22919580867E+03  0.15640226730E+04  0.50400001928E-02 0.  1.
       -1    1    3    3    0  502  0.10284569044E+04 -0.11558168534E+04 -0.18502467069E+04  0.24118559408E+04  0.50400001928E-02 0. -1.
</event>
<event>
 5   0  0.1970449E-07  0.3396840E+04  0.7818609E-02  0.8138682E-01
        2   -1    0    0  501    0  0.00000000000E+00  0.00000000000E+00  0.23401576058E+04  0.23401576058E+04  0.25500000920E-02 0.  1.
       -2   -1    0    0    0  501  0.00000000000E+00  0.00000000000E+00 -0.12326648276E+04  0.12326648276E+04  0.25500000920E-02 0. -1.
    10030    2    1    2    0    0  0.00000000000E+00  0.00000000000E+00  0.11074927782E+04  0.35728224334E+04  0.33968396911E+04 0.  0.
        1    1    3    3  502    0 -0.77101399563E+03 -0.18149672922E+03  0.21339896056E+04  0.22762502676E+04  0.50400001928E-02 0.  1.
       -1    1    3    3    0  502  0.77101399563E+03  0.18149672922E+03 -0.10264968274E+04  0.12965721657E+04  0.50400001928E-02 0. -1.
</event>
<event>
 5   0  0.6788600E-08  0.3403862E+04  0.7818609E-02  0.8136959E-01
       -1   -1    0    0    0  501  0.00000000000E+00  0.00000000000E+00  0.17185790265E+04  0.17185790265E+04  0.50400001928E-02 0. -1.
        1   -1    0    0  501    0  0.00000000000E+00  0.00000000000E+00 -0.16854442427E+04  0.16854442427E+04  0.50400001928E-02 0.  1.
    10030    2    1    2    0    0  0.00000000000E+00  0.00000000000E+00  0.33134783741E+02  0.34040232692E+04  0.34038619983E+04 0.  0.
        2    1    3    3  502    0  0.58466629502E+03  0.15146298259E+04 -0.49397705985E+03  0.16970419917E+04  0.25500000920E-02 0.  1.
       -2    1    3    3    0  502 -0.58466629502E+03 -0.15146298259E+04  0.52711184359E+03  0.17069812775E+04  0.25500000920E-02 0. -1.
</event>
<event>
 5   0  0.6367111E-08  0.3401350E+04  0.7818609E-02  0.8137575E-01
        1   -1    0    0  501    0  0.00000000000E+00  0.00000000000E+00  0.17576341812E+04  0.17576341812E+04  0.50400001928E-02 0. -1.
       -1   -1    0    0    0  501  0.00000000000E+00  0.00000000000E+00 -0.16455617984E+04  0.16455617984E+04  0.50400001928E-02 0.  1.
    10030    2    1    2    0    0  0.00000000000E+00  0.00000000000E+00  0.11207238277E+03  0.34031959797E+04  0.34013501227E+04 0.  0.
        3    1    3    3  502    0 -0.15444983369E+04  0.56845212900E+03  0.48485099476E+03  0.17157195089E+04  0.10100000352E+00 0. -1.
       -3    1    3    3    0  502  0.15444983369E+04 -0.56845212900E+03 -0.37277861199E+03  0.16874764708E+04  0.10100000352E+00 0.  1.
</event>
<event>
 5   0  0.6341535E-08  0.3391540E+04  0.7818609E-02  0.8139986E-01
       -1   -1    0    0    0  501  0.00000000000E+00  0.00000000000E+00  0.19145920991E+04  0.19145920991E+04  0.50400001928E-02 0.  1.
        1   -1    0    0  501    0  0.00000000000E+00  0.00000000000E+00 -0.15019571540E+04  0.15019571540E+04  0.50400001928E-02 0. -1.
    10030    2    1    2    0    0  0.00000000000E+00  0.00000000000E+00  0.41263494510E+03  0.34165492532E+04  0.33915396506E+04 0.  0.
        5    1    3    3  502    0 -0.16593159333E+04 -0.32010087403E+03  0.64498392702E+02  0.16911463770E+04  0.46999998093E+01 0. -1.
       -5    1    3    3    0  502  0.16593159333E+04  0.32010087403E+03  0.34813655240E+03  0.17254028762E+04  0.46999998093E+01 0.  1.
</event>
<event>
 5   0  0.6788600E-08  0.3399093E+04  0.7818609E-02  0.8138129E-01
       -1   -1    0    0    0  501  0.00000000000E+00  0.00000000000E+00  0.23932420815E+04  0.23932420815E+04  0.50400001928E-02 0. -1.
        1   -1    0    0  501    0  0.00000000000E+00  0.00000000000E+00 -0.12069225155E+04  0.12069225155E+04  0.50400001928E-02 0.  1.
    10030    2    1    2    0    0  0.00000000000E+00  0.00000000000E+00  0.11863195661E+04  0.36001645970E+04  0.33990926749E+04 0.  0.
        2    1    3    3  502    0 -0.14099668778E+04  0.91138015928E+03  0.87306001897E+03  0.18923145055E+04  0.25500000920E-02 0. -1.
       -2    1    3    3    0  502  0.14099668778E+04 -0.91138015928E+03  0.31325954710E+03  0.17078500915E+04  0.25500000920E-02 0.  1.
</event>
<event>
 5   0  0.1963852E-07  0.3398852E+04  0.7818609E-02  0.8138188E-01
       -2   -1    0    0    0  501  0.00000000000E+00  0.00000000000E+00  0.10564423714E+04  0.10564423714E+04  0.25500000920E-02 0. -1.
        2   -1    0    0  501    0  0.00000000000E+00  0.00000000000E+00 -0.27337495732E+04  0.27337495732E+04  0.25500000920E-02 0.  1.
    10030    2    1    2    0    0  0.00000000000E+00  0.00000000000E+00 -0.16773072018E+04  0.37901919446E+04  0.33988520897E+04 0.  0.
        4    1    3    3  502    0 -0.73206561053E+03 -0.85966129512E+03 -0.22549719638E+04  0.25218718784E+04  0.12699999809E+01 0.  1.
       -4    1    3    3    0  502  0.73206561053E+03  0.85966129512E+03  0.57766476196E+03  0.12683200663E+04  0.12699999809E+01 0. -1.
</event>
<event>
 5   0  0.6311750E-08  0.3388805E+04  0.7818609E-02  0.8140659E-01
       -1   -1    0    0    0  501  0.00000000000E+00  0.00000000000E+00  0.14694821888E+04  0.14694821888E+04  0.50400001928E-02 0. -1.
        1   -1    0    0  501    0  0.00000000000E+00  0.00000000000E+00 -0.19537496230E+04  0.19537496230E+04  0.50400001928E-02 0.  1.
    10030    2    1    2    0    0  0.00000000000E+00  0.00000000000E+00 -0.48426743414E+03  0.34232318118E+04  0.33888052599E+04 0.  0.
        4    1    3    3  502    0 -0.16655988251E+04 -0.13527533287E+03  0.40854683313E+02  0.16715829563E+04  0.12699999809E+01 0. -1.
       -4    1    3    3    0  502  0.16655988251E+04  0.13527533287E+03 -0.52512211745E+03  0.17516488555E+04  0.12699999809E+01 0.  1.
</event>
<event>
 5   0  0.6341535E-08  0.3408304E+04  0.7818609E-02  0.8135871E-01
       -1   -1    0    0    0  501  0.00000000000E+00  0.00000000000E+00  0.13945594048E+04  0.13945594048E+04  0.50400001928E-02 0. -1.
        1   -1    0    0  501    0  0.00000000000E+00  0.00000000000E+00 -0.20824746236E+04  0.20824746236E+04  0.50400001928E-02 0.  1.
    10030    2    1    2    0    0  0.00000000000E+00  0.00000000000E+00 -0.68791521878E+03  0.34770340284E+04  0.34083043125E+04 0.  0.
        5    1    3    3  502    0 -0.74063558520E+03  0.11280292859E+04 -0.14056754950E+04  0.19485730233E+04  0.46999998093E+01 0. -1.
       -5    1    3    3    0  502  0.74063558520E+03 -0.11280292859E+04  0.71776027623E+03  0.15284610051E+04  0.46999998093E+01 0.  1.
</event>
<event>
 5   0  0.6311750E-08  0.3396802E+04  0.7818609E-02  0.8138692E-01
        4   -1    0    0  501    0  0.00000000000E+00  0.00000000000E+00  0.18420763480E+04  0.18420767858E+04  0.12699999809E+01 0. -1.
       -4   -1    0    0    0  501  0.00000000000E+00  0.00000000000E+00 -0.15659307402E+04  0.15659312552E+04  0.12699999809E+01 0.  1.
    10030    2    1    2    0    0  0.00000000000E+00  0.00000000000E+00  0.27614560782E+03  0.34080080410E+04  0.33968017915E+04 0.  0.
        3    1    3    3  502    0 -0.11074283978E+04  0.41740217474E+03 -0.10841181570E+04  0.16049717818E+04  0.10100000352E+00 0.  1.
       -3    1    3    3    0  502  0.11074283978E+04 -0.41740217474E+03  0.13602637649E+04  0.18030362592E+04  0.10100000352E+00 0. -1.
</event>
<event>
 5   0  0.1970449E-07  0.3402400E+04  0.7818609E-02  0.8137318E-01
        2   -1    0    0  501    0  0.00000000000E+00  0.00000000000E+00  0.20003415538E+04  0.20003415538E+04  0.25500000920E-02 0. -1.
       -2   -1    0    0    0  501  0.00000000000E+00  0.00000000000E+00 -0.14467935027E+04  0.14467935027E+04  0.25500000920E-02 0.  1.
    10030    2    1    2    0    0  0.00000000000E+00  0.00000000000E+00  0.55354805111E+03  0.34471350566E+04  0.34023998374E+04 0.  0.
        1    1    3    3  502    0 -0.82266306593E+03  0.70524149733E+02  0.17837217870E+04  0.19655563053E+04  0.50400001928E-02 0. -1.
       -1    1    3    3    0  502  0.82266306593E+03 -0.70524149733E+02 -0.12301737359E+04  0.14815787513E+04  0.50400001928E-02 0.  1.
</event>
<event>
 5   0  0.1897313E-07  0.3394944E+04  0.7818609E-02  0.8139148E-01
        2   -1    0    0  501    0  0.00000000000E+00  0.00000000000E+00  0.22117388135E+04  0.22117388135E+04  0.25500000920E-02 0. -1.
       -2   -1    0    0    0  501  0.00000000000E+00  0.00000000000E+00 -0.13027807344E+04  0.13027807344E+04  0.25500000920E-02 0.  1.
    10030    2    1    2    0    0  0.00000000000E+00  0.00000000000E+00  0.90895807908E+03  0.35145195480E+04  0.33949437202E+04 0.  0.
        3    1    3    3  502    0  0.12688091274E+04  0.51143285920E+03 -0.58589075781E+03  0.14881895584E+04  0.10100000352E+00 0. -1.
       -3    1    3    3    0  502 -0.12688091274E+04 -0.51143285920E+03  0.14948488369E+04  0.20263299896E+04  0.10100000352E+00 0.  1.
</event>
<event>
 5   0  0.1897313E-07  0.3399370E+04  0.7818609E-02  0.8138061E-01
        2   -1    0    0  501    0  0.00000000000E+00  0.00000000000E+00  0.19972470928E+04  0.19972470928E+04  0.25500000920E-02 0. -1.
       -2   -1    0    0    0  501  0.00000000000E+00  0.00000000000E+00 -0.14464558518E+04  0.14464558518E+04  0.25500000920E-02 0.  1.
    10030    2    1    2    0    0  0.00000000000E+00  0.00000000000E+00  0.55079124101E+03  0.34437029446E+04  0.33993703799E+04 0.  0.
        3    1    3    3  502    0  0.57304042990E+03  0.11050767750E+04  0.14477956298E+04  0.19093669655E+04  0.10100000352E+00 0.  1.
       -3    1    3    3    0  502 -0.57304042990E+03 -0.11050767750E+04 -0.89700438882E+03  0.15343359791E+04  0.10100000352E+00 0. -1.
</event>
<event>
 5   0  0.6311750E-08  0.3401728E+04  0.7818609E-02  0.8137482E-01
       -1   -1    0    0    0  501  0.00000000000E+00  0.00000000000E+00  0.14301626168E+04  0.14301626168E+04  0.50400001928E-02 0.  1.
        1   -1    0    0  501    0  0.00000000000E+00  0.00000000000E+00 -0.20228032294E+04  0.20228032294E+04  0.50400001928E-02 0. -1.
    10030    2    1    2    0    0  0.00000000000E+00  0.00000000000E+00 -0.59264061264E+03  0.34529658463E+04  0.34017275375E+04 0.  0.
        4    1    3    3  502    0 -0.77015914384E+03 -0.14622851546E+04 -0.70426045931E+03  0.17964986467E+04  0.12699999809E+01 0. -1.
       -4    1    3    3    0  502  0.77015914384E+03  0.14622851546E+04  0.11161984667E+03  0.16564671996E+04  0.12699999809E+01 0.  1.
</event>
<event>
 5   0  0.1970449E-07  0.3400496E+04  0.7818609E-02  0.8137785E-01
       -2   -1    0    0    0  501  0.00000000000E+00  0.00000000000E+00  0.24885083292E+04  0.24885083292E+04  0.25500000920E-02 0.  1.
        2   -1    0    0  501    0  0.00000000000E+00  0.00000000000E+00 -0.11616769188E+04  0.11616769188E+04  0.25500000920E-02 0. -1.
    10030    2    1    2    0    0  0.00000000000E+00  0.00000000000E+00  0.13268314105E+04  0.36501852480E+04  0.34004956628E+04 0.  0.
        1    1    3    3  502    0  0.94701187943E+03  0.13007136896E+04  0.12534641022E+04  0.20395734499E+04  0.50400001928E-02 0.  1.
       -1    1    3    3    0  502 -0.94701187943E+03 -0.13007136896E+04  0.73367308320E+02  0.16106117981E+04  0.50400001928E-02 0. -1.
</event>
<event>
 5   0  0.6788600E-08  0.3399092E+04  0.7818609E-02  0.8138129E-01
       -1   -1    0    0    0  501  0.00000000000E+00  0.00000000000E+00  0.17526665143E+04  0.17526665143E+04  0.50400001928E-02 0.  1.
        1   -1    0    0  501    0  0.00000000000E+00  0.00000000000E+00 -0.16480353718E+04  0.16480353718E+04  0.50400001928E-02 0. -1.
    10030    2    1    2    0    0  0.00000000000E+00  0.00000000000E+00  0.10463114244E+03  0.34007018861E+04  0.33990918849E+04 0.  0.
        2    1    3    3  502    0 -0.30715169269E+03  0.69412507256E+03 -0.14690310776E+04  0.16535428889E+04  0.25500000920E-02 0. -1.
       -2    1    3    3    0  502  0.30715169269E+03 -0.69412507256E+03  0.15736622200E+04  0.17471589972E+04  0.25500000920E-02 0.  1.
</event>
<event>
 5   0  0.6584420E-08  0.3399210E+04  0.7818609E-02  0.8138100E-01
        1   -1    0    0  501    0  0.00000000000E+00  0.00000000000E+00  0.96984517226E+03  0.96984517228E+03  0.50400001928E-02 0.  1.
       -1   -1    0    0    0  501  0.00000000000E+00  0.00000000000E+00 -0.29784726793E+04  0.29784726793E+04  0.50400001928E-02 0. -1.
    10030    2    1    2    0    0  0.00000000000E+00  0.00000000000E+00 -0.20086275070E+04  0.39483178515E+04  0.33992101134E+04 0.  0.
        1    1    3    3  502    0  0.13630014403E+04  0.92792974155E+03 -0.52563698896E+03  0.17306417237E+04  0.50400001928E-02 0.  1.
       -1    1    3    3    0  502 -0.13630014403E+04 -0.92792974155E+03 -0.14829905180E+04  0.22176761279E+04  0.50400001928E-02 0. -1.
</event>
<event>
 5   0  0.6341535E-08  0.3393018E+04  0.7818609E-02  0.8139622E-01
        1   -1    0    0  501    0  0.00000000000E+00  0.00000000000E+00  0.17169801289E+04  0.17169801289E+04  0.50400001928E-02 0. -1.
       -1   -1    0    0    0  501  0.00000000000E+00  0.00000000000E+00 -0.16762815068E+04  0.16762815068E+04  0.50400001928E-02 0.  1.
    10030    2    1    2    0    0  0.00000000000E+00  0.00000000000E+00  0.40698622076E+02  0.33932616357E+04  0.33930175582E+04 0.  0.
        5    1    3    3  502    0 -0.17774995529E+03  0.10956748349E+04 -0.12627166964E+04  0.16812417839E+04  0.46999998093E+01 0.  1.
       -5    1    3    3    0  502  0.17774995529E+03 -0.10956748349E+04  0.13034153185E+04  0.17120198518E+04  0.46999998093E+01 0. -1.
</event>
<event>
 5   0  0.1928004E-07  0.3389668E+04  0.7818609E-02  0.8140447E-01
       -2   -1    0    0    0  501  0.00000000000E+00  0.00000000000E+00  0.13501368417E+04  0.13501368417E+04  0.25500000920E-02 0. -1.
        2   -1    0    0  501    0  0.00000000000E+00  0.00000000000E+00 -0.21275346036E+04  0.21275346036E+04  0.25500000920E-02 0.  1.
    10030    2    1    2    0    0  0.00000000000E+00  0.00000000000E+00 -0.77739776184E+03  0.34776714453E+04  0.33896683320E+04 0.  0.
        2    1    3    3  502    0  0.14273952584E+04 -0.26205797117E+03 -0.12868297228E+04  0.19396036552E+04  0.25500000920E-02 0.  1.
       -2    1    3    3    0  502 -0.14273952584E+04  0.26205797117E+03  0.50943196094E+03  0.15380677901E+04  0.25500000920E-02 0. -1.
</event>
<event>
 5   0  0.1970449E-07  0.3410931E+04  0.7818609E-02  0.8135229E-01
        2   -1    0    0  501    0  0.00000000000E+00  0.00000000000E+00  0.18842706154E+04  0.18842706154E+04  0.25500000920E-02 0.  1.
       -2   -1    0    0    0  501  0.00000000000E+00  0.00000000000E+00 -0.15436279553E+04  0.15436279553E+04  0.25500000920E-02 0. -1.
    10030    2    1    2    0    0  0.00000000000E+00  0.00000000000E+00  0.34064266007E+03  0.34278985707E+04  0.34109311323E+04 0.  0.
        1    1    3    3  502    0  0.71846617087E+03 -0.85961434656E+02  0.17223577780E+04  0.18681807520E+04  0.50400001928E-02 0.  1.
       -1    1    3    3    0  502 -0.71846617087E+03  0.85961434656E+02 -0.13817151179E+04  0.15597178187E+04  0.50400001928E-02 0. -1.
</event>
<event>
 5   0  0.1897313E-07  0.3400888E+04  0.7818609E-02  0.8137688E-01
       -2   -1    0    0    0  501  0.00000000000E+00  0.00000000000E+00  0.13062904844E+04  0.13062904844E+04  0.25500000920E-02 0. -1.
        2   -1    0    0  501    0  0.00000000000E+00  0.00000000000E+00 -0.22135271610E+04  0.22135271610E+04  0.25500000920E-02 0.  1.
    10030    2    1    2    0    0  0.00000000000E+00  0.00000000000E+00 -0.90723667661E+03  0.35198176453E+04  0.34008878060E+04 0.  0.
        3    1    3    3  502    0  0.13372968070E+04 -0.80891242606E+03  0.23974018856E+03  0.15811949377E+04  0.10100000352E+00 0. -1.
       -3    1    3    3    0  502 -0.13372968070E+04  0.80891242606E+03 -0.11469768652E+04  0.19386227076E+04  0.10100000352E+00 0.  1.
</event>
<event>
 5   0  0.6311750E-08  0.3393172E+04  0.7818609E-02  0.8139584E-01
        3   -1    0    0  501    0  0.00000000000E+00  0.00000000000E+00  0.15055896066E+04  0.15055896099E+04  0.10100000352E+00 0.  1.
       -3   -1    0    0    0  501  0.00000000000E+00  0.00000000000E+00 -0.19118116159E+04  0.19118116186E+04  0.10100000352E+00 0. -1.
    10030    2    1    2    0    0  0.00000000000E+00  0.00000000000E+00 -0.40622200936E+03  0.34174012285E+04  0.33931717958E+04 0.  0.
        5    1    3    3  502    0 -0.46469552573E+03  0.15423996970E+04  0.33308414980E+03  0.16449637983E+04  0.46999998093E+01 0.  1.
       -5    1    3    3    0  502  0.46469552573E+03 -0.15423996970E+04 -0.73930615916E+03  0.17724374302E+04  0.46999998093E+01 0. -1.
</event>
<event>
 5   0  0.6311750E-08  0.3404330E+04  0.7818609E-02  0.8136844E-01
       -4   -1    0    0    0  501  0.00000000000E+00  0.00000000000E+00  0.18243728570E+04  0.18243732990E+04  0.12699999809E+01 0. -1.
        4   -1    0    0  501    0  0.00000000000E+00  0.00000000000E+00 -0.15881425930E+04  0.15881431008E+04  0.12699999809E+01 0.  1.
    10030    2    1    2    0    0  0.00000000000E+00  0.00000000000E+00  0.23623026393E+03  0.34125163998E+04  0.34043301017E+04 0.  0.
        4    1    3    3  502    0 -0.13458260346E+04  0.10385788881E+04  0.31475670762E+02  0.17002606133E+04  0.12699999809E+01 0.  1.
       -4    1    3    3    0  502  0.13458260346E+04 -0.10385788881E+04  0.20475459317E+03  0.17122557866E+04  0.12699999809E+01 0. -1.
</event>
<event>
 5   0  0.1963852E-07  0.3395535E+04  0.7818609E-02  0.8139003E-01
        2   -1    0    0  501    0  0.00000000000E+00  0.00000000000E+00  0.25247002691E+04  0.25247002691E+04  0.25500000920E-02 0.  1.
       -2   -1    0    0    0  501  0.00000000000E+00  0.00000000000E+00 -0.11416855441E+04  0.11416855441E+04  0.25500000920E-02 0. -1.
    10030    2    1    2    0    0  0.00000000000E+00  0.00000000000E+00  0.13830147250E+04  0.36663858132E+04  0.33955345973E+04 0.  0.
        4    1    3    3  502    0 -0.30469410038E+03 -0.16494779402E+04  0.40829494944E+03  0.17263610134E+04  0.12699999809E+01 0.  1.
       -4    1    3    3    0  502  0.30469410038E+03  0.16494779402E+04  0.97471977561E+03  0.19400247998E+04  0.12699999809E+01 0. -1.
</event>
<event>
 5   0  0.1970449E-07  0.3398617E+04  0.7818609E-02  0.8138246E-01
        2   -1    0    0  501    0  0.00000000000E+00  0.00000000000E+00  0.31086615320E+04  0.31086615320E+04  0.25500000920E-02 0.  1.
       -2   -1    0    0    0  501  0.00000000000E+00  0.00000000000E+00 -0.92890425334E+03  0.92890425334E+03  0.25500000920E-02 0. -1.
    10030    2    1    2    0    0  0.00000000000E+00  0.00000000000E+00  0.21797572787E+04  0.40375657854E+04  0.33986167300E+04 0.  0.
        1    1    3    3  502    0  0.11238002150E+04  0.65090160062E+03 -0.21208184158E+03  0.13158945719E+04  0.50400001928E-02 0. -1.
       -1    1    3    3    0  502 -0.11238002150E+04 -0.65090160062E+03  0.23918391203E+04  0.27216712135E+04  0.50400001928E-02 0.  1.
</event>
<event>
 5   0  0.6584420E-08  0.3400630E+04  0.7818609E-02  0.8137752E-01
       -1   -1    0    0    0  501  0.00000000000E+00  0.00000000000E+00  0.10140343017E+04  0.10140343017E+04  0.50400001928E-02 0.  1.
        1   -1    0    0  501    0  0.00000000000E+00  0.00000000000E+00 -0.28510584142E+04  0.28510584142E+04  0.50400001928E-02 0. -1.
    10030    2    1    2    0    0  0.00000000000E+00  0.00000000000E+00 -0.18370241125E+04  0.38650927158E+04  0.34006299581E+04 0.  0.
        1    1    3    3  502    0  0.24363223550E+03  0.17843611637E+03 -0.28203340018E+04  0.28364555338E+04  0.50400001928E-02 0. -1.
       -1    1    3    3    0  502 -0.24363223550E+03 -0.17843611637E+03  0.98330988928E+03  0.10286371820E+04  0.50400001928E-02 0.  1.
</event>
<event>
 5   0  0.6341535E-08  0.3396052E+04  0.7818609E-02  0.8138876E-01
       -1   -1    0    0    0  501  0.00000000000E+00  0.00000000000E+00  0.11700410849E+04  0.11700410849E+04  0.50400001928E-02 0. -1.
        1   -1    0    0  501    0  0.00000000000E+00  0.00000000000E+00 -0.24642654930E+04  0.24642654930E+04  0.50400001928E-02 0.  1.
    10030    2    1    2    0    0  0.00000000000E+00  0.00000000000E+00 -0.12942244082E+04  0.36343065779E+04  0.33960517493E+04 0.  0.
        5    1    3    3  502    0 -0.88539696684E+03  0.10781516463E+03  0.89915009229E+03  0.12665089329E+04  0.46999998093E+01 0. -1.
       -5    1    3    3    0  502  0.88539696684E+03 -0.10781516463E+03 -0.21933745005E+04  0.23677976450E+04  0.46999998093E+01 0.  1.
</event>
<event>
 5   0  0.1986613E-07  0.3397342E+04  0.7818609E-02  0.8138559E-01
       -2   -1    0    0    0  501  0.00000000000E+00  0.00000000000E+00  0.11576594747E+04  0.11576594747E+04  0.25500000920E-02 0. -1.
        2   -1    0    0  501    0  0.00000000000E+00  0.00000000000E+00 -0.24925149586E+04  0.24925149586E+04  0.25500000920E-02 0.  1.
    10030    2    1    2    0    0  0.00000000000E+00  0.00000000000E+00 -0.13348554839E+04  0.36501744333E+04  0.33973422305E+04 0.  0.
        5    1    3    3  502    0 -0.12178538524E+04  0.82696119174E+03  0.24325297886E+03  0.14920545969E+04  0.46999998093E+01 0. -1.
       -5    1    3    3    0  502  0.12178538524E+04 -0.82696119174E+03 -0.15781084628E+04  0.21581198365E+04  0.46999998093E+01 0.  1.
</event>
<event>
 5   0  0.1986613E-07  0.3408187E+04  0.7818609E-02  0.8135900E-01
       -2   -1    0    0    0  501  0.00000000000E+00  0.00000000000E+00  0.89290281210E+03  0.89290281210E+03  0.25500000920E-02 0.  1.
        2   -1    0    0  501    0  0.00000000000E+00  0.00000000000E+00 -0.32522407528E+04  0.32522407528E+04  0.25500000920E-02 0. -1.
    10030    2    1    2    0    0  0.00000000000E+00  0.00000000000E+00 -0.23593379407E+04  0.41451435649E+04  0.34081871508E+04 0.  0.
        5    1    3    3  502    0  0.37180377998E+03 -0.56920689611E+03  0.72079815769E+03  0.99086155214E+03  0.46999998093E+01 0.  1.
       -5    1    3    3    0  502 -0.37180377998E+03  0.56920689611E+03 -0.30801360984E+04  0.31542820127E+04  0.46999998093E+01 0. -1.
</event>
<event>
 5   0  0.1986613E-07  0.3400203E+04  0.7818609E-02  0.8137857E-01
       -2   -1    0    0    0  501  0.00000000000E+00  0.00000000000E+00  0.13940943487E+04  0.13940943487E+04  0.25500000920E-02 0.  1.
        2   -1    0    0  501    0  0.00000000000E+00  0.00000000000E+00 -0.20732777008E+04  0.20732777008E+04  0.25500000920E-02 0. -1.
    10030    2    1    2    0    0  0.00000000000E+00  0.00000000000E+00 -0.67918335205E+03  0.34673720496E+04  0.34002027740E+04 0.  0.
        5    1    3    3  502    0  0.88899645339E+03  0.15135709647E+03 -0.18092765418E+04  0.20215655714E+04  0.46999998093E+01 0. -1.
       -5    1    3    3    0  502 -0.88899645339E+03 -0.15135709647E+03  0.11300931897E+04  0.14458064782E+04  0.46999998093E+01 0.  1.
</event>
<event>
 5   0  0.1963852E-07  0.3398568E+04  0.7818609E-02  0.8138258E-01
       -2   -1    0    0    0  501  0.00000000000E+00  0.00000000000E+00  0.17060825937E+04  0.17060825937E+04  0.25500000920E-02 0. -1.
        2   -1    0    0  501    0  0.00000000000E+00  0.00000000000E+00 -0.16925120425E+04  0.16925120425E+04  0.25500000920E-02 0.  1.
    10030    2    1    2    0    0  0.00000000000E+00  0.00000000000E+00  0.13570551212E+02  0.33985946361E+04  0.33985675425E+04 0.  0.
        4    1    3    3  502    0 -0.51938410543E+03  0.16140450172E+04 -0.10574364413E+03  0.16988479913E+04  0.12699999809E+01 0.  1.
       -4    1    3    3    0  502  0.51938410543E+03 -0.16140450172E+04  0.11931419534E+03  0.16997466448E+04  0.12699999809E+01 0. -1.
</event>
<event>
 5   0  0.1963852E-07  0.3395873E+04  0.7818609E-02  0.8138920E-01
       -2   -1    0    0    0  501  0.00000000000E+00  0.00000000000E+00  0.14048701465E+04  0.14048701465E+04  0.25500000920E-02 0.  1.
        2   -1    0    0  501    0  0.00000000000E+00  0.00000000000E+00 -0.20521382528E+04  0.20521382528E+04  0.25500000920E-02 0. -1.
    10030    2    1    2    0    0  0.00000000000E+00  0.00000000000E+00 -0.64726810631E+03  0.34570083993E+04  0.33958726524E+04 0.  0.
        4    1    3    3  502    0 -0.11972003169E+04  0.43872914867E+03  0.81780753940E+03  0.15147879882E+04  0.12699999809E+01 0.  1.
       -4    1    3    3    0  502  0.11972003169E+04 -0.43872914867E+03 -0.14650756457E+04  0.19422204111E+04  0.12699999809E+01 0. -1.
</event>
<event>
 5   0  0.6341535E-08  0.3393515E+04  0.7818609E-02  0.8139500E-01
        1   -1    0    0  501    0  0.00000000000E+00  0.00000000000E+00  0.19344575166E+04  0.19344575167E+04  0.50400001928E-02 0.  1.
       -1   -1    0    0    0  501  0.00000000000E+00  0.00000000000E+00 -0.14882649228E+04  0.14882649228E+04  0.50400001928E-02 0. -1.
    10030    2    1    2    0    0  0.00000000000E+00  0.00000000000E+00  0.44619259381E+03  0.34227224395E+04  0.33935145597E+04 0.  0.
        5    1    3    3  502    0 -0.33358890081E+03  0.11444164403E+04 -0.99477005057E+03  0.15525978511E+04  0.46999998093E+01 0. -1.
       -5    1    3    3    0  502  0.33358890081E+03 -0.11444164403E+04  0.14409626444E+04  0.18701245884E+04  0.46999998093E+01 0.  1.
</event>
<event>
 5   0  0.1897313E-07  0.3398224E+04  0.7818609E-02  0.8138342E-01
       -2   -1    0    0    0  501  0.00000000000E+00  0.00000000000E+00  0.10968809131E+04  0.10968809131E+04  0.25500000920E-02 0.  1.
        2   -1    0    0  501    0  0.00000000000E+00  0.00000000000E+00 -0.26319923141E+04  0.26319923141E+04  0.25500000920E-02 0. -1.
    10030    2    1    2    0    0  0.00000000000E+00  0.00000000000E+00 -0.15351114010E+04  0.37288732272E+04  0.33982243203E+04 0.  0.
        3    1    3    3  502    0 -0.80178236825E+03  0.14687599216E+04 -0.10909736417E+04  0.19975820811E+04  0.10100000352E+00 0. -1.
       -3    1    3    3    0  502  0.80178236825E+03 -0.14687599216E+04 -0.44413775921E+03  0.17312911461E+04  0.10100000352E+00 0.  1.
</event>
<event>
 5   0  0.1928004E-07  0.3398913E+04  0.7818609E-02  0.8138173E-01
       -2   -1    0    0    0  501  0.00000000000E+00  0.00000000000E+00  0.14886269125E+04  0.14886269125E+04  0.25500000920E-02 0.  1.
        2   -1    0    0  501    0  0.00000000000E+00  0.00000000000E+00 -0.19401455952E+04  0.19401455952E+04  0.25500000920E-02 0. -1.
    10030    2    1    2    0    0  0.00000000000E+00  0.00000000000E+00 -0.45151868267E+03  0.34287725077E+04  0.33989133247E+04 0.  0.
        2    1    3    3  502    0 -0.81888587538E+03  0.10793116842E+02  0.12764370413E+04  0.15165691836E+04  0.25500000920E-02 0.  1.
       -2    1    3    3    0  502  0.81888587538E+03 -0.10793116842E+02 -0.17279557240E+04  0.19122033240E+04  0.25500000920E-02 0. -1.
</event>
<event>
 5   0  0.6367111E-08  0.3404736E+04  0.7818609E-02  0.8136745E-01
        1   -1    0    0  501    0  0.00000000000E+00  0.00000000000E+00  0.14314420428E+04  0.14314420429E+04  0.50400001928E-02 0. -1.
       -1   -1    0    0    0  501  0.00000000000E+00  0.00000000000E+00 -0.20245719006E+04  0.20245719006E+04  0.50400001928E-02 0.  1.
    10030    2    1    2    0    0  0.00000000000E+00  0.00000000000E+00 -0.59312985774E+03  0.34560139434E+04  0.34047363113E+04 0.  0.
        3    1    3    3  502    0  0.56208292803E+03  0.14237252011E+04  0.45972452834E+03  0.15982106614E+04  0.10100000352E+00 0. -1.
       -3    1    3    3    0  502 -0.56208292803E+03 -0.14237252011E+04 -0.10528543861E+04  0.18578032820E+04  0.10100000352E+00 0.  1.
</event>
<event>
 5   0  0.1986613E-07  0.3400046E+04  0.7818609E-02  0.8137895E-01
       -2   -1    0    0    0  501  0.00000000000E+00  0.00000000000E+00  0.20981965593E+04  0.20981965593E+04  0.25500000920E-02 0.  1.
        2   -1    0    0  501    0  0.00000000000E+00  0.00000000000E+00 -0.13774107795E+04  0.13774107795E+04  0.25500000920E-02 0. -1.
    10030    2    1    2    0    0  0.00000000000E+00  0.00000000000E+00  0.72078577978E+03  0.34756073388E+04  0.34000462105E+04 0.  0.
        5    1    3    3  502    0 -0.13141186925E+04  0.60188335712E+03  0.12752029957E+04  0.19275207609E+04  0.46999998093E+01 0.  1.
       -5    1    3    3    0  502  0.13141186925E+04 -0.60188335712E+03 -0.55441721589E+03  0.15480865779E+04  0.46999998093E+01 0. -1.
</event>
<event>
 5   0  0.1928004E-07  0.3348851E+04  0.7818609E-02  0.8150575E-01
       -2   -1    0    0    0  501  0.00000000000E+00  0.00000000000E+00  0.14389824611E+04  0.14389824611E+04  0.25500000920E-02 0.  1.
        2   -1    0    0  501    0  0.00000000000E+00  0.00000000000E+00 -0.19483914498E+04  0.19483914498E+04  0.25500000920E-02 0. -1.
    10030    2    1    2    0    0  0.00000000000E+00  0.00000000000E+00 -0.50940898865E+03  0.33873739109E+04  0.33488512201E+04 0.  0.
        2    1    3    3  502    0 -0.15322917446E+04 -0.37367376311E+03 -0.82344557695E+03  0.17792168755E+04  0.25500000920E-02 0. -1.
       -2    1    3    3    0  502  0.15322917446E+04  0.37367376311E+03  0.31403658830E+03  0.16081570354E+04  0.25500000920E-02 0.  1.
</event>
<event>
 5   0  0.6584420E-08  0.3400299E+04  0.7818609E-02  0.8137833E-01
        1   -1    0    0  501    0  0.00000000000E+00  0.00000000000E+00  0.18023979904E+04  0.18023979904E+04  0.50400001928E-02 0. -1.
       -1   -1    0    0    0  501  0.00000000000E+00  0.00000000000E+00 -0.16037013035E+04  0.16037013035E+04  0.50400001928E-02 0.  1.
    10030    2    1    2    0    0  0.00000000000E+00  0.00000000000E+00  0.19869668689E+03  0.34060992939E+04  0.34002988143E+04 0.  0.
        1    1    3    3  502    0 -0.87594621232E+03  0.59597117286E+03  0.14312949891E+04  0.17807494915E+04  0.50400001928E-02 0. -1.
       -1    1    3    3    0  502  0.87594621232E+03 -0.59597117286E+03 -0.12325983022E+04  0.16253498024E+04  0.50400001928E-02 0.  1.
</event>
<event>
 5   0  0.1986613E-07  0.3400960E+04  0.7818609E-02  0.8137671E-01
       -2   -1    0    0    0  501  0.00000000000E+00  0.00000000000E+00  0.10961371552E+04  0.10961371552E+04  0.25500000920E-02 0.  1.
        2   -1    0    0  501    0  0.00000000000E+00  0.00000000000E+00 -0.26380208682E+04  0.26380208682E+04  0.25500000920E-02 0. -1.
    10030    2    1    2    0    0  0.00000000000E+00  0.00000000000E+00 -0.15418837130E+04  0.37341580234E+04  0.34009602702E+04 0.  0.
        5    1    3    3  502    0 -0.12574540959E+04 -0.10248200229E+04 -0.21090772173E+03  0.16358334389E+04  0.46999998093E+01 0.  1.
       -5    1    3    3    0  502  0.12574540959E+04  0.10248200229E+04 -0.13309759913E+04  0.20983245845E+04  0.46999998093E+01 0. -1.
</event>
<event>
 5   0  0.1986613E-07  0.3397235E+04  0.7818609E-02  0.8138585E-01
       -2   -1    0    0    0  501  0.00000000000E+00  0.00000000000E+00  0.15359522449E+04  0.15359522449E+04  0.25500000920E-02 0. -1.
        2   -1    0    0  501    0  0.00000000000E+00  0.00000000000E+00 -0.18785094814E+04  0.18785094814E+04  0.25500000920E-02 0.  1.
    10030    2    1    2    0    0  0.00000000000E+00  0.00000000000E+00 -0.34255723653E+03  0.34144617263E+04  0.33972346725E+04 0.  0.
        5    1    3    3  502    0 -0.28110074439E+03  0.10357923129E+04  0.11519824142E+04  0.15744741715E+04  0.46999998093E+01 0. -1.
       -5    1    3    3    0  502  0.28110074439E+03 -0.10357923129E+04 -0.14945396508E+04  0.18399875548E+04  0.46999998093E+01 0.  1.
</event>
<event>
 5   0  0.1897313E-07  0.3382246E+04  0.7818609E-02  0.8142278E-01
        2   -1    0    0  501    0  0.00000000000E+00  0.00000000000E+00  0.24116806246E+04  0.24116806246E+04  0.25500000920E-02 0. -1.
       -2   -1    0    0    0  501  0.00000000000E+00  0.00000000000E+00 -0.11858522861E+04  0.11858522861E+04  0.25500000920E-02 0.  1.
    10030    2    1    2    0    0  0.00000000000E+00  0.00000000000E+00  0.12258283384E+04  0.35975329107E+04  0.33822459887E+04 0.  0.
        3    1    3    3  502    0 -0.61581369331E+03  0.83740680262E+03 -0.80594358276E+03  0.13153029030E+04  0.10100000352E+00 0.  1.
       -3    1    3    3    0  502  0.61581369331E+03 -0.83740680262E+03  0.20317719212E+04  0.22822300077E+04  0.10100000352E+00 0. -1.
</event>
<event>
 5   0  0.6788600E-08  0.3407341E+04  0.7818609E-02  0.8136107E-01
       -1   -1    0    0    0  501  0.00000000000E+00  0.00000000000E+00  0.13717364144E+04  0.13717364144E+04  0.50400001928E-02 0. -1.
        1   -1    0    0  501    0  0.00000000000E+00  0.00000000000E+00 -0.21159267663E+04  0.21159267663E+04  0.50400001928E-02 0.  1.
    10030    2    1    2    0    0  0.00000000000E+00  0.00000000000E+00 -0.74419035183E+03  0.34876631807E+04  0.34073413657E+04 0.  0.
        2    1    3    3  502    0  0.12946837455E+04 -0.12884251507E+03 -0.14978802063E+04  0.19840492703E+04  0.25500000920E-02 0.  1.
       -2    1    3    3    0  502 -0.12946837455E+04  0.12884251507E+03  0.75368985449E+03  0.15036139104E+04  0.25500000920E-02 0. -1.
</event>
<event>
 5   0  0.6341535E-08  0.3396827E+04  0.7818609E-02  0.8138685E-01
       -1   -1    0    0    0  501  0.00000000000E+00  0.00000000000E+00  0.15703471231E+04  0.15703471231E+04  0.50400001928E-02 0. -1.
        1   -1    0    0  501    0  0.00000000000E+00  0.00000000000E+00 -0.18369241156E+04  0.18369241156E+04  0.50400001928E-02 0.  1.
    10030    2    1    2    0    0  0.00000000000E+00  0.00000000000E+00 -0.26657699249E+03  0.34072712387E+04  0.33968270490E+04 0.  0.
        5    1    3    3  502    0  0.12334667049E+04  0.11367239492E+04 -0.40057536289E+03  0.17245475233E+04  0.46999998093E+01 0. -1.
       -5    1    3    3    0  502 -0.12334667049E+04 -0.11367239492E+04  0.13399837040E+03  0.16827237153E+04  0.46999998093E+01 0.  1.
</event>
<event>
 5   0  0.1928004E-07  0.3389898E+04  0.7818609E-02  0.8140390E-01
       -2   -1    0    0    0  501  0.00000000000E+00  0.00000000000E+00  0.14429281805E+04  0.14429281805E+04  0.25500000920E-02 0.  1.
        2   -1    0    0  501    0  0.00000000000E+00  0.00000000000E+00 -0.19909872989E+04  0.19909872989E+04  0.25500000920E-02 0. -1.
    10030    2    1    2    0    0  0.00000000000E+00  0.00000000000E+00 -0.54805911839E+03  0.34339154794E+04  0.33898977452E+04 0.  0.
        2    1    3    3  502    0  0.18094660503E+03 -0.57241706832E+03 -0.18796822278E+04  0.19732228083E+04  0.25500000920E-02 0. -1.
       -2    1    3    3    0  502 -0.18094660503E+03  0.57241706832E+03  0.13316231094E+04  0.14606926711E+04  0.25500000920E-02 0.  1.
</event>
<event>
 5   0  0.1970449E-07  0.3400580E+04  0.7818609E-02  0.8137764E-01
        2   -1    0    0  501    0  0.00000000000E+00  0.00000000000E+00  0.24012036718E+04  0.24012036718E+04  0.25500000920E-02 0.  1.
       -2   -1    0    0    0  501  0.00000000000E+00  0.00000000000E+00 -0.12039736400E+04  0.12039736400E+04  0.25500000920E-02 0. -1.
    10030    2    1    2    0    0  0.00000000000E+00  0.00000000000E+00  0.11972300318E+04  0.36051773118E+04  0.34005799064E+04 0.  0.
        1    1    3    3  502    0 -0.76085392371E+03  0.26023685073E+03  0.21868702427E+04  0.23300264741E+04  0.50400001928E-02 0.  1.
       -1    1    3    3    0  502  0.76085392371E+03 -0.26023685073E+03 -0.98964021089E+03  0.12751508376E+04  0.50400001928E-02 0. -1.
</event>
<event>
 5   0  0.6311750E-08  0.3398454E+04  0.7818609E-02  0.8138286E-01
        1   -1    0    0  501    0  0.00000000000E+00  0.00000000000E+00  0.20113347607E+04  0.20113347607E+04  0.50400001928E-02 0.  1.
       -1   -1    0    0    0  501  0.00000000000E+00  0.00000000000E+00 -0.14355503262E+04  0.14355503262E+04  0.50400001928E-02 0. -1.
    10030    2    1    2    0    0  0.00000000000E+00  0.00000000000E+00  0.57578443450E+03  0.34468850870E+04  0.33984539261E+04 0.  0.
        4    1    3    3  502    0  0.74726542993E+03  0.15230255060E+04  0.18977506569E+03  0.17070525777E+04  0.12699999809E+01 0.  1.
       -4    1    3    3    0  502 -0.74726542993E+03 -0.15230255060E+04  0.38600936882E+03  0.17398325093E+04  0.12699999809E+01 0. -1.
</event>
<event>
 5   0  0.6367111E-08  0.3386066E+04  0.7818609E-02  0.8141335E-01
       -1   -1    0    0    0  501  0.00000000000E+00  0.00000000000E+00  0.10318666191E+04  0.10318666191E+04  0.50400001928E-02 0.  1.
        1   -1    0    0  501    0  0.00000000000E+00  0.00000000000E+00 -0.27778397017E+04  0.27778397017E+04  0.50400001928E-02 0. -1.
    10030    2    1    2    0    0  0.00000000000E+00  0.00000000000E+00 -0.17459730826E+04  0.38097063208E+04  0.33860655997E+04 0.  0.
        3    1    3    3  502    0 -0.16522589307E+04  0.14250843776E+03 -0.12563378452E+04  0.20805415210E+04  0.10100000352E+00 0. -1.
       -3    1    3    3    0  502  0.16522589307E+04 -0.14250843776E+03 -0.48963523737E+03  0.17291647998E+04  0.10100000352E+00 0.  1.
</event>
<event>
 5   0  0.1928004E-07  0.3397056E+04  0.7818609E-02  0.8138629E-01
       -2   -1    0    0    0  501  0.00000000000E+00  0.00000000000E+00  0.12784733654E+04  0.12784733654E+04  0.25500000920E-02 0.  1.
        2   -1    0    0  501    0  0.00000000000E+00  0.00000000000E+00 -0.22565952940E+04  0.22565952940E+04  0.25500000920E-02 0. -1.
    10030    2    1    2    0    0  0.00000000000E+00  0.00000000000E+00 -0.97812192855E+03  0.35350686594E+04  0.33970557722E+04 0.  0.
        2    1    3    3  502    0 -0.68345346811E+02 -0.15801549852E+04  0.15531848990E+03  0.15892402893E+04  0.25500000920E-02 0.  1.
       -2    1    3    3    0  502  0.68345346811E+02  0.15801549852E+04 -0.11334404185E+04  0.19458283701E+04  0.25500000920E-02 0. -1.
</event>
<event>
 5   0  0.6584420E-08  0.3393098E+04  0.7818609E-02  0.8139602E-01
        1   -1    0    0  501    0  0.00000000000E+00  0.00000000000E+00  0.19686010308E+04  0.19686010308E+04  0.50400001928E-02 0.  1.
       -1   -1    0    0    0  501  0.00000000000E+00  0.00000000000E+00 -0.14620934334E+04  0.14620934334E+04  0.50400001928E-02 0. -1.
    10030    2    1    2    0    0  0.00000000000E+00  0.00000000000E+00  0.50650759743E+03  0.34306944642E+04  0.33930980770E+04 0.  0.
        1    1    3    3  502    0 -0.35872789818E+03  0.15192797173E+04  0.92498106163E+03  0.18145210191E+04  0.50400001928E-02 0. -1.
       -1    1    3    3    0  502  0.35872789818E+03 -0.15192797173E+04 -0.41847346419E+03  0.16161734451E+04  0.50400001928E-02 0.  1.
</event>
<event>
 5   0  0.6584420E-08  0.3402813E+04  0.7818609E-02  0.8137216E-01
        1   -1    0    0  501    0  0.00000000000E+00  0.00000000000E+00  0.15227457954E+04  0.15227457954E+04  0.50400001928E-02 0.  1.
       -1   -1    0    0    0  501  0.00000000000E+00  0.00000000000E+00 -0.19010289382E+04  0.19010289382E+04  0.50400001928E-02 0. -1.
    10030    2    1    2    0    0  0.00000000000E+00  0.00000000000E+00 -0.37828314282E+03  0.34237747336E+04  0.34028128497E+04 0.  0.
        1    1    3    3  502    0 -0.10000420589E+04  0.80863222384E+03  0.93163848972E+03  0.15880555621E+04  0.50400001928E-02 0.  1.
       -1    1    3    3    0  502  0.10000420589E+04 -0.80863222384E+03 -0.13099216325E+04  0.18357191714E+04  0.50400001928E-02 0. -1.
</event>
<event>
 5   0  0.6788600E-08  0.3391149E+04  0.7818609E-02  0.8140082E-01
        1   -1    0    0  501    0  0.00000000000E+00  0.00000000000E+00  0.21269084447E+04  0.21269084447E+04  0.50400001928E-02 0. -1.
       -1   -1    0    0    0  501  0.00000000000E+00  0.00000000000E+00 -0.13517140850E+04  0.13517140850E+04  0.50400001928E-02 0.  1.
    10030    2    1    2    0    0  0.00000000000E+00  0.00000000000E+00  0.77519435965E+03  0.34786225297E+04  0.33911485383E+04 0.  0.
        2    1    3    3  502    0  0.13105629589E+04 -0.10742558112E+04  0.44715766504E+03  0.17525840336E+04  0.25500000920E-02 0. -1.
       -2    1    3    3    0  502 -0.13105629589E+04  0.10742558112E+04  0.32803669462E+03  0.17260384962E+04  0.25500000920E-02 0.  1.
</event>
<event>
 5   0  0.1963852E-07  0.3396040E+04  0.7818609E-02  0.8138879E-01
       -2   -1    0    0    0  501  0.00000000000E+00  0.00000000000E+00  0.22077841549E+04  0.22077841549E+04  0.25500000920E-02 0.  1.
        2   -1    0    0  501    0  0.00000000000E+00  0.00000000000E+00 -0.13059575571E+04  0.13059575571E+04  0.25500000920E-02 0. -1.
    10030    2    1    2    0    0  0.00000000000E+00  0.00000000000E+00  0.90182659784E+03  0.35137417120E+04  0.33960402833E+04 0.  0.
        4    1    3    3  502    0  0.13900651069E+04 -0.57462331046E+02 -0.55631904089E+03  0.14983575705E+04  0.12699999809E+01 0. -1.
       -4    1    3    3    0  502 -0.13900651069E+04  0.57462331046E+02  0.14581456387E+04  0.20153841415E+04  0.12699999809E+01 0.  1.
</event>
<event>
 5   0  0.1986613E-07  0.3302857E+04  0.7818609E-02  0.8162169E-01
        2   -1    0    0  501    0  0.00000000000E+00  0.00000000000E+00  0.23825027978E+04  0.23825027978E+04  0.25500000920E-02 0. -1.
       -2   -1    0    0    0  501  0.00000000000E+00  0.00000000000E+00 -0.11446856356E+04  0.11446856356E+04  0.25500000920E-02 0.  1.
    10030    2    1    2    0    0  0.00000000000E+00  0.00000000000E+00  0.12378171622E+04  0.35271884333E+04  0.33028573867E+04 0.  0.
        5    1    3    3  502    0 -0.84926936580E+03 -0.14106232512E+04  0.75432081856E+03  0.18111152365E+04  0.46999998093E+01 0. -1.
       -5    1    3    3    0  502  0.84926936580E+03  0.14106232512E+04  0.48349634366E+03  0.17160731968E+04  0.46999998093E+01 0.  1.
</event>
<event>
 5   0  0.1963852E-07  0.3398681E+04  0.7818609E-02  0.8138230E-01
       -2   -1    0    0    0  501  0.00000000000E+00  0.00000000000E+00  0.15400340919E+04  0.15400340919E+04  0.25500000920E-02 0. -1.
        2   -1    0    0  501    0  0.00000000000E+00  0.00000000000E+00 -0.18751260735E+04  0.18751260735E+04  0.25500000920E-02 0.  1.
    10030    2    1    2    0    0  0.00000000000E+00  0.00000000000E+00 -0.33509198162E+03  0.34151601654E+04  0.33986809675E+04 0.  0.
        4    1    3    3  502    0  0.14511743972E+04 -0.70627097491E+03 -0.70213177751E+03  0.17600330869E+04  0.12699999809E+01 0.  1.
       -4    1    3    3    0  502 -0.14511743972E+04  0.70627097491E+03  0.36703979589E+03  0.16551270784E+04  0.12699999809E+01 0. -1.
</event>
<event>
 5   0  0.1970449E-07  0.3403869E+04  0.7818609E-02  0.8136957E-01
        2   -1    0    0  501    0  0.00000000000E+00  0.00000000000E+00  0.17349412862E+04  0.17349412862E+04  0.25500000920E-02 0.  1.
       -2   -1    0    0    0  501  0.00000000000E+00  0.00000000000E+00 -0.16695552604E+04  0.16695552604E+04  0.25500000920E-02 0. -1.
    10030    2    1    2    0    0  0.00000000000E+00  0.00000000000E+00  0.65386025731E+02  0.34044965466E+04  0.34038685937E+04 0.  0.
        1    1    3    3  502    0 -0.19927173753E+03 -0.53575659040E+03  0.16360595543E+04  0.17330421850E+04  0.50400001928E-02 0.  1.
       -1    1    3    3    0  502  0.19927173753E+03  0.53575659040E+03 -0.15706735286E+04  0.16714543616E+04  0.50400001928E-02 0. -1.
</event>
<event>
 5   0  0.1986613E-07  0.3397571E+04  0.7818609E-02  0.8138503E-01
        2   -1    0    0  501    0  0.00000000000E+00  0.00000000000E+00  0.17256769471E+04  0.17256769471E+04  0.25500000920E-02 0. -1.
       -2   -1    0    0    0  501  0.00000000000E+00  0.00000000000E+00 -0.16723126311E+04  0.16723126311E+04  0.25500000920E-02 0.  1.
    10030    2    1    2    0    0  0.00000000000E+00  0.00000000000E+00  0.53364315976E+02  0.33979895782E+04  0.33975705178E+04 0.  0.
        5    1    3    3  502    0 -0.21164852011E+03  0.17197534753E+03  0.17036354175E+04  0.17253307921E+04  0.46999998093E+01 0. -1.
       -5    1    3    3    0  502  0.21164852011E+03 -0.17197534753E+03 -0.16502711016E+04  0.16726587861E+04  0.46999998093E+01 0.  1.
</event>
<event>
 5   0  0.1897313E-07  0.3398455E+04  0.7818609E-02  0.8138286E-01
       -2   -1    0    0    0  501  0.00000000000E+00  0.00000000000E+00  0.97437372248E+03  0.97437372248E+03  0.25500000920E-02 0. -1.
        2   -1    0    0  501    0  0.00000000000E+00  0.00000000000E+00 -0.29633126660E+04  0.29633126660E+04  0.25500000920E-02 0.  1.
    10030    2    1    2    0    0  0.00000000000E+00  0.00000000000E+00 -0.19889389435E+04  0.39376863884E+04  0.33984549391E+04 0.  0.
        3    1    3    3  502    0 -0.66236222416E+03 -0.48516588549E+03 -0.27182272979E+04  0.28395192033E+04  0.10100000352E+00 0.  1.
       -3    1    3    3    0  502  0.66236222416E+03  0.48516588549E+03  0.72928835444E+03  0.10981671852E+04  0.10100000352E+00 0. -1.
</event>
<event>
 5   0  0.1963852E-07  0.3400740E+04  0.7818609E-02  0.8137725E-01
        2   -1    0    0  501    0  0.00000000000E+00  0.00000000000E+00  0.25601988994E+04  0.25601988994E+04  0.25500000920E-02 0.  1.
       -2   -1    0    0    0  501  0.00000000000E+00  0.00000000000E+00 -0.11293101798E+04  0.11293101798E+04  0.25500000920E-02 0. -1.
    10030    2    1    2    0    0  0.00000000000E+00  0.00000000000E+00  0.14308887197E+04  0.36895090792E+04  0.34007403190E+04 0.  0.
        4    1    3    3  502    0 -0.16907839760E+04 -0.11890202865E+03  0.56840387334E+03  0.17877283692E+04  0.12699999809E+01 0.  1.
       -4    1    3    3    0  502  0.16907839760E+04  0.11890202865E+03  0.86248484631E+03  0.19017807100E+04  0.12699999809E+01 0. -1.
</event>
<event>
 5   0  0.6367111E-08  0.3379083E+04  0.7818609E-02  0.8143059E-01
        1   -1    0    0  501    0  0.00000000000E+00  0.00000000000E+00  0.84269081610E+03  0.84269081612E+03  0.50400001928E-02 0. -1.
       -1   -1    0    0    0  501  0.00000000000E+00  0.00000000000E+00 -0.33874241148E+04  0.33874241148E+04  0.50400001928E-02 0.  1.
    10030    2    1    2    0    0  0.00000000000E+00  0.00000000000E+00 -0.25447332987E+04  0.42301149310E+04  0.33790834212E+04 0.  0.
        3    1    3    3  502    0  0.52904213094E+03  0.91802302309E+02  0.73303660121E+03  0.90865609993E+03  0.10100000352E+00 0. -1.
       -3    1    3    3    0  502 -0.52904213094E+03 -0.91802302309E+02 -0.32777699000E+04  0.33214588310E+04  0.10100000352E+00 0.  1.
</event>
<event>
 5   0  0.6788600E-08  0.3364856E+04  0.7818609E-02  0.8146586E-01
       -1   -1    0    0    0  501  0.00000000000E+00  0.00000000000E+00  0.12705131495E+04  0.12705131495E+04  0.50400001928E-02 0.  1.
        1   -1    0    0  501    0  0.00000000000E+00  0.00000000000E+00 -0.22278905282E+04  0.22278905282E+04  0.50400001928E-02 0. -1.
    10030    2    1    2    0    0  0.00000000000E+00  0.00000000000E+00 -0.95737737873E+03  0.34984036778E+04  0.33648561406E+04 0.  0.
        2    1    3    3  502    0 -0.12706684298E+04  0.36069316731E+03 -0.15620956349E+04  0.20456882930E+04  0.25500000920E-02 0. -1.
       -2    1    3    3    0  502  0.12706684298E+04 -0.36069316731E+03  0.60471825622E+03  0.14527153847E+04  0.25500000920E-02 0.  1.
</event>
<event>
 5   0  0.6341535E-08  0.3401042E+04  0.7818609E-02  0.8137651E-01
       -1   -1    0    0    0  501  0.00000000000E+00  0.00000000000E+00  0.11481378686E+04  0.11481378686E+04  0.50400001928E-02 0.  1.
        1   -1    0    0  501    0  0.00000000000E+00  0.00000000000E+00 -0.25186627742E+04  0.25186627742E+04  0.50400001928E-02 0. -1.
    10030    2    1    2    0    0  0.00000000000E+00  0.00000000000E+00 -0.13705249056E+04  0.36668006428E+04  0.34010422575E+04 0.  0.
        5    1    3    3  502    0 -0.10324530518E+04  0.19453342779E+02  0.77138936458E+03  0.12889535983E+04  0.46999998093E+01 0.  1.
       -5    1    3    3    0  502  0.10324530518E+04 -0.19453342779E+02 -0.21419142701E+04  0.23778470446E+04  0.46999998093E+01 0. -1.
</event>
<event>
 5   0  0.1963852E-07  0.3403092E+04  0.7818609E-02  0.8137148E-01
        2   -1    0    0  501    0  0.00000000000E+00  0.00000000000E+00  0.22319468438E+04  0.22319468438E+04  0.25500000920E-02 0.  1.
       -2   -1    0    0    0  501  0.00000000000E+00  0.00000000000E+00 -0.12971896214E+04  0.12971896215E+04  0.25500000920E-02 0. -1.
    10030    2    1    2    0    0  0.00000000000E+00  0.00000000000E+00  0.93475722237E+03  0.35291364653E+04  0.34030917010E+04 0.  0.
        4    1    3    3  502    0 -0.97611326722E+03  0.11797350878E+04 -0.30218814319E+03  0.15607342101E+04  0.12699999809E+01 0. -1.
       -4    1    3    3    0  502  0.97611326722E+03 -0.11797350878E+04  0.12369453656E+04  0.19684022552E+04  0.12699999809E+01 0.  1.
</event>
<event>
 5   0  0.6584420E-08  0.3507849E+04  0.7818609E-02  0.8111932E-01
       -1   -1    0    0    0  501  0.00000000000E+00  0.00000000000E+00  0.17716593263E+04  0.17716593264E+04  0.50400001928E-02 0. -1.
        1   -1    0    0  501    0  0.00000000000E+00  0.00000000000E+00 -0.17363675520E+04  0.17363675520E+04  0.50400001928E-02 0.  1.
    10030    2    1    2    0    0  0.00000000000E+00  0.00000000000E+00  0.35291774311E+02  0.35080268784E+04  0.35078493511E+04 0.  0.
        1    1    3    3  502    0 -0.89226861347E+03  0.33703314676E+03  0.14896297326E+04  0.17688220263E+04  0.50400001928E-02 0. -1.
       -1    1    3    3    0  502  0.89226861347E+03 -0.33703314676E+03 -0.14543379583E+04  0.17392048521E+04  0.50400001928E-02 0.  1.
</event>
<event>
 5   0  0.6341535E-08  0.3380975E+04  0.7818609E-02  0.8142591E-01
        1   -1    0    0  501    0  0.00000000000E+00  0.00000000000E+00  0.18416609039E+04  0.18416609039E+04  0.50400001928E-02 0.  1.
       -1   -1    0    0    0  501  0.00000000000E+00  0.00000000000E+00 -0.15517235638E+04  0.15517235638E+04  0.50400001928E-02 0. -1.
    10030    2    1    2    0    0  0.00000000000E+00  0.00000000000E+00  0.28993734006E+03  0.33933844677E+04  0.33809753747E+04 0.  0.
        5    1    3    3  502    0 -0.51901533858E+03 -0.13441379222E+04  0.10323192579E+04  0.17725091864E+04  0.46999998093E+01 0.  1.
       -5    1    3    3    0  502  0.51901533858E+03  0.13441379222E+04 -0.74238191785E+03  0.16208752813E+04  0.46999998093E+01 0. -1.
</event>
<event>
 5   0  0.6584420E-08  0.3414209E+04  0.7818609E-02  0.8134428E-01
        1   -1    0    0  501    0  0.00000000000E+00  0.00000000000E+00  0.20576359670E+04  0.20576359670E+04  0.50400001928E-02 0. -1.
       -1   -1    0    0    0  501  0.00000000000E+00  0.00000000000E+00 -0.14162879034E+04  0.14162879034E+04  0.50400001928E-02 0.  1.
    10030    2    1    2    0    0  0.00000000000E+00  0.00000000000E+00  0.64134806361E+03  0.34739238705E+04  0.34142085055E+04 0.  0.
        1    1    3    3  502    0  0.74694408288E+03 -0.93609323945E+03 -0.91716001103E+03  0.15084357798E+04  0.50400001928E-02 0.  1.
       -1    1    3    3    0  502 -0.74694408288E+03  0.93609323945E+03  0.15585080746E+04  0.19654880907E+04  0.50400001928E-02 0. -1.
</event>
<event>
 5   0  0.6788600E-08  0.3398196E+04  0.7818609E-02  0.8138349E-01
        1   -1    0    0  501    0  0.00000000000E+00  0.00000000000E+00  0.20284970031E+04  0.20284970031E+04  0.50400001928E-02 0.  1.
       -1   -1    0    0    0  501  0.00000000000E+00  0.00000000000E+00 -0.14231890841E+04  0.14231890841E+04  0.50400001928E-02 0. -1.
    10030    2    1    2    0    0  0.00000000000E+00  0.00000000000E+00  0.60530791899E+03  0.34516860871E+04  0.33981964580E+04 0.  0.
        2    1    3    3  502    0  0.13105046873E+04  0.94855447531E+03 -0.22490244535E+03  0.16333276579E+04  0.25500000920E-02 0.  1.
       -2    1    3    3    0  502 -0.13105046873E+04 -0.94855447531E+03  0.83021036434E+03  0.18183584292E+04  0.25500000920E-02 0. -1.
</event>
<event>
 5   0  0.1986613E-07  0.3398756E+04  0.7818609E-02  0.8138212E-01
        2   -1    0    0  501    0  0.00000000000E+00  0.00000000000E+00  0.15367248978E+04  0.15367248978E+04  0.25500000920E-02 0.  1.
       -2   -1    0    0    0  501  0.00000000000E+00  0.00000000000E+00 -0.18792469057E+04  0.18792469057E+04  0.25500000920E-02 0. -1.
    10030    2    1    2    0    0  0.00000000000E+00  0.00000000000E+00 -0.34252200789E+03  0.34159718034E+04  0.33987559541E+04 0.  0.
        5    1    3    3  502    0  0.13957714613E+03 -0.14254726857E+04  0.74792565500E+03  0.16158183786E+04  0.46999998093E+01 0.  1.
       -5    1    3    3    0  502 -0.13957714613E+03  0.14254726857E+04 -0.10904476629E+04  0.18001534248E+04  0.46999998093E+01 0. -1.
</event>
<event>
 5   0  0.1963852E-07  0.3399913E+04  0.7818609E-02  0.8137928E-01
        2   -1    0    0  501    0  0.00000000000E+00  0.00000000000E+00  0.21910238318E+04  0.21910238318E+04  0.25500000920E-02 0.  1.
       -2   -1    0    0    0  501  0.00000000000E+00  0.00000000000E+00 -0.13189504551E+04  0.13189504551E+04  0.25500000920E-02 0. -1.
    10030    2    1    2    0    0  0.00000000000E+00  0.00000000000E+00  0.87207337667E+03  0.35099742868E+04  0.33999128695E+04 0.  0.
        4    1    3    3  502    0  0.12391997911E+04 -0.10843422793E+04 -0.54534753728E-01  0.16466377612E+04  0.12699999809E+01 0.  1.
       -4    1    3    3    0  502 -0.12391997911E+04  0.10843422793E+04  0.87212791143E+03  0.18633365256E+04  0.12699999809E+01 0. -1.
</event>
<event>
 5   0  0.6367111E-08  0.3399613E+04  0.7818609E-02  0.8138001E-01
        1   -1    0    0  501    0  0.00000000000E+00  0.00000000000E+00  0.21604216776E+04  0.21604216776E+04  0.50400001928E-02 0. -1.
       -1   -1    0    0    0  501  0.00000000000E+00  0.00000000000E+00 -0.13373974688E+04  0.13373974688E+04  0.50400001928E-02 0.  1.
    10030    2    1    2    0    0  0.00000000000E+00  0.00000000000E+00  0.82302420881E+03  0.34978191463E+04  0.33996132033E+04 0.  0.
        3    1    3    3  502    0  0.12277405389E+04 -0.97260590062E+03  0.10909155173E+04  0.19087707418E+04  0.10100000352E+00 0. -1.
       -3    1    3    3    0  502 -0.12277405389E+04  0.97260590062E+03 -0.26789130846E+03  0.15890484046E+04  0.10100000352E+00 0.  1.
</event>
<event>
 5   0  0.6788600E-08  0.3393917E+04  0.7818609E-02  0.8139401E-01
        1   -1    0    0  501    0  0.00000000000E+00  0.00000000000E+00  0.14552170948E+04  0.14552170948E+04  0.50400001928E-02 0. -1.
       -1   -1    0    0    0  501  0.00000000000E+00  0.00000000000E+00 -0.19788586078E+04  0.19788586078E+04  0.50400001928E-02 0.  1.
    10030    2    1    2    0    0  0.00000000000E+00  0.00000000000E+00 -0.52364151301E+03  0.34340757027E+04  0.33939174264E+04 0.  0.
        2    1    3    3  502    0  0.11979204944E+04 -0.84289208737E+03  0.60516571425E+03  0.15848363081E+04  0.25500000920E-02 0. -1.
       -2    1    3    3    0  502 -0.11979204944E+04  0.84289208737E+03 -0.11288072273E+04  0.18492393945E+04  0.25500000920E-02 0.  1.
</event>
<event>
 5   0  0.1963852E-07  0.3409152E+04  0.7818609E-02  0.8135664E-01
       -2   -1    0    0    0  501  0.00000000000E+00  0.00000000000E+00  0.18262902290E+04  0.18262902290E+04  0.25500000920E-02 0.  1.
        2   -1    0    0  501    0  0.00000000000E+00  0.00000000000E+00 -0.15909733646E+04  0.15909733646E+04  0.25500000920E-02 0. -1.
    10030    2    1    2    0    0  0.00000000000E+00  0.00000000000E+00  0.23531686439E+03  0.34172635937E+04  0.34091518655E+04 0.  0.
        4    1    3    3  502    0 -0.14920423163E+03 -0.13346642700E+04  0.11699118477E+04  0.17810912274E+04  0.12699999809E+01 0.  1.
       -4    1    3    3    0  502  0.14920423163E+03  0.13346642700E+04 -0.93459498327E+03  0.16361723662E+04  0.12699999809E+01 0. -1.
</event>
<event>
 5   0  0.6584420E-08  0.3431749E+04  0.7818609E-02  0.8130158E-01
        1   -1    0    0  501    0  0.00000000000E+00  0.00000000000E+00  0.13148804816E+04  0.13148804817E+04  0.50400001928E-02 0. -1.
       -1   -1    0    0    0  501  0.00000000000E+00  0.00000000000E+00 -0.22391581118E+04  0.22391581118E+04  0.50400001928E-02 0.  1.
    10030    2    1    2    0    0  0.00000000000E+00  0.00000000000E+00 -0.92427763015E+03  0.35540385935E+04  0.34317489981E+04 0.  0.
        1    1    3    3  502    0  0.19657180728E+03  0.11966409014E+04  0.79505328402E+03  0.14500688421E+04  0.50400001928E-02 0. -1.
       -1    1    3    3    0  502 -0.19657180728E+03 -0.11966409014E+04 -0.17193309142E+04  0.21039697514E+04  0.50400001928E-02 0.  1.
</event>
<event>
 5   0  0.1970449E-07  0.3390129E+04  0.7818609E-02  0.8140333E-01
       -2   -1    0    0    0  501  0.00000000000E+00  0.00000000000E+00  0.10777651056E+04  0.10777651056E+04  0.25500000920E-02 0. -1.
        2   -1    0    0  501    0  0.00000000000E+00  0.00000000000E+00 -0.26659271053E+04  0.26659271053E+04  0.25500000920E-02 0.  1.
    10030    2    1    2    0    0  0.00000000000E+00  0.00000000000E+00 -0.15881619997E+04  0.37436922109E+04  0.33901287339E+04 0.  0.
        1    1    3    3  502    0  0.14907856563E+04 -0.29224026616E+03 -0.16244300269E+04  0.22240996287E+04  0.50400001928E-02 0.  1.
       -1    1    3    3    0  502 -0.14907856563E+04  0.29224026616E+03  0.36268027147E+02  0.15195925822E+04  0.50400001928E-02 0. -1.
</event>
<event>
 5   0  0.6584420E-08  0.3402039E+04  0.7818609E-02  0.8137406E-01
       -1   -1    0    0    0  501  0.00000000000E+00  0.00000000000E+00  0.29828471967E+04  0.29828471967E+04  0.50400001928E-02 0.  1.
        1   -1    0    0  501    0  0.00000000000E+00  0.00000000000E+00 -0.97003535885E+03  0.97003535887E+03  0.50400001928E-02 0. -1.
    10030    2    1    2    0    0  0.00000000000E+00  0.00000000000E+00  0.20128118378E+04  0.39528825556E+04  0.34020389480E+04 0.  0.
        1    1    3    3  502    0  0.12979002243E+04 -0.10910478580E+04  0.11646007772E+04  0.20569942613E+04  0.50400001928E-02 0.  1.
       -1    1    3    3    0  502 -0.12979002243E+04  0.10910478580E+04  0.84821106068E+03  0.18958882943E+04  0.50400001928E-02 0. -1.
</event>
<event>
 5   0  0.6584420E-08  0.3395815E+04  0.7818609E-02  0.8138934E-01
       -1   -1    0    0    0  501  0.00000000000E+00  0.00000000000E+00  0.10607637408E+04  0.10607637409E+04  0.50400001928E-02 0.  1.
        1   -1    0    0  501    0  0.00000000000E+00  0.00000000000E+00 -0.27177494846E+04  0.27177494846E+04  0.50400001928E-02 0. -1.
    10030    2    1    2    0    0  0.00000000000E+00  0.00000000000E+00 -0.16569857438E+04  0.37785132255E+04  0.33958151363E+04 0.  0.
        1    1    3    3  502    0  0.12314460967E+04 -0.40920413434E+02  0.47139064106E+03  0.13192206433E+04  0.50400001928E-02 0.  1.
       -1    1    3    3    0  502 -0.12314460967E+04  0.40920413434E+02 -0.21283763848E+04  0.24592925822E+04  0.50400001928E-02 0. -1.
</event>
<event>
 5   0  0.1897313E-07  0.3402529E+04  0.7818609E-02  0.8137286E-01
        2   -1    0    0  501    0  0.00000000000E+00  0.00000000000E+00  0.22477876803E+04  0.22477876803E+04  0.25500000920E-02 0. -1.
       -2   -1    0    0    0  501  0.00000000000E+00  0.00000000000E+00 -0.12876217974E+04  0.12876217974E+04  0.25500000920E-02 0.  1.
    10030    2    1    2    0    0  0.00000000000E+00  0.00000000000E+00  0.96016588288E+03  0.35354094777E+04  0.34025287144E+04 0.  0.
        3    1    3    3  502    0 -0.35714456704E+02  0.11480474310E+04  0.17840897326E+04  0.21218540502E+04  0.10100000352E+00 0. -1.
       -3    1    3    3    0  502  0.35714456704E+02 -0.11480474310E+04 -0.82392384967E+03  0.14135554275E+04  0.10100000352E+00 0.  1.
</event>
<event>
 5   0  0.6341535E-08  0.3396729E+04  0.7818609E-02  0.8138710E-01
        1   -1    0    0  501    0  0.00000000000E+00  0.00000000000E+00  0.13126709843E+04  0.13126709843E+04  0.50400001928E-02 0. -1.
       -1   -1    0    0    0  501  0.00000000000E+00  0.00000000000E+00 -0.21973840571E+04  0.21973840571E+04  0.50400001928E-02 0.  1.
    10030    2    1    2    0    0  0.00000000000E+00  0.00000000000E+00 -0.88471307279E+03  0.35100550413E+04  0.33967291873E+04 0.  0.
        5    1    3    3  502    0  0.73168506714E+03  0.93098830477E+03 -0.17004812296E+04  0.20721391757E+04  0.46999998093E+01 0.  1.
       -5    1    3    3    0  502 -0.73168506714E+03 -0.93098830477E+03  0.81576815681E+03  0.14379158657E+04  0.46999998093E+01 0. -1.
</event>
<event>
 5   0  0.1897313E-07  0.3357622E+04  0.7818609E-02  0.8148386E-01
        2   -1    0    0  501    0  0.00000000000E+00  0.00000000000E+00  0.13727414936E+04  0.13727414936E+04  0.25500000920E-02 0. -1.
       -2   -1    0    0    0  501  0.00000000000E+00  0.00000000000E+00 -0.20531223501E+04  0.20531223501E+04  0.25500000920E-02 0.  1.
    10030    2    1    2    0    0  0.00000000000E+00  0.00000000000E+00 -0.68038085645E+03  0.34258638437E+04  0.33576219212E+04 0.  0.
        3    1    3    3  502    0  0.10395203104E+04 -0.10958078880E+03  0.10002052273E+04  0.14467276634E+04  0.10100000352E+00 0. -1.
       -3    1    3    3    0  502 -0.10395203104E+04  0.10958078880E+03 -0.16805860838E+04  0.19791361803E+04  0.10100000352E+00 0.  1.
</event>
<event>
 5   0  0.1963852E-07  0.3384193E+04  0.7818609E-02  0.8141797E-01
        2   -1    0    0  501    0  0.00000000000E+00  0.00000000000E+00  0.16589387029E+04  0.16589387029E+04  0.25500000920E-02 0.  1.
       -2   -1    0    0    0  501  0.00000000000E+00  0.00000000000E+00 -0.17259171032E+04  0.17259171032E+04  0.25500000920E-02 0. -1.
    10030    2    1    2    0    0  0.00000000000E+00  0.00000000000E+00 -0.66978400259E+02  0.33848558061E+04  0.33841930681E+04 0.  0.
        4    1    3    3  502    0 -0.85632480902E+02 -0.11417968932E+04 -0.12795887098E+04  0.17170853055E+04  0.12699999809E+01 0. -1.
       -4    1    3    3    0  502  0.85632480902E+02  0.11417968932E+04  0.12126103095E+04  0.16677705007E+04  0.12699999809E+01 0.  1.
</event>
<event>
 5   0  0.1897313E-07  0.3400747E+04  0.7818609E-02  0.8137723E-01
       -2   -1    0    0    0  501  0.00000000000E+00  0.00000000000E+00  0.14998231846E+04  0.14998231846E+04  0.25500000920E-02 0. -1.
        2   -1    0    0  501    0  0.00000000000E+00  0.00000000000E+00 -0.19277403296E+04  0.19277403296E+04  0.25500000920E-02 0.  1.
    10030    2    1    2    0    0  0.00000000000E+00  0.00000000000E+00 -0.42791714498E+03  0.34275635142E+04  0.34007467652E+04 0.  0.
        3    1    3    3  502    0 -0.40258335009E+03 -0.97383549095E+02  0.14482010719E+04  0.15062679921E+04  0.10100000352E+00 0. -1.
       -3    1    3    3    0  502  0.40258335009E+03  0.97383549095E+02 -0.18761182168E+04  0.19212955221E+04  0.10100000352E+00 0.  1.
</event>
<event>
 5   0  0.1970449E-07  0.3404852E+04  0.7818609E-02  0.8136717E-01
       -2   -1    0    0    0  501  0.00000000000E+00  0.00000000000E+00  0.12929170419E+04  0.12929170419E+04  0.25500000920E-02 0.  1.
        2   -1    0    0  501    0  0.00000000000E+00  0.00000000000E+00 -0.22416393152E+04  0.22416393152E+04  0.25500000920E-02 0. -1.
    10030    2    1    2    0    0  0.00000000000E+00  0.00000000000E+00 -0.94872227338E+03  0.35345563571E+04  0.34048516399E+04 0.  0.
        1    1    3    3  502    0 -0.50075646920E+02  0.79919428503E+03 -0.20339345598E+04  0.21858885766E+04  0.50400001928E-02 0. -1.
       -1    1    3    3    0  502  0.50075646920E+02 -0.79919428503E+03  0.10852122864E+04  0.13486677805E+04  0.50400001928E-02 0.  1.
</event>
<event>
 5   0  0.6788600E-08  0.3398912E+04  0.7818609E-02  0.8138173E-01
        1   -1    0    0  501    0  0.00000000000E+00  0.00000000000E+00  0.16790369858E+04  0.16790369858E+04  0.50400001928E-02 0. -1.
       -1   -1    0    0    0  501  0.00000000000E+00  0.00000000000E+00 -0.17201236365E+04  0.17201236365E+04  0.50400001928E-02 0.  1.
    10030    2    1    2    0    0  0.00000000000E+00  0.00000000000E+00 -0.41086650675E+02  0.33991606222E+04  0.33989123000E+04 0.  0.
        2    1    3    3  502    0  0.15505966781E+04 -0.68534484644E+03 -0.13931053474E+03  0.17010158852E+04  0.25500000920E-02 0.  1.
       -2    1    3    3    0  502 -0.15505966781E+04  0.68534484644E+03  0.98223884068E+02  0.16981447371E+04  0.25500000920E-02 0. -1.
</event>
<event>
 5   0  0.6311750E-08  0.3405781E+04  0.7818609E-02  0.8136489E-01
       -1   -1    0    0    0  501  0.00000000000E+00  0.00000000000E+00  0.20231779945E+04  0.20231779945E+04  0.50400001928E-02 0.  1.
        1   -1    0    0  501    0  0.00000000000E+00  0.00000000000E+00 -0.14333074483E+04  0.14333074483E+04  0.50400001928E-02 0. -1.
    10030    2    1    2    0    0  0.00000000000E+00  0.00000000000E+00  0.58987054616E+03  0.34564854428E+04  0.34057810198E+04 0.  0.
        4    1    3    3  502    0  0.16584233263E+04 -0.37662335981E+03  0.38353556290E+03  0.17433629070E+04  0.12699999809E+01 0. -1.
       -4    1    3    3    0  502 -0.16584233263E+04  0.37662335981E+03  0.20633498326E+03  0.17131225358E+04  0.12699999809E+01 0.  1.
</event>
<event>
 5   0  0.1986613E-07  0.3402679E+04  0.7818609E-02  0.8137249E-01
        2   -1    0    0  501    0  0.00000000000E+00  0.00000000000E+00  0.17352095504E+04  0.17352095504E+04  0.25500000920E-02 0.  1.
       -2   -1    0    0    0  501  0.00000000000E+00  0.00000000000E+00 -0.16681308663E+04  0.16681308663E+04  0.25500000920E-02 0. -1.
    10030    2    1    2    0    0  0.00000000000E+00  0.00000000000E+00  0.67078684116E+02  0.34033404166E+04  0.34026793034E+04 0.  0.
        5    1    3    3  502    0 -0.94268641249E+03 -0.14062165151E+04 -0.13511121414E+03  0.16983461631E+04  0.46999998093E+01 0.  1.
       -5    1    3    3    0  502  0.94268641249E+03  0.14062165151E+04  0.20218989826E+03  0.17049942535E+04  0.46999998093E+01 0. -1.
</event>
<event>
 5   0  0.6584420E-08  0.3398978E+04  0.7818609E-02  0.8138157E-01
       -1   -1    0    0    0  501  0.00000000000E+00  0.00000000000E+00  0.10593521075E+04  0.10593521075E+04  0.50400001928E-02 0.  1.
        1   -1    0    0  501    0  0.00000000000E+00  0.00000000000E+00 -0.27264430544E+04  0.27264430544E+04  0.50400001928E-02 0. -1.
    10030    2    1    2    0    0  0.00000000000E+00  0.00000000000E+00 -0.16670909469E+04  0.37857951619E+04  0.33989781969E+04 0.  0.
        1    1    3    3  502    0 -0.98104455598E+03  0.93665786316E+03 -0.19740321638E+04  0.23951157294E+04  0.50400001928E-02 0. -1.
       -1    1    3    3    0  502  0.98104455598E+03 -0.93665786316E+03  0.30694121690E+03  0.13906794325E+04  0.50400001928E-02 0.  1.
</event>
<event>
 5   0  0.6311750E-08  0.3437102E+04  0.7818609E-02  0.8128860E-01
        1   -1    0    0  501    0  0.00000000000E+00  0.00000000000E+00  0.20327016751E+04  0.20327016751E+04  0.50400001928E-02 0.  1.
       -1   -1    0    0    0  501  0.00000000000E+00  0.00000000000E+00 -0.14529521583E+04  0.14529521583E+04  0.50400001928E-02 0. -1.
    10030    2    1    2    0    0  0.00000000000E+00  0.00000000000E+00  0.57974951684E+03  0.34856538334E+04  0.34371024343E+04 0.  0.
        4    1    3    3  502    0 -0.13731365739E+04  0.86259909261E+02  0.13342134091E+04  0.19165259864E+04  0.12699999809E+01 0.  1.
       -4    1    3    3    0  502  0.13731365739E+04 -0.86259909261E+02 -0.75446389227E+03  0.15691278470E+04  0.12699999809E+01 0. -1.
</event>
<event>
 5   0  0.6341535E-08  0.3398552E+04  0.7818609E-02  0.8138262E-01
        1   -1    0    0  501    0  0.00000000000E+00  0.00000000000E+00  0.11658190137E+04  0.11658190137E+04  0.50400001928E-02 0. -1.
       -1   -1    0    0    0  501  0.00000000000E+00  0.00000000000E+00 -0.24768333199E+04  0.24768333199E+04  0.50400001928E-02 0.  1.
    10030    2    1    2    0    0  0.00000000000E+00  0.00000000000E+00 -0.13110143062E+04  0.36426523336E+04  0.33985522671E+04 0.  0.
        5    1    3    3  502    0 -0.84122499748E+03  0.10356757824E+04  0.47232214213E+03  0.14154130558E+04  0.46999998093E+01 0. -1.
       -5    1    3    3    0  502  0.84122499748E+03 -0.10356757824E+04 -0.17833364483E+04  0.22272392778E+04  0.46999998093E+01 0.  1.
</event>
<event>
 5   0  0.1963852E-07  0.3400653E+04  0.7818609E-02  0.8137746E-01
       -2   -1    0    0    0  501  0.00000000000E+00  0.00000000000E+00  0.14180347700E+04  0.14180347700E+04  0.25500000920E-02 0. -1.
        2   -1    0    0  501    0  0.00000000000E+00  0.00000000000E+00 -0.20388152614E+04  0.20388152614E+04  0.25500000920E-02 0.  1.
    10030    2    1    2    0    0  0.00000000000E+00  0.00000000000E+00 -0.62078049144E+03  0.34568500314E+04  0.34006534256E+04 0.  0.
        4    1    3    3  502    0 -0.15620513605E+04 -0.10661286790E+03  0.36369596130E+03  0.16073727389E+04  0.12699999809E+01 0. -1.
       -4    1    3    3    0  502  0.15620513605E+04  0.10661286790E+03 -0.98447645275E+03  0.18494772925E+04  0.12699999809E+01 0.  1.
</event>
<event>
 5   0  0.6584420E-08  0.3399333E+04  0.7818609E-02  0.8138070E-01
        1   -1    0    0  501    0  0.00000000000E+00  0.00000000000E+00  0.23579621595E+04  0.23579621595E+04  0.50400001928E-02 0. -1.
       -1   -1    0    0    0  501  0.00000000000E+00  0.00000000000E+00 -0.12251538858E+04  0.12251538858E+04  0.50400001928E-02 0.  1.
    10030    2    1    2    0    0  0.00000000000E+00  0.00000000000E+00  0.11328082737E+04  0.35831160452E+04  0.33993331712E+04 0.  0.
        1    1    3    3  502    0  0.49800814933E+02  0.12277156534E+04  0.18042458797E+04  0.21829038094E+04  0.50400001928E-02 0. -1.
       -1    1    3    3    0  502 -0.49800814933E+02 -0.12277156534E+04 -0.67143760595E+03  0.14002122359E+04  0.50400001928E-02 0.  1.
</event>
<event>
 5   0  0.1928004E-07  0.3401961E+04  0.7818609E-02  0.8137425E-01
        2   -1    0    0  501    0  0.00000000000E+00  0.00000000000E+00  0.15081951523E+04  0.15081951523E+04  0.25500000920E-02 0.  1.
       -2   -1    0    0    0  501  0.00000000000E+00  0.00000000000E+00 -0.19184084819E+04  0.19184084819E+04  0.25500000920E-02 0. -1.
    10030    2    1    2    0    0  0.00000000000E+00  0.00000000000E+00 -0.41021332959E+03  0.34266036341E+04  0.34019608301E+04 0.  0.
        2    1    3    3  502    0  0.95938135556E+03  0.12339573868E+03 -0.16144185321E+04  0.18820165490E+04  0.25500000920E-02 0. -1.
       -2    1    3    3    0  502 -0.95938135556E+03 -0.12339573868E+03  0.12042052025E+04  0.15445870851E+04  0.25500000920E-02 0.  1.
</event>
<event>
 5   0  0.1986613E-07  0.3396407E+04  0.7818609E-02  0.8138789E-01
        2   -1    0    0  501    0  0.00000000000E+00  0.00000000000E+00  0.13351205921E+04  0.13351205921E+04  0.25500000920E-02 0.  1.
       -2   -1    0    0    0  501  0.00000000000E+00  0.00000000000E+00 -0.21600256882E+04  0.21600256882E+04  0.25500000920E-02 0. -1.
    10030    2    1    2    0    0  0.00000000000E+00  0.00000000000E+00 -0.82490509609E+03  0.34951462803E+04  0.33964067929E+04 0.  0.
        5    1    3    3  502    0  0.59715390462E+03 -0.69677493913E+03 -0.18829037482E+04  0.20946209005E+04  0.46999998093E+01 0. -1.
       -5    1    3    3    0  502 -0.59715390462E+03  0.69677493913E+03  0.10579986521E+04  0.14005253798E+04  0.46999998093E+01 0.  1.
</event>
<event>
 5   0  0.6367111E-08  0.3408427E+04  0.7818609E-02  0.8135841E-01
       -1   -1    0    0    0  501  0.00000000000E+00  0.00000000000E+00  0.25476591625E+04  0.25476591625E+04  0.50400001928E-02 0.  1.
        1   -1    0    0  501    0  0.00000000000E+00  0.00000000000E+00 -0.11400048351E+04  0.11400048351E+04  0.50400001928E-02 0. -1.
    10030    2    1    2    0    0  0.00000000000E+00  0.00000000000E+00  0.14076543274E+04  0.36876639977E+04  0.34084270645E+04 0.  0.
        3    1    3    3  502    0 -0.93985716478E+02  0.17015883872E+04  0.69261478410E+03  0.18395520117E+04  0.10100000352E+00 0. -1.
       -3    1    3    3    0  502  0.93985716478E+02 -0.17015883872E+04  0.71503954328E+03  0.18481119860E+04  0.10100000352E+00 0.  1.
</event>
<event>
 5   0  0.6341535E-08  0.3398027E+04  0.7818609E-02  0.8138391E-01
       -1   -1    0    0    0  501  0.00000000000E+00  0.00000000000E+00  0.10407217284E+04  0.10407217284E+04  0.50400001928E-02 0. -1.
        1   -1    0    0  501    0  0.00000000000E+00  0.00000000000E+00 -0.27736978287E+04  0.27736978287E+04  0.50400001928E-02 0.  1.
    10030    2    1    2    0    0  0.00000000000E+00  0.00000000000E+00 -0.17329761002E+04  0.38144195571E+04  0.33980274268E+04 0.  0.
        5    1    3    3  502    0  0.13557972703E+04 -0.97687530600E+03 -0.52204236132E+03  0.17507203999E+04  0.46999998093E+01 0.  1.
       -5    1    3    3    0  502 -0.13557972703E+04  0.97687530600E+03 -0.12109337389E+04  0.20636991572E+04  0.46999998093E+01 0. -1.
</event>
<event>
 5   0  0.1928004E-07  0.3400748E+04  0.7818609E-02  0.8137723E-01
       -2   -1    0    0    0  501  0.00000000000E+00  0.00000000000E+00  0.19848829723E+04  0.19848829723E+04  0.25500000920E-02 0. -1.
        2   -1    0    0  501    0  0.00000000000E+00  0.00000000000E+00 -0.14566456945E+04  0.14566456945E+04  0.25500000920E-02 0.  1.
    10030    2    1    2    0    0  0.00000000000E+00  0.00000000000E+00  0.52823727776E+03  0.34415286668E+04  0.34007477035E+04 0.  0.
        2    1    3    3  502    0  0.69848091048E+03 -0.10874864163E+04 -0.85401500387E+03  0.15491429614E+04  0.25500000920E-02 0. -1.
       -2    1    3    3    0  502 -0.69848091048E+03  0.10874864163E+04  0.13822522816E+04  0.18923857054E+04  0.25500000920E-02 0.  1.
</event>
<event>
 5   0  0.6311750E-08  0.3395556E+04  0.7818609E-02  0.8138998E-01
        1   -1    0    0  501    0  0.00000000000E+00  0.00000000000E+00  0.18724175807E+04  0.18724175807E+04  0.50400001928E-02 0.  1.
       -1   -1    0    0    0  501  0.00000000000E+00  0.00000000000E+00 -0.15394265360E+04  0.15394265361E+04  0.50400001928E-02 0. -1.
    10030    2    1    2    0    0  0.00000000000E+00  0.00000000000E+00  0.33299104466E+03  0.34118441168E+04  0.33955555129E+04 0.  0.
        4    1    3    3  502    0 -0.14190567804E+04  0.63872400821E+03  0.84854268619E+03  0.17724888738E+04  0.12699999809E+01 0.  1.
       -4    1    3    3    0  502  0.14190567804E+04 -0.63872400821E+03 -0.51555164153E+03  0.16393552430E+04  0.12699999809E+01 0. -1.
</event>
<event>
 5   0  0.1897313E-07  0.3397893E+04  0.7818609E-02  0.8138424E-01
       -2   -1    0    0    0  501  0.00000000000E+00  0.00000000000E+00  0.20014608770E+04  0.20014608770E+04  0.25500000920E-02 0. -1.
        2   -1    0    0  501    0  0.00000000000E+00  0.00000000000E+00 -0.14421564483E+04  0.14421564483E+04  0.25500000920E-02 0.  1.
    10030    2    1    2    0    0  0.00000000000E+00  0.00000000000E+00  0.55930442867E+03  0.34436173253E+04  0.33978932943E+04 0.  0.
        3    1    3    3  502    0  0.36549912061E+03 -0.11864004221E+04  0.14551238592E+04  0.19127260715E+04  0.10100000352E+00 0. -1.
       -3    1    3    3    0  502 -0.36549912061E+03  0.11864004221E+04 -0.89581943057E+03  0.15308912538E+04  0.10100000352E+00 0.  1.
</event>
<event>
 5   0  0.1986613E-07  0.3399731E+04  0.7818609E-02  0.8137972E-01
       -2   -1    0    0    0  501  0.00000000000E+00  0.00000000000E+00  0.16935482686E+04  0.16935482686E+04  0.25500000920E-02 0.  1.
        2   -1    0    0  501    0  0.00000000000E+00  0.00000000000E+00 -0.17062060164E+04  0.17062060164E+04  0.25500000920E-02 0. -1.
    10030    2    1    2    0    0  0.00000000000E+00  0.00000000000E+00 -0.12657747839E+02  0.33997542850E+04  0.33997307217E+04 0.  0.
        5    1    3    3  502    0 -0.12668641532E+04  0.63342811721E+03  0.93354156263E+03  0.16963778770E+04  0.46999998093E+01 0.  1.
       -5    1    3    3    0  502  0.12668641532E+04 -0.63342811721E+03 -0.94619931046E+03  0.17033764080E+04  0.46999998093E+01 0. -1.
</event>
<event>
 5   0  0.1963852E-07  0.3399563E+04  0.7818609E-02  0.8138014E-01
       -2   -1    0    0    0  501  0.00000000000E+00  0.00000000000E+00  0.13800695515E+04  0.13800695515E+04  0.25500000920E-02 0.  1.
        2   -1    0    0  501    0  0.00000000000E+00  0.00000000000E+00 -0.20935590293E+04  0.20935590293E+04  0.25500000920E-02 0. -1.
    10030    2    1    2    0    0  0.00000000000E+00  0.00000000000E+00 -0.71348947779E+03  0.34736285808E+04  0.33995629546E+04 0.  0.
        4    1    3    3  502    0 -0.69632193718E+03  0.75379758210E+03 -0.17413244639E+04  0.20212094242E+04  0.12699999809E+01 0. -1.
       -4    1    3    3    0  502  0.69632193718E+03 -0.75379758210E+03  0.10278349861E+04  0.14524191566E+04  0.12699999809E+01 0.  1.
</event>
<event>
 5   0  0.6311750E-08  0.3402312E+04  0.7818609E-02  0.8137339E-01
       -1   -1    0    0    0  501  0.00000000000E+00  0.00000000000E+00  0.14934774441E+04  0.14934774441E+04  0.50400001928E-02 0.  1.
        1   -1    0    0  501    0  0.00000000000E+00  0.00000000000E+00 -0.19377132791E+04  0.19377132791E+04  0.50400001928E-02 0. -1.
    10030    2    1    2    0    0  0.00000000000E+00  0.00000000000E+00 -0.44423583498E+03  0.34311907233E+04  0.34023116116E+04 0.  0.
        4    1    3    3  502    0 -0.42465317596E+03  0.15190813036E+04 -0.86470064472E+03  0.17987904672E+04  0.12699999809E+01 0. -1.
       -4    1    3    3    0  502  0.42465317596E+03 -0.15190813036E+04  0.42046480973E+03  0.16324002561E+04  0.12699999809E+01 0.  1.
</event>
<event>
 5   0  0.1970449E-07  0.3399854E+04  0.7818609E-02  0.8137942E-01
        2   -1    0    0  501    0  0.00000000000E+00  0.00000000000E+00  0.91745634104E+03  0.91745634105E+03  0.25500000920E-02 0.  1.
       -2   -1    0    0    0  501  0.00000000000E+00  0.00000000000E+00 -0.31497437017E+04  0.31497437017E+04  0.25500000920E-02 0. -1.
    10030    2    1    2    0    0  0.00000000000E+00  0.00000000000E+00 -0.22322873607E+04  0.40672000427E+04  0.33998543097E+04 0.  0.
        1    1    3    3  502    0  0.37335118252E+03 -0.22044443900E+03  0.85019829534E+03  0.95437099579E+03  0.50400001928E-02 0.  1.
       -1    1    3    3    0  502 -0.37335118252E+03  0.22044443900E+03 -0.30824856560E+04  0.31128290470E+04  0.50400001928E-02 0. -1.
</event>
<event>
 5   0  0.6584420E-08  0.3398880E+04  0.7818609E-02  0.8138181E-01
        1   -1    0    0  501    0  0.00000000000E+00  0.00000000000E+00  0.22779561568E+04  0.22779561568E+04  0.50400001928E-02 0.  1.
       -1   -1    0    0    0  501  0.00000000000E+00  0.00000000000E+00 -0.12678456071E+04  0.12678456071E+04  0.50400001928E-02 0. -1.
    10030    2    1    2    0    0  0.00000000000E+00  0.00000000000E+00  0.10101105498E+04  0.35458017639E+04  0.33988802312E+04 0.  0.
        1    1    3    3  502    0  0.34734558244E+03 -0.56924144029E+03 -0.11256554816E+04  0.13083520300E+04  0.50400001928E-02 0. -1.
       -1    1    3    3    0  502 -0.34734558244E+03  0.56924144029E+03  0.21357660314E+04  0.22374497339E+04  0.50400001928E-02 0.  1.
</event>
<event>
 5   0  0.1963852E-07  0.3451192E+04  0.7818609E-02  0.8125455E-01
       -2   -1    0    0    0  501  0.00000000000E+00  0.00000000000E+00  0.18508640736E+04  0.18508640736E+04  0.25500000920E-02 0. -1.
        2   -1    0    0  501    0  0.00000000000E+00  0.00000000000E+00 -0.16088059129E+04  0.16088059129E+04  0.25500000920E-02 0.  1.
    10030    2    1    2    0    0  0.00000000000E+00  0.00000000000E+00  0.24205816070E+03  0.34596699864E+04  0.34511917162E+04 0.  0.
        4    1    3    3  502    0 -0.17060071295E+04  0.94056156961E+02 -0.12116860097E+03  0.17128894679E+04  0.12699999809E+01 0. -1.
       -4    1    3    3    0  502  0.17060071295E+04 -0.94056156961E+02  0.36322676167E+03  0.17467805185E+04  0.12699999809E+01 0.  1.
</event>
<event>
 5   0  0.6584420E-08  0.3400773E+04  0.7818609E-02  0.8137717E-01
        1   -1    0    0  501    0  0.00000000000E+00  0.00000000000E+00  0.18836344320E+04  0.18836344320E+04  0.50400001928E-02 0.  1.
       -1   -1    0    0    0  501  0.00000000000E+00  0.00000000000E+00 -0.15349655498E+04  0.15349655498E+04  0.50400001928E-02 0. -1.
    10030    2    1    2    0    0  0.00000000000E+00  0.00000000000E+00  0.34866888218E+03  0.34185999818E+04  0.34007728307E+04 0.  0.
        1    1    3    3  502    0 -0.56278753193E+03 -0.12595321471E+04 -0.82494037313E+03  0.16073822367E+04  0.50400001928E-02 0. -1.
       -1    1    3    3    0  502  0.56278753193E+03  0.12595321471E+04  0.11736092553E+04  0.18112177450E+04  0.50400001928E-02 0.  1.
</event>
<event>
 5   0  0.1986613E-07  0.3390727E+04  0.7818609E-02  0.8140186E-01
       -2   -1    0    0    0  501  0.00000000000E+00  0.00000000000E+00  0.21170027253E+04  0.21170027253E+04  0.25500000920E-02 0.  1.
        2   -1    0    0  501    0  0.00000000000E+00  0.00000000000E+00 -0.13577011771E+04  0.13577011771E+04  0.25500000920E-02 0. -1.
    10030    2    1    2    0    0  0.00000000000E+00  0.00000000000E+00  0.75930154817E+03  0.34747039024E+04  0.33907268201E+04 0.  0.
        5    1    3    3  502    0 -0.16297124680E+04 -0.82575180680E+02 -0.91578818856E+02  0.16343776059E+04  0.46999998093E+01 0.  1.
       -5    1    3    3    0  502  0.16297124680E+04  0.82575180680E+02  0.85088036703E+03  0.18403262965E+04  0.46999998093E+01 0. -1.
</event>
<event>
 5   0  0.1986613E-07  0.3404451E+04  0.7818609E-02  0.8136815E-01
        2   -1    0    0  501    0  0.00000000000E+00  0.00000000000E+00  0.23397594761E+04  0.23397594761E+04  0.25500000920E-02 0.  1.
       -2   -1    0    0    0  501  0.00000000000E+00  0.00000000000E+00 -0.12384058945E+04  0.12384058945E+04  0.25500000920E-02 0. -1.
    10030    2    1    2    0    0  0.00000000000E+00  0.00000000000E+00  0.11013535815E+04  0.35781653706E+04  0.34044511610E+04 0.  0.
        5    1    3    3  502    0 -0.64600727595E+03 -0.35089331241E+03 -0.10629464826E+04  0.12924120211E+04  0.46999998093E+01 0. -1.
       -5    1    3    3    0  502  0.64600727595E+03  0.35089331241E+03  0.21643000641E+04  0.22857533495E+04  0.46999998093E+01 0.  1.
</event>
<event>
 5   0  0.1928004E-07  0.3403708E+04  0.7818609E-02  0.8136997E-01
        2   -1    0    0  501    0  0.00000000000E+00  0.00000000000E+00  0.12469660607E+04  0.12469660607E+04  0.25500000920E-02 0. -1.
       -2   -1    0    0    0  501  0.00000000000E+00  0.00000000000E+00 -0.23226836282E+04  0.23226836282E+04  0.25500000920E-02 0.  1.
    10030    2    1    2    0    0  0.00000000000E+00  0.00000000000E+00 -0.10757175675E+04  0.35696496889E+04  0.34037083624E+04 0.  0.
        2    1    3    3  502    0  0.97438579480E+03 -0.44637761772E+03  0.84857020175E+03  0.13670230583E+04  0.25500000920E-02 0. -1.
       -2    1    3    3    0  502 -0.97438579480E+03  0.44637761772E+03 -0.19242877692E+04  0.22026266305E+04  0.25500000920E-02 0.  1.
</event>
<event>
 5   0  0.1928004E-07  0.3398827E+04  0.7818609E-02  0.8138194E-01
        2   -1    0    0  501    0  0.00000000000E+00  0.00000000000E+00  0.23898351336E+04  0.23898351336E+04  0.25500000920E-02 0.  1.
       -2   -1    0    0    0  501  0.00000000000E+00  0.00000000000E+00 -0.12084544079E+04  0.12084544079E+04  0.25500000920E-02 0. -1.
    10030    2    1    2    0    0  0.00000000000E+00  0.00000000000E+00  0.11813807257E+04  0.35982895414E+04  0.33988273279E+04 0.  0.
        2    1    3    3  502    0 -0.16356502608E+04  0.15854123844E+03  0.13224196810E+03  0.16486282292E+04  0.25500000920E-02 0. -1.
       -2    1    3    3    0  502  0.16356502608E+04 -0.15854123844E+03  0.10491387576E+04  0.19496613123E+04  0.25500000920E-02 0.  1.
</event>
<event>
 5   0  0.1970449E-07  0.3398479E+04  0.7818609E-02  0.8138280E-01
       -2   -1    0    0    0  501  0.00000000000E+00  0.00000000000E+00  0.14824101284E+04  0.14824101284E+04  0.25500000920E-02 0. -1.
        2   -1    0    0  501    0  0.00000000000E+00  0.00000000000E+00 -0.19477846446E+04  0.19477846446E+04  0.25500000920E-02 0.  1.
    10030    2    1    2    0    0  0.00000000000E+00  0.00000000000E+00 -0.46537451622E+03  0.34301947730E+04  0.33984794747E+04 0.  0.
        1    1    3    3  502    0 -0.13727925545E+04  0.47131341473E+02  0.77696531808E+03  0.15781178240E+04  0.50400001928E-02 0. -1.
       -1    1    3    3    0  502  0.13727925545E+04 -0.47131341473E+02 -0.12423398343E+04  0.18520769490E+04  0.50400001928E-02 0.  1.
</event>
<event>
 5   0  0.6341535E-08  0.3436172E+04  0.7818609E-02  0.8129085E-01
        1   -1    0    0  501    0  0.00000000000E+00  0.00000000000E+00  0.16246228591E+04  0.16246228591E+04  0.50400001928E-02 0.  1.
       -1   -1    0    0    0  501  0.00000000000E+00  0.00000000000E+00 -0.18169259560E+04  0.18169259560E+04  0.50400001928E-02 0. -1.
    10030    2    1    2    0    0  0.00000000000E+00  0.00000000000E+00 -0.19230309688E+03  0.34415488150E+04  0.34361719639E+04 0.  0.
        5    1    3    3  502    0 -0.62160087946E+03 -0.46255795975E+03 -0.16319948315E+04  0.18065925770E+04  0.46999998093E+01 0. -1.
       -5    1    3    3    0  502  0.62160087946E+03  0.46255795975E+03  0.14396917346E+04  0.16349562380E+04  0.46999998093E+01 0.  1.
</event>
<event>
 5   0  0.6367111E-08  0.3353148E+04  0.7818609E-02  0.8149502E-01
        1   -1    0    0  501    0  0.00000000000E+00  0.00000000000E+00  0.22971615049E+04  0.22971615049E+04  0.50400001928E-02 0. -1.
       -1   -1    0    0    0  501  0.00000000000E+00  0.00000000000E+00 -0.12236405998E+04  0.12236405998E+04  0.50400001928E-02 0.  1.
    10030    2    1    2    0    0  0.00000000000E+00  0.00000000000E+00  0.10735209051E+04  0.35208021048E+04  0.33531478236E+04 0.  0.
        3    1    3    3  502    0  0.11921836193E+04  0.65438347167E+03  0.15662847099E+04  0.20743112864E+04  0.10100000352E+00 0. -1.
       -3    1    3    3    0  502 -0.11921836193E+04 -0.65438347167E+03 -0.49276380479E+03  0.14464908184E+04  0.10100000352E+00 0.  1.
</event>
<event>
 5   0  0.1897313E-07  0.3407541E+04  0.7818609E-02  0.8136058E-01
       -2   -1    0    0    0  501  0.00000000000E+00  0.00000000000E+00  0.16104416025E+04  0.16104416025E+04  0.25500000920E-02 0. -1.
        2   -1    0    0  501    0  0.00000000000E+00  0.00000000000E+00 -0.18025076212E+04  0.18025076213E+04  0.25500000920E-02 0.  1.
    10030    2    1    2    0    0  0.00000000000E+00  0.00000000000E+00 -0.19206601877E+03  0.34129492237E+04  0.34075406158E+04 0.  0.
        3    1    3    3  502    0  0.43322848444E+03  0.10977245391E+04 -0.13268639992E+04  0.17757404557E+04  0.10100000352E+00 0.  1.
       -3    1    3    3    0  502 -0.43322848444E+03 -0.10977245391E+04  0.11347979804E+04  0.16372087680E+04  0.10100000352E+00 0. -1.
</event>
<event>
 5   0  0.6584420E-08  0.3364139E+04  0.7818609E-02  0.8146764E-01
        1   -1    0    0  501    0  0.00000000000E+00  0.00000000000E+00  0.25417449463E+04  0.25417449463E+04  0.50400001928E-02 0.  1.
       -1   -1    0    0    0  501  0.00000000000E+00  0.00000000000E+00 -0.11131554214E+04  0.11131554214E+04  0.50400001928E-02 0. -1.
    10030    2    1    2    0    0  0.00000000000E+00  0.00000000000E+00  0.14285895249E+04  0.36549003676E+04  0.33641386218E+04 0.  0.
        1    1    3    3  502    0 -0.76342283486E+03 -0.33548512584E+03  0.23013721402E+04  0.24477905184E+04  0.50400001928E-02 0.  1.
       -1    1    3    3    0  502  0.76342283486E+03  0.33548512584E+03 -0.87278261529E+03  0.12071098492E+04  0.50400001928E-02 0. -1.
</event>
<event>
 5   0  0.1928004E-07  0.3426298E+04  0.7818609E-02  0.8131482E-01
        2   -1    0    0  501    0  0.00000000000E+00  0.00000000000E+00  0.24131254891E+04  0.24131254891E+04  0.25500000920E-02 0.  1.
       -2   -1    0    0    0  501  0.00000000000E+00  0.00000000000E+00 -0.12162150867E+04  0.12162150867E+04  0.25500000920E-02 0. -1.
    10030    2    1    2    0    0  0.00000000000E+00  0.00000000000E+00  0.11969104024E+04  0.36293405757E+04  0.34262980757E+04 0.  0.
        2    1    3    3  502    0  0.94710512699E+03  0.79141560934E+03 -0.66002988928E+03  0.13996378971E+04  0.25500000920E-02 0. -1.
       -2    1    3    3    0  502 -0.94710512699E+03 -0.79141560934E+03  0.18569402917E+04  0.22297026786E+04  0.25500000920E-02 0.  1.
</event>
<event>
 5   0  0.6311750E-08  0.3396582E+04  0.7818609E-02  0.8138746E-01
        1   -1    0    0  501    0  0.00000000000E+00  0.00000000000E+00  0.21816328192E+04  0.21816328192E+04  0.50400001928E-02 0.  1.
       -1   -1    0    0    0  501  0.00000000000E+00  0.00000000000E+00 -0.13220340432E+04  0.13220340432E+04  0.50400001928E-02 0. -1.
    10030    2    1    2    0    0  0.00000000000E+00  0.00000000000E+00  0.85959877600E+03  0.35036668625E+04  0.33965823157E+04 0.  0.
        4    1    3    3  502    0  0.13338906187E+04  0.32600000906E+03  0.14606305628E+04  0.20047402431E+04  0.12699999809E+01 0.  1.
       -4    1    3    3    0  502 -0.13338906187E+04 -0.32600000906E+03 -0.60103178676E+03  0.14989266193E+04  0.12699999809E+01 0. -1.
</event>
<event>
 5   0  0.6584420E-08  0.3419060E+04  0.7818609E-02  0.8133244E-01
       -1   -1    0    0    0  501  0.00000000000E+00  0.00000000000E+00  0.29506482209E+04  0.29506482209E+04  0.50400001928E-02 0. -1.
        1   -1    0    0  501    0  0.00000000000E+00  0.00000000000E+00 -0.99045793246E+03  0.99045793247E+03  0.50400001928E-02 0.  1.
    10030    2    1    2    0    0  0.00000000000E+00  0.00000000000E+00  0.19601902884E+04  0.39411061533E+04  0.34190600675E+04 0.  0.
        1    1    3    3  502    0  0.48253085666E+03 -0.15957959910E+04  0.14161279601E+04  0.21874229751E+04  0.50400001928E-02 0. -1.
       -1    1    3    3    0  502 -0.48253085666E+03  0.15957959910E+04  0.54406232832E+03  0.17536831783E+04  0.50400001928E-02 0.  1.
</event>
<event>
 5   0  0.6788600E-08  0.3402906E+04  0.7818609E-02  0.8137193E-01
        1   -1    0    0  501    0  0.00000000000E+00  0.00000000000E+00  0.23943664154E+04  0.23943664154E+04  0.50400001928E-02 0. -1.
       -1   -1    0    0    0  501  0.00000000000E+00  0.00000000000E+00 -0.12090640686E+04  0.12090640686E+04  0.50400001928E-02 0.  1.
    10030    2    1    2    0    0  0.00000000000E+00  0.00000000000E+00  0.11853023469E+04  0.36034304840E+04  0.34029060521E+04 0.  0.
        2    1    3    3  502    0 -0.12066184200E+03 -0.12202439524E+03  0.23851788819E+04  0.23913442938E+04  0.25500000920E-02 0. -1.
       -2    1    3    3    0  502  0.12066184200E+03  0.12202439524E+03 -0.11998765350E+04  0.12120861902E+04  0.25500000920E-02 0.  1.
</event>
<event>
 5   0  0.6367111E-08  0.3406195E+04  0.7818609E-02  0.8136387E-01
       -1   -1    0    0    0  501  0.00000000000E+00  0.00000000000E+00  0.22200607343E+04  0.22200607343E+04  0.50400001928E-02 0.  1.
        1   -1    0    0  501    0  0.00000000000E+00  0.00000000000E+00 -0.13065146213E+04  0.13065146213E+04  0.50400001928E-02 0. -1.
    10030    2    1    2    0    0  0.00000000000E+00  0.00000000000E+00  0.91354611305E+03  0.35265753556E+04  0.34061954198E+04 0.  0.
        3    1    3    3  502    0 -0.93924961408E+03  0.13864367840E+04  0.13574205580E+03  0.16801258017E+04  0.10100000352E+00 0.  1.
       -3    1    3    3    0  502  0.93924961408E+03 -0.13864367840E+04  0.77780405725E+03  0.18464495539E+04  0.10100000352E+00 0. -1.
</event>
<event>
 5   0  0.1963852E-07  0.3399090E+04  0.7818609E-02  0.8138130E-01
       -2   -1    0    0    0  501  0.00000000000E+00  0.00000000000E+00  0.12094933750E+04  0.12094933750E+04  0.25500000920E-02 0. -1.
        2   -1    0    0  501    0  0.00000000000E+00  0.00000000000E+00 -0.23881506820E+04  0.23881506820E+04  0.25500000920E-02 0.  1.
    10030    2    1    2    0    0  0.00000000000E+00  0.00000000000E+00 -0.11786573070E+04  0.35976440569E+04  0.33990895418E+04 0.  0.
        4    1    3    3  502    0 -0.71772011785E+03 -0.13457238493E+04  0.20438023227E+03  0.15387877496E+04  0.12699999809E+01 0. -1.
       -4    1    3    3    0  502  0.71772011785E+03  0.13457238493E+04 -0.13830375393E+04  0.20588563073E+04  0.12699999809E+01 0.  1.
</event>
<event>
 5   0  0.1963852E-07  0.3408090E+04  0.7818609E-02  0.8135924E-01
       -2   -1    0    0    0  501  0.00000000000E+00  0.00000000000E+00  0.13124816563E+04  0.13124816563E+04  0.25500000920E-02 0. -1.
        2   -1    0    0  501    0  0.00000000000E+00  0.00000000000E+00 -0.22124271227E+04  0.22124271227E+04  0.25500000920E-02 0.  1.
    10030    2    1    2    0    0  0.00000000000E+00  0.00000000000E+00 -0.89994546640E+03  0.35249087790E+04  0.34080903828E+04 0.  0.
        4    1    3    3  502    0 -0.16324912173E+04  0.36851088558E+03 -0.11813174382E+03  0.16777319718E+04  0.12699999809E+01 0. -1.
       -4    1    3    3    0  502  0.16324912173E+04 -0.36851088558E+03 -0.78181372258E+03  0.18471768072E+04  0.12699999809E+01 0.  1.
</event>
<event>
 5   0  0.6788600E-08  0.3402522E+04  0.7818609E-02  0.8137288E-01
        1   -1    0    0  501    0  0.00000000000E+00  0.00000000000E+00  0.27204544252E+04  0.27204544252E+04  0.50400001928E-02 0. -1.
       -1   -1    0    0    0  501  0.00000000000E+00  0.00000000000E+00 -0.10638989975E+04  0.10638989975E+04  0.50400001928E-02 0.  1.
    10030    2    1    2    0    0  0.00000000000E+00  0.00000000000E+00  0.16565554277E+04  0.37843534227E+04  0.34025218504E+04 0.  0.
        2    1    3    3  502    0  0.15217724490E+04 -0.27744072731E+03  0.16159337809E+04  0.22369637297E+04  0.25500000920E-02 0.  1.
       -2    1    3    3    0  502 -0.15217724490E+04  0.27744072731E+03  0.40621646778E+02  0.15473896929E+04  0.25500000920E-02 0. -1.
</event>
<event>
 5   0  0.1963852E-07  0.3409502E+04  0.7818609E-02  0.8135578E-01
       -2   -1    0    0    0  501  0.00000000000E+00  0.00000000000E+00  0.16838125767E+04  0.16838125767E+04  0.25500000920E-02 0.  1.
        2   -1    0    0  501    0  0.00000000000E+00  0.00000000000E+00 -0.17259497020E+04  0.17259497020E+04  0.25500000920E-02 0. -1.
    10030    2    1    2    0    0  0.00000000000E+00  0.00000000000E+00 -0.42137125283E+02  0.34097622788E+04  0.34095019080E+04 0.  0.
        4    1    3    3  502    0  0.23421220741E+03 -0.11451683793E+04 -0.12620937155E+04  0.17202174673E+04  0.12699999809E+01 0. -1.
       -4    1    3    3    0  502 -0.23421220741E+03  0.11451683793E+04  0.12199565902E+04  0.16895448115E+04  0.12699999809E+01 0.  1.
</event>
<event>
 5   0  0.1970449E-07  0.3370045E+04  0.7818609E-02  0.8145298E-01
       -2   -1    0    0    0  501  0.00000000000E+00  0.00000000000E+00  0.15122352150E+04  0.15122352150E+04  0.25500000920E-02 0.  1.
        2   -1    0    0  501    0  0.00000000000E+00  0.00000000000E+00 -0.18775524581E+04  0.18775524581E+04  0.25500000920E-02 0. -1.
    10030    2    1    2    0    0  0.00000000000E+00  0.00000000000E+00 -0.36531724309E+03  0.33897876731E+04  0.33700450710E+04 0.  0.
        1    1    3    3  502    0 -0.12933903283E+04  0.41798530408E+03 -0.11843493714E+04  0.18028459971E+04  0.50400001928E-02 0. -1.
       -1    1    3    3    0  502  0.12933903283E+04 -0.41798530408E+03  0.81903212833E+03  0.15869416760E+04  0.50400001928E-02 0.  1.
</event>
<event>
 5   0  0.1963852E-07  0.3398916E+04  0.7818609E-02  0.8138172E-01
        2   -1    0    0  501    0  0.00000000000E+00  0.00000000000E+00  0.23817344178E+04  0.23817344178E+04  0.25500000920E-02 0. -1.
       -2   -1    0    0    0  501  0.00000000000E+00  0.00000000000E+00 -0.12126278460E+04  0.12126278460E+04  0.25500000920E-02 0.  1.
    10030    2    1    2    0    0  0.00000000000E+00  0.00000000000E+00  0.11691065718E+04  0.35943622638E+04  0.33989159900E+04 0.  0.
        4    1    3    3  502    0 -0.14174473675E+03  0.15450269828E+04  0.13179417109E+04  0.20357239288E+04  0.12699999809E+01 0. -1.
       -4    1    3    3    0  502  0.14174473675E+03 -0.15450269828E+04 -0.14883513909E+03  0.15586383350E+04  0.12699999809E+01 0.  1.
</event>
<event>
 5   0  0.6341535E-08  0.3394222E+04  0.7818609E-02  0.8139326E-01
        1   -1    0    0  501    0  0.00000000000E+00  0.00000000000E+00  0.16450256730E+04  0.16450256730E+04  0.50400001928E-02 0. -1.
       -1   -1    0    0    0  501  0.00000000000E+00  0.00000000000E+00 -0.17508454800E+04  0.17508454800E+04  0.50400001928E-02 0.  1.
    10030    2    1    2    0    0  0.00000000000E+00  0.00000000000E+00 -0.10581980699E+03  0.33958711530E+04  0.33942220104E+04 0.  0.
        5    1    3    3  502    0  0.10587022465E+04 -0.91967313033E+03  0.90333403532E+03  0.16681377589E+04  0.46999998093E+01 0. -1.
       -5    1    3    3    0  502 -0.10587022465E+04  0.91967313033E+03 -0.10091538423E+04  0.17277333940E+04  0.46999998093E+01 0.  1.
</event>
<event>
 5   0  0.1986613E-07  0.3350861E+04  0.7818609E-02  0.8150073E-01
       -2   -1    0    0    0  501  0.00000000000E+00  0.00000000000E+00  0.16147267182E+04  0.16147267182E+04  0.25500000920E-02 0.  1.
        2   -1    0    0  501    0  0.00000000000E+00  0.00000000000E+00 -0.17384165783E+04  0.17384165783E+04  0.25500000920E-02 0. -1.
    10030    2    1    2    0    0  0.00000000000E+00  0.00000000000E+00 -0.12368986010E+03  0.33531432965E+04  0.33508612006E+04 0.  0.
        5    1    3    3  502    0 -0.77277569700E+03 -0.39599070506E+03  0.13719793612E+04  0.16236811183E+04  0.46999998093E+01 0.  1.
       -5    1    3    3    0  502  0.77277569700E+03  0.39599070506E+03 -0.14956692213E+04  0.17294621782E+04  0.46999998093E+01 0. -1.
</event>
<event>
 5   0  0.6341535E-08  0.3314521E+04  0.7818609E-02  0.8159210E-01
        1   -1    0    0  501    0  0.00000000000E+00  0.00000000000E+00  0.18847909024E+04  0.18847909024E+04  0.50400001928E-02 0.  1.
       -1   -1    0    0    0  501  0.00000000000E+00  0.00000000000E+00 -0.14571970310E+04  0.14571970310E+04  0.50400001928E-02 0. -1.
    10030    2    1    2    0    0  0.00000000000E+00  0.00000000000E+00  0.42759387135E+03  0.33419879334E+04  0.33145206031E+04 0.  0.
        5    1    3    3  502    0  0.20284053374E+03 -0.10105700037E+04 -0.10946836028E+04  0.15035791614E+04  0.46999998093E+01 0. -1.
       -5    1    3    3    0  502 -0.20284053374E+03  0.10105700037E+04  0.15222774741E+04  0.18384087719E+04  0.46999998093E+01 0.  1.
</event>
<event>
 5   0  0.6367111E-08  0.3393657E+04  0.7818609E-02  0.8139465E-01
       -1   -1    0    0    0  501  0.00000000000E+00  0.00000000000E+00  0.94010940368E+03  0.94010940369E+03  0.50400001928E-02 0.  1.
        1   -1    0    0  501    0  0.00000000000E+00  0.00000000000E+00 -0.30626512941E+04  0.30626512941E+04  0.50400001928E-02 0. -1.
    10030    2    1    2    0    0  0.00000000000E+00  0.00000000000E+00 -0.21225418904E+04  0.40027606978E+04  0.33936571906E+04 0.  0.
        3    1    3    3  502    0  0.12487223115E+04  0.61591386048E+03 -0.22051687136E+04  0.26079544399E+04  0.10100000352E+00 0. -1.
       -3    1    3    3    0  502 -0.12487223115E+04 -0.61591386048E+03  0.82626823222E+02  0.13948062579E+04  0.10100000352E+00 0.  1.
</event>
<event>
 5   0  0.1897313E-07  0.3384692E+04  0.7818609E-02  0.8141674E-01
        2   -1    0    0  501    0  0.00000000000E+00  0.00000000000E+00  0.23075765721E+04  0.23075765721E+04  0.25500000920E-02 0. -1.
       -2   -1    0    0    0  501  0.00000000000E+00  0.00000000000E+00 -0.12411438135E+04  0.12411438135E+04  0.25500000920E-02 0.  1.
    10030    2    1    2    0    0  0.00000000000E+00  0.00000000000E+00  0.10664327586E+04  0.35487203856E+04  0.33846916472E+04 0.  0.
        3    1    3    3  502    0  0.82116453249E+03 -0.13632627878E+04  0.11366403942E+04  0.19556962990E+04  0.10100000352E+00 0. -1.
       -3    1    3    3    0  502 -0.82116453249E+03  0.13632627878E+04 -0.70207635564E+02  0.15930240866E+04  0.10100000352E+00 0.  1.
</event>
<event>
 5   0  0.6584420E-08  0.3398580E+04  0.7818609E-02  0.8138255E-01
       -1   -1    0    0    0  501  0.00000000000E+00  0.00000000000E+00  0.16154214490E+04  0.16154214490E+04  0.50400001928E-02 0.  1.
        1   -1    0    0  501    0  0.00000000000E+00  0.00000000000E+00 -0.17875127360E+04  0.17875127360E+04  0.50400001928E-02 0. -1.
    10030    2    1    2    0    0  0.00000000000E+00  0.00000000000E+00 -0.17209128697E+03  0.34029341850E+04  0.33985799470E+04 0.  0.
        1    1    3    3  502    0  0.15193943953E+04 -0.73301490645E+03 -0.29055284144E+03  0.17118093163E+04  0.50400001928E-02 0.  1.
       -1    1    3    3    0  502 -0.15193943953E+04  0.73301490645E+03  0.11846155447E+03  0.16911248687E+04  0.50400001928E-02 0. -1.
</event>
<event>
 5   0  0.6311750E-08  0.3397668E+04  0.7818609E-02  0.8138479E-01
       -1   -1    0    0    0  501  0.00000000000E+00  0.00000000000E+00  0.17489040776E+04  0.17489040776E+04  0.50400001928E-02 0. -1.
        1   -1    0    0  501    0  0.00000000000E+00  0.00000000000E+00 -0.16501974715E+04  0.16501974715E+04  0.50400001928E-02 0.  1.
    10030    2    1    2    0    0  0.00000000000E+00  0.00000000000E+00  0.98706606018E+02  0.33991015491E+04  0.33976680749E+04 0.  0.
        4    1    3    3  502    0  0.86882877950E+03 -0.92391146587E+03 -0.10814154000E+04  0.16667143502E+04  0.12699999809E+01 0.  1.
       -4    1    3    3    0  502 -0.86882877950E+03  0.92391146587E+03  0.11801220060E+04  0.17323871989E+04  0.12699999809E+01 0. -1.
</event>
<event>
 5   0  0.6341535E-08  0.3401714E+04  0.7818609E-02  0.8137486E-01
        1   -1    0    0  501    0  0.00000000000E+00  0.00000000000E+00  0.23019024948E+04  0.23019024948E+04  0.50400001928E-02 0.  1.
       -1   -1    0    0    0  501  0.00000000000E+00  0.00000000000E+00 -0.12567496618E+04  0.12567496618E+04  0.50400001928E-02 0. -1.
    10030    2    1    2    0    0  0.00000000000E+00  0.00000000000E+00  0.10451528330E+04  0.35586521566E+04  0.34017143806E+04 0.  0.
        5    1    3    3  502    0 -0.34209185630E+03  0.56171112082E+03  0.21634905802E+04  0.22612518219E+04  0.46999998093E+01 0.  1.
       -5    1    3    3    0  502  0.34209185630E+03 -0.56171112082E+03 -0.11183377472E+04  0.12974003346E+04  0.46999998093E+01 0. -1.
</event>
<event>
 5   0  0.6584420E-08  0.3387360E+04  0.7818609E-02  0.8141016E-01
        1   -1    0    0  501    0  0.00000000000E+00  0.00000000000E+00  0.26129125706E+04  0.26129125706E+04  0.50400001928E-02 0. -1.
       -1   -1    0    0    0  501  0.00000000000E+00  0.00000000000E+00 -0.10978368744E+04  0.10978368744E+04  0.50400001928E-02 0.  1.
    10030    2    1    2    0    0  0.00000000000E+00  0.00000000000E+00  0.15150756962E+04  0.37107494450E+04  0.33873598980E+04 0.  0.
        1    1    3    3  502    0 -0.13237864345E+04 -0.97201476750E+03  0.30410274024E+03  0.16702400154E+04  0.50400001928E-02 0.  1.
       -1    1    3    3    0  502  0.13237864345E+04  0.97201476750E+03  0.12109729560E+04  0.20405094296E+04  0.50400001928E-02 0. -1.
</event>
<event>
 5   0  0.6584420E-08  0.3399587E+04  0.7818609E-02  0.8138008E-01
       -1   -1    0    0    0  501  0.00000000000E+00  0.00000000000E+00  0.18200090313E+04  0.18200090313E+04  0.50400001928E-02 0.  1.
        1   -1    0    0  501    0  0.00000000000E+00  0.00000000000E+00 -0.15875180794E+04  0.15875180794E+04  0.50400001928E-02 0. -1.
    10030    2    1    2    0    0  0.00000000000E+00  0.00000000000E+00  0.23249095192E+03  0.34075271108E+04  0.33995865878E+04 0.  0.
        1    1    3    3  502    0 -0.15785989527E+04 -0.51516218732E+03  0.48031626252E+03  0.17286036112E+04  0.50400001928E-02 0.  1.
       -1    1    3    3    0  502  0.15785989527E+04  0.51516218732E+03 -0.24782531060E+03  0.16789234995E+04  0.50400001928E-02 0. -1.
</event>
<event>
 5   0  0.1963852E-07  0.3403216E+04  0.7818609E-02  0.8137117E-01
       -2   -1    0    0    0  501  0.00000000000E+00  0.00000000000E+00  0.14935586230E+04  0.14935586230E+04  0.25500000920E-02 0. -1.
        2   -1    0    0  501    0  0.00000000000E+00  0.00000000000E+00 -0.19386379971E+04  0.19386379971E+04  0.25500000920E-02 0.  1.
    10030    2    1    2    0    0  0.00000000000E+00  0.00000000000E+00 -0.44507937415E+03  0.34321966201E+04  0.34032158306E+04 0.  0.
        4    1    3    3  502    0 -0.89083457185E+03 -0.11765284643E+04  0.63182397777E+03  0.16053063924E+04  0.12699999809E+01 0. -1.
       -4    1    3    3    0  502  0.89083457185E+03  0.11765284643E+04 -0.10769033519E+04  0.18268902277E+04  0.12699999809E+01 0.  1.
</event>
<event>
 5   0  0.6311750E-08  0.3439855E+04  0.7818609E-02  0.8128193E-01
       -1   -1    0    0    0  501  0.00000000000E+00  0.00000000000E+00  0.16750597815E+04  0.16750597815E+04  0.50400001928E-02 0. -1.
        1   -1    0    0  501    0  0.00000000000E+00  0.00000000000E+00 -0.17659974480E+04  0.17659974480E+04  0.50400001928E-02 0.  1.
    10030    2    1    2    0    0  0.00000000000E+00  0.00000000000E+00 -0.90937666454E+02  0.34410572295E+04  0.34398554036E+04 0.  0.
        4    1    3    3  502    0  0.18499589899E+03 -0.17068556839E+04 -0.14831466548E+03  0.17232465469E+04  0.12699999809E+01 0. -1.
       -4    1    3    3    0  502 -0.18499589899E+03  0.17068556839E+04  0.57376999028E+02  0.17178106826E+04  0.12699999809E+01 0.  1.
</event>
<event>
 5   0  0.6584420E-08  0.3396011E+04  0.7818609E-02  0.8138886E-01
        1   -1    0    0  501    0  0.00000000000E+00  0.00000000000E+00  0.13497253620E+04  0.13497253620E+04  0.50400001928E-02 0. -1.
       -1   -1    0    0    0  501  0.00000000000E+00  0.00000000000E+00 -0.21361549818E+04  0.21361549818E+04  0.50400001928E-02 0.  1.
    10030    2    1    2    0    0  0.00000000000E+00  0.00000000000E+00 -0.78642961979E+03  0.34858803438E+04  0.33960109282E+04 0.  0.
        1    1    3    3  502    0  0.56559789256E+03  0.24753155042E+02  0.12499950479E+04  0.13722249504E+04  0.50400001928E-02 0. -1.
       -1    1    3    3    0  502 -0.56559789256E+03 -0.24753155042E+02 -0.20364246677E+04  0.21136553934E+04  0.50400001928E-02 0.  1.
</event>
<event>
 5   0  0.6367111E-08  0.3400560E+04  0.7818609E-02  0.8137769E-01
       -1   -1    0    0    0  501  0.00000000000E+00  0.00000000000E+00  0.15119176515E+04  0.15119176515E+04  0.50400001928E-02 0. -1.
        1   -1    0    0  501    0  0.00000000000E+00  0.00000000000E+00 -0.19121098968E+04  0.19121098968E+04  0.50400001928E-02 0.  1.
    10030    2    1    2    0    0  0.00000000000E+00  0.00000000000E+00 -0.40019224529E+03  0.34240275483E+04  0.34005603682E+04 0.  0.
        3    1    3    3  502    0 -0.23634423443E+03  0.15194243709E+03 -0.18885725647E+04  0.19093589090E+04  0.10100000352E+00 0.  1.
       -3    1    3    3    0  502  0.23634423443E+03 -0.15194243709E+03  0.14883803194E+04  0.15146686392E+04  0.10100000352E+00 0. -1.
</event>
<event>
 5   0  0.6367111E-08  0.3396761E+04  0.7818609E-02  0.8138702E-01
       -1   -1    0    0    0  501  0.00000000000E+00  0.00000000000E+00  0.13276690102E+04  0.13276690102E+04  0.50400001928E-02 0.  1.
        1   -1    0    0  501    0  0.00000000000E+00  0.00000000000E+00 -0.21726023191E+04  0.21726023191E+04  0.50400001928E-02 0. -1.
    10030    2    1    2    0    0  0.00000000000E+00  0.00000000000E+00 -0.84493330884E+03  0.35002713293E+04  0.33967612636E+04 0.  0.
        3    1    3    3  502    0 -0.10138463714E+04  0.11679863963E+04  0.30064366757E+03  0.15755834830E+04  0.10100000352E+00 0.  1.
       -3    1    3    3    0  502  0.10138463714E+04 -0.11679863963E+04 -0.11455769764E+04  0.19246878463E+04  0.10100000352E+00 0. -1.
</event>
<event>
 5   0  0.1963852E-07  0.3401230E+04  0.7818609E-02  0.8137605E-01
       -2   -1    0    0    0  501  0.00000000000E+00  0.00000000000E+00  0.20162701225E+04  0.20162701225E+04  0.25500000920E-02 0. -1.
        2   -1    0    0  501    0  0.00000000000E+00  0.00000000000E+00 -0.14343767452E+04  0.14343767452E+04  0.25500000920E-02 0.  1.
    10030    2    1    2    0    0  0.00000000000E+00  0.00000000000E+00  0.58189337731E+03  0.34506468677E+04  0.34012297633E+04 0.  0.
        4    1    3    3  502    0 -0.16980467341E+03 -0.16842846347E+04  0.45591613809E+03  0.17531427482E+04  0.12699999809E+01 0. -1.
       -4    1    3    3    0  502  0.16980467341E+03  0.16842846347E+04  0.12597723922E+03  0.16975041194E+04  0.12699999809E+01 0.  1.
</event>
<event>
 5   0  0.6788600E-08  0.3401169E+04  0.7818609E-02  0.8137619E-01
        1   -1    0    0  501    0  0.00000000000E+00  0.00000000000E+00  0.11731795729E+04  0.11731795729E+04  0.50400001928E-02 0.  1.
       -1   -1    0    0    0  501  0.00000000000E+00  0.00000000000E+00 -0.24650855957E+04  0.24650855957E+04  0.50400001928E-02 0. -1.
    10030    2    1    2    0    0  0.00000000000E+00  0.00000000000E+00 -0.12919060228E+04  0.36382651686E+04  0.34011692497E+04 0.  0.
        2    1    3    3  502    0  0.44078106978E+03 -0.16236236180E+04 -0.38057334074E+03  0.17248993223E+04  0.25500000920E-02 0. -1.
       -2    1    3    3    0  502 -0.44078106978E+03  0.16236236180E+04 -0.91133268208E+03  0.19133658463E+04  0.25500000920E-02 0.  1.
</event>
<event>
 5   0  0.6311750E-08  0.3401429E+04  0.7818609E-02  0.8137556E-01
       -1   -1    0    0    0  501  0.00000000000E+00  0.00000000000E+00  0.15507047356E+04  0.15507047356E+04  0.50400001928E-02 0. -1.
        1   -1    0    0  501    0  0.00000000000E+00  0.00000000000E+00 -0.18652359077E+04  0.18652359077E+04  0.50400001928E-02 0.  1.
    10030    2    1    2    0    0  0.00000000000E+00  0.00000000000E+00 -0.31453117211E+03  0.34159406433E+04  0.34014292026E+04 0.  0.
        4    1    3    3  502    0  0.13415692647E+04 -0.95246807327E+03 -0.58971274336E+03  0.17477889618E+04  0.12699999809E+01 0.  1.
       -4    1    3    3    0  502 -0.13415692647E+04  0.95246807327E+03  0.27518157125E+03  0.16681516815E+04  0.12699999809E+01 0. -1.
</event>
<event>
 5   0  0.1963852E-07  0.3395183E+04  0.7818609E-02  0.8139090E-01
       -2   -1    0    0    0  501  0.00000000000E+00  0.00000000000E+00  0.17368777299E+04  0.17368777299E+04  0.25500000920E-02 0.  1.
        2   -1    0    0  501    0  0.00000000000E+00  0.00000000000E+00 -0.16591934206E+04  0.16591934206E+04  0.25500000920E-02 0. -1.
    10030    2    1    2    0    0  0.00000000000E+00  0.00000000000E+00  0.77684309287E+02  0.33960711505E+04  0.33951825293E+04 0.  0.
        4    1    3    3  502    0  0.14106601613E+04 -0.12503418795E+03 -0.89746846450E+03  0.16766176954E+04  0.12699999809E+01 0. -1.
       -4    1    3    3    0  502 -0.14106601613E+04  0.12503418795E+03  0.97515277379E+03  0.17194534551E+04  0.12699999809E+01 0.  1.
</event>
<event>
 5   0  0.1986613E-07  0.3398257E+04  0.7818609E-02  0.8138334E-01
        2   -1    0    0  501    0  0.00000000000E+00  0.00000000000E+00  0.24019918613E+04  0.24019918613E+04  0.25500000920E-02 0. -1.
       -2   -1    0    0    0  501  0.00000000000E+00  0.00000000000E+00 -0.12019345326E+04  0.12019345326E+04  0.25500000920E-02 0.  1.
    10030    2    1    2    0    0  0.00000000000E+00  0.00000000000E+00  0.12000573287E+04  0.36039263940E+04  0.33982565914E+04 0.  0.
        5    1    3    3  502    0  0.93153943465E+03  0.13023426475E+04  0.12028986967E+04  0.20027105268E+04  0.46999998093E+01 0. -1.
       -5    1    3    3    0  502 -0.93153943465E+03 -0.13023426475E+04 -0.28413680090E+01  0.16012158671E+04  0.46999998093E+01 0.  1.
</event>
<event>
 5   0  0.6311750E-08  0.3399621E+04  0.7818609E-02  0.8137999E-01
       -1   -1    0    0    0  501  0.00000000000E+00  0.00000000000E+00  0.17708555250E+04  0.17708555250E+04  0.50400001928E-02 0. -1.
        1   -1    0    0  501    0  0.00000000000E+00  0.00000000000E+00 -0.16316159295E+04  0.16316159295E+04  0.50400001928E-02 0.  1.
    10030    2    1    2    0    0  0.00000000000E+00  0.00000000000E+00  0.13923959552E+03  0.34024714545E+04  0.33996212044E+04 0.  0.
        4    1    3    3  502    0 -0.64788355684E+03 -0.15298788299E+04  0.42918711069E+03  0.17159503275E+04  0.12699999809E+01 0. -1.
       -4    1    3    3    0  502  0.64788355684E+03  0.15298788299E+04 -0.28994751517E+03  0.16865211270E+04  0.12699999809E+01 0.  1.
</event>
<event>
 5   0  0.1963852E-07  0.3401467E+04  0.7818609E-02  0.8137546E-01
       -2   -1    0    0    0  501  0.00000000000E+00  0.00000000000E+00  0.13549574986E+04  0.13549574986E+04  0.25500000920E-02 0.  1.
        2   -1    0    0  501    0  0.00000000000E+00  0.00000000000E+00 -0.21347496887E+04  0.21347496887E+04  0.25500000920E-02 0. -1.
    10030    2    1    2    0    0  0.00000000000E+00  0.00000000000E+00 -0.77979219010E+03  0.34897071874E+04  0.34014673883E+04 0.  0.
        4    1    3    3  502    0  0.69281179587E+03 -0.82966422785E+03  0.95724096172E+03  0.14438292098E+04  0.12699999809E+01 0.  1.
       -4    1    3    3    0  502 -0.69281179587E+03  0.82966422785E+03 -0.17370331518E+04  0.20458779775E+04  0.12699999809E+01 0. -1.
</event>
<event>
 5   0  0.1897313E-07  0.3401033E+04  0.7818609E-02  0.8137653E-01
        2   -1    0    0  501    0  0.00000000000E+00  0.00000000000E+00  0.20114440647E+04  0.20114440647E+04  0.25500000920E-02 0. -1.
       -2   -1    0    0    0  501  0.00000000000E+00  0.00000000000E+00 -0.14376519101E+04  0.14376519101E+04  0.25500000920E-02 0.  1.
    10030    2    1    2    0    0  0.00000000000E+00  0.00000000000E+00  0.57379215468E+03  0.34490959748E+04  0.34010330205E+04 0.  0.
        3    1    3    3  502    0  0.65168776116E+03  0.12283040373E+04  0.12796729824E+04  0.18897065111E+04  0.10100000352E+00 0. -1.
       -3    1    3    3    0  502 -0.65168776116E+03 -0.12283040373E+04 -0.70588082772E+03  0.15593894636E+04  0.10100000352E+00 0.  1.
</event>
<event>
 5   0  0.6341535E-08  0.3397422E+04  0.7818609E-02  0.8138539E-01
       -1   -1    0    0    0  501  0.00000000000E+00  0.00000000000E+00  0.19228087388E+04  0.19228087388E+04  0.50400001928E-02 0. -1.
        1   -1    0    0  501    0  0.00000000000E+00  0.00000000000E+00 -0.15007308026E+04  0.15007308026E+04  0.50400001928E-02 0.  1.
    10030    2    1    2    0    0  0.00000000000E+00  0.00000000000E+00  0.42207793621E+03  0.34235395414E+04  0.33974215528E+04 0.  0.
        5    1    3    3  502    0 -0.56535586171E+03  0.46284159939E+02  0.18245437132E+04  0.19106939381E+04  0.46999998093E+01 0. -1.
       -5    1    3    3    0  502  0.56535586171E+03 -0.46284159939E+02 -0.14024657770E+04  0.15128456033E+04  0.46999998093E+01 0.  1.
</event>
<event>
 5   0  0.1928004E-07  0.3402267E+04  0.7818609E-02  0.8137350E-01
       -2   -1    0    0    0  501  0.00000000000E+00  0.00000000000E+00  0.31191053138E+04  0.31191053138E+04  0.25500000920E-02 0. -1.
        2   -1    0    0  501    0  0.00000000000E+00  0.00000000000E+00 -0.92778348619E+03  0.92778348620E+03  0.25500000920E-02 0.  1.
    10030    2    1    2    0    0  0.00000000000E+00  0.00000000000E+00  0.21913218276E+04  0.40468888000E+04  0.34022665397E+04 0.  0.
        2    1    3    3  502    0 -0.14216870600E+04  0.77682911018E+03  0.17128069087E+04  0.23576185165E+04  0.25500000920E-02 0.  1.
       -2    1    3    3    0  502  0.14216870600E+04 -0.77682911018E+03  0.47851491889E+03  0.16892702835E+04  0.25500000920E-02 0. -1.
</event>
<event>
 5   0  0.6341535E-08  0.3400099E+04  0.7818609E-02  0.8137882E-01
        1   -1    0    0  501    0  0.00000000000E+00  0.00000000000E+00  0.23586404866E+04  0.23586404866E+04  0.50400001928E-02 0. -1.
       -1   -1    0    0    0  501  0.00000000000E+00  0.00000000000E+00 -0.12253535529E+04  0.12253535529E+04  0.50400001928E-02 0.  1.
    10030    2    1    2    0    0  0.00000000000E+00  0.00000000000E+00  0.11332869338E+04  0.35839940395E+04  0.34000991164E+04 0.  0.
        5    1    3    3  502    0 -0.55859429778E+02 -0.16949118727E+04  0.69269318225E+03  0.18318549252E+04  0.46999998093E+01 0. -1.
       -5    1    3    3    0  502  0.55859429778E+02  0.16949118727E+04  0.44059375153E+03  0.17521391144E+04  0.46999998093E+01 0.  1.
</event>
<event>
 5   0  0.1928004E-07  0.3392281E+04  0.7818609E-02  0.8139803E-01
        2   -1    0    0  501    0  0.00000000000E+00  0.00000000000E+00  0.25416681334E+04  0.25416681334E+04  0.25500000920E-02 0.  1.
       -2   -1    0    0    0  501  0.00000000000E+00  0.00000000000E+00 -0.11318913599E+04  0.11318913599E+04  0.25500000920E-02 0. -1.
    10030    2    1    2    0    0  0.00000000000E+00  0.00000000000E+00  0.14097767736E+04  0.36735594933E+04  0.33922807666E+04 0.  0.
        2    1    3    3  502    0 -0.66680355652E+03 -0.22136517646E+03  0.23766765400E+04  0.24783504393E+04  0.25500000920E-02 0.  1.
       -2    1    3    3    0  502  0.66680355652E+03  0.22136517646E+03 -0.96689976646E+03  0.11952090540E+04  0.25500000920E-02 0. -1.
</event>
<event>
 5   0  0.6367111E-08  0.3416293E+04  0.7818609E-02  0.8133919E-01
        1   -1    0    0  501    0  0.00000000000E+00  0.00000000000E+00  0.13359757956E+04  0.13359757956E+04  0.50400001928E-02 0. -1.
       -1   -1    0    0    0  501  0.00000000000E+00  0.00000000000E+00 -0.21839955549E+04  0.21839955549E+04  0.50400001928E-02 0.  1.
    10030    2    1    2    0    0  0.00000000000E+00  0.00000000000E+00 -0.84801975934E+03  0.35199713505E+04  0.34162934294E+04 0.  0.
        3    1    3    3  502    0 -0.12203682969E+04  0.54395928011E+03  0.67251223000E+03  0.14958152253E+04  0.10100000352E+00 0. -1.
       -3    1    3    3    0  502  0.12203682969E+04 -0.54395928011E+03 -0.15205319893E+04  0.20241561252E+04  0.10100000352E+00 0.  1.
</event>
<event>
 5   0  0.1897313E-07  0.3398544E+04  0.7818609E-02  0.8138264E-01
       -2   -1    0    0    0  501  0.00000000000E+00  0.00000000000E+00  0.11890878046E+04  0.11890878046E+04  0.25500000920E-02 0. -1.
        2   -1    0    0  501    0  0.00000000000E+00  0.00000000000E+00 -0.24283528021E+04  0.24283528021E+04  0.25500000920E-02 0.  1.
    10030    2    1    2    0    0  0.00000000000E+00  0.00000000000E+00 -0.12392649975E+04  0.36174406067E+04  0.33985436306E+04 0.  0.
        3    1    3    3  502    0  0.67601744408E+03 -0.15493964405E+04 -0.80367303374E+03  0.18717690215E+04  0.10100000352E+00 0.  1.
       -3    1    3    3    0  502 -0.67601744408E+03  0.15493964405E+04 -0.43559196374E+03  0.17456715852E+04  0.10100000352E+00 0. -1.
</event>
<event>
 5   0  0.6311750E-08  0.3401102E+04  0.7818609E-02  0.8137636E-01
       -1   -1    0    0    0  501  0.00000000000E+00  0.00000000000E+00  0.14194340945E+04  0.14194340946E+04  0.50400001928E-02 0. -1.
        1   -1    0    0  501    0  0.00000000000E+00  0.00000000000E+00 -0.20373432765E+04  0.20373432765E+04  0.50400001928E-02 0.  1.
    10030    2    1    2    0    0  0.00000000000E+00  0.00000000000E+00 -0.61790918192E+03  0.34567773710E+04  0.34011024736E+04 0.  0.
        4    1    3    3  502    0 -0.27719629763E+03  0.21963278880E+03  0.13816432327E+04  0.14261893229E+04  0.12699999809E+01 0. -1.
       -4    1    3    3    0  502  0.27719629763E+03 -0.21963278880E+03 -0.19995524147E+04  0.20305880481E+04  0.12699999809E+01 0.  1.
</event>
<event>
 5   0  0.6584420E-08  0.3400986E+04  0.7818609E-02  0.8137664E-01
       -1   -1    0    0    0  501  0.00000000000E+00  0.00000000000E+00  0.15547323239E+04  0.15547323239E+04  0.50400001928E-02 0. -1.
        1   -1    0    0  501    0  0.00000000000E+00  0.00000000000E+00 -0.18599194650E+04  0.18599194651E+04  0.50400001928E-02 0.  1.
    10030    2    1    2    0    0  0.00000000000E+00  0.00000000000E+00 -0.30518714119E+03  0.34146517889E+04  0.34009862758E+04 0.  0.
        1    1    3    3  502    0  0.14601211886E+04  0.82057644248E+03  0.14248755248E+03  0.16809527912E+04  0.50400001928E-02 0. -1.
       -1    1    3    3    0  502 -0.14601211886E+04 -0.82057644248E+03 -0.44767469367E+03  0.17336989978E+04  0.50400001928E-02 0.  1.
</event>
<event>
 5   0  0.1928004E-07  0.3405542E+04  0.7818609E-02  0.8136548E-01
       -2   -1    0    0    0  501  0.00000000000E+00  0.00000000000E+00  0.12182665613E+04  0.12182665613E+04  0.25500000920E-02 0. -1.
        2   -1    0    0  501    0  0.00000000000E+00  0.00000000000E+00 -0.23799621288E+04  0.23799621288E+04  0.25500000920E-02 0.  1.
    10030    2    1    2    0    0  0.00000000000E+00  0.00000000000E+00 -0.11616955675E+04  0.35982286901E+04  0.34055415303E+04 0.  0.
        2    1    3    3  502    0  0.15263493458E+04 -0.12599535937E+03 -0.13671389890E+04  0.20529700853E+04  0.25500000920E-02 0.  1.
       -2    1    3    3    0  502 -0.15263493458E+04  0.12599535937E+03  0.20544342146E+03  0.15452586048E+04  0.25500000920E-02 0. -1.
</event>
<event>
 5   0  0.6367111E-08  0.3392384E+04  0.7818609E-02  0.8139778E-01
        1   -1    0    0  501    0  0.00000000000E+00  0.00000000000E+00  0.18470676624E+04  0.18470676624E+04  0.50400001928E-02 0.  1.
       -1   -1    0    0    0  501  0.00000000000E+00  0.00000000000E+00 -0.15576408670E+04  0.15576408670E+04  0.50400001928E-02 0. -1.
    10030    2    1    2    0    0  0.00000000000E+00  0.00000000000E+00  0.28942679540E+03  0.34047085294E+04  0.33923844565E+04 0.  0.
        3    1    3    3  502    0  0.10691144331E+04  0.32379175182E+03 -0.11363331579E+04  0.15934553102E+04  0.10100000352E+00 0. -1.
       -3    1    3    3    0  502 -0.10691144331E+04 -0.32379175182E+03  0.14257599533E+04  0.18112532192E+04  0.10100000352E+00 0.  1.
</event>
<event>
 5   0  0.1963852E-07  0.3396582E+04  0.7818609E-02  0.8138746E-01
        2   -1    0    0  501    0  0.00000000000E+00  0.00000000000E+00  0.23900664235E+04  0.23900664235E+04  0.25500000920E-02 0. -1.
       -2   -1    0    0    0  501  0.00000000000E+00  0.00000000000E+00 -0.12067412534E+04  0.12067412534E+04  0.25500000920E-02 0.  1.
    10030    2    1    2    0    0  0.00000000000E+00  0.00000000000E+00  0.11833251701E+04  0.35968076769E+04  0.33965816649E+04 0.  0.
        4    1    3    3  502    0 -0.42680445969E+03  0.25617136709E+03  0.23110793743E+04  0.23640802236E+04  0.12699999809E+01 0. -1.
       -4    1    3    3    0  502  0.42680445969E+03 -0.25617136709E+03 -0.11277542042E+04  0.12327274533E+04  0.12699999809E+01 0.  1.
</event>
<event>
 5   0  0.1897313E-07  0.3392582E+04  0.7818609E-02  0.8139729E-01
        2   -1    0    0  501    0  0.00000000000E+00  0.00000000000E+00  0.21394441465E+04  0.21394441465E+04  0.25500000920E-02 0. -1.
       -2   -1    0    0    0  501  0.00000000000E+00  0.00000000000E+00 -0.13449300614E+04  0.13449300614E+04  0.25500000920E-02 0.  1.
    10030    2    1    2    0    0  0.00000000000E+00  0.00000000000E+00  0.79451408513E+03  0.34843742079E+04  0.33925817586E+04 0.  0.
        3    1    3    3  502    0  0.97126793343E+03  0.12605018072E+04 -0.20615656335E+03  0.16045955077E+04  0.10100000352E+00 0.  1.
       -3    1    3    3    0  502 -0.97126793343E+03 -0.12605018072E+04  0.10006706485E+04  0.18797787001E+04  0.10100000352E+00 0. -1.
</event>
<event>
 5   0  0.1986613E-07  0.3398449E+04  0.7818609E-02  0.8138287E-01
        2   -1    0    0  501    0  0.00000000000E+00  0.00000000000E+00  0.17066391827E+04  0.17066391827E+04  0.25500000920E-02 0. -1.
       -2   -1    0    0    0  501  0.00000000000E+00  0.00000000000E+00 -0.16918425068E+04  0.16918425068E+04  0.25500000920E-02 0.  1.
    10030    2    1    2    0    0  0.00000000000E+00  0.00000000000E+00  0.14796675879E+02  0.33984816895E+04  0.33984494776E+04 0.  0.
        5    1    3    3  502    0  0.15162138579E+04  0.56581405888E+03  0.52537294828E+03  0.17014960584E+04  0.46999998093E+01 0. -1.
       -5    1    3    3    0  502 -0.15162138579E+04 -0.56581405888E+03 -0.51057627240E+03  0.16969856310E+04  0.46999998093E+01 0.  1.
</event>
<event>
 5   0  0.6311750E-08  0.3401384E+04  0.7818609E-02  0.8137567E-01
       -1   -1    0    0    0  501  0.00000000000E+00  0.00000000000E+00  0.14083312054E+04  0.14083312054E+04  0.50400001928E-02 0. -1.
        1   -1    0    0  501    0  0.00000000000E+00  0.00000000000E+00 -0.20537446220E+04  0.20537446220E+04  0.50400001928E-02 0.  1.
    10030    2    1    2    0    0  0.00000000000E+00  0.00000000000E+00 -0.64541341662E+03  0.34620758274E+04  0.34013836238E+04 0.  0.
        4    1    3    3  502    0 -0.48257270585E+03 -0.33192156084E+03  0.13024365895E+04  0.14280724847E+04  0.12699999809E+01 0. -1.
       -4    1    3    3    0  502  0.48257270585E+03  0.33192156084E+03 -0.19478500061E+04  0.20340033427E+04  0.12699999809E+01 0.  1.
</event>
<event>
 5   0  0.6367111E-08  0.3399547E+04  0.7818609E-02  0.8138017E-01
       -1   -1    0    0    0  501  0.00000000000E+00  0.00000000000E+00  0.17505405657E+04  0.17505405657E+04  0.50400001928E-02 0.  1.
        1   -1    0    0  501    0  0.00000000000E+00  0.00000000000E+00 -0.16504788903E+04  0.16504788903E+04  0.50400001928E-02 0. -1.
    10030    2    1    2    0    0  0.00000000000E+00  0.00000000000E+00  0.10006167542E+03  0.34010194561E+04  0.33995471760E+04 0.  0.
        3    1    3    3  502    0  0.78808155422E+03  0.11970413826E+04 -0.86428489058E+03  0.16736095692E+04  0.10100000352E+00 0. -1.
       -3    1    3    3    0  502 -0.78808155422E+03 -0.11970413826E+04  0.96434656600E+03  0.17274098869E+04  0.10100000352E+00 0.  1.
</event>
<event>
 5   0  0.6341535E-08  0.3401817E+04  0.7818609E-02  0.8137461E-01
       -1   -1    0    0    0  501  0.00000000000E+00  0.00000000000E+00  0.10533837641E+04  0.10533837641E+04  0.50400001928E-02 0.  1.
        1   -1    0    0  501    0  0.00000000000E+00  0.00000000000E+00 -0.27464724793E+04  0.27464724793E+04  0.50400001928E-02 0. -1.
    10030    2    1    2    0    0  0.00000000000E+00  0.00000000000E+00 -0.16930887152E+04  0.37998562434E+04  0.34018168782E+04 0.  0.
        5    1    3    3  502    0 -0.60905005113E+03  0.71415677496E+03 -0.24310055845E+04  0.26059109934E+04  0.46999998093E+01 0. -1.
       -5    1    3    3    0  502  0.60905005113E+03 -0.71415677496E+03  0.73791686925E+03  0.11939452500E+04  0.46999998093E+01 0.  1.
</event>
<event>
 5   0  0.1963852E-07  0.3397828E+04  0.7818609E-02  0.8138440E-01
        2   -1    0    0  501    0  0.00000000000E+00  0.00000000000E+00  0.22724081055E+04  0.22724081056E+04  0.25500000920E-02 0.  1.
       -2   -1    0    0    0  501  0.00000000000E+00  0.00000000000E+00 -0.12701541755E+04  0.12701541755E+04  0.25500000920E-02 0. -1.
    10030    2    1    2    0    0  0.00000000000E+00  0.00000000000E+00  0.10022539300E+04  0.35425622811E+04  0.33978279202E+04 0.  0.
        4    1    3    3  502    0  0.15935079496E+04  0.12284041030E+03  0.11018195073E+04  0.19412277536E+04  0.12699999809E+01 0.  1.
       -4    1    3    3    0  502 -0.15935079496E+04 -0.12284041030E+03 -0.99565577307E+02  0.16013345275E+04  0.12699999809E+01 0. -1.
</event>
<event>
 5   0  0.1970449E-07  0.3420903E+04  0.7818609E-02  0.8132795E-01
        2   -1    0    0  501    0  0.00000000000E+00  0.00000000000E+00  0.20086975166E+04  0.20086975166E+04  0.25500000920E-02 0. -1.
       -2   -1    0    0    0  501  0.00000000000E+00  0.00000000000E+00 -0.14564879534E+04  0.14564879534E+04  0.25500000920E-02 0.  1.
    10030    2    1    2    0    0  0.00000000000E+00  0.00000000000E+00  0.55220956323E+03  0.34651854700E+04  0.34209026499E+04 0.  0.
        1    1    3    3  502    0 -0.50890933875E+02  0.14678239150E+04  0.11641210646E+04  0.18741063965E+04  0.50400001928E-02 0. -1.
       -1    1    3    3    0  502  0.50890933875E+02 -0.14678239150E+04 -0.61191150136E+03  0.15910790735E+04  0.50400001928E-02 0.  1.
</event>
<event>
 5   0  0.1986613E-07  0.3401419E+04  0.7818609E-02  0.8137558E-01
       -2   -1    0    0    0  501  0.00000000000E+00  0.00000000000E+00  0.15437540612E+04  0.15437540612E+04  0.25500000920E-02 0. -1.
        2   -1    0    0  501    0  0.00000000000E+00  0.00000000000E+00 -0.18736229583E+04  0.18736229583E+04  0.25500000920E-02 0.  1.
    10030    2    1    2    0    0  0.00000000000E+00  0.00000000000E+00 -0.32986889711E+03  0.34173770194E+04  0.34014191455E+04 0.  0.
        5    1    3    3  502    0  0.69997280786E+02  0.14581446290E+04 -0.10415562150E+04  0.17933061137E+04  0.46999998093E+01 0.  1.
       -5    1    3    3    0  502 -0.69997280786E+02 -0.14581446290E+04  0.71168731793E+03  0.16240709057E+04  0.46999998093E+01 0. -1.
</event>
<event>
 5   0  0.1963852E-07  0.3393703E+04  0.7818609E-02  0.8139453E-01
       -2   -1    0    0    0  501  0.00000000000E+00  0.00000000000E+00  0.10840658363E+04  0.10840658363E+04  0.25500000920E-02 0.  1.
        2   -1    0    0  501    0  0.00000000000E+00  0.00000000000E+00 -0.26560244108E+04  0.26560244108E+04  0.25500000920E-02 0. -1.
    10030    2    1    2    0    0  0.00000000000E+00  0.00000000000E+00 -0.15719585746E+04  0.37400902471E+04  0.33937031833E+04 0.  0.
        4    1    3    3  502    0  0.11072311161E+04 -0.10474033865E+04  0.35995517951E+02  0.15245694110E+04  0.12699999809E+01 0.  1.
       -4    1    3    3    0  502 -0.11072311161E+04  0.10474033865E+04 -0.16079540925E+04  0.22155208361E+04  0.12699999809E+01 0. -1.
</event>
<event>
 5   0  0.1928004E-07  0.3392189E+04  0.7818609E-02  0.8139826E-01
        2   -1    0    0  501    0  0.00000000000E+00  0.00000000000E+00  0.22675321235E+04  0.22675321235E+04  0.25500000920E-02 0.  1.
       -2   -1    0    0    0  501  0.00000000000E+00  0.00000000000E+00 -0.12686637447E+04  0.12686637447E+04  0.25500000920E-02 0. -1.
    10030    2    1    2    0    0  0.00000000000E+00  0.00000000000E+00  0.99886837879E+03  0.35361958682E+04  0.33921885531E+04 0.  0.
        2    1    3    3  502    0 -0.53923058244E+03 -0.15896739349E+04  0.75243672165E+03  0.18395634973E+04  0.25500000920E-02 0.  1.
       -2    1    3    3    0  502  0.53923058244E+03  0.15896739349E+04  0.24643165714E+03  0.16966323709E+04  0.25500000920E-02 0. -1.
</event>
<event>
 5   0  0.1986613E-07  0.3465895E+04  0.7818609E-02  0.8121920E-01
       -2   -1    0    0    0  501  0.00000000000E+00  0.00000000000E+00  0.20390929467E+04  0.20390929467E+04  0.25500000920E-02 0.  1.
        2   -1    0    0  501    0  0.00000000000E+00  0.00000000000E+00 -0.14727664731E+04  0.14727664731E+04  0.25500000920E-02 0. -1.
    10030    2    1    2    0    0  0.00000000000E+00  0.00000000000E+00  0.56632647364E+03  0.35118594198E+04  0.34658953980E+04 0.  0.
        5    1    3    3  502    0  0.55792653137E+02 -0.26967227812E+03  0.20167738413E+04  0.20354937422E+04  0.46999998093E+01 0.  1.
       -5    1    3    3    0  502 -0.55792653137E+02  0.26967227812E+03 -0.14504473676E+04  0.14763656776E+04  0.46999998093E+01 0. -1.
</event>
<event>
 5   0  0.1986613E-07  0.3392666E+04  0.7818609E-02  0.8139709E-01
        2   -1    0    0  501    0  0.00000000000E+00  0.00000000000E+00  0.11939511396E+04  0.11939511397E+04  0.25500000920E-02 0. -1.
       -2   -1    0    0    0  501  0.00000000000E+00  0.00000000000E+00 -0.24101038144E+04  0.24101038144E+04  0.25500000920E-02 0.  1.
    10030    2    1    2    0    0  0.00000000000E+00  0.00000000000E+00 -0.12161526748E+04  0.36040549541E+04  0.33926663237E+04 0.  0.
        5    1    3    3  502    0 -0.88260696355E+03 -0.13374573256E+04 -0.16859533215E+02  0.16025272178E+04  0.46999998093E+01 0. -1.
       -5    1    3    3    0  502  0.88260696355E+03  0.13374573256E+04 -0.11992931416E+04  0.20015277363E+04  0.46999998093E+01 0.  1.
</event>
<event>
 5   0  0.6788600E-08  0.3394807E+04  0.7818609E-02  0.8139182E-01
        1   -1    0    0  501    0  0.00000000000E+00  0.00000000000E+00  0.19695985104E+04  0.19695985104E+04  0.50400001928E-02 0.  1.
       -1   -1    0    0    0  501  0.00000000000E+00  0.00000000000E+00 -0.14628251975E+04  0.14628251975E+04  0.50400001928E-02 0. -1.
    10030    2    1    2    0    0  0.00000000000E+00  0.00000000000E+00  0.50677331290E+03  0.34324237079E+04  0.33948068163E+04 0.  0.
        2    1    3    3  502    0 -0.13048350544E+04  0.72738493807E+03 -0.56145593451E+03  0.15959060542E+04  0.25500000920E-02 0. -1.
       -2    1    3    3    0  502  0.13048350544E+04 -0.72738493807E+03  0.10682292474E+04  0.18365176537E+04  0.25500000920E-02 0.  1.
</event>
<event>
 5   0  0.6788600E-08  0.3400885E+04  0.7818609E-02  0.8137689E-01
       -1   -1    0    0    0  501  0.00000000000E+00  0.00000000000E+00  0.30689507804E+04  0.30689507804E+04  0.50400001928E-02 0.  1.
        1   -1    0    0  501    0  0.00000000000E+00  0.00000000000E+00 -0.94218038596E+03  0.94218038597E+03  0.50400001928E-02 0. -1.
    10030    2    1    2    0    0  0.00000000000E+00  0.00000000000E+00  0.21267703944E+04  0.40111311664E+04  0.34008853146E+04 0.  0.
        2    1    3    3  502    0 -0.76588488911E+03 -0.81631214800E+03  0.25731387400E+04  0.28060627508E+04  0.25500000920E-02 0.  1.
       -2    1    3    3    0  502  0.76588488911E+03  0.81631214800E+03 -0.44636834551E+03  0.12050684156E+04  0.25500000920E-02 0. -1.
</event>
<event>
 5   0  0.6311750E-08  0.3395261E+04  0.7818609E-02  0.8139070E-01
        4   -1    0    0  501    0  0.00000000000E+00  0.00000000000E+00  0.20519146584E+04  0.20519150514E+04  0.12699999809E+01 0.  1.
       -4   -1    0    0    0  501  0.00000000000E+00  0.00000000000E+00 -0.14045164976E+04  0.14045170718E+04  0.12699999809E+01 0. -1.
    10030    2    1    2    0    0  0.00000000000E+00  0.00000000000E+00  0.64739816077E+03  0.34564321232E+04  0.33952612040E+04 0.  0.
        5    1    3    3  502    0  0.18247639490E+03 -0.90334480458E+03  0.17750772929E+04  0.20000627381E+04  0.46999998093E+01 0.  1.
       -5    1    3    3    0  502 -0.18247639490E+03  0.90334480458E+03 -0.11276791321E+04  0.14563693850E+04  0.46999998093E+01 0. -1.
</event>
<event>
 5   0  0.6341535E-08  0.3408298E+04  0.7818609E-02  0.8135873E-01
        1   -1    0    0  501    0  0.00000000000E+00  0.00000000000E+00  0.17379119747E+04  0.17379119747E+04  0.50400001928E-02 0. -1.
       -1   -1    0    0    0  501  0.00000000000E+00  0.00000000000E+00 -0.16710421107E+04  0.16710421107E+04  0.50400001928E-02 0.  1.
    10030    2    1    2    0    0  0.00000000000E+00  0.00000000000E+00  0.66869864004E+02  0.34089540855E+04  0.34082981645E+04 0.  0.
        5    1    3    3  502    0 -0.65410372735E+03  0.92640725230E+03  0.13056938488E+04  0.17294336067E+04  0.46999998093E+01 0. -1.
       -5    1    3    3    0  502  0.65410372735E+03 -0.92640725230E+03 -0.12388239848E+04  0.16795204787E+04  0.46999998093E+01 0.  1.
</event>
<event>
 5   0  0.1897313E-07  0.3400596E+04  0.7818609E-02  0.8137760E-01
       -2   -1    0    0    0  501  0.00000000000E+00  0.00000000000E+00  0.13826712841E+04  0.13826712841E+04  0.25500000920E-02 0. -1.
        2   -1    0    0  501    0  0.00000000000E+00  0.00000000000E+00 -0.20908903496E+04  0.20908903496E+04  0.25500000920E-02 0.  1.
    10030    2    1    2    0    0  0.00000000000E+00  0.00000000000E+00 -0.70821906557E+03  0.34735616337E+04  0.34005964445E+04 0.  0.
        3    1    3    3  502    0  0.15471836932E+04 -0.67969633094E+03 -0.54588661717E+03  0.17758819476E+04  0.10100000352E+00 0. -1.
       -3    1    3    3    0  502 -0.15471836932E+04  0.67969633094E+03 -0.16233244841E+03  0.16976796861E+04  0.10100000352E+00 0.  1.
</event>
<event>
 5   0  0.6584420E-08  0.3412415E+04  0.7818609E-02  0.8134866E-01
        1   -1    0    0  501    0  0.00000000000E+00  0.00000000000E+00  0.14915499259E+04  0.14915499259E+04  0.50400001928E-02 0.  1.
       -1   -1    0    0    0  501  0.00000000000E+00  0.00000000000E+00 -0.19517572055E+04  0.19517572055E+04  0.50400001928E-02 0. -1.
    10030    2    1    2    0    0  0.00000000000E+00  0.00000000000E+00 -0.46020727962E+03  0.34433071314E+04  0.34124145793E+04 0.  0.
        1    1    3    3  502    0  0.13699056991E+04 -0.10169397102E+04 -0.24858106824E+03  0.17241231238E+04  0.50400001928E-02 0.  1.
       -1    1    3    3    0  502 -0.13699056991E+04  0.10169397102E+04 -0.21162621138E+03  0.17191840076E+04  0.50400001928E-02 0. -1.
</event>
<event>
 5   0  0.6788600E-08  0.3398485E+04  0.7818609E-02  0.8138278E-01
        1   -1    0    0  501    0  0.00000000000E+00  0.00000000000E+00  0.21001198705E+04  0.21001198705E+04  0.50400001928E-02 0.  1.
       -1   -1    0    0    0  501  0.00000000000E+00  0.00000000000E+00 -0.13748855063E+04  0.13748855063E+04  0.50400001928E-02 0. -1.
    10030    2    1    2    0    0  0.00000000000E+00  0.00000000000E+00  0.72523436425E+03  0.34750053768E+04  0.33984845866E+04 0.  0.
        2    1    3    3  502    0 -0.22813127208E+03 -0.88474084784E+03 -0.11023362954E+04  0.14317665848E+04  0.25500000920E-02 0. -1.
       -2    1    3    3    0  502  0.22813127208E+03  0.88474084784E+03  0.18275706596E+04  0.20432387920E+04  0.25500000920E-02 0.  1.
</event>
<event>
 5   0  0.6341535E-08  0.3389421E+04  0.7818609E-02  0.8140508E-01
       -1   -1    0    0    0  501  0.00000000000E+00  0.00000000000E+00  0.17296959274E+04  0.17296959274E+04  0.50400001928E-02 0. -1.
        1   -1    0    0  501    0  0.00000000000E+00  0.00000000000E+00 -0.16604328749E+04  0.16604328749E+04  0.50400001928E-02 0.  1.
    10030    2    1    2    0    0  0.00000000000E+00  0.00000000000E+00  0.69263052576E+02  0.33901288023E+04  0.33894211786E+04 0.  0.
        5    1    3    3  502    0  0.16761033844E+04  0.12234943809E+03  0.25314899223E+03  0.16995288884E+04  0.46999998093E+01 0.  1.
       -5    1    3    3    0  502 -0.16761033844E+04 -0.12234943809E+03 -0.18388593965E+03  0.16905999139E+04  0.46999998093E+01 0. -1.
</event>
<event>
 5   0  0.1928004E-07  0.3406459E+04  0.7818609E-02  0.8136323E-01
        2   -1    0    0  501    0  0.00000000000E+00  0.00000000000E+00  0.19306499514E+04  0.19306499514E+04  0.25500000920E-02 0. -1.
       -2   -1    0    0    0  501  0.00000000000E+00  0.00000000000E+00 -0.15025976382E+04  0.15025976382E+04  0.25500000920E-02 0.  1.
    10030    2    1    2    0    0  0.00000000000E+00  0.00000000000E+00  0.42805231321E+03  0.34332475897E+04  0.34064586052E+04 0.  0.
        2    1    3    3  502    0  0.14737623720E+04 -0.28038974530E+03 -0.59878747502E+03  0.16152833741E+04  0.25500000920E-02 0.  1.
       -2    1    3    3    0  502 -0.14737623720E+04  0.28038974530E+03  0.10268397882E+04  0.18179642156E+04  0.25500000920E-02 0. -1.
</event>
<event>
 5   0  0.1963852E-07  0.3370438E+04  0.7818609E-02  0.8145200E-01
       -2   -1    0    0    0  501  0.00000000000E+00  0.00000000000E+00  0.91777342638E+03  0.91777342638E+03  0.25500000920E-02 0. -1.
        2   -1    0    0  501    0  0.00000000000E+00  0.00000000000E+00 -0.30944059786E+04  0.30944059786E+04  0.25500000920E-02 0.  1.
    10030    2    1    2    0    0  0.00000000000E+00  0.00000000000E+00 -0.21766325522E+04  0.40121794050E+04  0.33704382965E+04 0.  0.
        4    1    3    3  502    0 -0.46242131796E+03 -0.14459122936E+04 -0.19594001335E+04  0.24786581717E+04  0.12699999809E+01 0.  1.
       -4    1    3    3    0  502  0.46242131796E+03  0.14459122936E+04 -0.21723241871E+03  0.15335212332E+04  0.12699999809E+01 0. -1.
</event>
<event>
 5   0  0.6367111E-08  0.3403836E+04  0.7818609E-02  0.8136965E-01
        1   -1    0    0  501    0  0.00000000000E+00  0.00000000000E+00  0.22045879414E+04  0.22045879414E+04  0.50400001928E-02 0. -1.
       -1   -1    0    0    0  501  0.00000000000E+00  0.00000000000E+00 -0.13138621994E+04  0.13138621994E+04  0.50400001928E-02 0.  1.
    10030    2    1    2    0    0  0.00000000000E+00  0.00000000000E+00  0.89072574201E+03  0.35184501407E+04  0.34038359310E+04 0.  0.
        3    1    3    3  502    0  0.67943621715E+03  0.48775014686E+03  0.19774974660E+04  0.21470980455E+04  0.10100000352E+00 0. -1.
       -3    1    3    3    0  502 -0.67943621715E+03 -0.48775014686E+03 -0.10867717239E+04  0.13713520952E+04  0.10100000352E+00 0.  1.
</event>
<event>
 5   0  0.1928004E-07  0.3398199E+04  0.7818609E-02  0.8138348E-01
        2   -1    0    0  501    0  0.00000000000E+00  0.00000000000E+00  0.24968726912E+04  0.24968726912E+04  0.25500000920E-02 0. -1.
       -2   -1    0    0    0  501  0.00000000000E+00  0.00000000000E+00 -0.11562219512E+04  0.11562219512E+04  0.25500000920E-02 0.  1.
    10030    2    1    2    0    0  0.00000000000E+00  0.00000000000E+00  0.13406507400E+04  0.36530946424E+04  0.33981989435E+04 0.  0.
        2    1    3    3  502    0  0.28281974370E+03  0.12490106030E+04 -0.53009182046E+03  0.13860057114E+04  0.25500000920E-02 0.  1.
       -2    1    3    3    0  502 -0.28281974370E+03 -0.12490106030E+04  0.18707425604E+04  0.22670889310E+04  0.25500000920E-02 0. -1.
</event>
<event>
 5   0  0.6341535E-08  0.3401482E+04  0.7818609E-02  0.8137543E-01
        1   -1    0    0  501    0  0.00000000000E+00  0.00000000000E+00  0.19598523268E+04  0.19598523269E+04  0.50400001928E-02 0.  1.
       -1   -1    0    0    0  501  0.00000000000E+00  0.00000000000E+00 -0.14758866781E+04  0.14758866781E+04  0.50400001928E-02 0. -1.
    10030    2    1    2    0    0  0.00000000000E+00  0.00000000000E+00  0.48396564879E+03  0.34357390049E+04  0.34014819948E+04 0.  0.
        5    1    3    3  502    0  0.41355528203E+03  0.15971756549E+04  0.65905760858E+03  0.17766195613E+04  0.46999998093E+01 0.  1.
       -5    1    3    3    0  502 -0.41355528203E+03 -0.15971756549E+04 -0.17509195979E+03  0.16591194437E+04  0.46999998093E+01 0. -1.
</event>
<event>
 5   0  0.6311750E-08  0.3407861E+04  0.7818609E-02  0.8135980E-01
       -1   -1    0    0    0  501  0.00000000000E+00  0.00000000000E+00  0.13078031919E+04  0.13078031919E+04  0.50400001928E-02 0. -1.
        1   -1    0    0  501    0  0.00000000000E+00  0.00000000000E+00 -0.22200427552E+04  0.22200427552E+04  0.50400001928E-02 0.  1.
    10030    2    1    2    0    0  0.00000000000E+00  0.00000000000E+00 -0.91223956334E+03  0.35278459471E+04  0.34078609135E+04 0.  0.
        4    1    3    3  502    0  0.10921257751E+04  0.11756883403E+04 -0.10493543091E+04  0.19173230977E+04  0.12699999809E+01 0. -1.
       -4    1    3    3    0  502 -0.10921257751E+04 -0.11756883403E+04  0.13711474578E+03  0.16105228494E+04  0.12699999809E+01 0.  1.
</event>
<event>
 5   0  0.6788600E-08  0.3398537E+04  0.7818609E-02  0.8138266E-01
       -1   -1    0    0    0  501  0.00000000000E+00  0.00000000000E+00  0.16250863179E+04  0.16250863179E+04  0.50400001928E-02 0.  1.
        1   -1    0    0  501    0  0.00000000000E+00  0.00000000000E+00 -0.17768364668E+04  0.17768364668E+04  0.50400001928E-02 0. -1.
    10030    2    1    2    0    0  0.00000000000E+00  0.00000000000E+00 -0.15175014891E+03  0.34019227847E+04  0.33985365270E+04 0.  0.
        2    1    3    3  502    0  0.36229749011E+03  0.39174321194E+03  0.15390490021E+04  0.16289241991E+04  0.25500000920E-02 0.  1.
       -2    1    3    3    0  502 -0.36229749011E+03 -0.39174321194E+03 -0.16907991510E+04  0.17729985856E+04  0.25500000920E-02 0. -1.
</event>
<event>
 5   0  0.6341535E-08  0.3405962E+04  0.7818609E-02  0.8136445E-01
       -1   -1    0    0    0  501  0.00000000000E+00  0.00000000000E+00  0.16300584083E+04  0.16300584083E+04  0.50400001928E-02 0.  1.
        1   -1    0    0  501    0  0.00000000000E+00  0.00000000000E+00 -0.17791655261E+04  0.17791655262E+04  0.50400001928E-02 0. -1.
    10030    2    1    2    0    0  0.00000000000E+00  0.00000000000E+00 -0.14910711782E+03  0.34092239345E+04  0.34059616708E+04 0.  0.
        5    1    3    3  502    0  0.82946657934E+03 -0.14491335877E+04 -0.40971554068E+03  0.17192707395E+04  0.46999998093E+01 0. -1.
       -5    1    3    3    0  502 -0.82946657934E+03  0.14491335877E+04  0.26060842286E+03  0.16899531950E+04  0.46999998093E+01 0.  1.
</event>
<event>
 5   0  0.6584420E-08  0.3434789E+04  0.7818609E-02  0.8129420E-01
       -1   -1    0    0    0  501  0.00000000000E+00  0.00000000000E+00  0.11623104257E+04  0.11623104257E+04  0.50400001928E-02 0.  1.
        1   -1    0    0  501    0  0.00000000000E+00  0.00000000000E+00 -0.25375699150E+04  0.25375699150E+04  0.50400001928E-02 0. -1.
    10030    2    1    2    0    0  0.00000000000E+00  0.00000000000E+00 -0.13752594893E+04  0.36998803407E+04  0.34347890580E+04 0.  0.
        1    1    3    3  502    0 -0.14624832985E+03 -0.13580877995E+04 -0.18089578595E+04  0.22667420636E+04  0.50400001928E-02 0. -1.
       -1    1    3    3    0  502  0.14624832985E+03  0.13580877995E+04  0.43369837022E+03  0.14331382772E+04  0.50400001928E-02 0.  1.
</event>
<event>
 5   0  0.1897313E-07  0.3409080E+04  0.7818609E-02  0.8135681E-01
       -2   -1    0    0    0  501  0.00000000000E+00  0.00000000000E+00  0.10747530193E+04  0.10747530193E+04  0.25500000920E-02 0.  1.
        2   -1    0    0  501    0  0.00000000000E+00  0.00000000000E+00 -0.27033709005E+04  0.27033709005E+04  0.25500000920E-02 0. -1.
    10030    2    1    2    0    0  0.00000000000E+00  0.00000000000E+00 -0.16286178812E+04  0.37781239198E+04  0.34090796632E+04 0.  0.
        3    1    3    3  502    0  0.11361933077E+04  0.87533839456E+03 -0.18350478627E+04  0.23290670248E+04  0.10100000352E+00 0. -1.
       -3    1    3    3    0  502 -0.11361933077E+04 -0.87533839456E+03  0.20642998151E+03  0.14490568950E+04  0.10100000352E+00 0.  1.
</event>
<event>
 5   0  0.1897313E-07  0.3368295E+04  0.7818609E-02  0.8145732E-01
        2   -1    0    0  501    0  0.00000000000E+00  0.00000000000E+00  0.16377306071E+04  0.16377306071E+04  0.25500000920E-02 0.  1.
       -2   -1    0    0    0  501  0.00000000000E+00  0.00000000000E+00 -0.17318797574E+04  0.17318797574E+04  0.25500000920E-02 0. -1.
    10030    2    1    2    0    0  0.00000000000E+00  0.00000000000E+00 -0.94149150350E+02  0.33696103645E+04  0.33682948128E+04 0.  0.
        3    1    3    3  502    0 -0.12058620454E+04 -0.48764249049E+02  0.11280634304E+04  0.16519710463E+04  0.10100000352E+00 0.  1.
       -3    1    3    3    0  502  0.12058620454E+04  0.48764249049E+02 -0.12222125808E+04  0.17176393182E+04  0.10100000352E+00 0. -1.
</event>
<event>
 5   0  0.6341535E-08  0.3393347E+04  0.7818609E-02  0.8139541E-01
        1   -1    0    0  501    0  0.00000000000E+00  0.00000000000E+00  0.22465339079E+04  0.22465339079E+04  0.50400001928E-02 0. -1.
       -1   -1    0    0    0  501  0.00000000000E+00  0.00000000000E+00 -0.12813965160E+04  0.12813965161E+04  0.50400001928E-02 0.  1.
    10030    2    1    2    0    0  0.00000000000E+00  0.00000000000E+00  0.96513739182E+03  0.35279304239E+04  0.33933468569E+04 0.  0.
        5    1    3    3  502    0 -0.96474573923E+03  0.43292854120E+02  0.19329125824E+04  0.21607363916E+04  0.46999998093E+01 0. -1.
       -5    1    3    3    0  502  0.96474573923E+03 -0.43292854120E+02 -0.96777519059E+03  0.13671940324E+04  0.46999998093E+01 0.  1.
</event>
<event>
 5   0  0.6367111E-08  0.3395143E+04  0.7818609E-02  0.8139099E-01
       -1   -1    0    0    0  501  0.00000000000E+00  0.00000000000E+00  0.25499515422E+04  0.25499515422E+04  0.50400001928E-02 0.  1.
        1   -1    0    0  501    0  0.00000000000E+00  0.00000000000E+00 -0.11301189722E+04  0.11301189722E+04  0.50400001928E-02 0. -1.
    10030    2    1    2    0    0  0.00000000000E+00  0.00000000000E+00  0.14198325701E+04  0.36800705144E+04  0.33951427752E+04 0.  0.
        3    1    3    3  502    0  0.20267299748E+03  0.16584978148E+04  0.10351963614E+04  0.19655337347E+04  0.10100000352E+00 0.  1.
       -3    1    3    3    0  502 -0.20267299748E+03 -0.16584978148E+04  0.38463620871E+03  0.17145367797E+04  0.10100000352E+00 0. -1.
</event>
<event>
 5   0  0.6367111E-08  0.3398251E+04  0.7818609E-02  0.8138336E-01
        1   -1    0    0  501    0  0.00000000000E+00  0.00000000000E+00  0.19600794039E+04  0.19600794039E+04  0.50400001928E-02 0. -1.
       -1   -1    0    0    0  501  0.00000000000E+00  0.00000000000E+00 -0.14729138419E+04  0.14729138419E+04  0.50400001928E-02 0.  1.
    10030    2    1    2    0    0  0.00000000000E+00  0.00000000000E+00  0.48716556200E+03  0.34329932459E+04  0.33982513653E+04 0.  0.
        3    1    3    3  502    0  0.13433546961E+04 -0.88776571402E+03  0.79162157952E+03  0.17942671311E+04  0.10100000352E+00 0. -1.
       -3    1    3    3    0  502 -0.13433546961E+04  0.88776571402E+03 -0.30445601752E+03  0.16387261148E+04  0.10100000352E+00 0.  1.
</event>
<event>
 5   0  0.1928004E-07  0.3401767E+04  0.7818609E-02  0.8137473E-01
        2   -1    0    0  501    0  0.00000000000E+00  0.00000000000E+00  0.24030323259E+04  0.24030323259E+04  0.25500000920E-02 0. -1.
       -2   -1    0    0    0  501  0.00000000000E+00  0.00000000000E+00 -0.12038978609E+04  0.12038978609E+04  0.25500000920E-02 0.  1.
    10030    2    1    2    0    0  0.00000000000E+00  0.00000000000E+00  0.11991344650E+04  0.36069301868E+04  0.34017674681E+04 0.  0.
        2    1    3    3  502    0  0.12088501470E+03  0.14773851345E+04  0.14839740046E+04  0.20974887053E+04  0.25500000920E-02 0. -1.
       -2    1    3    3    0  502 -0.12088501470E+03 -0.14773851345E+04 -0.28483953962E+03  0.15094414814E+04  0.25500000920E-02 0.  1.
</event>
<event>
 5   0  0.1928004E-07  0.3398552E+04  0.7818609E-02  0.8138262E-01
       -2   -1    0    0    0  501  0.00000000000E+00  0.00000000000E+00  0.11740290428E+04  0.11740290428E+04  0.25500000920E-02 0.  1.
        2   -1    0    0  501    0  0.00000000000E+00  0.00000000000E+00 -0.24595117803E+04  0.24595117803E+04  0.25500000920E-02 0. -1.
    10030    2    1    2    0    0  0.00000000000E+00  0.00000000000E+00 -0.12854827375E+04  0.36335408232E+04  0.33985516099E+04 0.  0.
        2    1    3    3  502    0 -0.69207667094E+03 -0.69088326704E+03  0.84304116628E+03  0.12911267231E+04  0.25500000920E-02 0.  1.
       -2    1    3    3    0  502  0.69207667094E+03  0.69088326704E+03 -0.21285239038E+04  0.23424141000E+04  0.25500000920E-02 0. -1.
</event>
<event>
 5   0  0.6311750E-08  0.3385042E+04  0.7818609E-02  0.8141587E-01
        1   -1    0    0  501    0  0.00000000000E+00  0.00000000000E+00  0.29196558039E+04  0.29196558039E+04  0.50400001928E-02 0.  1.
       -1   -1    0    0    0  501  0.00000000000E+00  0.00000000000E+00 -0.98115269470E+03  0.98115269471E+03  0.50400001928E-02 0. -1.
    10030    2    1    2    0    0  0.00000000000E+00  0.00000000000E+00  0.19385031092E+04  0.39008084986E+04  0.33850424870E+04 0.  0.
        4    1    3    3  502    0  0.17458791484E+03 -0.97587888603E+03  0.25500552093E+04  0.27359831365E+04  0.12699999809E+01 0.  1.
       -4    1    3    3    0  502 -0.17458791484E+03  0.97587888603E+03 -0.61155210005E+03  0.11648253621E+04  0.12699999809E+01 0. -1.
</event>
<event>
 5   0  0.1970449E-07  0.3401582E+04  0.7818609E-02  0.8137518E-01
        2   -1    0    0  501    0  0.00000000000E+00  0.00000000000E+00  0.24970900615E+04  0.24970900615E+04  0.25500000920E-02 0. -1.
       -2   -1    0    0    0  501  0.00000000000E+00  0.00000000000E+00 -0.11584246091E+04  0.11584246091E+04  0.25500000920E-02 0.  1.
    10030    2    1    2    0    0  0.00000000000E+00  0.00000000000E+00  0.13386654523E+04  0.36555146706E+04  0.34015823250E+04 0.  0.
        1    1    3    3  502    0 -0.42257271063E+03  0.41831043245E+03 -0.10430893013E+04  0.12006609031E+04  0.50400001928E-02 0.  1.
       -1    1    3    3    0  502  0.42257271063E+03 -0.41831043245E+03  0.23817547536E+04  0.24548537675E+04  0.50400001928E-02 0. -1.
</event>
<event>
 5   0  0.1986613E-07  0.3403025E+04  0.7818609E-02  0.8137164E-01
       -2   -1    0    0    0  501  0.00000000000E+00  0.00000000000E+00  0.13010144665E+04  0.13010144665E+04  0.25500000920E-02 0.  1.
        2   -1    0    0  501    0  0.00000000000E+00  0.00000000000E+00 -0.22252975472E+04  0.22252975472E+04  0.25500000920E-02 0. -1.
    10030    2    1    2    0    0  0.00000000000E+00  0.00000000000E+00 -0.92428308077E+03  0.35263120137E+04  0.34030247141E+04 0.  0.
        5    1    3    3  502    0  0.74544074233E+03  0.60723562794E+03  0.99253510114E+03  0.13818701188E+04  0.46999998093E+01 0.  1.
       -5    1    3    3    0  502 -0.74544074233E+03 -0.60723562794E+03 -0.19168181819E+04  0.21444418949E+04  0.46999998093E+01 0. -1.
</event>
<event>
 5   0  0.1986613E-07  0.3406531E+04  0.7818609E-02  0.8136305E-01
       -2   -1    0    0    0  501  0.00000000000E+00  0.00000000000E+00  0.13255775066E+04  0.13255775066E+04  0.25500000920E-02 0. -1.
        2   -1    0    0  501    0  0.00000000000E+00  0.00000000000E+00 -0.21885660797E+04  0.21885660797E+04  0.25500000920E-02 0.  1.
    10030    2    1    2    0    0  0.00000000000E+00  0.00000000000E+00 -0.86298857309E+03  0.35141435863E+04  0.34065313543E+04 0.  0.
        5    1    3    3  502    0  0.90848559984E+03  0.14345665533E+04 -0.56898861349E+03  0.17908370706E+04  0.46999998093E+01 0.  1.
       -5    1    3    3    0  502 -0.90848559984E+03 -0.14345665533E+04 -0.29399995960E+03  0.17233065158E+04  0.46999998093E+01 0. -1.
</event>
<event>
 5   0  0.1928004E-07  0.3398305E+04  0.7818609E-02  0.8138322E-01
       -2   -1    0    0    0  501  0.00000000000E+00  0.00000000000E+00  0.17341472012E+04  0.17341472012E+04  0.25500000920E-02 0. -1.
        2   -1    0    0  501    0  0.00000000000E+00  0.00000000000E+00 -0.16648643482E+04  0.16648643482E+04  0.25500000920E-02 0.  1.
    10030    2    1    2    0    0  0.00000000000E+00  0.00000000000E+00  0.69282852966E+02  0.33990115494E+04  0.33983053717E+04 0.  0.
        2    1    3    3  502    0 -0.14488907393E+04 -0.25307847351E+03 -0.81629194513E+03  0.16821609994E+04  0.25500000920E-02 0.  1.
       -2    1    3    3    0  502  0.14488907393E+04  0.25307847351E+03  0.88557479809E+03  0.17168505500E+04  0.25500000920E-02 0. -1.
</event>
<event>
 5   0  0.6341535E-08  0.3396660E+04  0.7818609E-02  0.8138727E-01
       -1   -1    0    0    0  501  0.00000000000E+00  0.00000000000E+00  0.99907645992E+03  0.99907645993E+03  0.50400001928E-02 0.  1.
        1   -1    0    0  501    0  0.00000000000E+00  0.00000000000E+00 -0.28869906137E+04  0.28869906137E+04  0.50400001928E-02 0. -1.
    10030    2    1    2    0    0  0.00000000000E+00  0.00000000000E+00 -0.18879141537E+04  0.38860670736E+04  0.33966597487E+04 0.  0.
        5    1    3    3  502    0 -0.55141273102E+03  0.12860456496E+04  0.15718100454E+03  0.14080828708E+04  0.46999998093E+01 0.  1.
       -5    1    3    3    0  502  0.55141273102E+03 -0.12860456496E+04 -0.20450951583E+04  0.24779842028E+04  0.46999998093E+01 0. -1.
</event>
<event>
 5   0  0.1897313E-07  0.3402076E+04  0.7818609E-02  0.8137397E-01
        2   -1    0    0  501    0  0.00000000000E+00  0.00000000000E+00  0.28448778935E+04  0.28448778935E+04  0.25500000920E-02 0.  1.
       -2   -1    0    0    0  501  0.00000000000E+00  0.00000000000E+00 -0.10171020389E+04  0.10171020389E+04  0.25500000920E-02 0. -1.
    10030    2    1    2    0    0  0.00000000000E+00  0.00000000000E+00  0.18277758546E+04  0.38619799324E+04  0.34020764870E+04 0.  0.
        3    1    3    3  502    0  0.37240767377E+03  0.10816923379E+04 -0.51517435643E+03  0.12546515122E+04  0.10100000352E+00 0. -1.
       -3    1    3    3    0  502 -0.37240767377E+03 -0.10816923379E+04  0.23429502111E+04  0.26073284202E+04  0.10100000352E+00 0.  1.
</event>
<event>
 5   0  0.6367111E-08  0.3397066E+04  0.7818609E-02  0.8138627E-01
        1   -1    0    0  501    0  0.00000000000E+00  0.00000000000E+00  0.15466457581E+04  0.15466457581E+04  0.50400001928E-02 0. -1.
       -1   -1    0    0    0  501  0.00000000000E+00  0.00000000000E+00 -0.18653366720E+04  0.18653366720E+04  0.50400001928E-02 0.  1.
    10030    2    1    2    0    0  0.00000000000E+00  0.00000000000E+00 -0.31869091381E+03  0.34119824301E+04  0.33970664116E+04 0.  0.
        3    1    3    3  502    0  0.10576296976E+04 -0.80061174070E+02 -0.14918298370E+04  0.18304498468E+04  0.10100000352E+00 0.  1.
       -3    1    3    3    0  502 -0.10576296976E+04  0.80061174070E+02  0.11731389232E+04  0.15815325833E+04  0.10100000352E+00 0. -1.
</event>
<event>
 5   0  0.1963852E-07  0.3404400E+04  0.7818609E-02  0.8136827E-01
        2   -1    0    0  501    0  0.00000000000E+00  0.00000000000E+00  0.22238715179E+04  0.22238715179E+04  0.25500000920E-02 0.  1.
       -2   -1    0    0    0  501  0.00000000000E+00  0.00000000000E+00 -0.13029014566E+04  0.13029014567E+04  0.25500000920E-02 0. -1.
    10030    2    1    2    0    0  0.00000000000E+00  0.00000000000E+00  0.92097006122E+03  0.35267729745E+04  0.34044003525E+04 0.  0.
        4    1    3    3  502    0  0.13933546124E+04 -0.71888991305E+03 -0.22609286650E+03  0.15840957610E+04  0.12699999809E+01 0.  1.
       -4    1    3    3    0  502 -0.13933546124E+04  0.71888991305E+03  0.11470629277E+04  0.19426772135E+04  0.12699999809E+01 0. -1.
</event>
<event>
 5   0  0.6788600E-08  0.3395796E+04  0.7818609E-02  0.8138939E-01
       -1   -1    0    0    0  501  0.00000000000E+00  0.00000000000E+00  0.15917601642E+04  0.15917601642E+04  0.50400001928E-02 0. -1.
        1   -1    0    0  501    0  0.00000000000E+00  0.00000000000E+00 -0.18111133764E+04  0.18111133764E+04  0.50400001928E-02 0.  1.
    10030    2    1    2    0    0  0.00000000000E+00  0.00000000000E+00 -0.21935321228E+03  0.34028735406E+04  0.33957962986E+04 0.  0.
        2    1    3    3  502    0  0.13782134867E+04 -0.65713622763E+03  0.63454050450E+03  0.16534636641E+04  0.25500000920E-02 0. -1.
       -2    1    3    3    0  502 -0.13782134867E+04  0.65713622763E+03 -0.85389371678E+03  0.17494098765E+04  0.25500000920E-02 0.  1.
</event>
<event>
 5   0  0.6584420E-08  0.3400050E+04  0.7818609E-02  0.8137894E-01
       -1   -1    0    0    0  501  0.00000000000E+00  0.00000000000E+00  0.14679286725E+04  0.14679286725E+04  0.50400001928E-02 0. -1.
        1   -1    0    0  501    0  0.00000000000E+00  0.00000000000E+00 -0.19688180339E+04  0.19688180339E+04  0.50400001928E-02 0.  1.
    10030    2    1    2    0    0  0.00000000000E+00  0.00000000000E+00 -0.50088936144E+03  0.34367467064E+04  0.34000496720E+04 0.  0.
        1    1    3    3  502    0 -0.12661122583E+04  0.46351992240E+03  0.79619896967E+03  0.15658300573E+04  0.50400001928E-02 0. -1.
       -1    1    3    3    0  502  0.12661122583E+04 -0.46351992240E+03 -0.12970883311E+04  0.18709166491E+04  0.50400001928E-02 0.  1.
</event>
<event>
 5   0  0.1986613E-07  0.3397773E+04  0.7818609E-02  0.8138453E-01
       -2   -1    0    0    0  501  0.00000000000E+00  0.00000000000E+00  0.23192591580E+04  0.23192591580E+04  0.25500000920E-02 0.  1.
        2   -1    0    0  501    0  0.00000000000E+00  0.00000000000E+00 -0.12444558653E+04  0.12444558653E+04  0.25500000920E-02 0. -1.
    10030    2    1    2    0    0  0.00000000000E+00  0.00000000000E+00  0.10748032927E+04  0.35637150233E+04  0.33977731898E+04 0.  0.
        5    1    3    3  502    0 -0.14762649286E+03 -0.50048843537E+03 -0.11583178255E+04  0.12704347800E+04  0.46999998093E+01 0. -1.
       -5    1    3    3    0  502  0.14762649286E+03  0.50048843537E+03  0.22331211182E+04  0.22932802433E+04  0.46999998093E+01 0.  1.
</event>
<event>
 5   0  0.6341535E-08  0.3401753E+04  0.7818609E-02  0.8137476E-01
       -1   -1    0    0    0  501  0.00000000000E+00  0.00000000000E+00  0.16836005770E+04  0.16836005770E+04  0.50400001928E-02 0. -1.
        1   -1    0    0  501    0  0.00000000000E+00  0.00000000000E+00 -0.17183296112E+04  0.17183296112E+04  0.50400001928E-02 0.  1.
    10030    2    1    2    0    0  0.00000000000E+00  0.00000000000E+00 -0.34729034246E+02  0.34019301882E+04  0.34017529157E+04 0.  0.
        5    1    3    3  502    0  0.13575411603E+04 -0.50701019651E+03  0.87317685956E+03  0.16918738899E+04  0.46999998093E+01 0. -1.
       -5    1    3    3    0  502 -0.13575411603E+04  0.50701019651E+03 -0.90790589381E+03  0.17100562983E+04  0.46999998093E+01 0.  1.
</event>
<event>
 5   0  0.1897313E-07  0.3386236E+04  0.7818609E-02  0.8141293E-01
       -2   -1    0    0    0  501  0.00000000000E+00  0.00000000000E+00  0.17864906133E+04  0.17864906133E+04  0.25500000920E-02 0. -1.
        2   -1    0    0  501    0  0.00000000000E+00  0.00000000000E+00 -0.16046258159E+04  0.16046258159E+04  0.25500000920E-02 0.  1.
    10030    2    1    2    0    0  0.00000000000E+00  0.00000000000E+00  0.18186479732E+03  0.33911164292E+04  0.33862362339E+04 0.  0.
        3    1    3    3  502    0  0.53426359534E+03 -0.15065442902E+04  0.64989059804E+03  0.17255350148E+04  0.10100000352E+00 0. -1.
       -3    1    3    3    0  502 -0.53426359534E+03  0.15065442902E+04 -0.46802580072E+03  0.16655814144E+04  0.10100000352E+00 0.  1.
</event>
<event>
 5   0  0.1970449E-07  0.3400536E+04  0.7818609E-02  0.8137775E-01
       -2   -1    0    0    0  501  0.00000000000E+00  0.00000000000E+00  0.12028645401E+04  0.12028645401E+04  0.25500000920E-02 0. -1.
        2   -1    0    0  501    0  0.00000000000E+00  0.00000000000E+00 -0.24033562108E+04  0.24033562108E+04  0.25500000920E-02 0.  1.
    10030    2    1    2    0    0  0.00000000000E+00  0.00000000000E+00 -0.12004916707E+04  0.36062207509E+04  0.34005364066E+04 0.  0.
        1    1    3    3  502    0  0.43914210785E+03  0.11453417939E+04  0.64836461762E+03  0.13874546094E+04  0.50400001928E-02 0. -1.
       -1    1    3    3    0  502 -0.43914210785E+03 -0.11453417939E+04 -0.18488562883E+04  0.22187661415E+04  0.50400001928E-02 0.  1.
</event>
<event>
 5   0  0.6788600E-08  0.3409337E+04  0.7818609E-02  0.8135618E-01
        1   -1    0    0  501    0  0.00000000000E+00  0.00000000000E+00  0.11671374035E+04  0.11671374035E+04  0.50400001928E-02 0. -1.
       -1   -1    0    0    0  501  0.00000000000E+00  0.00000000000E+00 -0.24897623775E+04  0.24897623775E+04  0.50400001928E-02 0.  1.
    10030    2    1    2    0    0  0.00000000000E+00  0.00000000000E+00 -0.13226249740E+04  0.36568997810E+04  0.34093370596E+04 0.  0.
        2    1    3    3  502    0  0.12406478170E+04 -0.57668260500E+03 -0.17520735593E+04  0.22229555979E+04  0.25500000920E-02 0.  1.
       -2    1    3    3    0  502 -0.12406478170E+04  0.57668260500E+03  0.42944858530E+03  0.14339441831E+04  0.25500000920E-02 0. -1.
</event>
<event>
 5   0  0.6788600E-08  0.3403887E+04  0.7818609E-02  0.8136953E-01
       -1   -1    0    0    0  501  0.00000000000E+00  0.00000000000E+00  0.17579098064E+04  0.17579098064E+04  0.50400001928E-02 0. -1.
        1   -1    0    0  501    0  0.00000000000E+00  0.00000000000E+00 -0.16477588438E+04  0.16477588438E+04  0.50400001928E-02 0.  1.
    10030    2    1    2    0    0  0.00000000000E+00  0.00000000000E+00  0.11015096254E+03  0.34056686502E+04  0.34038868548E+04 0.  0.
        2    1    3    3  502    0  0.16220069216E+04  0.46672991714E+03 -0.16382698132E+03  0.16957542714E+04  0.25500000920E-02 0. -1.
       -2    1    3    3    0  502 -0.16220069216E+04 -0.46672991714E+03  0.27397794386E+03  0.17099143788E+04  0.25500000920E-02 0.  1.
</event>
<event>
 5   0  0.1897313E-07  0.3372952E+04  0.7818609E-02  0.8144577E-01
        2   -1    0    0  501    0  0.00000000000E+00  0.00000000000E+00  0.19037634865E+04  0.19037634865E+04  0.25500000920E-02 0.  1.
       -2   -1    0    0    0  501  0.00000000000E+00  0.00000000000E+00 -0.14939887132E+04  0.14939887132E+04  0.25500000920E-02 0. -1.
    10030    2    1    2    0    0  0.00000000000E+00  0.00000000000E+00  0.40977477325E+03  0.33977521997E+04  0.33729519187E+04 0.  0.
        3    1    3    3  502    0  0.28179033015E+03  0.12902242181E+04 -0.85168913503E+03  0.15714511497E+04  0.10100000352E+00 0. -1.
       -3    1    3    3    0  502 -0.28179033015E+03 -0.12902242181E+04  0.12614639083E+04  0.18263010500E+04  0.10100000352E+00 0.  1.
</event>
<event>
 5   0  0.1897313E-07  0.3400814E+04  0.7818609E-02  0.8137707E-01
       -2   -1    0    0    0  501  0.00000000000E+00  0.00000000000E+00  0.11852565815E+04  0.11852565815E+04  0.25500000920E-02 0. -1.
        2   -1    0    0  501    0  0.00000000000E+00  0.00000000000E+00 -0.24394586138E+04  0.24394586138E+04  0.25500000920E-02 0.  1.
    10030    2    1    2    0    0  0.00000000000E+00  0.00000000000E+00 -0.12542020323E+04  0.36247151954E+04  0.34008142422E+04 0.  0.
        3    1    3    3  502    0  0.85997390146E+03  0.77941532562E+03  0.69743136277E+03  0.13540509137E+04  0.10100000352E+00 0. -1.
       -3    1    3    3    0  502 -0.85997390146E+03 -0.77941532562E+03 -0.19516333951E+04  0.22706642816E+04  0.10100000352E+00 0.  1.
</event>
<event>
 5   0  0.6311750E-08  0.3400525E+04  0.7818609E-02  0.8137778E-01
        1   -1    0    0  501    0  0.00000000000E+00  0.00000000000E+00  0.20906600387E+04  0.20906600388E+04  0.50400001928E-02 0. -1.
       -1   -1    0    0    0  501  0.00000000000E+00  0.00000000000E+00 -0.13827652396E+04  0.13827652396E+04  0.50400001928E-02 0.  1.
    10030    2    1    2    0    0  0.00000000000E+00  0.00000000000E+00  0.70789479916E+03  0.34734252783E+04  0.34005246827E+04 0.  0.
        4    1    3    3  502    0  0.35962469192E+03 -0.93681050977E+03  0.17559419306E+04  0.20224434546E+04  0.12699999809E+01 0. -1.
       -4    1    3    3    0  502 -0.35962469192E+03  0.93681050977E+03 -0.10480471315E+04  0.14509818238E+04  0.12699999809E+01 0.  1.
</event>
<event>
 5   0  0.6311750E-08  0.3403445E+04  0.7818609E-02  0.8137061E-01
        1   -1    0    0  501    0  0.00000000000E+00  0.00000000000E+00  0.17881778812E+04  0.17881778812E+04  0.50400001928E-02 0. -1.
       -1   -1    0    0    0  501  0.00000000000E+00  0.00000000000E+00 -0.16194466303E+04  0.16194466303E+04  0.50400001928E-02 0.  1.
    10030    2    1    2    0    0  0.00000000000E+00  0.00000000000E+00  0.16873125092E+03  0.34076245114E+04  0.34034445164E+04 0.  0.
        4    1    3    3  502    0 -0.86081162300E+03  0.10064723754E+04  0.11542629485E+04  0.17567890767E+04  0.12699999809E+01 0. -1.
       -4    1    3    3    0  502  0.86081162300E+03 -0.10064723754E+04 -0.98553169762E+03  0.16508354348E+04  0.12699999809E+01 0.  1.
</event>
<event>
 5   0  0.6584420E-08  0.3415974E+04  0.7818609E-02  0.8133997E-01
        1   -1    0    0  501    0  0.00000000000E+00  0.00000000000E+00  0.15416645347E+04  0.15416645347E+04  0.50400001928E-02 0.  1.
       -1   -1    0    0    0  501  0.00000000000E+00  0.00000000000E+00 -0.18922532195E+04  0.18922532195E+04  0.50400001928E-02 0. -1.
    10030    2    1    2    0    0  0.00000000000E+00  0.00000000000E+00 -0.35058868482E+03  0.34339177542E+04  0.34159740510E+04 0.  0.
        1    1    3    3  502    0 -0.11732160701E+04  0.74736174546E+03  0.82098893719E+03  0.16152425083E+04  0.50400001928E-02 0.  1.
       -1    1    3    3    0  502  0.11732160701E+04 -0.74736174546E+03 -0.11715776220E+04  0.18186752459E+04  0.50400001928E-02 0. -1.
</event>
<event>
 5   0  0.6584420E-08  0.3396950E+04  0.7818609E-02  0.8138655E-01
       -1   -1    0    0    0  501  0.00000000000E+00  0.00000000000E+00  0.82900220429E+03  0.82900220431E+03  0.50400001928E-02 0. -1.
        1   -1    0    0  501    0  0.00000000000E+00  0.00000000000E+00 -0.34798678290E+04  0.34798678290E+04  0.50400001928E-02 0.  1.
    10030    2    1    2    0    0  0.00000000000E+00  0.00000000000E+00 -0.26508656248E+04  0.43088700334E+04  0.33969504565E+04 0.  0.
        1    1    3    3  502    0  0.57150458338E+02 -0.75117178289E+03 -0.32563544334E+04  0.33423598577E+04  0.50400001928E-02 0.  1.
       -1    1    3    3    0  502 -0.57150458338E+02  0.75117178289E+03  0.60548880864E+03  0.96651017569E+03  0.50400001928E-02 0. -1.
</event>
<event>
 5   0  0.6788600E-08  0.3378274E+04  0.7818609E-02  0.8143259E-01
       -1   -1    0    0    0  501  0.00000000000E+00  0.00000000000E+00  0.15619175092E+04  0.15619175092E+04  0.50400001928E-02 0.  1.
        1   -1    0    0  501    0  0.00000000000E+00  0.00000000000E+00 -0.18267182077E+04  0.18267182077E+04  0.50400001928E-02 0. -1.
    10030    2    1    2    0    0  0.00000000000E+00  0.00000000000E+00 -0.26480069851E+03  0.33886357169E+04  0.33782736141E+04 0.  0.
        2    1    3    3  502    0 -0.88284803606E+03  0.93384335191E+03 -0.12319831280E+04  0.17802433790E+04  0.25500000920E-02 0. -1.
       -2    1    3    3    0  502  0.88284803606E+03 -0.93384335191E+03  0.96718242952E+03  0.16083923379E+04  0.25500000920E-02 0.  1.
</event>
<event>
 5   0  0.6341535E-08  0.3397477E+04  0.7818609E-02  0.8138526E-01
        1   -1    0    0  501    0  0.00000000000E+00  0.00000000000E+00  0.17020232165E+04  0.17020232166E+04  0.50400001928E-02 0.  1.
       -1   -1    0    0    0  501  0.00000000000E+00  0.00000000000E+00 -0.16954601632E+04  0.16954601632E+04  0.50400001928E-02 0. -1.
    10030    2    1    2    0    0  0.00000000000E+00  0.00000000000E+00  0.65630533666E+01  0.33974833797E+04  0.33974770407E+04 0.  0.
        5    1    3    3  502    0 -0.10988155801E+04 -0.11599677651E+04 -0.57358138347E+03  0.16976273409E+04  0.46999998093E+01 0. -1.
       -5    1    3    3    0  502  0.10988155801E+04  0.11599677651E+04  0.58014443683E+03  0.16998560388E+04  0.46999998093E+01 0.  1.
</event>
<event>
 5   0  0.6788600E-08  0.3404499E+04  0.7818609E-02  0.8136803E-01
        1   -1    0    0  501    0  0.00000000000E+00  0.00000000000E+00  0.27778383273E+04  0.27778383273E+04  0.50400001928E-02 0.  1.
       -1   -1    0    0    0  501  0.00000000000E+00  0.00000000000E+00 -0.10431327218E+04  0.10431327218E+04  0.50400001928E-02 0. -1.
    10030    2    1    2    0    0  0.00000000000E+00  0.00000000000E+00  0.17347056055E+04  0.38209710491E+04  0.34044994082E+04 0.  0.
        2    1    3    3  502    0 -0.54223340941E+03  0.10152112256E+04 -0.54025776804E+03  0.12714359437E+04  0.25500000920E-02 0. -1.
       -2    1    3    3    0  502  0.54223340941E+03 -0.10152112256E+04  0.22749633736E+04  0.25495351055E+04  0.25500000920E-02 0.  1.
</event>
<event>
 5   0  0.1970449E-07  0.3362108E+04  0.7818609E-02  0.8147269E-01
        2   -1    0    0  501    0  0.00000000000E+00  0.00000000000E+00  0.13888069549E+04  0.13888069549E+04  0.25500000920E-02 0.  1.
       -2   -1    0    0    0  501  0.00000000000E+00  0.00000000000E+00 -0.20347983929E+04  0.20347983929E+04  0.25500000920E-02 0. -1.
    10030    2    1    2    0    0  0.00000000000E+00  0.00000000000E+00 -0.64599143800E+03  0.34236053478E+04  0.33621077674E+04 0.  0.
        1    1    3    3  502    0 -0.31077644063E+03 -0.75619447664E+03  0.11727249513E+04  0.14295789219E+04  0.50400001928E-02 0.  1.
       -1    1    3    3    0  502  0.31077644063E+03  0.75619447664E+03 -0.18187163893E+04  0.19940264259E+04  0.50400001928E-02 0. -1.
</event>
<event>
 5   0  0.1970449E-07  0.3402248E+04  0.7818609E-02  0.8137355E-01
        2   -1    0    0  501    0  0.00000000000E+00  0.00000000000E+00  0.13083732523E+04  0.13083732523E+04  0.25500000920E-02 0.  1.
       -2   -1    0    0    0  501  0.00000000000E+00  0.00000000000E+00 -0.22117712421E+04  0.22117712421E+04  0.25500000920E-02 0. -1.
    10030    2    1    2    0    0  0.00000000000E+00  0.00000000000E+00 -0.90339798978E+03  0.35201444945E+04  0.34022476885E+04 0.  0.
        1    1    3    3  502    0 -0.58831552718E+03 -0.47880956461E+03 -0.20271079024E+04  0.21643798665E+04  0.50400001928E-02 0. -1.
       -1    1    3    3    0  502  0.58831552718E+03  0.47880956461E+03  0.11237099126E+04  0.13557646279E+04  0.50400001928E-02 0.  1.
</event>
<event>
 5   0  0.1928004E-07  0.3403004E+04  0.7818609E-02  0.8137169E-01
       -2   -1    0    0    0  501  0.00000000000E+00  0.00000000000E+00  0.12030267015E+04  0.12030267015E+04  0.25500000920E-02 0.  1.
        2   -1    0    0  501    0  0.00000000000E+00  0.00000000000E+00 -0.24065211281E+04  0.24065211281E+04  0.25500000920E-02 0. -1.
    10030    2    1    2    0    0  0.00000000000E+00  0.00000000000E+00 -0.12034944266E+04  0.36095478295E+04  0.34030040698E+04 0.  0.
        2    1    3    3  502    0 -0.30883150504E+03  0.11433345406E+04 -0.18975836281E+04  0.22368313293E+04  0.25500000920E-02 0. -1.
       -2    1    3    3    0  502  0.30883150504E+03 -0.11433345406E+04  0.69408920155E+03  0.13727165002E+04  0.25500000920E-02 0.  1.
</event>
<event>
 5   0  0.6311750E-08  0.3395466E+04  0.7818609E-02  0.8139020E-01
       -1   -1    0    0    0  501  0.00000000000E+00  0.00000000000E+00  0.17779630747E+04  0.17779630747E+04  0.50400001928E-02 0.  1.
        1   -1    0    0  501    0  0.00000000000E+00  0.00000000000E+00 -0.16211233313E+04  0.16211233313E+04  0.50400001928E-02 0. -1.
    10030    2    1    2    0    0  0.00000000000E+00  0.00000000000E+00  0.15683974339E+03  0.33990864061E+04  0.33954660491E+04 0.  0.
        4    1    3    3  502    0 -0.59457552582E+03  0.39809844186E+03  0.16196371334E+04  0.17706576411E+04  0.12699999809E+01 0.  1.
       -4    1    3    3    0  502  0.59457552582E+03 -0.39809844186E+03 -0.14627973900E+04  0.16284287649E+04  0.12699999809E+01 0. -1.
</event>
<event>
 5   0  0.6311750E-08  0.3399805E+04  0.7818609E-02  0.8137954E-01
        1   -1    0    0  501    0  0.00000000000E+00  0.00000000000E+00  0.18627657976E+04  0.18627657976E+04  0.50400001928E-02 0. -1.
       -1   -1    0    0    0  501  0.00000000000E+00  0.00000000000E+00 -0.15512784602E+04  0.15512784602E+04  0.50400001928E-02 0.  1.
    10030    2    1    2    0    0  0.00000000000E+00  0.00000000000E+00  0.31148733744E+03  0.34140442578E+04  0.33998049698E+04 0.  0.
        4    1    3    3  502    0 -0.69144141137E+03 -0.99208174347E+03 -0.10439774284E+04  0.15975631114E+04  0.12699999809E+01 0.  1.
       -4    1    3    3    0  502  0.69144141137E+03  0.99208174347E+03  0.13554647658E+04  0.18164811464E+04  0.12699999809E+01 0. -1.
</event>
<event>
 5   0  0.6584420E-08  0.3406446E+04  0.7818609E-02  0.8136326E-01
        1   -1    0    0  501    0  0.00000000000E+00  0.00000000000E+00  0.19868035511E+04  0.19868035511E+04  0.50400001928E-02 0.  1.
       -1   -1    0    0    0  501  0.00000000000E+00  0.00000000000E+00 -0.14601181138E+04  0.14601181138E+04  0.50400001928E-02 0. -1.
    10030    2    1    2    0    0  0.00000000000E+00  0.00000000000E+00  0.52668543738E+03  0.34469216649E+04  0.34064455689E+04 0.  0.
        1    1    3    3  502    0  0.84991689031E+03  0.14169726734E+04  0.68152999155E+03  0.17873593390E+04  0.50400001928E-02 0.  1.
       -1    1    3    3    0  502 -0.84991689031E+03 -0.14169726734E+04 -0.15484455417E+03  0.16595623259E+04  0.50400001928E-02 0. -1.
</event>
<event>
 5   0  0.6788600E-08  0.3394116E+04  0.7818609E-02  0.8139352E-01
        1   -1    0    0  501    0  0.00000000000E+00  0.00000000000E+00  0.26154952541E+04  0.26154952541E+04  0.50400001928E-02 0. -1.
       -1   -1    0    0    0  501  0.00000000000E+00  0.00000000000E+00 -0.11011323446E+04  0.11011323446E+04  0.50400001928E-02 0.  1.
    10030    2    1    2    0    0  0.00000000000E+00  0.00000000000E+00  0.15143629095E+04  0.37166275987E+04  0.33941163336E+04 0.  0.
        2    1    3    3  502    0 -0.45575637865E+03  0.13462127054E+04 -0.25830125532E+03  0.14445490865E+04  0.25500000920E-02 0.  1.
       -2    1    3    3    0  502  0.45575637865E+03 -0.13462127054E+04  0.17726641648E+04  0.22720785123E+04  0.25500000920E-02 0. -1.
</event>
<event>
 5   0  0.6788600E-08  0.3405874E+04  0.7818609E-02  0.8136466E-01
       -1   -1    0    0    0  501  0.00000000000E+00  0.00000000000E+00  0.18291633740E+04  0.18291633740E+04  0.50400001928E-02 0. -1.
        1   -1    0    0  501    0  0.00000000000E+00  0.00000000000E+00 -0.15854213841E+04  0.15854213841E+04  0.50400001928E-02 0.  1.
    10030    2    1    2    0    0  0.00000000000E+00  0.00000000000E+00  0.24374198990E+03  0.34145847582E+04  0.34058741775E+04 0.  0.
        2    1    3    3  502    0 -0.15885589700E+04 -0.13046098342E+03 -0.47920806384E+03  0.16643857839E+04  0.25500000920E-02 0. -1.
       -2    1    3    3    0  502  0.15885589700E+04  0.13046098342E+03  0.72295005374E+03  0.17501989742E+04  0.25500000920E-02 0.  1.
</event>
<event>
 5   0  0.1897313E-07  0.3392217E+04  0.7818609E-02  0.8139819E-01
        2   -1    0    0  501    0  0.00000000000E+00  0.00000000000E+00  0.26046524047E+04  0.26046524047E+04  0.25500000920E-02 0.  1.
       -2   -1    0    0    0  501  0.00000000000E+00  0.00000000000E+00 -0.11044789759E+04  0.11044789759E+04  0.25500000920E-02 0. -1.
    10030    2    1    2    0    0  0.00000000000E+00  0.00000000000E+00  0.15001734289E+04  0.37091313806E+04  0.33922168683E+04 0.  0.
        3    1    3    3  502    0  0.55633347969E+03 -0.10567259122E+01  0.25020494595E+04  0.25631542219E+04  0.10100000352E+00 0.  1.
       -3    1    3    3    0  502 -0.55633347969E+03  0.10567259122E+01 -0.10018760306E+04  0.11459771587E+04  0.10100000352E+00 0. -1.
</event>
<event>
 5   0  0.1970449E-07  0.3341572E+04  0.7818609E-02  0.8152397E-01
       -2   -1    0    0    0  501  0.00000000000E+00  0.00000000000E+00  0.20234661907E+04  0.20234661907E+04  0.25500000920E-02 0. -1.
        2   -1    0    0  501    0  0.00000000000E+00  0.00000000000E+00 -0.13795760746E+04  0.13795760746E+04  0.25500000920E-02 0.  1.
    10030    2    1    2    0    0  0.00000000000E+00  0.00000000000E+00  0.64389011611E+03  0.34030422652E+04  0.33415718124E+04 0.  0.
        1    1    3    3  502    0  0.10354772732E+04 -0.59136119380E+03 -0.86988435604E+03  0.14760149179E+04  0.50400001928E-02 0.  1.
       -1    1    3    3    0  502 -0.10354772732E+04  0.59136119380E+03  0.15137744721E+04  0.19270273473E+04  0.50400001928E-02 0. -1.
</event>
<event>
 5   0  0.1897313E-07  0.3398893E+04  0.7818609E-02  0.8138178E-01
        2   -1    0    0  501    0  0.00000000000E+00  0.00000000000E+00  0.15747653595E+04  0.15747653595E+04  0.25500000920E-02 0. -1.
       -2   -1    0    0    0  501  0.00000000000E+00  0.00000000000E+00 -0.18339994095E+04  0.18339994095E+04  0.25500000920E-02 0.  1.
    10030    2    1    2    0    0  0.00000000000E+00  0.00000000000E+00 -0.25923405003E+03  0.34087647690E+04  0.33988931959E+04 0.  0.
        3    1    3    3  502    0 -0.12092722296E+04  0.99652341238E+03 -0.78934248716E+03  0.17545540200E+04  0.10100000352E+00 0.  1.
       -3    1    3    3    0  502  0.12092722296E+04 -0.99652341238E+03  0.53010843713E+03  0.16542107490E+04  0.10100000352E+00 0. -1.
</event>
<event>
 5   0  0.6584420E-08  0.3404100E+04  0.7818609E-02  0.8136901E-01
        1   -1    0    0  501    0  0.00000000000E+00  0.00000000000E+00  0.20099435208E+04  0.20099435208E+04  0.50400001928E-02 0.  1.
       -1   -1    0    0    0  501  0.00000000000E+00  0.00000000000E+00 -0.14413215185E+04  0.14413215185E+04  0.50400001928E-02 0. -1.
    10030    2    1    2    0    0  0.00000000000E+00  0.00000000000E+00  0.56862200227E+03  0.34512650393E+04  0.34041003789E+04 0.  0.
        1    1    3    3  502    0  0.11912452778E+04 -0.11626365875E+04 -0.75837014783E+02  0.16662954118E+04  0.50400001928E-02 0. -1.
       -1    1    3    3    0  502 -0.11912452778E+04  0.11626365875E+04  0.64445901706E+03  0.17849696275E+04  0.50400001928E-02 0.  1.
</event>
<event>
 5   0  0.1928004E-07  0.3401137E+04  0.7818609E-02  0.8137627E-01
       -2   -1    0    0    0  501  0.00000000000E+00  0.00000000000E+00  0.17809242765E+04  0.17809242765E+04  0.25500000920E-02 0. -1.
        2   -1    0    0  501    0  0.00000000000E+00  0.00000000000E+00 -0.16238386087E+04  0.16238386087E+04  0.25500000920E-02 0.  1.
    10030    2    1    2    0    0  0.00000000000E+00  0.00000000000E+00  0.15708566779E+03  0.34047628852E+04  0.34011372212E+04 0.  0.
        2    1    3    3  502    0  0.40094006938E+03  0.46935397794E+02  0.17322656321E+04  0.17786793109E+04  0.25500000920E-02 0. -1.
       -2    1    3    3    0  502 -0.40094006938E+03 -0.46935397794E+02 -0.15751799643E+04  0.16260835743E+04  0.25500000920E-02 0.  1.
</event>
<event>
 5   0  0.1928004E-07  0.3398117E+04  0.7818609E-02  0.8138369E-01
       -2   -1    0    0    0  501  0.00000000000E+00  0.00000000000E+00  0.13979005381E+04  0.13979005381E+04  0.25500000920E-02 0. -1.
        2   -1    0    0  501    0  0.00000000000E+00  0.00000000000E+00 -0.20650964403E+04  0.20650964403E+04  0.25500000920E-02 0.  1.
    10030    2    1    2    0    0  0.00000000000E+00  0.00000000000E+00 -0.66719590213E+03  0.34629969784E+04  0.33981167874E+04 0.  0.
        2    1    3    3  502    0 -0.13897724736E+04  0.95472882963E+03 -0.54693858344E+03  0.17726016136E+04  0.25500000920E-02 0.  1.
       -2    1    3    3    0  502  0.13897724736E+04 -0.95472882963E+03 -0.12025731869E+03  0.16903953648E+04  0.25500000920E-02 0. -1.
</event>
<event>
 5   0  0.6584420E-08  0.3408620E+04  0.7818609E-02  0.8135794E-01
       -1   -1    0    0    0  501  0.00000000000E+00  0.00000000000E+00  0.15692286849E+04  0.15692286849E+04  0.50400001928E-02 0.  1.
        1   -1    0    0  501    0  0.00000000000E+00  0.00000000000E+00 -0.18510190788E+04  0.18510190788E+04  0.50400001928E-02 0. -1.
    10030    2    1    2    0    0  0.00000000000E+00  0.00000000000E+00 -0.28179039393E+03  0.34202477638E+04  0.34086197998E+04 0.  0.
        1    1    3    3  502    0 -0.76801346016E+03  0.15002173411E+04  0.11329781076E+03  0.16891812038E+04  0.50400001928E-02 0.  1.
       -1    1    3    3    0  502  0.76801346016E+03 -0.15002173411E+04 -0.39508820470E+03  0.17310665599E+04  0.50400001928E-02 0. -1.
</event>
<event>
 5   0  0.6311750E-08  0.3402317E+04  0.7818609E-02  0.8137338E-01
        1   -1    0    0  501    0  0.00000000000E+00  0.00000000000E+00  0.16322999785E+04  0.16322999785E+04  0.50400001928E-02 0.  1.
       -1   -1    0    0    0  501  0.00000000000E+00  0.00000000000E+00 -0.17729213661E+04  0.17729213661E+04  0.50400001928E-02 0. -1.
    10030    2    1    2    0    0  0.00000000000E+00  0.00000000000E+00 -0.14062138760E+03  0.34052213446E+04  0.34023165683E+04 0.  0.
        4    1    3    3  502    0  0.10545280058E+04 -0.28181683627E+03 -0.13762188599E+04  0.17565392132E+04  0.12699999809E+01 0. -1.
       -4    1    3    3    0  502 -0.10545280058E+04  0.28181683627E+03  0.12355974723E+04  0.16486821315E+04  0.12699999809E+01 0.  1.
</event>
<event>
 5   0  0.6341535E-08  0.3409692E+04  0.7818609E-02  0.8135532E-01
       -1   -1    0    0    0  501  0.00000000000E+00  0.00000000000E+00  0.11827730688E+04  0.11827730689E+04  0.50400001928E-02 0. -1.
        1   -1    0    0  501    0  0.00000000000E+00  0.00000000000E+00 -0.24573599566E+04  0.24573599566E+04  0.50400001928E-02 0.  1.
    10030    2    1    2    0    0  0.00000000000E+00  0.00000000000E+00 -0.12745868877E+04  0.36401330254E+04  0.34096915855E+04 0.  0.
        5    1    3    3  502    0 -0.57296096763E+03 -0.14250492889E+04  0.15259434344E+03  0.15434885389E+04  0.46999998093E+01 0. -1.
       -5    1    3    3    0  502  0.57296096763E+03  0.14250492889E+04 -0.14271812312E+04  0.20966444865E+04  0.46999998093E+01 0.  1.
</event>
<event>
 5   0  0.1963852E-07  0.3396609E+04  0.7818609E-02  0.8138739E-01
        2   -1    0    0  501    0  0.00000000000E+00  0.00000000000E+00  0.15709242074E+04  0.15709242074E+04  0.25500000920E-02 0. -1.
       -2   -1    0    0    0  501  0.00000000000E+00  0.00000000000E+00 -0.18360137473E+04  0.18360137473E+04  0.25500000920E-02 0.  1.
    10030    2    1    2    0    0  0.00000000000E+00  0.00000000000E+00 -0.26508953990E+03  0.34069379547E+04  0.33966091567E+04 0.  0.
        4    1    3    3  502    0  0.28354846787E+03 -0.69116658036E+03  0.13972573291E+04  0.15844370079E+04  0.12699999809E+01 0. -1.
       -4    1    3    3    0  502 -0.28354846787E+03  0.69116658036E+03 -0.16623468690E+04  0.18225009468E+04  0.12699999809E+01 0.  1.
</event>
<event>
 5   0  0.6341535E-08  0.3386678E+04  0.7818609E-02  0.8141184E-01
        1   -1    0    0  501    0  0.00000000000E+00  0.00000000000E+00  0.23251565687E+04  0.23251565688E+04  0.50400001928E-02 0.  1.
       -1   -1    0    0    0  501  0.00000000000E+00  0.00000000000E+00 -0.12332057051E+04  0.12332057051E+04  0.50400001928E-02 0. -1.
    10030    2    1    2    0    0  0.00000000000E+00  0.00000000000E+00  0.10919508636E+04  0.35583622739E+04  0.33866776321E+04 0.  0.
        5    1    3    3  502    0  0.15873021787E+04 -0.30355053407E+03  0.14669924507E+02  0.16161399784E+04  0.46999998093E+01 0. -1.
       -5    1    3    3    0  502 -0.15873021787E+04  0.30355053407E+03  0.10772809391E+04  0.19422222955E+04  0.46999998093E+01 0.  1.
</event>
<event>
 5   0  0.1970449E-07  0.3403594E+04  0.7818609E-02  0.8137025E-01
       -2   -1    0    0    0  501  0.00000000000E+00  0.00000000000E+00  0.21053320282E+04  0.21053320282E+04  0.25500000920E-02 0.  1.
        2   -1    0    0  501    0  0.00000000000E+00  0.00000000000E+00 -0.13756087273E+04  0.13756087273E+04  0.25500000920E-02 0. -1.
    10030    2    1    2    0    0  0.00000000000E+00  0.00000000000E+00  0.72972330094E+03  0.34809407555E+04  0.34035940485E+04 0.  0.
        1    1    3    3  502    0  0.61153523526E+03 -0.15306502232E+04  0.79785938720E+03  0.18312413963E+04  0.50400001928E-02 0.  1.
       -1    1    3    3    0  502 -0.61153523526E+03  0.15306502232E+04 -0.68136086253E+02  0.16496993592E+04  0.50400001928E-02 0. -1.
</event>
<event>
 5   0  0.6341535E-08  0.3403531E+04  0.7818609E-02  0.8137040E-01
        1   -1    0    0  501    0  0.00000000000E+00  0.00000000000E+00  0.21640205039E+04  0.21640205039E+04  0.50400001928E-02 0.  1.
       -1   -1    0    0    0  501  0.00000000000E+00  0.00000000000E+00 -0.13382527001E+04  0.13382527001E+04  0.50400001928E-02 0. -1.
    10030    2    1    2    0    0  0.00000000000E+00  0.00000000000E+00  0.82576780385E+03  0.35022732040E+04  0.34035312735E+04 0.  0.
        5    1    3    3  502    0  0.85890821573E+03  0.10834199872E+04 -0.60810202194E+03  0.15104080080E+04  0.46999998093E+01 0. -1.
       -5    1    3    3    0  502 -0.85890821573E+03 -0.10834199872E+04  0.14338698258E+04  0.19918651960E+04  0.46999998093E+01 0.  1.
</event>
<event>
 5   0  0.6367111E-08  0.3414523E+04  0.7818609E-02  0.8134351E-01
       -1   -1    0    0    0  501  0.00000000000E+00  0.00000000000E+00  0.13348795689E+04  0.13348795689E+04  0.50400001928E-02 0.  1.
        1   -1    0    0  501    0  0.00000000000E+00  0.00000000000E+00 -0.21835246874E+04  0.21835246874E+04  0.50400001928E-02 0. -1.
    10030    2    1    2    0    0  0.00000000000E+00  0.00000000000E+00 -0.84864511846E+03  0.35184042563E+04  0.34145233889E+04 0.  0.
        3    1    3    3  502    0 -0.12400204751E+04 -0.10573914799E+03 -0.16286007924E+04  0.20496760957E+04  0.10100000352E+00 0. -1.
       -3    1    3    3    0  502  0.12400204751E+04  0.10573914799E+03  0.77995567390E+03  0.14687281606E+04  0.10100000352E+00 0.  1.
</event>
<event>
 5   0  0.6367111E-08  0.3403674E+04  0.7818609E-02  0.8137005E-01
        1   -1    0    0  501    0  0.00000000000E+00  0.00000000000E+00  0.22871109077E+04  0.22871109077E+04  0.50400001928E-02 0.  1.
       -1   -1    0    0    0  501  0.00000000000E+00  0.00000000000E+00 -0.12663351761E+04  0.12663351761E+04  0.50400001928E-02 0. -1.
    10030    2    1    2    0    0  0.00000000000E+00  0.00000000000E+00  0.10207757316E+04  0.35534460838E+04  0.34036738939E+04 0.  0.
        3    1    3    3  502    0 -0.15453413527E+04  0.48798464975E+03 -0.32132307711E+02  0.16208767412E+04  0.10100000352E+00 0. -1.
       -3    1    3    3    0  502  0.15453413527E+04 -0.48798464975E+03  0.10529080393E+04  0.19325693426E+04  0.10100000352E+00 0.  1.
</event>
<event>
 5   0  0.6341535E-08  0.3395400E+04  0.7818609E-02  0.8139036E-01
       -1   -1    0    0    0  501  0.00000000000E+00  0.00000000000E+00  0.17429931615E+04  0.17429931615E+04  0.50400001928E-02 0. -1.
        1   -1    0    0  501    0  0.00000000000E+00  0.00000000000E+00 -0.16535838407E+04  0.16535838407E+04  0.50400001928E-02 0.  1.
    10030    2    1    2    0    0  0.00000000000E+00  0.00000000000E+00  0.89409320837E+02  0.33965770022E+04  0.33954000214E+04 0.  0.
        5    1    3    3  502    0 -0.10414234308E+04  0.33308428671E+02 -0.12960923821E+04  0.16629942172E+04  0.46999998093E+01 0.  1.
       -5    1    3    3    0  502  0.10414234308E+04 -0.33308428671E+02  0.13855017029E+04  0.17335827850E+04  0.46999998093E+01 0. -1.
</event>
<event>
 5   0  0.1963852E-07  0.3404380E+04  0.7818609E-02  0.8136832E-01
       -2   -1    0    0    0  501  0.00000000000E+00  0.00000000000E+00  0.19752489509E+04  0.19752489509E+04  0.25500000920E-02 0. -1.
        2   -1    0    0  501    0  0.00000000000E+00  0.00000000000E+00 -0.14668783949E+04  0.14668783949E+04  0.25500000920E-02 0.  1.
    10030    2    1    2    0    0  0.00000000000E+00  0.00000000000E+00  0.50837055603E+03  0.34421273458E+04  0.34043795385E+04 0.  0.
        4    1    3    3  502    0 -0.11855003038E+04  0.11478105511E+04  0.67663179694E+03  0.17834551390E+04  0.12699999809E+01 0. -1.
       -4    1    3    3    0  502  0.11855003038E+04 -0.11478105511E+04 -0.16826124091E+03  0.16586722068E+04  0.12699999809E+01 0.  1.
</event>
<event>
 5   0  0.1897313E-07  0.3383520E+04  0.7818609E-02  0.8141963E-01
        2   -1    0    0  501    0  0.00000000000E+00  0.00000000000E+00  0.16361028693E+04  0.16361028693E+04  0.25500000920E-02 0.  1.
       -2   -1    0    0    0  501  0.00000000000E+00  0.00000000000E+00 -0.17493106628E+04  0.17493106628E+04  0.25500000920E-02 0. -1.
    10030    2    1    2    0    0  0.00000000000E+00  0.00000000000E+00 -0.11320779351E+03  0.33854135322E+04  0.33835201757E+04 0.  0.
        3    1    3    3  502    0  0.23466482669E+03  0.98762604433E+03  0.12975119812E+04  0.16474253051E+04  0.10100000352E+00 0.  1.
       -3    1    3    3    0  502 -0.23466482669E+03 -0.98762604433E+03 -0.14107197747E+04  0.17379882271E+04  0.10100000352E+00 0. -1.
</event>
<event>
 5   0  0.1928004E-07  0.3389111E+04  0.7818609E-02  0.8140584E-01
       -2   -1    0    0    0  501  0.00000000000E+00  0.00000000000E+00  0.11868512984E+04  0.11868512984E+04  0.25500000920E-02 0. -1.
        2   -1    0    0  501    0  0.00000000000E+00  0.00000000000E+00 -0.24194422859E+04  0.24194422859E+04  0.25500000920E-02 0.  1.
    10030    2    1    2    0    0  0.00000000000E+00  0.00000000000E+00 -0.12325909875E+04  0.36062935844E+04  0.33891109268E+04 0.  0.
        2    1    3    3  502    0  0.12636836130E+04  0.97755603178E+03 -0.12172959797E+04  0.20085620655E+04  0.25500000920E-02 0.  1.
       -2    1    3    3    0  502 -0.12636836130E+04 -0.97755603178E+03 -0.15295007860E+02  0.15977315188E+04  0.25500000920E-02 0. -1.
</event>
<event>
 5   0  0.1970449E-07  0.3401793E+04  0.7818609E-02  0.8137466E-01
       -2   -1    0    0    0  501  0.00000000000E+00  0.00000000000E+00  0.21868405223E+04  0.21868405223E+04  0.25500000920E-02 0.  1.
        2   -1    0    0  501    0  0.00000000000E+00  0.00000000000E+00 -0.13229355547E+04  0.13229355547E+04  0.25500000920E-02 0. -1.
    10030    2    1    2    0    0  0.00000000000E+00  0.00000000000E+00  0.86390496751E+03  0.35097760770E+04  0.34017931033E+04 0.  0.
        1    1    3    3  502    0  0.39806650900E+03  0.10030797893E+04  0.17883798411E+04  0.20887624243E+04  0.50400001928E-02 0.  1.
       -1    1    3    3    0  502 -0.39806650900E+03 -0.10030797893E+04 -0.92447487356E+03  0.14210136527E+04  0.50400001928E-02 0. -1.
</event>
<event>
 5   0  0.1986613E-07  0.3358033E+04  0.7818609E-02  0.8148284E-01
       -2   -1    0    0    0  501  0.00000000000E+00  0.00000000000E+00  0.13288226774E+04  0.13288226774E+04  0.25500000920E-02 0. -1.
        2   -1    0    0  501    0  0.00000000000E+00  0.00000000000E+00 -0.21214989742E+04  0.21214989742E+04  0.25500000920E-02 0.  1.
    10030    2    1    2    0    0  0.00000000000E+00  0.00000000000E+00 -0.79267629680E+03  0.34503216516E+04  0.33580327259E+04 0.  0.
        5    1    3    3  502    0  0.16499884189E+04  0.31080885804E+03 -0.39957566223E+03  0.17259046117E+04  0.46999998093E+01 0.  1.
       -5    1    3    3    0  502 -0.16499884189E+04 -0.31080885804E+03 -0.39310063456E+03  0.17244170400E+04  0.46999998093E+01 0. -1.
</event>
<event>
 5   0  0.1897313E-07  0.3401331E+04  0.7818609E-02  0.8137580E-01
       -2   -1    0    0    0  501  0.00000000000E+00  0.00000000000E+00  0.21019203630E+04  0.21019203630E+04  0.25500000920E-02 0. -1.
        2   -1    0    0  501    0  0.00000000000E+00  0.00000000000E+00 -0.13760101510E+04  0.13760101510E+04  0.25500000920E-02 0.  1.
    10030    2    1    2    0    0  0.00000000000E+00  0.00000000000E+00  0.72591021199E+03  0.34779305140E+04  0.34013313606E+04 0.  0.
        3    1    3    3  502    0 -0.92797725139E+03  0.13481283188E+04 -0.10970153913E+03  0.16403128302E+04  0.10100000352E+00 0. -1.
       -3    1    3    3    0  502  0.92797725139E+03 -0.13481283188E+04  0.83561175112E+03  0.18376176838E+04  0.10100000352E+00 0.  1.
</event>
<event>
 5   0  0.6584420E-08  0.3393724E+04  0.7818609E-02  0.8139448E-01
        1   -1    0    0  501    0  0.00000000000E+00  0.00000000000E+00  0.27809333989E+04  0.27809333989E+04  0.50400001928E-02 0. -1.
       -1   -1    0    0    0  501  0.00000000000E+00  0.00000000000E+00 -0.10353866921E+04  0.10353866921E+04  0.50400001928E-02 0.  1.
    10030    2    1    2    0    0  0.00000000000E+00  0.00000000000E+00  0.17455467068E+04  0.38163200910E+04  0.33937244632E+04 0.  0.
        1    1    3    3  502    0 -0.14629136612E+04 -0.84809553796E+03  0.10316418284E+04  0.19808248998E+04  0.50400001928E-02 0.  1.
       -1    1    3    3    0  502  0.14629136612E+04  0.84809553796E+03  0.71390487835E+03  0.18354951912E+04  0.50400001928E-02 0. -1.
</event>
<event>
 5   0  0.6367111E-08  0.3403952E+04  0.7818609E-02  0.8136937E-01
       -1   -1    0    0    0  501  0.00000000000E+00  0.00000000000E+00  0.18845964043E+04  0.18845964043E+04  0.50400001928E-02 0. -1.
        1   -1    0    0  501    0  0.00000000000E+00  0.00000000000E+00 -0.15370522409E+04  0.15370522409E+04  0.50400001928E-02 0.  1.
    10030    2    1    2    0    0  0.00000000000E+00  0.00000000000E+00  0.34754416343E+03  0.34216486452E+04  0.34039524829E+04 0.  0.
        3    1    3    3  502    0  0.86795659748E+03 -0.14601428058E+04  0.28089744257E+03  0.17217052744E+04  0.10100000352E+00 0.  1.
       -3    1    3    3    0  502 -0.86795659748E+03  0.14601428058E+04  0.66646720853E+02  0.16999433708E+04  0.10100000352E+00 0. -1.
</event>
<event>
 5   0  0.6341535E-08  0.3399855E+04  0.7818609E-02  0.8137942E-01
       -1   -1    0    0    0  501  0.00000000000E+00  0.00000000000E+00  0.25026190836E+04  0.25026190836E+04  0.50400001928E-02 0. -1.
        1   -1    0    0  501    0  0.00000000000E+00  0.00000000000E+00 -0.11546917858E+04  0.11546917858E+04  0.50400001928E-02 0.  1.
    10030    2    1    2    0    0  0.00000000000E+00  0.00000000000E+00  0.13479272978E+04  0.36573108694E+04  0.33998551139E+04 0.  0.
        5    1    3    3  502    0 -0.82768382722E+03 -0.14639557568E+04  0.40718234965E+03  0.17303313358E+04  0.46999998093E+01 0.  1.
       -5    1    3    3    0  502  0.82768382722E+03  0.14639557568E+04  0.94074494813E+03  0.19269795337E+04  0.46999998093E+01 0. -1.
</event>
<event>
 5   0  0.6367111E-08  0.3401130E+04  0.7818609E-02  0.8137629E-01
       -1   -1    0    0    0  501  0.00000000000E+00  0.00000000000E+00  0.16868069530E+04  0.16868069530E+04  0.50400001928E-02 0.  1.
        1   -1    0    0  501    0  0.00000000000E+00  0.00000000000E+00 -0.17144353322E+04  0.17144353322E+04  0.50400001928E-02 0. -1.
    10030    2    1    2    0    0  0.00000000000E+00  0.00000000000E+00 -0.27628379241E+02  0.34012422852E+04  0.34011300704E+04 0.  0.
        3    1    3    3  502    0  0.92082574385E+03 -0.13726064501E+04 -0.41376851999E+03  0.17038699820E+04  0.10100000352E+00 0. -1.
       -3    1    3    3    0  502 -0.92082574385E+03  0.13726064501E+04  0.38614014074E+03  0.16973723032E+04  0.10100000352E+00 0.  1.
</event>
<event>
 5   0  0.1928004E-07  0.3385688E+04  0.7818609E-02  0.8141428E-01
       -2   -1    0    0    0  501  0.00000000000E+00  0.00000000000E+00  0.14156771446E+04  0.14156771446E+04  0.25500000920E-02 0.  1.
        2   -1    0    0  501    0  0.00000000000E+00  0.00000000000E+00 -0.20242753113E+04  0.20242753113E+04  0.25500000920E-02 0. -1.
    10030    2    1    2    0    0  0.00000000000E+00  0.00000000000E+00 -0.60859816670E+03  0.34399524558E+04  0.33856876953E+04 0.  0.
        2    1    3    3  502    0  0.36767890552E+02 -0.16911810704E+04 -0.37073052772E+03  0.17317293134E+04  0.25500000920E-02 0. -1.
       -2    1    3    3    0  502 -0.36767890552E+02  0.16911810704E+04 -0.23786763898E+03  0.17082231424E+04  0.25500000920E-02 0.  1.
</event>
<event>
 5   0  0.1897313E-07  0.3402081E+04  0.7818609E-02  0.8137396E-01
        2   -1    0    0  501    0  0.00000000000E+00  0.00000000000E+00  0.24966008453E+04  0.24966008453E+04  0.25500000920E-02 0. -1.
       -2   -1    0    0    0  501  0.00000000000E+00  0.00000000000E+00 -0.11589912189E+04  0.11589912189E+04  0.25500000920E-02 0.  1.
    10030    2    1    2    0    0  0.00000000000E+00  0.00000000000E+00  0.13376096265E+04  0.36555920642E+04  0.34020808085E+04 0.  0.
        3    1    3    3  502    0  0.86102512378E+03 -0.59788278247E+03 -0.77069060158E+03  0.13010734410E+04  0.10100000352E+00 0.  1.
       -3    1    3    3    0  502 -0.86102512378E+03  0.59788278247E+03  0.21083002280E+04  0.23545186232E+04  0.10100000352E+00 0. -1.
</event>
<event>
 5   0  0.6367111E-08  0.3397187E+04  0.7818609E-02  0.8138597E-01
       -1   -1    0    0    0  501  0.00000000000E+00  0.00000000000E+00  0.13046918582E+04  0.13046918582E+04  0.50400001928E-02 0. -1.
        1   -1    0    0  501    0  0.00000000000E+00  0.00000000000E+00 -0.22114190185E+04  0.22114190186E+04  0.50400001928E-02 0.  1.
    10030    2    1    2    0    0  0.00000000000E+00  0.00000000000E+00 -0.90672716038E+03  0.35161108767E+04  0.33971873004E+04 0.  0.
        3    1    3    3  502    0  0.22015532928E+03  0.38381241649E+03 -0.21507237340E+04  0.21957670483E+04  0.10100000352E+00 0.  1.
       -3    1    3    3    0  502 -0.22015532928E+03 -0.38381241649E+03  0.12439965736E+04  0.13203438285E+04  0.10100000352E+00 0. -1.
</event>
<event>
 5   0  0.6788600E-08  0.3396415E+04  0.7818609E-02  0.8138787E-01
        1   -1    0    0  501    0  0.00000000000E+00  0.00000000000E+00  0.16723940547E+04  0.16723940547E+04  0.50400001928E-02 0.  1.
       -1   -1    0    0    0  501  0.00000000000E+00  0.00000000000E+00 -0.17244198720E+04  0.17244198720E+04  0.50400001928E-02 0. -1.
    10030    2    1    2    0    0  0.00000000000E+00  0.00000000000E+00 -0.52025817314E+02  0.33968139267E+04  0.33964154880E+04 0.  0.
        2    1    3    3  502    0 -0.15397569983E+04 -0.14951680288E+03 -0.72659680114E+03  0.17091371506E+04  0.25500000920E-02 0. -1.
       -2    1    3    3    0  502  0.15397569983E+04  0.14951680288E+03  0.67457098382E+03  0.16876767761E+04  0.25500000920E-02 0.  1.
</event>
<event>
 5   0  0.1928004E-07  0.3400263E+04  0.7818609E-02  0.8137842E-01
        2   -1    0    0  501    0  0.00000000000E+00  0.00000000000E+00  0.28620777093E+04  0.28620777093E+04  0.25500000920E-02 0.  1.
       -2   -1    0    0    0  501  0.00000000000E+00  0.00000000000E+00 -0.10099121599E+04  0.10099121599E+04  0.25500000920E-02 0. -1.
    10030    2    1    2    0    0  0.00000000000E+00  0.00000000000E+00  0.18521655493E+04  0.38719898692E+04  0.34002629788E+04 0.  0.
        2    1    3    3  502    0  0.20136647609E+03  0.75604826686E+03  0.26448860522E+04  0.27581841253E+04  0.25500000920E-02 0.  1.
       -2    1    3    3    0  502 -0.20136647609E+03 -0.75604826686E+03 -0.79272050291E+03  0.11138057440E+04  0.25500000920E-02 0. -1.
</event>
<event>
 5   0  0.6311750E-08  0.3405678E+04  0.7818609E-02  0.8136514E-01
       -1   -1    0    0    0  501  0.00000000000E+00  0.00000000000E+00  0.13009030809E+04  0.13009030809E+04  0.50400001928E-02 0. -1.
        1   -1    0    0  501    0  0.00000000000E+00  0.00000000000E+00 -0.22289596760E+04  0.22289596760E+04  0.50400001928E-02 0.  1.
    10030    2    1    2    0    0  0.00000000000E+00  0.00000000000E+00 -0.92805659510E+03  0.35298627569E+04  0.34056779117E+04 0.  0.
        4    1    3    3  502    0  0.69042449763E+03  0.12032814021E+04  0.55944350270E+03  0.14958444990E+04  0.12699999809E+01 0. -1.
       -4    1    3    3    0  502 -0.69042449763E+03 -0.12032814021E+04 -0.14875000978E+04  0.20340182579E+04  0.12699999809E+01 0.  1.
</event>
<event>
 5   0  0.1970449E-07  0.3402328E+04  0.7818609E-02  0.8137335E-01
        2   -1    0    0  501    0  0.00000000000E+00  0.00000000000E+00  0.18417152092E+04  0.18417152092E+04  0.25500000920E-02 0. -1.
       -2   -1    0    0    0  501  0.00000000000E+00  0.00000000000E+00 -0.15713391222E+04  0.15713391222E+04  0.25500000920E-02 0.  1.
    10030    2    1    2    0    0  0.00000000000E+00  0.00000000000E+00  0.27037608697E+03  0.34130543314E+04  0.34023281206E+04 0.  0.
        1    1    3    3  502    0  0.79322862331E+03 -0.14994743937E+04  0.70196273049E+01  0.16963738920E+04  0.50400001928E-02 0.  1.
       -1    1    3    3    0  502 -0.79322862331E+03  0.14994743937E+04  0.26335645967E+03  0.17166804394E+04  0.50400001928E-02 0. -1.
</event>
<event>
 5   0  0.6311750E-08  0.3444159E+04  0.7818609E-02  0.8127152E-01
       -1   -1    0    0    0  501  0.00000000000E+00  0.00000000000E+00  0.16056369349E+04  0.16056369349E+04  0.50400001928E-02 0.  1.
        1   -1    0    0  501    0  0.00000000000E+00  0.00000000000E+00 -0.18469667611E+04  0.18469667611E+04  0.50400001928E-02 0. -1.
    10030    2    1    2    0    0  0.00000000000E+00  0.00000000000E+00 -0.24132982617E+03  0.34526036961E+04  0.34441591422E+04 0.  0.
        4    1    3    3  502    0 -0.11687820494E+04 -0.36894282601E+03  0.10920060834E+04  0.16415386645E+04  0.12699999809E+01 0.  1.
       -4    1    3    3    0  502  0.11687820494E+04  0.36894282601E+03 -0.13333359096E+04  0.18110650316E+04  0.12699999809E+01 0. -1.
</event>
<event>
 5   0  0.6367111E-08  0.3393645E+04  0.7818609E-02  0.8139468E-01
       -1   -1    0    0    0  501  0.00000000000E+00  0.00000000000E+00  0.99337850150E+03  0.99337850152E+03  0.50400001928E-02 0.  1.
        1   -1    0    0  501    0  0.00000000000E+00  0.00000000000E+00 -0.28983989726E+04  0.28983989726E+04  0.50400001928E-02 0. -1.
    10030    2    1    2    0    0  0.00000000000E+00  0.00000000000E+00 -0.19050204711E+04  0.38917774741E+04  0.33936453723E+04 0.  0.
        3    1    3    3  502    0  0.78751285795E+03 -0.14947683263E+04 -0.11327354976E+04  0.20341087897E+04  0.10100000352E+00 0. -1.
       -3    1    3    3    0  502 -0.78751285795E+03  0.14947683263E+04 -0.77228497347E+03  0.18576686844E+04  0.10100000352E+00 0.  1.
</event>
<event>
 5   0  0.6788600E-08  0.3403205E+04  0.7818609E-02  0.8137120E-01
        1   -1    0    0  501    0  0.00000000000E+00  0.00000000000E+00  0.11576532886E+04  0.11576532886E+04  0.50400001928E-02 0. -1.
       -1   -1    0    0    0  501  0.00000000000E+00  0.00000000000E+00 -0.25011386362E+04  0.25011386362E+04  0.50400001928E-02 0.  1.
    10030    2    1    2    0    0  0.00000000000E+00  0.00000000000E+00 -0.13434853476E+04  0.36587919248E+04  0.34032051759E+04 0.  0.
        2    1    3    3  502    0  0.40308433858E+03 -0.85175062217E+03  0.85152716559E+03  0.12700608726E+04  0.25500000920E-02 0. -1.
       -2    1    3    3    0  502 -0.40308433858E+03  0.85175062217E+03 -0.21950125132E+04  0.23887310522E+04  0.25500000920E-02 0.  1.
</event>
<event>
 5   0  0.1970449E-07  0.3391632E+04  0.7818609E-02  0.8139963E-01
       -2   -1    0    0    0  501  0.00000000000E+00  0.00000000000E+00  0.12673689839E+04  0.12673689839E+04  0.25500000920E-02 0.  1.
        2   -1    0    0  501    0  0.00000000000E+00  0.00000000000E+00 -0.22691033855E+04  0.22691033855E+04  0.25500000920E-02 0. -1.
    10030    2    1    2    0    0  0.00000000000E+00  0.00000000000E+00 -0.10017344016E+04  0.35364723694E+04  0.33916316144E+04 0.  0.
        1    1    3    3  502    0 -0.12636906662E+04 -0.10798834810E+04 -0.85095669170E+03  0.18674018645E+04  0.50400001928E-02 0. -1.
       -1    1    3    3    0  502  0.12636906662E+04  0.10798834810E+04 -0.15077770994E+03  0.16690705049E+04  0.50400001928E-02 0.  1.
</event>
<event>
 5   0  0.1986613E-07  0.3390301E+04  0.7818609E-02  0.8140291E-01
        2   -1    0    0  501    0  0.00000000000E+00  0.00000000000E+00  0.14440656482E+04  0.14440656482E+04  0.25500000920E-02 0.  1.
       -2   -1    0    0    0  501  0.00000000000E+00  0.00000000000E+00 -0.19898922096E+04  0.19898922096E+04  0.25500000920E-02 0. -1.
    10030    2    1    2    0    0  0.00000000000E+00  0.00000000000E+00 -0.54582656140E+03  0.34339578577E+04  0.33903008618E+04 0.  0.
        5    1    3    3  502    0  0.13033875583E+04  0.47271317354E+03  0.71495914919E+03  0.15599569053E+04  0.46999998093E+01 0.  1.
       -5    1    3    3    0  502 -0.13033875583E+04 -0.47271317354E+03 -0.12607857106E+04  0.18740009524E+04  0.46999998093E+01 0. -1.
</event>
<event>
 5   0  0.6341535E-08  0.3400175E+04  0.7818609E-02  0.8137863E-01
        1   -1    0    0  501    0  0.00000000000E+00  0.00000000000E+00  0.10898916583E+04  0.10898916583E+04  0.50400001928E-02 0.  1.
       -1   -1    0    0    0  501  0.00000000000E+00  0.00000000000E+00 -0.26519128133E+04  0.26519128133E+04  0.50400001928E-02 0. -1.
    10030    2    1    2    0    0  0.00000000000E+00  0.00000000000E+00 -0.15620211550E+04  0.37418044716E+04  0.34001750859E+04 0.  0.
        5    1    3    3  502    0  0.28451047856E+03 -0.12017878252E+04 -0.20667464525E+04  0.24076343531E+04  0.46999998093E+01 0. -1.
       -5    1    3    3    0  502 -0.28451047856E+03  0.12017878252E+04  0.50472529748E+03  0.13341701185E+04  0.46999998093E+01 0.  1.
</event>
<event>
 5   0  0.1963852E-07  0.3490866E+04  0.7818609E-02  0.8115958E-01
        2   -1    0    0  501    0  0.00000000000E+00  0.00000000000E+00  0.12061677613E+04  0.12061677613E+04  0.25500000920E-02 0. -1.
       -2   -1    0    0    0  501  0.00000000000E+00  0.00000000000E+00 -0.25257982157E+04  0.25257982158E+04  0.25500000920E-02 0.  1.
    10030    2    1    2    0    0  0.00000000000E+00  0.00000000000E+00 -0.13196304544E+04  0.37319659771E+04  0.34908660126E+04 0.  0.
        4    1    3    3  502    0 -0.20598645565E+03  0.74501191383E+02  0.11914149756E+04  0.12113843751E+04  0.12699999809E+01 0. -1.
       -4    1    3    3    0  502  0.20598645565E+03 -0.74501191383E+02 -0.25110454300E+04  0.25205816019E+04  0.12699999809E+01 0.  1.
</event>
<event>
 5   0  0.6584420E-08  0.3397460E+04  0.7818609E-02  0.8138530E-01
        1   -1    0    0  501    0  0.00000000000E+00  0.00000000000E+00  0.12453663206E+04  0.12453663206E+04  0.50400001928E-02 0. -1.
       -1   -1    0    0    0  501  0.00000000000E+00  0.00000000000E+00 -0.23171370054E+04  0.23171370054E+04  0.50400001928E-02 0.  1.
    10030    2    1    2    0    0  0.00000000000E+00  0.00000000000E+00 -0.10717706848E+04  0.35625033260E+04  0.33974604555E+04 0.  0.
        1    1    3    3  502    0 -0.86531782912E+03  0.33735136632E+03  0.95556884696E+03  0.13325512039E+04  0.50400001928E-02 0. -1.
       -1    1    3    3    0  502  0.86531782912E+03 -0.33735136632E+03 -0.20273395317E+04  0.22299521221E+04  0.50400001928E-02 0.  1.
</event>
<event>
 5   0  0.6341535E-08  0.3400626E+04  0.7818609E-02  0.8137753E-01
        1   -1    0    0  501    0  0.00000000000E+00  0.00000000000E+00  0.17900330149E+04  0.17900330149E+04  0.50400001928E-02 0.  1.
       -1   -1    0    0    0  501  0.00000000000E+00  0.00000000000E+00 -0.16150900015E+04  0.16150900016E+04  0.50400001928E-02 0. -1.
    10030    2    1    2    0    0  0.00000000000E+00  0.00000000000E+00  0.17494301335E+03  0.34051230165E+04  0.34006260746E+04 0.  0.
        5    1    3    3  502    0 -0.93472695893E+03 -0.84082624233E+03  0.12336856743E+04  0.17614498830E+04  0.46999998093E+01 0.  1.
       -5    1    3    3    0  502  0.93472695893E+03  0.84082624233E+03 -0.10587426609E+04  0.16436731334E+04  0.46999998093E+01 0. -1.
</event>
<event>
 5   0  0.6788600E-08  0.3446709E+04  0.7818609E-02  0.8126537E-01
       -1   -1    0    0    0  501  0.00000000000E+00  0.00000000000E+00  0.16648416669E+04  0.16648416669E+04  0.50400001928E-02 0.  1.
        1   -1    0    0  501    0  0.00000000000E+00  0.00000000000E+00 -0.17839242296E+04  0.17839242296E+04  0.50400001928E-02 0. -1.
    10030    2    1    2    0    0  0.00000000000E+00  0.00000000000E+00 -0.11908256272E+03  0.34487658964E+04  0.34467093802E+04 0.  0.
        2    1    3    3  502    0  0.96646923208E+03 -0.10843309584E+04  0.86843591878E+03  0.16923407898E+04  0.25500000920E-02 0.  1.
       -2    1    3    3    0  502 -0.96646923208E+03  0.10843309584E+04 -0.98751848150E+03  0.17564251066E+04  0.25500000920E-02 0. -1.
</event>
<event>
 5   0  0.6788600E-08  0.3402719E+04  0.7818609E-02  0.8137239E-01
       -1   -1    0    0    0  501  0.00000000000E+00  0.00000000000E+00  0.27906406160E+04  0.27906406160E+04  0.50400001928E-02 0. -1.
        1   -1    0    0  501    0  0.00000000000E+00  0.00000000000E+00 -0.10372615312E+04  0.10372615312E+04  0.50400001928E-02 0.  1.
    10030    2    1    2    0    0  0.00000000000E+00  0.00000000000E+00  0.17533790848E+04  0.38279021472E+04  0.34027190060E+04 0.  0.
        2    1    3    3  502    0 -0.84494219063E+03  0.24086652048E+03 -0.76230316841E+03  0.11632068203E+04  0.25500000920E-02 0.  1.
       -2    1    3    3    0  502  0.84494219063E+03 -0.24086652048E+03  0.25156822532E+04  0.26646953269E+04  0.25500000920E-02 0. -1.
</event>
<event>
 5   0  0.6341535E-08  0.3401002E+04  0.7818609E-02  0.8137661E-01
        1   -1    0    0  501    0  0.00000000000E+00  0.00000000000E+00  0.27332540858E+04  0.27332540858E+04  0.50400001928E-02 0.  1.
       -1   -1    0    0    0  501  0.00000000000E+00  0.00000000000E+00 -0.10579708470E+04  0.10579708470E+04  0.50400001928E-02 0. -1.
    10030    2    1    2    0    0  0.00000000000E+00  0.00000000000E+00  0.16752832389E+04  0.37912249328E+04  0.34010016996E+04 0.  0.
        5    1    3    3  502    0  0.10497886554E+04  0.95878397736E+03 -0.20233049423E+03  0.14360649899E+04  0.46999998093E+01 0. -1.
       -5    1    3    3    0  502 -0.10497886554E+04 -0.95878397736E+03  0.18776137331E+04  0.23551599429E+04  0.46999998093E+01 0.  1.
</event>
<event>
 5   0  0.6341535E-08  0.3403186E+04  0.7818609E-02  0.8137125E-01
        1   -1    0    0  501    0  0.00000000000E+00  0.00000000000E+00  0.14274163952E+04  0.14274163952E+04  0.50400001928E-02 0.  1.
       -1   -1    0    0    0  501  0.00000000000E+00  0.00000000000E+00 -0.20284332636E+04  0.20284332636E+04  0.50400001928E-02 0. -1.
    10030    2    1    2    0    0  0.00000000000E+00  0.00000000000E+00 -0.60101686847E+03  0.34558496588E+04  0.34031860936E+04 0.  0.
        5    1    3    3  502    0 -0.20477950934E+03  0.51809258758E+03  0.13321786763E+04  0.14439794639E+04  0.46999998093E+01 0.  1.
       -5    1    3    3    0  502  0.20477950934E+03 -0.51809258758E+03 -0.19331955447E+04  0.20118701949E+04  0.46999998093E+01 0. -1.
</event>
<event>
 5   0  0.6788600E-08  0.3433578E+04  0.7818609E-02  0.8129714E-01
       -1   -1    0    0    0  501  0.00000000000E+00  0.00000000000E+00  0.16165806651E+04  0.16165806651E+04  0.50400001928E-02 0. -1.
        1   -1    0    0  501    0  0.00000000000E+00  0.00000000000E+00 -0.18232089088E+04  0.18232089088E+04  0.50400001928E-02 0.  1.
    10030    2    1    2    0    0  0.00000000000E+00  0.00000000000E+00 -0.20662824377E+03  0.34397895739E+04  0.34335778834E+04 0.  0.
        2    1    3    3  502    0  0.16847898732E+04 -0.32758298185E+03 -0.64041884281E+02  0.17175357027E+04  0.25500000920E-02 0.  1.
       -2    1    3    3    0  502 -0.16847898732E+04  0.32758298185E+03 -0.14258635949E+03  0.17222538712E+04  0.25500000920E-02 0. -1.
</event>
<event>
 5   0  0.6788600E-08  0.3394697E+04  0.7818609E-02  0.8139209E-01
        1   -1    0    0  501    0  0.00000000000E+00  0.00000000000E+00  0.21991424717E+04  0.21991424717E+04  0.50400001928E-02 0.  1.
       -1   -1    0    0    0  501  0.00000000000E+00  0.00000000000E+00 -0.13100526653E+04  0.13100526653E+04  0.50400001928E-02 0. -1.
    10030    2    1    2    0    0  0.00000000000E+00  0.00000000000E+00  0.88908980643E+03  0.35091951371E+04  0.33946973099E+04 0.  0.
        2    1    3    3  502    0  0.30219239193E+03 -0.22923138064E+03  0.21547720401E+04  0.21879007776E+04  0.25500000920E-02 0.  1.
       -2    1    3    3    0  502 -0.30219239193E+03  0.22923138064E+03 -0.12656822337E+04  0.13212943595E+04  0.25500000920E-02 0. -1.
</event>
<event>
 5   0  0.6311750E-08  0.3390703E+04  0.7818609E-02  0.8140192E-01
        4   -1    0    0  501    0  0.00000000000E+00  0.00000000000E+00  0.25165917460E+04  0.25165920665E+04  0.12699999809E+01 0. -1.
       -4   -1    0    0    0  501  0.00000000000E+00  0.00000000000E+00 -0.11421061317E+04  0.11421068379E+04  0.12699999809E+01 0.  1.
    10030    2    1    2    0    0  0.00000000000E+00  0.00000000000E+00  0.13744856143E+04  0.36586989043E+04  0.33907030198E+04 0.  0.
        1    1    3    3  502    0  0.16815781264E+04  0.20505874873E+02  0.45558540152E+03  0.17423213092E+04  0.50400001928E-02 0.  1.
       -1    1    3    3    0  502 -0.16815781264E+04 -0.20505874873E+02  0.91890021278E+03  0.19163775952E+04  0.50400001928E-02 0. -1.
</event>
<event>
 5   0  0.1970449E-07  0.3421358E+04  0.7818609E-02  0.8132684E-01
       -2   -1    0    0    0  501  0.00000000000E+00  0.00000000000E+00  0.12597353792E+04  0.12597353792E+04  0.25500000920E-02 0.  1.
        2   -1    0    0  501    0  0.00000000000E+00  0.00000000000E+00 -0.23230455721E+04  0.23230455721E+04  0.25500000920E-02 0. -1.
    10030    2    1    2    0    0  0.00000000000E+00  0.00000000000E+00 -0.10633101929E+04  0.35827809513E+04  0.34213580314E+04 0.  0.
        1    1    3    3  502    0 -0.21096122911E+03 -0.16853566275E+04 -0.74495917973E+03  0.18546956034E+04  0.50400001928E-02 0. -1.
       -1    1    3    3    0  502  0.21096122911E+03  0.16853566275E+04 -0.31835101319E+03  0.17280853479E+04  0.50400001928E-02 0.  1.
</event>
<event>
 5   0  0.6341535E-08  0.3393756E+04  0.7818609E-02  0.8139441E-01
       -1   -1    0    0    0  501  0.00000000000E+00  0.00000000000E+00  0.13997610804E+04  0.13997610804E+04  0.50400001928E-02 0.  1.
        1   -1    0    0  501    0  0.00000000000E+00  0.00000000000E+00 -0.20570614327E+04  0.20570614327E+04  0.50400001928E-02 0. -1.
    10030    2    1    2    0    0  0.00000000000E+00  0.00000000000E+00 -0.65730035230E+03  0.34568225131E+04  0.33937557564E+04 0.  0.
        5    1    3    3  502    0 -0.74136367815E+03  0.22811139776E+03  0.12086066505E+04  0.14361082963E+04  0.46999998093E+01 0.  1.
       -5    1    3    3    0  502  0.74136367815E+03 -0.22811139776E+03 -0.18659070028E+04  0.20207142168E+04  0.46999998093E+01 0. -1.
</event>
<event>
 5   0  0.6788600E-08  0.3408727E+04  0.7818609E-02  0.8135768E-01
       -1   -1    0    0    0  501  0.00000000000E+00  0.00000000000E+00  0.23860314926E+04  0.23860314927E+04  0.50400001928E-02 0. -1.
        1   -1    0    0  501    0  0.00000000000E+00  0.00000000000E+00 -0.12174419631E+04  0.12174419631E+04  0.50400001928E-02 0.  1.
    10030    2    1    2    0    0  0.00000000000E+00  0.00000000000E+00  0.11685895296E+04  0.36034734557E+04  0.34087269556E+04 0.  0.
        2    1    3    3  502    0 -0.74793413738E+03  0.14954319007E+04  0.93352095223E+03  0.19149891414E+04  0.25500000920E-02 0. -1.
       -2    1    3    3    0  502  0.74793413738E+03 -0.14954319007E+04  0.23506857735E+03  0.16884843143E+04  0.25500000920E-02 0.  1.
</event>
<event>
 5   0  0.6584420E-08  0.3384255E+04  0.7818609E-02  0.8141782E-01
        1   -1    0    0  501    0  0.00000000000E+00  0.00000000000E+00  0.17082050721E+04  0.17082050721E+04  0.50400001928E-02 0. -1.
       -1   -1    0    0    0  501  0.00000000000E+00  0.00000000000E+00 -0.16762007889E+04  0.16762007889E+04  0.50400001928E-02 0.  1.
    10030    2    1    2    0    0  0.00000000000E+00  0.00000000000E+00  0.32004283178E+02  0.33844058611E+04  0.33842545351E+04 0.  0.
        1    1    3    3  502    0  0.88148894475E+03  0.13554355946E+04  0.51508986247E+03  0.16969225018E+04  0.50400001928E-02 0. -1.
       -1    1    3    3    0  502 -0.88148894475E+03 -0.13554355946E+04 -0.48308557929E+03  0.16874833592E+04  0.50400001928E-02 0.  1.
</event>
<event>
 5   0  0.1986613E-07  0.3410035E+04  0.7818609E-02  0.8135448E-01
        2   -1    0    0  501    0  0.00000000000E+00  0.00000000000E+00  0.19951367109E+04  0.19951367109E+04  0.25500000920E-02 0.  1.
       -2   -1    0    0    0  501  0.00000000000E+00  0.00000000000E+00 -0.14570850350E+04  0.14570850350E+04  0.25500000920E-02 0. -1.
    10030    2    1    2    0    0  0.00000000000E+00  0.00000000000E+00  0.53805167589E+03  0.34522217458E+04  0.34100345125E+04 0.  0.
        5    1    3    3  502    0  0.49527766125E+03  0.15795020985E+04  0.68265723530E+03  0.17905780720E+04  0.46999998093E+01 0.  1.
       -5    1    3    3    0  502 -0.49527766125E+03 -0.15795020985E+04 -0.14460555940E+03  0.16616436738E+04  0.46999998093E+01 0. -1.
</event>
<event>
 5   0  0.1986613E-07  0.3397826E+04  0.7818609E-02  0.8138440E-01
        2   -1    0    0  501    0  0.00000000000E+00  0.00000000000E+00  0.23583111630E+04  0.23583111630E+04  0.25500000920E-02 0.  1.
       -2   -1    0    0    0  501  0.00000000000E+00  0.00000000000E+00 -0.12238865561E+04  0.12238865561E+04  0.25500000920E-02 0. -1.
    10030    2    1    2    0    0  0.00000000000E+00  0.00000000000E+00  0.11344246069E+04  0.35821977191E+04  0.33978259682E+04 0.  0.
        5    1    3    3  502    0 -0.87155686303E+03  0.13613543412E+04  0.11184472463E+04  0.19656661315E+04  0.46999998093E+01 0.  1.
       -5    1    3    3    0  502  0.87155686303E+03 -0.13613543412E+04  0.15977360649E+02  0.16165315876E+04  0.46999998093E+01 0. -1.
</event>
<event>
 5   0  0.1963852E-07  0.3396947E+04  0.7818609E-02  0.8138656E-01
        2   -1    0    0  501    0  0.00000000000E+00  0.00000000000E+00  0.18837963057E+04  0.18837963057E+04  0.25500000920E-02 0. -1.
       -2   -1    0    0    0  501  0.00000000000E+00  0.00000000000E+00 -0.15313825122E+04  0.15313825122E+04  0.25500000920E-02 0.  1.
    10030    2    1    2    0    0  0.00000000000E+00  0.00000000000E+00  0.35241379350E+03  0.34151788180E+04  0.33969472879E+04 0.  0.
        4    1    3    3  502    0  0.99168706608E+03  0.11270945360E+04 -0.62242782948E+03  0.16251779428E+04  0.12699999809E+01 0.  1.
       -4    1    3    3    0  502 -0.99168706608E+03 -0.11270945360E+04  0.97484162298E+03  0.17900008751E+04  0.12699999809E+01 0. -1.
</event>
<event>
 5   0  0.6341535E-08  0.3399949E+04  0.7818609E-02  0.8137919E-01
        1   -1    0    0  501    0  0.00000000000E+00  0.00000000000E+00  0.27380201217E+04  0.27380201217E+04  0.50400001928E-02 0. -1.
       -1   -1    0    0    0  501  0.00000000000E+00  0.00000000000E+00 -0.10554756228E+04  0.10554756228E+04  0.50400001928E-02 0.  1.
    10030    2    1    2    0    0  0.00000000000E+00  0.00000000000E+00  0.16825444989E+04  0.37934957445E+04  0.33999491133E+04 0.  0.
        5    1    3    3  502    0 -0.47371404352E+03 -0.17359397880E+03 -0.97001137982E+03  0.10933819239E+04  0.46999998093E+01 0.  1.
       -5    1    3    3    0  502  0.47371404352E+03  0.17359397880E+03  0.26525558788E+04  0.27001138207E+04  0.46999998093E+01 0. -1.
</event>
<event>
 5   0  0.1928004E-07  0.3401129E+04  0.7818609E-02  0.8137629E-01
       -2   -1    0    0    0  501  0.00000000000E+00  0.00000000000E+00  0.21117299445E+04  0.21117299445E+04  0.25500000920E-02 0.  1.
        2   -1    0    0  501    0  0.00000000000E+00  0.00000000000E+00 -0.13694553139E+04  0.13694553139E+04  0.25500000920E-02 0. -1.
    10030    2    1    2    0    0  0.00000000000E+00  0.00000000000E+00  0.74227463057E+03  0.34811852584E+04  0.34011291032E+04 0.  0.
        2    1    3    3  502    0 -0.15793399909E+04  0.35564610209E+03  0.90408608822E+03  0.18542304635E+04  0.25500000920E-02 0. -1.
       -2    1    3    3    0  502  0.15793399909E+04 -0.35564610209E+03 -0.16181145764E+03  0.16269547949E+04  0.25500000920E-02 0.  1.
</event>
<event>
 5   0  0.6788600E-08  0.3401171E+04  0.7818609E-02  0.8137619E-01
       -1   -1    0    0    0  501  0.00000000000E+00  0.00000000000E+00  0.23600369788E+04  0.23600369788E+04  0.50400001928E-02 0. -1.
        1   -1    0    0  501    0  0.00000000000E+00  0.00000000000E+00 -0.12254005255E+04  0.12254005255E+04  0.50400001928E-02 0.  1.
    10030    2    1    2    0    0  0.00000000000E+00  0.00000000000E+00  0.11346364533E+04  0.35854375043E+04  0.34011707126E+04 0.  0.
        2    1    3    3  502    0  0.67339915474E+03 -0.87532468437E+03 -0.79592963231E+03  0.13613095549E+04  0.25500000920E-02 0.  1.
       -2    1    3    3    0  502 -0.67339915474E+03  0.87532468437E+03  0.19305660856E+04  0.22241279494E+04  0.25500000920E-02 0. -1.
</event>
<event>
 5   0  0.1928004E-07  0.3400799E+04  0.7818609E-02  0.8137710E-01
        2   -1    0    0  501    0  0.00000000000E+00  0.00000000000E+00  0.13343251394E+04  0.13343251394E+04  0.25500000920E-02 0.  1.
       -2   -1    0    0    0  501  0.00000000000E+00  0.00000000000E+00 -0.21669068082E+04  0.21669068082E+04  0.25500000920E-02 0. -1.
    10030    2    1    2    0    0  0.00000000000E+00  0.00000000000E+00 -0.83258166879E+03  0.35012319476E+04  0.34007988643E+04 0.  0.
        2    1    3    3  502    0  0.55569862522E+03  0.27896378623E+03 -0.20456654857E+04  0.21380760126E+04  0.25500000920E-02 0. -1.
       -2    1    3    3    0  502 -0.55569862522E+03 -0.27896378623E+03  0.12130838169E+04  0.13631559350E+04  0.25500000920E-02 0.  1.
</event>
<event>
 5   0  0.6341535E-08  0.3401066E+04  0.7818609E-02  0.8137645E-01
       -1   -1    0    0    0  501  0.00000000000E+00  0.00000000000E+00  0.20122471374E+04  0.20122471374E+04  0.50400001928E-02 0.  1.
        1   -1    0    0  501    0  0.00000000000E+00  0.00000000000E+00 -0.14371061578E+04  0.14371061578E+04  0.50400001928E-02 0. -1.
    10030    2    1    2    0    0  0.00000000000E+00  0.00000000000E+00  0.57514097967E+03  0.34493532952E+04  0.34010661576E+04 0.  0.
        5    1    3    3  502    0  0.16902971177E+04 -0.17257968542E+03  0.21655805072E+03  0.17128361197E+04  0.46999998093E+01 0. -1.
       -5    1    3    3    0  502 -0.16902971177E+04  0.17257968542E+03  0.35858292895E+03  0.17365171755E+04  0.46999998093E+01 0.  1.
</event>
<event>
 5   0  0.1963852E-07  0.3404180E+04  0.7818609E-02  0.8136881E-01
       -2   -1    0    0    0  501  0.00000000000E+00  0.00000000000E+00  0.14457837986E+04  0.14457837986E+04  0.25500000920E-02 0.  1.
        2   -1    0    0  501    0  0.00000000000E+00  0.00000000000E+00 -0.20038342571E+04  0.20038342571E+04  0.25500000920E-02 0. -1.
    10030    2    1    2    0    0  0.00000000000E+00  0.00000000000E+00 -0.55805045853E+03  0.34496180557E+04  0.34041804323E+04 0.  0.
        4    1    3    3  502    0 -0.76650148512E+03 -0.10344183589E+04  0.84919232478E+03  0.15422953950E+04  0.12699999809E+01 0. -1.
       -4    1    3    3    0  502  0.76650148512E+03  0.10344183589E+04 -0.14072427833E+04  0.19073226607E+04  0.12699999809E+01 0.  1.
</event>
<event>
 5   0  0.6584420E-08  0.3399497E+04  0.7818609E-02  0.8138030E-01
        1   -1    0    0  501    0  0.00000000000E+00  0.00000000000E+00  0.11833340937E+04  0.11833340938E+04  0.50400001928E-02 0. -1.
       -1   -1    0    0    0  501  0.00000000000E+00  0.00000000000E+00 -0.24415291862E+04  0.24415291862E+04  0.50400001928E-02 0.  1.
    10030    2    1    2    0    0  0.00000000000E+00  0.00000000000E+00 -0.12581950925E+04  0.36248632800E+04  0.33994968610E+04 0.  0.
        1    1    3    3  502    0 -0.13979156092E+04  0.36056616732E+03 -0.15857770892E+04  0.21444964417E+04  0.50400001928E-02 0. -1.
       -1    1    3    3    0  502  0.13979156092E+04 -0.36056616732E+03  0.32758199676E+03  0.14803668384E+04  0.50400001928E-02 0.  1.
</event>
<event>
 5   0  0.6341535E-08  0.3396162E+04  0.7818609E-02  0.8138849E-01
        1   -1    0    0  501    0  0.00000000000E+00  0.00000000000E+00  0.28249541630E+04  0.28249541630E+04  0.50400001928E-02 0.  1.
       -1   -1    0    0    0  501  0.00000000000E+00  0.00000000000E+00 -0.10207169882E+04  0.10207169882E+04  0.50400001928E-02 0. -1.
    10030    2    1    2    0    0  0.00000000000E+00  0.00000000000E+00  0.18042371748E+04  0.38456711513E+04  0.33961617778E+04 0.  0.
        5    1    3    3  502    0  0.97924922031E+03  0.72570058077E+03  0.22409308776E+04  0.25509534799E+04  0.46999998093E+01 0.  1.
       -5    1    3    3    0  502 -0.97924922031E+03 -0.72570058077E+03 -0.43669370282E+03  0.12947176713E+04  0.46999998093E+01 0. -1.
</event>
<event>
 5   0  0.6584420E-08  0.3401289E+04  0.7818609E-02  0.8137590E-01
        1   -1    0    0  501    0  0.00000000000E+00  0.00000000000E+00  0.21757691828E+04  0.21757691828E+04  0.50400001928E-02 0. -1.
       -1   -1    0    0    0  501  0.00000000000E+00  0.00000000000E+00 -0.13292734615E+04  0.13292734615E+04  0.50400001928E-02 0.  1.
    10030    2    1    2    0    0  0.00000000000E+00  0.00000000000E+00  0.84649572137E+03  0.35050426443E+04  0.34012893044E+04 0.  0.
        1    1    3    3  502    0 -0.15100839667E+04  0.48959581935E+03  0.10518845828E+04  0.19043420986E+04  0.50400001928E-02 0. -1.
       -1    1    3    3    0  502  0.15100839667E+04 -0.48959581935E+03 -0.20538886144E+03  0.16007005458E+04  0.50400001928E-02 0.  1.
</event>
<event>
 5   0  0.1928004E-07  0.3394230E+04  0.7818609E-02  0.8139324E-01
       -2   -1    0    0    0  501  0.00000000000E+00  0.00000000000E+00  0.16783916006E+04  0.16783916006E+04  0.25500000920E-02 0. -1.
        2   -1    0    0  501    0  0.00000000000E+00  0.00000000000E+00 -0.17160469315E+04  0.17160469315E+04  0.25500000920E-02 0.  1.
    10030    2    1    2    0    0  0.00000000000E+00  0.00000000000E+00 -0.37655330942E+02  0.33944385321E+04  0.33942296658E+04 0.  0.
        2    1    3    3  502    0 -0.13742946173E+04  0.48698387176E+03  0.84976465119E+03  0.16875837606E+04  0.25500000920E-02 0. -1.
       -2    1    3    3    0  502  0.13742946173E+04 -0.48698387176E+03 -0.88741998214E+03  0.17068547716E+04  0.25500000920E-02 0.  1.
</event>
<event>
 5   0  0.1897313E-07  0.3402830E+04  0.7818609E-02  0.8137212E-01
        2   -1    0    0  501    0  0.00000000000E+00  0.00000000000E+00  0.17257334044E+04  0.17257334044E+04  0.25500000920E-02 0.  1.
       -2   -1    0    0    0  501  0.00000000000E+00  0.00000000000E+00 -0.16774396999E+04  0.16774396999E+04  0.25500000920E-02 0. -1.
    10030    2    1    2    0    0  0.00000000000E+00  0.00000000000E+00  0.48293704427E+02  0.34031731043E+04  0.34028304242E+04 0.  0.
        3    1    3    3  502    0  0.31074049220E+03 -0.11719049237E+04 -0.11696621403E+04  0.16846454631E+04  0.10100000352E+00 0. -1.
       -3    1    3    3    0  502 -0.31074049220E+03  0.11719049237E+04  0.12179558447E+04  0.17185276412E+04  0.10100000352E+00 0.  1.
</event>
<event>
 5   0  0.6341535E-08  0.3397908E+04  0.7818609E-02  0.8138420E-01
        1   -1    0    0  501    0  0.00000000000E+00  0.00000000000E+00  0.19641180125E+04  0.19641180125E+04  0.50400001928E-02 0.  1.
       -1   -1    0    0    0  501  0.00000000000E+00  0.00000000000E+00 -0.14695883096E+04  0.14695883097E+04  0.50400001928E-02 0. -1.
    10030    2    1    2    0    0  0.00000000000E+00  0.00000000000E+00  0.49452970284E+03  0.34337063221E+04  0.33979081035E+04 0.  0.
        5    1    3    3  502    0 -0.80765578588E+03 -0.41045613893E+03  0.16996403263E+04  0.19260273724E+04  0.46999998093E+01 0.  1.
       -5    1    3    3    0  502  0.80765578588E+03  0.41045613893E+03 -0.12051106235E+04  0.15076789497E+04  0.46999998093E+01 0. -1.
</event>
<event>
 5   0  0.1986613E-07  0.3400272E+04  0.7818609E-02  0.8137840E-01
       -2   -1    0    0    0  501  0.00000000000E+00  0.00000000000E+00  0.10950076129E+04  0.10950076129E+04  0.25500000920E-02 0. -1.
        2   -1    0    0  501    0  0.00000000000E+00  0.00000000000E+00 -0.26396736359E+04  0.26396736359E+04  0.25500000920E-02 0.  1.
    10030    2    1    2    0    0  0.00000000000E+00  0.00000000000E+00 -0.15446660230E+04  0.37346812488E+04  0.34002721814E+04 0.  0.
        5    1    3    3  502    0  0.11603735209E+03 -0.10919859893E+04  0.65321173478E+03  0.12777346079E+04  0.46999998093E+01 0. -1.
       -5    1    3    3    0  502 -0.11603735209E+03  0.10919859893E+04 -0.21978777578E+04  0.24569466408E+04  0.46999998093E+01 0.  1.
</event>
<event>
 5   0  0.1986613E-07  0.3380717E+04  0.7818609E-02  0.8142655E-01
        2   -1    0    0  501    0  0.00000000000E+00  0.00000000000E+00  0.30986542004E+04  0.30986542004E+04  0.25500000920E-02 0.  1.
       -2   -1    0    0    0  501  0.00000000000E+00  0.00000000000E+00 -0.92211367731E+03  0.92211367732E+03  0.25500000920E-02 0. -1.
    10030    2    1    2    0    0  0.00000000000E+00  0.00000000000E+00  0.21765405231E+04  0.40207678777E+04  0.33807167403E+04 0.  0.
        5    1    3    3  502    0 -0.33356550992E+03  0.41291833384E+03 -0.82040847429E+03  0.97716920465E+03  0.46999998093E+01 0. -1.
       -5    1    3    3    0  502  0.33356550992E+03 -0.41291833384E+03  0.29969489974E+04  0.30435986731E+04  0.46999998093E+01 0.  1.
</event>
<event>
 5   0  0.1986613E-07  0.3396273E+04  0.7818609E-02  0.8138822E-01
       -2   -1    0    0    0  501  0.00000000000E+00  0.00000000000E+00  0.23974061201E+04  0.23974061201E+04  0.25500000920E-02 0.  1.
        2   -1    0    0  501    0  0.00000000000E+00  0.00000000000E+00 -0.12028278105E+04  0.12028278106E+04  0.25500000920E-02 0. -1.
    10030    2    1    2    0    0  0.00000000000E+00  0.00000000000E+00  0.11945783096E+04  0.36002339307E+04  0.33962725182E+04 0.  0.
        5    1    3    3  502    0  0.10228802943E+04  0.20884504875E+03 -0.82244966826E+03  0.13290394643E+04  0.46999998093E+01 0. -1.
       -5    1    3    3    0  502 -0.10228802943E+04 -0.20884504875E+03  0.20170279778E+04  0.22711944664E+04  0.46999998093E+01 0.  1.
</event>
<event>
 5   0  0.6584420E-08  0.3397453E+04  0.7818609E-02  0.8138532E-01
       -1   -1    0    0    0  501  0.00000000000E+00  0.00000000000E+00  0.14626425708E+04  0.14626425708E+04  0.50400001928E-02 0. -1.
        1   -1    0    0  501    0  0.00000000000E+00  0.00000000000E+00 -0.19729162765E+04  0.19729162765E+04  0.50400001928E-02 0.  1.
    10030    2    1    2    0    0  0.00000000000E+00  0.00000000000E+00 -0.51027370566E+03  0.34355588473E+04  0.33974527721E+04 0.  0.
        1    1    3    3  502    0  0.79408632213E+03 -0.11020474726E+04  0.77639752784E+03  0.15645685796E+04  0.50400001928E-02 0. -1.
       -1    1    3    3    0  502 -0.79408632213E+03  0.11020474726E+04 -0.12866712335E+04  0.18709902678E+04  0.50400001928E-02 0.  1.
</event>
<event>
 5   0  0.1963852E-07  0.3400649E+04  0.7818609E-02  0.8137747E-01
       -2   -1    0    0    0  501  0.00000000000E+00  0.00000000000E+00  0.15425585450E+04  0.15425585450E+04  0.25500000920E-02 0.  1.
        2   -1    0    0  501    0  0.00000000000E+00  0.00000000000E+00 -0.18742259230E+04  0.18742259230E+04  0.25500000920E-02 0. -1.
    10030    2    1    2    0    0  0.00000000000E+00  0.00000000000E+00 -0.33166737805E+03  0.34167844680E+04  0.34006488868E+04 0.  0.
        4    1    3    3  502    0  0.77179867436E+03 -0.12065614504E+04  0.75483166466E+03  0.16190232186E+04  0.12699999809E+01 0.  1.
       -4    1    3    3    0  502 -0.77179867436E+03  0.12065614504E+04 -0.10864990427E+04  0.17977612495E+04  0.12699999809E+01 0. -1.
</event>
<event>
 5   0  0.6584420E-08  0.3400446E+04  0.7818609E-02  0.8137797E-01
        1   -1    0    0  501    0  0.00000000000E+00  0.00000000000E+00  0.24675217841E+04  0.24675217841E+04  0.50400001928E-02 0. -1.
       -1   -1    0    0    0  501  0.00000000000E+00  0.00000000000E+00 -0.11715227177E+04  0.11715227177E+04  0.50400001928E-02 0.  1.
    10030    2    1    2    0    0  0.00000000000E+00  0.00000000000E+00  0.12959990664E+04  0.36390445019E+04  0.34004457511E+04 0.  0.
        1    1    3    3  502    0 -0.13619596311E+04 -0.83586613131E+03  0.12693893453E+04  0.20408222696E+04  0.50400001928E-02 0. -1.
       -1    1    3    3    0  502  0.13619596311E+04  0.83586613131E+03  0.26609721128E+02  0.15982222322E+04  0.50400001928E-02 0.  1.
</event>
<event>
 5   0  0.6367111E-08  0.3400367E+04  0.7818609E-02  0.8137816E-01
        1   -1    0    0  501    0  0.00000000000E+00  0.00000000000E+00  0.18792215854E+04  0.18792215854E+04  0.50400001928E-02 0.  1.
       -1   -1    0    0    0  501  0.00000000000E+00  0.00000000000E+00 -0.15382025315E+04  0.15382025315E+04  0.50400001928E-02 0. -1.
    10030    2    1    2    0    0  0.00000000000E+00  0.00000000000E+00  0.34101905389E+03  0.34174241168E+04  0.34003666860E+04 0.  0.
        3    1    3    3  502    0 -0.55927153178E+03  0.13989535086E+04  0.96235005557E+03  0.17877285043E+04  0.10100000352E+00 0.  1.
       -3    1    3    3    0  502  0.55927153178E+03 -0.13989535086E+04 -0.62133100168E+03  0.16296956125E+04  0.10100000352E+00 0. -1.
</event>
<event>
 5   0  0.6788600E-08  0.3366791E+04  0.7818609E-02  0.8146105E-01
        1   -1    0    0  501    0  0.00000000000E+00  0.00000000000E+00  0.16817777527E+04  0.16817777527E+04  0.50400001928E-02 0. -1.
       -1   -1    0    0    0  501  0.00000000000E+00  0.00000000000E+00 -0.16850144775E+04  0.16850144776E+04  0.50400001928E-02 0.  1.
    10030    2    1    2    0    0  0.00000000000E+00  0.00000000000E+00 -0.32367248667E+01  0.33667922302E+04  0.33667906744E+04 0.  0.
        2    1    3    3  502    0  0.65441959131E+03  0.71818189036E+03 -0.13763079197E+04  0.16847176971E+04  0.25500000920E-02 0.  1.
       -2    1    3    3    0  502 -0.65441959131E+03 -0.71818189036E+03  0.13730711948E+04  0.16820745332E+04  0.25500000920E-02 0. -1.
</event>
<event>
 5   0  0.1963852E-07  0.3400513E+04  0.7818609E-02  0.8137780E-01
        2   -1    0    0  501    0  0.00000000000E+00  0.00000000000E+00  0.26913193652E+04  0.26913193652E+04  0.25500000920E-02 0.  1.
       -2   -1    0    0    0  501  0.00000000000E+00  0.00000000000E+00 -0.10741469222E+04  0.10741469222E+04  0.25500000920E-02 0. -1.
    10030    2    1    2    0    0  0.00000000000E+00  0.00000000000E+00  0.16171724430E+04  0.37654662875E+04  0.34005131453E+04 0.  0.
        4    1    3    3  502    0 -0.68147604138E+03  0.13836170165E+04  0.16009724488E+04  0.22230429681E+04  0.12699999809E+01 0.  1.
       -4    1    3    3    0  502  0.68147604138E+03 -0.13836170165E+04  0.16199994195E+02  0.15424233193E+04  0.12699999809E+01 0. -1.
</event>
<event>
 5   0  0.6311750E-08  0.3398262E+04  0.7818609E-02  0.8138333E-01
        1   -1    0    0  501    0  0.00000000000E+00  0.00000000000E+00  0.20891690607E+04  0.20891690607E+04  0.50400001928E-02 0. -1.
       -1   -1    0    0    0  501  0.00000000000E+00  0.00000000000E+00 -0.13819111920E+04  0.13819111920E+04  0.50400001928E-02 0.  1.
    10030    2    1    2    0    0  0.00000000000E+00  0.00000000000E+00  0.70725786873E+03  0.34710802527E+04  0.33982619717E+04 0.  0.
        4    1    3    3  502    0 -0.88553157270E+03 -0.39909728631E+03  0.17776329342E+04  0.20256913072E+04  0.12699999809E+01 0. -1.
       -4    1    3    3    0  502  0.88553157270E+03  0.39909728631E+03 -0.10703750655E+04  0.14453889456E+04  0.12699999809E+01 0.  1.
</event>
<event>
 5   0  0.6367111E-08  0.3387807E+04  0.7818609E-02  0.8140905E-01
        1   -1    0    0  501    0  0.00000000000E+00  0.00000000000E+00  0.27953953902E+04  0.27953953902E+04  0.50400001928E-02 0.  1.
       -1   -1    0    0    0  501  0.00000000000E+00  0.00000000000E+00 -0.10264410135E+04  0.10264410135E+04  0.50400001928E-02 0. -1.
    10030    2    1    2    0    0  0.00000000000E+00  0.00000000000E+00  0.17689543767E+04  0.38218364037E+04  0.33878066518E+04 0.  0.
        3    1    3    3  502    0 -0.26060293572E+03 -0.76928376017E+03 -0.79243383441E+03  0.11347523016E+04  0.10100000352E+00 0. -1.
       -3    1    3    3    0  502  0.26060293572E+03  0.76928376017E+03  0.25613882111E+04  0.26870841022E+04  0.10100000352E+00 0.  1.
</event>
<event>
 5   0  0.1970449E-07  0.3389411E+04  0.7818609E-02  0.8140510E-01
       -2   -1    0    0    0  501  0.00000000000E+00  0.00000000000E+00  0.11473366196E+04  0.11473366196E+04  0.25500000920E-02 0.  1.
        2   -1    0    0  501    0  0.00000000000E+00  0.00000000000E+00 -0.25032116505E+04  0.25032116505E+04  0.25500000920E-02 0. -1.
    10030    2    1    2    0    0  0.00000000000E+00  0.00000000000E+00 -0.13558750309E+04  0.36505482700E+04  0.33894108002E+04 0.  0.
        1    1    3    3  502    0  0.95441079880E+02 -0.15988506439E+04 -0.12743074221E+04  0.20467759495E+04  0.50400001928E-02 0. -1.
       -1    1    3    3    0  502 -0.95441079880E+02  0.15988506439E+04 -0.81567608821E+02  0.16037723206E+04  0.50400001928E-02 0.  1.
</event>
<event>
 5   0  0.1986613E-07  0.3399129E+04  0.7818609E-02  0.8138120E-01
        2   -1    0    0  501    0  0.00000000000E+00  0.00000000000E+00  0.15314299453E+04  0.15314299453E+04  0.25500000920E-02 0. -1.
       -2   -1    0    0    0  501  0.00000000000E+00  0.00000000000E+00 -0.18861583362E+04  0.18861583362E+04  0.25500000920E-02 0.  1.
    10030    2    1    2    0    0  0.00000000000E+00  0.00000000000E+00 -0.35472839092E+03  0.34175882815E+04  0.33991289223E+04 0.  0.
        5    1    3    3  502    0 -0.57786924183E+03  0.14608181249E+04 -0.82940343949E+03  0.17764725188E+04  0.46999998093E+01 0.  1.
       -5    1    3    3    0  502  0.57786924183E+03 -0.14608181249E+04  0.47467504857E+03  0.16411157627E+04  0.46999998093E+01 0. -1.
</event>
<event>
 5   0  0.6311750E-08  0.3389156E+04  0.7818609E-02  0.8140573E-01
        1   -1    0    0  501    0  0.00000000000E+00  0.00000000000E+00  0.20049687898E+04  0.20049687898E+04  0.50400001928E-02 0.  1.
       -1   -1    0    0    0  501  0.00000000000E+00  0.00000000000E+00 -0.14322391021E+04  0.14322391021E+04  0.50400001928E-02 0. -1.
    10030    2    1    2    0    0  0.00000000000E+00  0.00000000000E+00  0.57272968771E+03  0.34372078919E+04  0.33891560597E+04 0.  0.
        4    1    3    3  502    0  0.70403859286E+03  0.15127566029E+03  0.18420751985E+04  0.19778264119E+04  0.12699999809E+01 0.  1.
       -4    1    3    3    0  502 -0.70403859286E+03 -0.15127566029E+03 -0.12693455108E+04  0.14593814801E+04  0.12699999809E+01 0. -1.
</event>
<event>
 5   0  0.1963852E-07  0.3403417E+04  0.7818609E-02  0.8137068E-01
       -2   -1    0    0    0  501  0.00000000000E+00  0.00000000000E+00  0.15784275820E+04  0.15784275820E+04  0.25500000920E-02 0. -1.
        2   -1    0    0  501    0  0.00000000000E+00  0.00000000000E+00 -0.18346183170E+04  0.18346183170E+04  0.25500000920E-02 0.  1.
    10030    2    1    2    0    0  0.00000000000E+00  0.00000000000E+00 -0.25619073505E+03  0.34130458990E+04  0.34034171969E+04 0.  0.
        4    1    3    3  502    0 -0.40476030886E+03  0.78563201449E+03  0.13302409316E+04  0.15970570180E+04  0.12699999809E+01 0. -1.
       -4    1    3    3    0  502  0.40476030886E+03 -0.78563201449E+03 -0.15864316667E+04  0.18159888809E+04  0.12699999809E+01 0.  1.
</event>
<event>
 5   0  0.1928004E-07  0.3416956E+04  0.7818609E-02  0.8133757E-01
       -2   -1    0    0    0  501  0.00000000000E+00  0.00000000000E+00  0.19775932364E+04  0.19775932364E+04  0.25500000920E-02 0.  1.
        2   -1    0    0  501    0  0.00000000000E+00  0.00000000000E+00 -0.14759845200E+04  0.14759845200E+04  0.25500000920E-02 0. -1.
    10030    2    1    2    0    0  0.00000000000E+00  0.00000000000E+00  0.50160871637E+03  0.34535777564E+04  0.34169559574E+04 0.  0.
        2    1    3    3  502    0  0.43436250361E+03 -0.27295204135E+03 -0.13963006122E+04  0.14875580665E+04  0.25500000920E-02 0. -1.
       -2    1    3    3    0  502 -0.43436250361E+03  0.27295204135E+03  0.18979093286E+04  0.19660196899E+04  0.25500000920E-02 0.  1.
</event>
<event>
 5   0  0.6584420E-08  0.3454852E+04  0.7818609E-02  0.8124574E-01
       -1   -1    0    0    0  501  0.00000000000E+00  0.00000000000E+00  0.20666246009E+04  0.20666246009E+04  0.50400001928E-02 0. -1.
        1   -1    0    0  501    0  0.00000000000E+00  0.00000000000E+00 -0.14439002983E+04  0.14439002983E+04  0.50400001928E-02 0.  1.
    10030    2    1    2    0    0  0.00000000000E+00  0.00000000000E+00  0.62272430261E+03  0.35105248991E+04  0.34548515902E+04 0.  0.
        1    1    3    3  502    0  0.85721373868E+03  0.58738681422E+03  0.17135122889E+04  0.20039867833E+04  0.50400001928E-02 0. -1.
       -1    1    3    3    0  502 -0.85721373868E+03 -0.58738681422E+03 -0.10907879863E+04  0.15065381158E+04  0.50400001928E-02 0.  1.
</event>
<event>
 5   0  0.1928004E-07  0.3404095E+04  0.7818609E-02  0.8136902E-01
        2   -1    0    0  501    0  0.00000000000E+00  0.00000000000E+00  0.14139805212E+04  0.14139805212E+04  0.25500000920E-02 0.  1.
       -2   -1    0    0    0  501  0.00000000000E+00  0.00000000000E+00 -0.20488019384E+04  0.20488019384E+04  0.25500000920E-02 0. -1.
    10030    2    1    2    0    0  0.00000000000E+00  0.00000000000E+00 -0.63482141718E+03  0.34627824596E+04  0.34040952001E+04 0.  0.
        2    1    3    3  502    0  0.49460506941E+03  0.97978135601E+03  0.10059246996E+04  0.14887881587E+04  0.25500000920E-02 0.  1.
       -2    1    3    3    0  502 -0.49460506941E+03 -0.97978135601E+03 -0.16407461168E+04  0.19739943009E+04  0.25500000920E-02 0. -1.
</event>
<event>
 5   0  0.6788600E-08  0.3392602E+04  0.7818609E-02  0.8139724E-01
        1   -1    0    0  501    0  0.00000000000E+00  0.00000000000E+00  0.19089213671E+04  0.19089213671E+04  0.50400001928E-02 0. -1.
       -1   -1    0    0    0  501  0.00000000000E+00  0.00000000000E+00 -0.15073625827E+04  0.15073625828E+04  0.50400001928E-02 0.  1.
    10030    2    1    2    0    0  0.00000000000E+00  0.00000000000E+00  0.40155878437E+03  0.34162839499E+04  0.33926017404E+04 0.  0.
        2    1    3    3  502    0  0.62147155575E+03 -0.10146945610E+04 -0.10166283093E+04  0.15650447489E+04  0.25500000920E-02 0.  1.
       -2    1    3    3    0  502 -0.62147155575E+03  0.10146945610E+04  0.14181870937E+04  0.18512392010E+04  0.25500000920E-02 0. -1.
</event>
<event>
 5   0  0.6311750E-08  0.3402564E+04  0.7818609E-02  0.8137277E-01
        1   -1    0    0  501    0  0.00000000000E+00  0.00000000000E+00  0.14107655923E+04  0.14107655923E+04  0.50400001928E-02 0. -1.
       -1   -1    0    0    0  501  0.00000000000E+00  0.00000000000E+00 -0.20516233464E+04  0.20516233464E+04  0.50400001928E-02 0.  1.
    10030    2    1    2    0    0  0.00000000000E+00  0.00000000000E+00 -0.64085775407E+03  0.34623889388E+04  0.34025635192E+04 0.  0.
        4    1    3    3  502    0  0.10173827044E+04  0.10512696738E+04 -0.12040998001E+04  0.18947541887E+04  0.12699999809E+01 0.  1.
       -4    1    3    3    0  502 -0.10173827044E+04 -0.10512696738E+04  0.56324204600E+03  0.15676347500E+04  0.12699999809E+01 0. -1.
</event>
<event>
 5   0  0.1970449E-07  0.3403034E+04  0.7818609E-02  0.8137162E-01
       -2   -1    0    0    0  501  0.00000000000E+00  0.00000000000E+00  0.12536150475E+04  0.12536150475E+04  0.25500000920E-02 0.  1.
        2   -1    0    0  501    0  0.00000000000E+00  0.00000000000E+00 -0.23094488282E+04  0.23094488282E+04  0.25500000920E-02 0. -1.
    10030    2    1    2    0    0  0.00000000000E+00  0.00000000000E+00 -0.10558337807E+04  0.35630638757E+04  0.34030338244E+04 0.  0.
        1    1    3    3  502    0 -0.15861748250E+04 -0.32990701365E+03  0.16506863859E+02  0.16202042124E+04  0.50400001928E-02 0.  1.
       -1    1    3    3    0  502  0.15861748250E+04  0.32990701365E+03 -0.10723406445E+04  0.19428596633E+04  0.50400001928E-02 0. -1.
</event>
<event>
 5   0  0.1928004E-07  0.3402511E+04  0.7818609E-02  0.8137290E-01
       -2   -1    0    0    0  501  0.00000000000E+00  0.00000000000E+00  0.16596312726E+04  0.16596312726E+04  0.25500000920E-02 0. -1.
        2   -1    0    0  501    0  0.00000000000E+00  0.00000000000E+00 -0.17439233233E+04  0.17439233233E+04  0.25500000920E-02 0.  1.
    10030    2    1    2    0    0  0.00000000000E+00  0.00000000000E+00 -0.84292050650E+02  0.34035545959E+04  0.34025106521E+04 0.  0.
        2    1    3    3  502    0  0.14739761364E+04  0.80058960828E+03  0.24205434916E+03  0.16947388234E+04  0.25500000920E-02 0.  1.
       -2    1    3    3    0  502 -0.14739761364E+04 -0.80058960828E+03 -0.32634639981E+03  0.17088157725E+04  0.25500000920E-02 0. -1.
</event>
<event>
 5   0  0.6584420E-08  0.3404510E+04  0.7818609E-02  0.8136800E-01
        1   -1    0    0  501    0  0.00000000000E+00  0.00000000000E+00  0.19401850429E+04  0.19401850429E+04  0.50400001928E-02 0.  1.
       -1   -1    0    0    0  501  0.00000000000E+00  0.00000000000E+00 -0.14935031145E+04  0.14935031146E+04  0.50400001928E-02 0. -1.
    10030    2    1    2    0    0  0.00000000000E+00  0.00000000000E+00  0.44668192832E+03  0.34336881574E+04  0.34045101876E+04 0.  0.
        1    1    3    3  502    0 -0.10317927581E+03  0.25870565315E+03 -0.14703661021E+04  0.14965129643E+04  0.50400001928E-02 0. -1.
       -1    1    3    3    0  502  0.10317927581E+03 -0.25870565315E+03  0.19170480304E+04  0.19371751932E+04  0.50400001928E-02 0.  1.
</event>
<event>
 5   0  0.6788600E-08  0.3401172E+04  0.7818609E-02  0.8137619E-01
       -1   -1    0    0    0  501  0.00000000000E+00  0.00000000000E+00  0.13638795076E+04  0.13638795076E+04  0.50400001928E-02 0. -1.
        1   -1    0    0  501    0  0.00000000000E+00  0.00000000000E+00 -0.21204162175E+04  0.21204162175E+04  0.50400001928E-02 0.  1.
    10030    2    1    2    0    0  0.00000000000E+00  0.00000000000E+00 -0.75653670990E+03  0.34842957252E+04  0.34011716962E+04 0.  0.
        2    1    3    3  502    0 -0.10449070307E+04 -0.11989717422E+04 -0.99517193425E+03  0.18760946458E+04  0.25500000920E-02 0. -1.
       -2    1    3    3    0  502  0.10449070307E+04  0.11989717422E+04  0.23863522436E+03  0.16082010794E+04  0.25500000920E-02 0.  1.
</event>
<event>
 5   0  0.1970449E-07  0.3336754E+04  0.7818609E-02  0.8153606E-01
        2   -1    0    0  501    0  0.00000000000E+00  0.00000000000E+00  0.19919832140E+04  0.19919832140E+04  0.25500000920E-02 0.  1.
       -2   -1    0    0    0  501  0.00000000000E+00  0.00000000000E+00 -0.13973419357E+04  0.13973419357E+04  0.25500000920E-02 0. -1.
    10030    2    1    2    0    0  0.00000000000E+00  0.00000000000E+00  0.59464127828E+03  0.33893251496E+04  0.33367539196E+04 0.  0.
        1    1    3    3  502    0  0.58310249450E+03 -0.12445202295E+04 -0.66343696848E+03  0.15261021368E+04  0.50400001928E-02 0. -1.
       -1    1    3    3    0  502 -0.58310249450E+03  0.12445202295E+04  0.12580782468E+04  0.18632230129E+04  0.50400001928E-02 0.  1.
</event>
<event>
 5   0  0.6788600E-08  0.3404456E+04  0.7818609E-02  0.8136814E-01
       -1   -1    0    0    0  501  0.00000000000E+00  0.00000000000E+00  0.14678288564E+04  0.14678288564E+04  0.50400001928E-02 0. -1.
        1   -1    0    0  501    0  0.00000000000E+00  0.00000000000E+00 -0.19740582423E+04  0.19740582424E+04  0.50400001928E-02 0.  1.
    10030    2    1    2    0    0  0.00000000000E+00  0.00000000000E+00 -0.50622938594E+03  0.34418870988E+04  0.34044556994E+04 0.  0.
        2    1    3    3  502    0 -0.13112031957E+04  0.67111421234E+03  0.60945501709E+03  0.15940776406E+04  0.25500000920E-02 0. -1.
       -2    1    3    3    0  502  0.13112031957E+04 -0.67111421234E+03 -0.11156844030E+04  0.18478094581E+04  0.25500000920E-02 0.  1.
</event>
<event>
 5   0  0.6367111E-08  0.3401442E+04  0.7818609E-02  0.8137552E-01
        1   -1    0    0  501    0  0.00000000000E+00  0.00000000000E+00  0.15581627207E+04  0.15581627207E+04  0.50400001928E-02 0. -1.
       -1   -1    0    0    0  501  0.00000000000E+00  0.00000000000E+00 -0.18563225881E+04  0.18563225882E+04  0.50400001928E-02 0.  1.
    10030    2    1    2    0    0  0.00000000000E+00  0.00000000000E+00 -0.29815986743E+03  0.34144853089E+04  0.34014424320E+04 0.  0.
        3    1    3    3  502    0  0.76313340850E+03 -0.10481176454E+04 -0.12539955469E+04  0.18037261543E+04  0.10100000352E+00 0.  1.
       -3    1    3    3    0  502 -0.76313340850E+03  0.10481176454E+04  0.95583567942E+03  0.16107591546E+04  0.10100000352E+00 0. -1.
</event>
<event>
 5   0  0.1963852E-07  0.3397555E+04  0.7818609E-02  0.8138507E-01
       -2   -1    0    0    0  501  0.00000000000E+00  0.00000000000E+00  0.12938582741E+04  0.12938582741E+04  0.25500000920E-02 0.  1.
        2   -1    0    0  501    0  0.00000000000E+00  0.00000000000E+00 -0.22304179600E+04  0.22304179600E+04  0.25500000920E-02 0. -1.
    10030    2    1    2    0    0  0.00000000000E+00  0.00000000000E+00 -0.93655968581E+03  0.35242762341E+04  0.33975548457E+04 0.  0.
        4    1    3    3  502    0 -0.14921750911E+04  0.53401210155E+02  0.37212661594E+03  0.15388040885E+04  0.12699999809E+01 0.  1.
       -4    1    3    3    0  502  0.14921750911E+04 -0.53401210155E+02 -0.13086863017E+04  0.19854721456E+04  0.12699999809E+01 0. -1.
</event>
<event>
 5   0  0.1963852E-07  0.3401870E+04  0.7818609E-02  0.8137448E-01
        2   -1    0    0  501    0  0.00000000000E+00  0.00000000000E+00  0.23219645342E+04  0.23219645342E+04  0.25500000920E-02 0. -1.
       -2   -1    0    0    0  501  0.00000000000E+00  0.00000000000E+00 -0.12460049693E+04  0.12460049693E+04  0.25500000920E-02 0.  1.
    10030    2    1    2    0    0  0.00000000000E+00  0.00000000000E+00  0.10759595649E+04  0.35679695035E+04  0.34018696907E+04 0.  0.
        4    1    3    3  502    0  0.13936895139E+04  0.93322201868E+03  0.83445442306E+03  0.18733898672E+04  0.12699999809E+01 0. -1.
       -4    1    3    3    0  502 -0.13936895139E+04 -0.93322201868E+03  0.24150514186E+03  0.16945796363E+04  0.12699999809E+01 0.  1.
</event>
<event>
 5   0  0.1963852E-07  0.3404830E+04  0.7818609E-02  0.8136722E-01
        2   -1    0    0  501    0  0.00000000000E+00  0.00000000000E+00  0.17093538308E+04  0.17093538308E+04  0.25500000920E-02 0.  1.
       -2   -1    0    0    0  501  0.00000000000E+00  0.00000000000E+00 -0.16955040674E+04  0.16955040674E+04  0.25500000920E-02 0. -1.
    10030    2    1    2    0    0  0.00000000000E+00  0.00000000000E+00  0.13849763376E+02  0.34048578982E+04  0.34048297301E+04 0.  0.
        4    1    3    3  502    0 -0.52908615523E+02  0.15144559570E+04 -0.76886410415E+03  0.16992733126E+04  0.12699999809E+01 0. -1.
       -4    1    3    3    0  502  0.52908615523E+02 -0.15144559570E+04  0.78271386753E+03  0.17055845856E+04  0.12699999809E+01 0.  1.
</event>
<event>
 5   0  0.1897313E-07  0.3402297E+04  0.7818609E-02  0.8137343E-01
        2   -1    0    0  501    0  0.00000000000E+00  0.00000000000E+00  0.22817805888E+04  0.22817805888E+04  0.25500000920E-02 0.  1.
       -2   -1    0    0    0  501  0.00000000000E+00  0.00000000000E+00 -0.12682670187E+04  0.12682670187E+04  0.25500000920E-02 0. -1.
    10030    2    1    2    0    0  0.00000000000E+00  0.00000000000E+00  0.10135135701E+04  0.35500476075E+04  0.34022974971E+04 0.  0.
        3    1    3    3  502    0  0.62057799190E+03 -0.13704148828E+04  0.13354457856E+04  0.20116086725E+04  0.10100000352E+00 0.  1.
       -3    1    3    3    0  502 -0.62057799190E+03  0.13704148828E+04 -0.32193221546E+03  0.15384389350E+04  0.10100000352E+00 0. -1.
</event>
<event>
 5   0  0.6584420E-08  0.3397785E+04  0.7818609E-02  0.8138450E-01
        1   -1    0    0  501    0  0.00000000000E+00  0.00000000000E+00  0.18443284745E+04  0.18443284745E+04  0.50400001928E-02 0.  1.
       -1   -1    0    0    0  501  0.00000000000E+00  0.00000000000E+00 -0.15649246562E+04  0.15649246562E+04  0.50400001928E-02 0. -1.
    10030    2    1    2    0    0  0.00000000000E+00  0.00000000000E+00  0.27940381830E+03  0.34092531307E+04  0.33977846335E+04 0.  0.
        1    1    3    3  502    0 -0.87107381741E+03  0.11243932484E+04 -0.79252247180E+03  0.16282265324E+04  0.50400001928E-02 0. -1.
       -1    1    3    3    0  502  0.87107381741E+03 -0.11243932484E+04  0.10719262901E+04  0.17810265983E+04  0.50400001928E-02 0.  1.
</event>
<event>
 5   0  0.1928004E-07  0.3400063E+04  0.7818609E-02  0.8137891E-01
       -2   -1    0    0    0  501  0.00000000000E+00  0.00000000000E+00  0.15206319257E+04  0.15206319257E+04  0.25500000920E-02 0.  1.
        2   -1    0    0  501    0  0.00000000000E+00  0.00000000000E+00 -0.19005958988E+04  0.19005958988E+04  0.25500000920E-02 0. -1.
    10030    2    1    2    0    0  0.00000000000E+00  0.00000000000E+00 -0.37996397310E+03  0.34212278245E+04  0.34000628239E+04 0.  0.
        2    1    3    3  502    0  0.99332127061E+03  0.18955683736E+03  0.11850852914E+04  0.15578979714E+04  0.25500000920E-02 0.  1.
       -2    1    3    3    0  502 -0.99332127061E+03 -0.18955683736E+03 -0.15650492645E+04  0.18633298531E+04  0.25500000920E-02 0. -1.
</event>
<event>
 5   0  0.1970449E-07  0.3399247E+04  0.7818609E-02  0.8138091E-01
       -2   -1    0    0    0  501  0.00000000000E+00  0.00000000000E+00  0.11755747457E+04  0.11755747457E+04  0.25500000920E-02 0.  1.
        2   -1    0    0  501    0  0.00000000000E+00  0.00000000000E+00 -0.24572829552E+04  0.24572829552E+04  0.25500000920E-02 0. -1.
    10030    2    1    2    0    0  0.00000000000E+00  0.00000000000E+00 -0.12817082095E+04  0.36328577009E+04  0.33992468491E+04 0.  0.
        1    1    3    3  502    0  0.11539718200E+04 -0.16051937990E+03 -0.19633555584E+04  0.22830204733E+04  0.50400001928E-02 0. -1.
       -1    1    3    3    0  502 -0.11539718200E+04  0.16051937990E+03  0.68164734892E+03  0.13498372276E+04  0.50400001928E-02 0.  1.
</event>
<event>
 5   0  0.6788600E-08  0.3427139E+04  0.7818609E-02  0.8131277E-01
       -1   -1    0    0    0  501  0.00000000000E+00  0.00000000000E+00  0.15709580040E+04  0.15709580040E+04  0.50400001928E-02 0. -1.
        1   -1    0    0  501    0  0.00000000000E+00  0.00000000000E+00 -0.18691275446E+04  0.18691275446E+04  0.50400001928E-02 0.  1.
    10030    2    1    2    0    0  0.00000000000E+00  0.00000000000E+00 -0.29816954063E+03  0.34400855486E+04  0.34271392599E+04 0.  0.
        2    1    3    3  502    0  0.54317137124E+01 -0.15369008820E+04 -0.90972504149E+03  0.17859712976E+04  0.25500000920E-02 0.  1.
       -2    1    3    3    0  502 -0.54317137124E+01  0.15369008820E+04  0.61155550086E+03  0.16541142510E+04  0.25500000920E-02 0. -1.
</event>
<event>
 5   0  0.6788600E-08  0.3400998E+04  0.7818609E-02  0.8137662E-01
        1   -1    0    0  501    0  0.00000000000E+00  0.00000000000E+00  0.21196573638E+04  0.21196573638E+04  0.50400001928E-02 0. -1.
       -1   -1    0    0    0  501  0.00000000000E+00  0.00000000000E+00 -0.13642280393E+04  0.13642280393E+04  0.50400001928E-02 0.  1.
    10030    2    1    2    0    0  0.00000000000E+00  0.00000000000E+00  0.75542932455E+03  0.34838854031E+04  0.34009975063E+04 0.  0.
        2    1    3    3  502    0  0.68353519973E+03  0.11710565424E+04 -0.67350339088E+03  0.15140015232E+04  0.25500000920E-02 0.  1.
       -2    1    3    3    0  502 -0.68353519973E+03 -0.11710565424E+04  0.14289327154E+04  0.19698838799E+04  0.25500000920E-02 0. -1.
</event>
<event>
 5   0  0.1963852E-07  0.3412136E+04  0.7818609E-02  0.8134934E-01
       -2   -1    0    0    0  501  0.00000000000E+00  0.00000000000E+00  0.14168570067E+04  0.14168570067E+04  0.25500000920E-02 0.  1.
        2   -1    0    0  501    0  0.00000000000E+00  0.00000000000E+00 -0.20543135136E+04  0.20543135136E+04  0.25500000920E-02 0. -1.
    10030    2    1    2    0    0  0.00000000000E+00  0.00000000000E+00 -0.63745650689E+03  0.34711705203E+04  0.34121362784E+04 0.  0.
        4    1    3    3  502    0 -0.72207626013E+03  0.11566686654E+04  0.72438526803E+03  0.15440246618E+04  0.12699999809E+01 0.  1.
       -4    1    3    3    0  502  0.72207626013E+03 -0.11566686654E+04 -0.13618417749E+04  0.19271458584E+04  0.12699999809E+01 0. -1.
</event>
<event>
 5   0  0.1963852E-07  0.3407960E+04  0.7818609E-02  0.8135955E-01
        2   -1    0    0  501    0  0.00000000000E+00  0.00000000000E+00  0.22421603140E+04  0.22421603140E+04  0.25500000920E-02 0.  1.
       -2   -1    0    0    0  501  0.00000000000E+00  0.00000000000E+00 -0.12949780434E+04  0.12949780434E+04  0.25500000920E-02 0. -1.
    10030    2    1    2    0    0  0.00000000000E+00  0.00000000000E+00  0.94718227065E+03  0.35371383574E+04  0.34079603145E+04 0.  0.
        4    1    3    3  502    0  0.58989714111E+03 -0.15615627501E+04  0.82874557155E+03  0.18636731728E+04  0.12699999809E+01 0.  1.
       -4    1    3    3    0  502 -0.58989714111E+03  0.15615627501E+04  0.11843669910E+03  0.16734651846E+04  0.12699999809E+01 0. -1.
</event>
<event>
 5   0  0.1963852E-07  0.3394182E+04  0.7818609E-02  0.8139336E-01
       -2   -1    0    0    0  501  0.00000000000E+00  0.00000000000E+00  0.11817031734E+04  0.11817031734E+04  0.25500000920E-02 0. -1.
        2   -1    0    0  501    0  0.00000000000E+00  0.00000000000E+00 -0.24372592828E+04  0.24372592828E+04  0.25500000920E-02 0.  1.
    10030    2    1    2    0    0  0.00000000000E+00  0.00000000000E+00 -0.12555561094E+04  0.36189624563E+04  0.33941815090E+04 0.  0.
        4    1    3    3  502    0 -0.23046166934E+03  0.86625277035E+03  0.90870005656E+03  0.12764183675E+04  0.12699999809E+01 0. -1.
       -4    1    3    3    0  502  0.23046166934E+03 -0.86625277035E+03 -0.21642561659E+04  0.23425440888E+04  0.12699999809E+01 0.  1.
</event>
<event>
 5   0  0.6367111E-08  0.3376420E+04  0.7818609E-02  0.8143718E-01
       -1   -1    0    0    0  501  0.00000000000E+00  0.00000000000E+00  0.12373681157E+04  0.12373681157E+04  0.50400001928E-02 0. -1.
        1   -1    0    0  501    0  0.00000000000E+00  0.00000000000E+00 -0.23033181379E+04  0.23033181379E+04  0.50400001928E-02 0.  1.
    10030    2    1    2    0    0  0.00000000000E+00  0.00000000000E+00 -0.10659500222E+04  0.35406862536E+04  0.33764196565E+04 0.  0.
        3    1    3    3  502    0  0.15475420938E+04 -0.57583160362E+03 -0.16432701402E+03  0.16593588959E+04  0.10100000352E+00 0. -1.
       -3    1    3    3    0  502 -0.15475420938E+04  0.57583160362E+03 -0.90162300815E+03  0.18813273577E+04  0.10100000352E+00 0.  1.
</event>
<event>
 5   0  0.6341535E-08  0.3403474E+04  0.7818609E-02  0.8137054E-01
        1   -1    0    0  501    0  0.00000000000E+00  0.00000000000E+00  0.19794342226E+04  0.19794342226E+04  0.50400001928E-02 0. -1.
       -1   -1    0    0    0  501  0.00000000000E+00  0.00000000000E+00 -0.14629984371E+04  0.14629984371E+04  0.50400001928E-02 0.  1.
    10030    2    1    2    0    0  0.00000000000E+00  0.00000000000E+00  0.51643578556E+03  0.34424326597E+04  0.34034742097E+04 0.  0.
        5    1    3    3  502    0 -0.59789623401E+03  0.80080863278E+03 -0.11349054088E+04  0.15122191474E+04  0.46999998093E+01 0.  1.
       -5    1    3    3    0  502  0.59789623401E+03 -0.80080863278E+03  0.16513411943E+04  0.19302135123E+04  0.46999998093E+01 0. -1.
</event>
<event>
 5   0  0.1928004E-07  0.3406462E+04  0.7818609E-02  0.8136322E-01
        2   -1    0    0  501    0  0.00000000000E+00  0.00000000000E+00  0.26507443548E+04  0.26507443548E+04  0.25500000920E-02 0.  1.
       -2   -1    0    0    0  501  0.00000000000E+00  0.00000000000E+00 -0.10944078990E+04  0.10944078990E+04  0.25500000920E-02 0. -1.
    10030    2    1    2    0    0  0.00000000000E+00  0.00000000000E+00  0.15563364559E+04  0.37451522538E+04  0.34064618360E+04 0.  0.
        2    1    3    3  502    0  0.57695540105E+03 -0.40388080002E+03  0.24831641295E+04  0.25811046723E+04  0.25500000920E-02 0.  1.
       -2    1    3    3    0  502 -0.57695540105E+03  0.40388080002E+03 -0.92682767360E+03  0.11640475815E+04  0.25500000920E-02 0. -1.
</event>
<event>
 5   0  0.6788600E-08  0.3399417E+04  0.7818609E-02  0.8138049E-01
       -1   -1    0    0    0  501  0.00000000000E+00  0.00000000000E+00  0.16108253422E+04  0.16108253422E+04  0.50400001928E-02 0.  1.
        1   -1    0    0  501    0  0.00000000000E+00  0.00000000000E+00 -0.17934965285E+04  0.17934965285E+04  0.50400001928E-02 0. -1.
    10030    2    1    2    0    0  0.00000000000E+00  0.00000000000E+00 -0.18267118632E+03  0.34043218707E+04  0.33994173967E+04 0.  0.
        2    1    3    3  502    0  0.12360515054E+04 -0.89149314745E+02  0.10736306269E+04  0.16396504650E+04  0.25500000920E-02 0.  1.
       -2    1    3    3    0  502 -0.12360515054E+04  0.89149314745E+02 -0.12563018133E+04  0.17646714057E+04  0.25500000920E-02 0. -1.
</event>
<event>
 5   0  0.6788600E-08  0.3403036E+04  0.7818609E-02  0.8137162E-01
        1   -1    0    0  501    0  0.00000000000E+00  0.00000000000E+00  0.17536559593E+04  0.17536559594E+04  0.50400001928E-02 0.  1.
       -1   -1    0    0    0  501  0.00000000000E+00  0.00000000000E+00 -0.16509296866E+04  0.16509296867E+04  0.50400001928E-02 0. -1.
    10030    2    1    2    0    0  0.00000000000E+00  0.00000000000E+00  0.10272627270E+03  0.34045856460E+04  0.34030355176E+04 0.  0.
        2    1    3    3  502    0 -0.79257520984E+03  0.11721447343E+03 -0.14504028988E+04  0.16569801643E+04  0.25500000920E-02 0. -1.
       -2    1    3    3    0  502  0.79257520984E+03 -0.11721447343E+03  0.15531291715E+04  0.17476054817E+04  0.25500000920E-02 0.  1.
</event>
<event>
 5   0  0.6584420E-08  0.3425167E+04  0.7818609E-02  0.8131757E-01
       -1   -1    0    0    0  501  0.00000000000E+00  0.00000000000E+00  0.16754364019E+04  0.16754364019E+04  0.50400001928E-02 0.  1.
        1   -1    0    0  501    0  0.00000000000E+00  0.00000000000E+00 -0.17505543417E+04  0.17505543417E+04  0.50400001928E-02 0. -1.
    10030    2    1    2    0    0  0.00000000000E+00  0.00000000000E+00 -0.75117939791E+02  0.34259907436E+04  0.34251671303E+04 0.  0.
        1    1    3    3  502    0 -0.76170685727E+02  0.10012607890E+04 -0.14251983402E+04  0.17434206176E+04  0.50400001928E-02 0. -1.
       -1    1    3    3    0  502  0.76170685727E+02 -0.10012607890E+04  0.13500804004E+04  0.16825701259E+04  0.50400001928E-02 0.  1.
</event>
<event>
 5   0  0.1928004E-07  0.3390661E+04  0.7818609E-02  0.8140202E-01
       -2   -1    0    0    0  501  0.00000000000E+00  0.00000000000E+00  0.14516651781E+04  0.14516651781E+04  0.25500000920E-02 0.  1.
        2   -1    0    0  501    0  0.00000000000E+00  0.00000000000E+00 -0.19798954083E+04  0.19798954083E+04  0.25500000920E-02 0. -1.
    10030    2    1    2    0    0  0.00000000000E+00  0.00000000000E+00 -0.52823023022E+03  0.34315605864E+04  0.33906608327E+04 0.  0.
        2    1    3    3  502    0  0.16364673678E+04 -0.13095757572E+03 -0.69226645221E+03  0.17816868898E+04  0.25500000920E-02 0. -1.
       -2    1    3    3    0  502 -0.16364673678E+04  0.13095757572E+03  0.16403622199E+03  0.16498736966E+04  0.25500000920E-02 0.  1.
</event>
<event>
 5   0  0.1963852E-07  0.3398631E+04  0.7818609E-02  0.8138242E-01
        2   -1    0    0  501    0  0.00000000000E+00  0.00000000000E+00  0.16191881825E+04  0.16191881825E+04  0.25500000920E-02 0. -1.
       -2   -1    0    0    0  501  0.00000000000E+00  0.00000000000E+00 -0.17834077316E+04  0.17834077316E+04  0.25500000920E-02 0.  1.
    10030    2    1    2    0    0  0.00000000000E+00  0.00000000000E+00 -0.16421954916E+03  0.34025959141E+04  0.33986307381E+04 0.  0.
        4    1    3    3  502    0 -0.14580548107E+04  0.87192126463E+03 -0.12089239168E+03  0.17031697232E+04  0.12699999809E+01 0. -1.
       -4    1    3    3    0  502  0.14580548107E+04 -0.87192126463E+03 -0.43327157479E+02  0.16994261909E+04  0.12699999809E+01 0.  1.
</event>
<event>
 5   0  0.6584420E-08  0.3397615E+04  0.7818609E-02  0.8138492E-01
        1   -1    0    0  501    0  0.00000000000E+00  0.00000000000E+00  0.18229501908E+04  0.18229501908E+04  0.50400001928E-02 0. -1.
       -1   -1    0    0    0  501  0.00000000000E+00  0.00000000000E+00 -0.15831187080E+04  0.15831187080E+04  0.50400001928E-02 0.  1.
    10030    2    1    2    0    0  0.00000000000E+00  0.00000000000E+00  0.23983148285E+03  0.34060688988E+04  0.33976147815E+04 0.  0.
        1    1    3    3  502    0  0.13569666246E+04 -0.10124303865E+04 -0.20335349941E+02  0.16931589512E+04  0.50400001928E-02 0.  1.
       -1    1    3    3    0  502 -0.13569666246E+04  0.10124303865E+04  0.26016683279E+03  0.17129099476E+04  0.50400001928E-02 0. -1.
</event>
<event>
 5   0  0.1970449E-07  0.3396099E+04  0.7818609E-02  0.8138864E-01
        2   -1    0    0  501    0  0.00000000000E+00  0.00000000000E+00  0.29398268415E+04  0.29398268416E+04  0.25500000920E-02 0. -1.
       -2   -1    0    0    0  501  0.00000000000E+00  0.00000000000E+00 -0.98079682421E+03  0.98079682421E+03  0.25500000920E-02 0.  1.
    10030    2    1    2    0    0  0.00000000000E+00  0.00000000000E+00  0.19590300173E+04  0.39206236658E+04  0.33960994272E+04 0.  0.
        1    1    3    3  502    0  0.84718069640E+03 -0.12129263264E+04  0.17458238810E+02  0.14795979845E+04  0.50400001928E-02 0.  1.
       -1    1    3    3    0  502 -0.84718069640E+03  0.12129263264E+04  0.19415717785E+04  0.24410256813E+04  0.50400001928E-02 0. -1.
</event>
<event>
 5   0  0.6788600E-08  0.3399625E+04  0.7818609E-02  0.8137998E-01
       -1   -1    0    0    0  501  0.00000000000E+00  0.00000000000E+00  0.15046574477E+04  0.15046574477E+04  0.50400001928E-02 0. -1.
        1   -1    0    0  501    0  0.00000000000E+00  0.00000000000E+00 -0.19202797294E+04  0.19202797294E+04  0.50400001928E-02 0.  1.
    10030    2    1    2    0    0  0.00000000000E+00  0.00000000000E+00 -0.41562228175E+03  0.34249371771E+04  0.33996253890E+04 0.  0.
        2    1    3    3  502    0  0.11198978156E+04 -0.12430752291E+04  0.94348700525E+02  0.16758009487E+04  0.25500000920E-02 0. -1.
       -2    1    3    3    0  502 -0.11198978156E+04  0.12430752291E+04 -0.50997098228E+03  0.17491362283E+04  0.25500000920E-02 0.  1.
</event>
<event>
 5   0  0.6584420E-08  0.3380677E+04  0.7818609E-02  0.8142665E-01
        1   -1    0    0  501    0  0.00000000000E+00  0.00000000000E+00  0.22903170038E+04  0.22903170038E+04  0.50400001928E-02 0.  1.
       -1   -1    0    0    0  501  0.00000000000E+00  0.00000000000E+00 -0.12475321703E+04  0.12475321703E+04  0.50400001928E-02 0. -1.
    10030    2    1    2    0    0  0.00000000000E+00  0.00000000000E+00  0.10427848334E+04  0.35378491741E+04  0.33806769396E+04 0.  0.
        1    1    3    3  502    0 -0.44932980702E+03 -0.29526478163E+02  0.22263947084E+04  0.22714758387E+04  0.50400001928E-02 0.  1.
       -1    1    3    3    0  502  0.44932980702E+03  0.29526478163E+02 -0.11836098750E+04  0.12663733354E+04  0.50400001928E-02 0. -1.
</event>
<event>
 5   0  0.6367111E-08  0.3379968E+04  0.7818609E-02  0.8142840E-01
        1   -1    0    0  501    0  0.00000000000E+00  0.00000000000E+00  0.21510522918E+04  0.21510522918E+04  0.50400001928E-02 0.  1.
       -1   -1    0    0    0  501  0.00000000000E+00  0.00000000000E+00 -0.13277433065E+04  0.13277433065E+04  0.50400001928E-02 0. -1.
    10030    2    1    2    0    0  0.00000000000E+00  0.00000000000E+00  0.82330898523E+03  0.34787955983E+04  0.33799676226E+04 0.  0.
        3    1    3    3  502    0  0.44196079861E+03  0.98258137750E+03 -0.92843319723E+03  0.14222460135E+04  0.10100000352E+00 0. -1.
       -3    1    3    3    0  502 -0.44196079861E+03 -0.98258137750E+03  0.17517421825E+04  0.20565495848E+04  0.10100000352E+00 0.  1.
</event>
<event>
 5   0  0.6584420E-08  0.3415041E+04  0.7818609E-02  0.8134225E-01
        1   -1    0    0  501    0  0.00000000000E+00  0.00000000000E+00  0.16076632591E+04  0.16076632591E+04  0.50400001928E-02 0. -1.
       -1   -1    0    0    0  501  0.00000000000E+00  0.00000000000E+00 -0.18135801298E+04  0.18135801298E+04  0.50400001928E-02 0.  1.
    10030    2    1    2    0    0  0.00000000000E+00  0.00000000000E+00 -0.20591687063E+03  0.34212433889E+04  0.34150409322E+04 0.  0.
        1    1    3    3  502    0 -0.15046697034E+04 -0.48811841562E+03  0.54112107543E+03  0.16718560113E+04  0.50400001928E-02 0. -1.
       -1    1    3    3    0  502  0.15046697034E+04  0.48811841562E+03 -0.74703794606E+03  0.17493873776E+04  0.50400001928E-02 0.  1.
</event>
<event>
 5   0  0.6584420E-08  0.3399214E+04  0.7818609E-02  0.8138099E-01
        1   -1    0    0  501    0  0.00000000000E+00  0.00000000000E+00  0.13392778750E+04  0.13392778750E+04  0.50400001928E-02 0.  1.
       -1   -1    0    0    0  501  0.00000000000E+00  0.00000000000E+00 -0.21568811066E+04  0.21568811066E+04  0.50400001928E-02 0. -1.
    10030    2    1    2    0    0  0.00000000000E+00  0.00000000000E+00 -0.81760323167E+03  0.34961589816E+04  0.33992135238E+04 0.  0.
        1    1    3    3  502    0 -0.19132258129E+03 -0.13622653166E+04  0.61780971567E+03  0.15079986631E+04  0.50400001928E-02 0.  1.
       -1    1    3    3    0  502  0.19132258129E+03  0.13622653166E+04 -0.14354129473E+04  0.19881603186E+04  0.50400001928E-02 0. -1.
</event>
<event>
 5   0  0.6788600E-08  0.3401372E+04  0.7818609E-02  0.8137570E-01
        1   -1    0    0  501    0  0.00000000000E+00  0.00000000000E+00  0.21748808776E+04  0.21748808776E+04  0.50400001928E-02 0. -1.
       -1   -1    0    0    0  501  0.00000000000E+00  0.00000000000E+00 -0.13298810421E+04  0.13298810421E+04  0.50400001928E-02 0.  1.
    10030    2    1    2    0    0  0.00000000000E+00  0.00000000000E+00  0.84499983550E+03  0.35047619197E+04  0.34013719867E+04 0.  0.
        2    1    3    3  502    0 -0.12497998820E+04 -0.38925352593E+03 -0.69623496520E+03  0.14826534252E+04  0.25500000920E-02 0.  1.
       -2    1    3    3    0  502  0.12497998820E+04  0.38925352593E+03  0.15412348007E+04  0.20221084945E+04  0.25500000920E-02 0. -1.
</event>
<event>
 5   0  0.6584420E-08  0.3392273E+04  0.7818609E-02  0.8139805E-01
        1   -1    0    0  501    0  0.00000000000E+00  0.00000000000E+00  0.18727286747E+04  0.18727286747E+04  0.50400001928E-02 0.  1.
       -1   -1    0    0    0  501  0.00000000000E+00  0.00000000000E+00 -0.15361966308E+04  0.15361966308E+04  0.50400001928E-02 0. -1.
    10030    2    1    2    0    0  0.00000000000E+00  0.00000000000E+00  0.33653204387E+03  0.34089253055E+04  0.33922732676E+04 0.  0.
        1    1    3    3  502    0 -0.84361704342E+03  0.52633275882E+03 -0.12125838528E+04  0.15681439631E+04  0.50400001928E-02 0. -1.
       -1    1    3    3    0  502  0.84361704342E+03 -0.52633275882E+03  0.15491158967E+04  0.18407813424E+04  0.50400001928E-02 0.  1.
</event>
<event>
 5   0  0.1928004E-07  0.3404795E+04  0.7818609E-02  0.8136731E-01
        2   -1    0    0  501    0  0.00000000000E+00  0.00000000000E+00  0.30613968063E+04  0.30613968063E+04  0.25500000920E-02 0. -1.
       -2   -1    0    0    0  501  0.00000000000E+00  0.00000000000E+00 -0.94667780673E+03  0.94667780674E+03  0.25500000920E-02 0.  1.
    10030    2    1    2    0    0  0.00000000000E+00  0.00000000000E+00  0.21147189996E+04  0.40080746130E+04  0.34047945102E+04 0.  0.
        2    1    3    3  502    0  0.84736131527E+03 -0.11437235448E+04  0.21566463175E+04  0.25840371678E+04  0.25500000920E-02 0.  1.
       -2    1    3    3    0  502 -0.84736131527E+03  0.11437235448E+04 -0.41927317919E+02  0.14240374453E+04  0.25500000920E-02 0. -1.
</event>
<event>
 5   0  0.6788600E-08  0.3399988E+04  0.7818609E-02  0.8137909E-01
       -1   -1    0    0    0  501  0.00000000000E+00  0.00000000000E+00  0.18292007527E+04  0.18292007527E+04  0.50400001928E-02 0. -1.
        1   -1    0    0  501    0  0.00000000000E+00  0.00000000000E+00 -0.15799143076E+04  0.15799143076E+04  0.50400001928E-02 0.  1.
    10030    2    1    2    0    0  0.00000000000E+00  0.00000000000E+00  0.24928644513E+03  0.34091150603E+04  0.33999884945E+04 0.  0.
        2    1    3    3  502    0  0.37790822769E+03 -0.14709333307E+03  0.17799925035E+04  0.18256024730E+04  0.25500000920E-02 0. -1.
       -2    1    3    3    0  502 -0.37790822769E+03  0.14709333307E+03 -0.15307060583E+04  0.15835125873E+04  0.25500000920E-02 0.  1.
</event>
<event>
 5   0  0.6341535E-08  0.3401636E+04  0.7818609E-02  0.8137505E-01
       -1   -1    0    0    0  501  0.00000000000E+00  0.00000000000E+00  0.23616342726E+04  0.23616342726E+04  0.50400001928E-02 0.  1.
        1   -1    0    0  501    0  0.00000000000E+00  0.00000000000E+00 -0.12249070599E+04  0.12249070599E+04  0.50400001928E-02 0. -1.
    10030    2    1    2    0    0  0.00000000000E+00  0.00000000000E+00  0.11367272127E+04  0.35865413325E+04  0.34016363670E+04 0.  0.
        5    1    3    3  502    0  0.13209887112E+04  0.10510571789E+04  0.34965608897E+03  0.17239529689E+04  0.46999998093E+01 0. -1.
       -5    1    3    3    0  502 -0.13209887112E+04 -0.10510571789E+04  0.78707112373E+03  0.18625883636E+04  0.46999998093E+01 0.  1.
</event>
<event>
 5   0  0.1970449E-07  0.3401011E+04  0.7818609E-02  0.8137658E-01
        2   -1    0    0  501    0  0.00000000000E+00  0.00000000000E+00  0.13248182882E+04  0.13248182882E+04  0.25500000920E-02 0.  1.
       -2   -1    0    0    0  501  0.00000000000E+00  0.00000000000E+00 -0.21827291339E+04  0.21827291339E+04  0.25500000920E-02 0. -1.
    10030    2    1    2    0    0  0.00000000000E+00  0.00000000000E+00 -0.85791084568E+03  0.35075474221E+04  0.34010113054E+04 0.  0.
        1    1    3    3  502    0  0.59359037458E+02 -0.16976169524E+04 -0.34714423661E+03  0.17337635172E+04  0.50400001928E-02 0. -1.
       -1    1    3    3    0  502 -0.59359037458E+02  0.16976169524E+04 -0.51076660907E+03  0.17737839049E+04  0.50400001928E-02 0.  1.
</event>
<event>
 5   0  0.1970449E-07  0.3351969E+04  0.7818609E-02  0.8149796E-01
       -2   -1    0    0    0  501  0.00000000000E+00  0.00000000000E+00  0.14781319910E+04  0.14781319910E+04  0.25500000920E-02 0.  1.
        2   -1    0    0  501    0  0.00000000000E+00  0.00000000000E+00 -0.19003198066E+04  0.19003198066E+04  0.25500000920E-02 0. -1.
    10030    2    1    2    0    0  0.00000000000E+00  0.00000000000E+00 -0.42218781559E+03  0.33784517976E+04  0.33519686749E+04 0.  0.
        1    1    3    3  502    0 -0.90100622069E+03  0.29736892863E+03 -0.16035601632E+04  0.18632352741E+04  0.50400001928E-02 0. -1.
       -1    1    3    3    0  502  0.90100622069E+03 -0.29736892863E+03  0.11813723476E+04  0.15152165235E+04  0.50400001928E-02 0.  1.
</event>
<event>
 5   0  0.1928004E-07  0.3408728E+04  0.7818609E-02  0.8135767E-01
       -2   -1    0    0    0  501  0.00000000000E+00  0.00000000000E+00  0.12630924276E+04  0.12630924276E+04  0.25500000920E-02 0. -1.
        2   -1    0    0  501    0  0.00000000000E+00  0.00000000000E+00 -0.22997978093E+04  0.22997978093E+04  0.25500000920E-02 0.  1.
    10030    2    1    2    0    0  0.00000000000E+00  0.00000000000E+00 -0.10367053817E+04  0.35628902370E+04  0.34087283248E+04 0.  0.
        2    1    3    3  502    0  0.65036627899E+03 -0.28646310698E+02 -0.21647275008E+04  0.22604959767E+04  0.25500000920E-02 0.  1.
       -2    1    3    3    0  502 -0.65036627899E+03  0.28646310698E+02  0.11280221191E+04  0.13023942602E+04  0.25500000920E-02 0. -1.
</event>
<event>
 5   0  0.1986613E-07  0.3397743E+04  0.7818609E-02  0.8138460E-01
       -2   -1    0    0    0  501  0.00000000000E+00  0.00000000000E+00  0.14165675683E+04  0.14165675683E+04  0.25500000920E-02 0.  1.
        2   -1    0    0  501    0  0.00000000000E+00  0.00000000000E+00 -0.20374349646E+04  0.20374349646E+04  0.25500000920E-02 0. -1.
    10030    2    1    2    0    0  0.00000000000E+00  0.00000000000E+00 -0.62086739635E+03  0.34540025329E+04  0.33977429528E+04 0.  0.
        5    1    3    3  502    0 -0.80077598654E+03 -0.68304093133E+03  0.10451969374E+04  0.14833225618E+04  0.46999998093E+01 0.  1.
       -5    1    3    3    0  502  0.80077598654E+03  0.68304093133E+03 -0.16660643337E+04  0.19706799711E+04  0.46999998093E+01 0. -1.
</event>
<event>
 5   0  0.6311750E-08  0.3403834E+04  0.7818609E-02  0.8136966E-01
        1   -1    0    0  501    0  0.00000000000E+00  0.00000000000E+00  0.14484232468E+04  0.14484232468E+04  0.50400001928E-02 0. -1.
       -1   -1    0    0    0  501  0.00000000000E+00  0.00000000000E+00 -0.19997760357E+04  0.19997760357E+04  0.50400001928E-02 0.  1.
    10030    2    1    2    0    0  0.00000000000E+00  0.00000000000E+00 -0.55135278890E+03  0.34481992826E+04  0.34038343665E+04 0.  0.
        4    1    3    3  502    0 -0.63501927385E+03 -0.15035468271E+04 -0.76426748899E+03  0.18022233344E+04  0.12699999809E+01 0.  1.
       -4    1    3    3    0  502  0.63501927385E+03  0.15035468271E+04  0.21291470009E+03  0.16459759482E+04  0.12699999809E+01 0. -1.
</event>
<event>
 5   0  0.1970449E-07  0.3399418E+04  0.7818609E-02  0.8138049E-01
        2   -1    0    0  501    0  0.00000000000E+00  0.00000000000E+00  0.14131467437E+04  0.14131467437E+04  0.25500000920E-02 0. -1.
       -2   -1    0    0    0  501  0.00000000000E+00  0.00000000000E+00 -0.20443810308E+04  0.20443810308E+04  0.25500000920E-02 0.  1.
    10030    2    1    2    0    0  0.00000000000E+00  0.00000000000E+00 -0.63123428710E+03  0.34575277745E+04  0.33994178305E+04 0.  0.
        1    1    3    3  502    0 -0.55970573437E+03  0.15126211831E+04 -0.86117890676E+03  0.18283660635E+04  0.50400001928E-02 0.  1.
       -1    1    3    3    0  502  0.55970573437E+03 -0.15126211831E+04  0.22994461966E+03  0.16291617110E+04  0.50400001928E-02 0. -1.
</event>
<event>
 5   0  0.6584420E-08  0.3399439E+04  0.7818609E-02  0.8138044E-01
       -1   -1    0    0    0  501  0.00000000000E+00  0.00000000000E+00  0.15685735841E+04  0.15685735841E+04  0.50400001928E-02 0. -1.
        1   -1    0    0  501    0  0.00000000000E+00  0.00000000000E+00 -0.18418306394E+04  0.18418306395E+04  0.50400001928E-02 0.  1.
    10030    2    1    2    0    0  0.00000000000E+00  0.00000000000E+00 -0.27325705532E+03  0.34104042236E+04  0.33994392994E+04 0.  0.
        1    1    3    3  502    0 -0.19071141696E+03  0.45422319131E+03 -0.17686385062E+04  0.18359661538E+04  0.50400001928E-02 0.  1.
       -1    1    3    3    0  502  0.19071141696E+03 -0.45422319131E+03  0.14953814509E+04  0.15744380698E+04  0.50400001928E-02 0. -1.
</event>
<event>
 5   0  0.6788600E-08  0.3403833E+04  0.7818609E-02  0.8136966E-01
        1   -1    0    0  501    0  0.00000000000E+00  0.00000000000E+00  0.26508985520E+04  0.26508985520E+04  0.50400001928E-02 0.  1.
       -1   -1    0    0    0  501  0.00000000000E+00  0.00000000000E+00 -0.10926559107E+04  0.10926559107E+04  0.50400001928E-02 0. -1.
    10030    2    1    2    0    0  0.00000000000E+00  0.00000000000E+00  0.15582426413E+04  0.37435544627E+04  0.34038331167E+04 0.  0.
        2    1    3    3  502    0  0.62959112528E+03 -0.33284797080E+03 -0.92090454450E+03  0.11641468708E+04  0.25500000920E-02 0. -1.
       -2    1    3    3    0  502 -0.62959112528E+03  0.33284797080E+03  0.24791471858E+04  0.25794075919E+04  0.25500000920E-02 0.  1.
</event>
<event>
 5   0  0.6584420E-08  0.3401059E+04  0.7818609E-02  0.8137647E-01
       -1   -1    0    0    0  501  0.00000000000E+00  0.00000000000E+00  0.12072087044E+04  0.12072087044E+04  0.50400001928E-02 0.  1.
        1   -1    0    0  501    0  0.00000000000E+00  0.00000000000E+00 -0.23954433252E+04  0.23954433252E+04  0.50400001928E-02 0. -1.
    10030    2    1    2    0    0  0.00000000000E+00  0.00000000000E+00 -0.11882346208E+04  0.36026520297E+04  0.34010586782E+04 0.  0.
        1    1    3    3  502    0  0.43771114793E+03 -0.89579689054E+03 -0.20533632155E+04  0.22826177106E+04  0.50400001928E-02 0. -1.
       -1    1    3    3    0  502 -0.43771114793E+03  0.89579689054E+03  0.86512859468E+03  0.13200343191E+04  0.50400001928E-02 0.  1.
</event>
<event>
 5   0  0.6341535E-08  0.3399054E+04  0.7818609E-02  0.8138139E-01
        1   -1    0    0  501    0  0.00000000000E+00  0.00000000000E+00  0.17734887579E+04  0.17734887579E+04  0.50400001928E-02 0.  1.
       -1   -1    0    0    0  501  0.00000000000E+00  0.00000000000E+00 -0.16286494787E+04  0.16286494787E+04  0.50400001928E-02 0. -1.
    10030    2    1    2    0    0  0.00000000000E+00  0.00000000000E+00  0.14483927914E+03  0.34021382366E+04  0.33990537160E+04 0.  0.
        5    1    3    3  502    0  0.49747346617E+03 -0.14693787085E+04 -0.62233979419E+03  0.16714911151E+04  0.46999998093E+01 0. -1.
       -5    1    3    3    0  502 -0.49747346617E+03  0.14693787085E+04  0.76717907333E+03  0.17306471215E+04  0.46999998093E+01 0.  1.
</event>
<event>
 5   0  0.6788600E-08  0.3408004E+04  0.7818609E-02  0.8135945E-01
       -1   -1    0    0    0  501  0.00000000000E+00  0.00000000000E+00  0.14791473145E+04  0.14791473145E+04  0.50400001928E-02 0.  1.
        1   -1    0    0  501    0  0.00000000000E+00  0.00000000000E+00 -0.19630388660E+04  0.19630388660E+04  0.50400001928E-02 0. -1.
    10030    2    1    2    0    0  0.00000000000E+00  0.00000000000E+00 -0.48389155153E+03  0.34421861805E+04  0.34080044993E+04 0.  0.
        2    1    3    3  502    0 -0.42293178440E+03 -0.13948762607E+04 -0.11334494957E+04  0.18464178390E+04  0.25500000920E-02 0. -1.
       -2    1    3    3    0  502  0.42293178440E+03  0.13948762607E+04  0.64955794419E+03  0.15957683415E+04  0.25500000920E-02 0.  1.
</event>
<event>
 5   0  0.1970449E-07  0.3400546E+04  0.7818609E-02  0.8137772E-01
        2   -1    0    0  501    0  0.00000000000E+00  0.00000000000E+00  0.14849650160E+04  0.14849650160E+04  0.25500000920E-02 0.  1.
       -2   -1    0    0    0  501  0.00000000000E+00  0.00000000000E+00 -0.19467989394E+04  0.19467989394E+04  0.25500000920E-02 0. -1.
    10030    2    1    2    0    0  0.00000000000E+00  0.00000000000E+00 -0.46183392340E+03  0.34317639554E+04  0.34005460256E+04 0.  0.
        1    1    3    3  502    0 -0.41515342717E+03 -0.93578038323E+03 -0.16009106886E+04  0.19002505957E+04  0.50400001928E-02 0. -1.
       -1    1    3    3    0  502  0.41515342717E+03  0.93578038323E+03  0.11390767652E+04  0.15315133596E+04  0.50400001928E-02 0.  1.
</event>
<event>
 5   0  0.1897313E-07  0.3398377E+04  0.7818609E-02  0.8138305E-01
        2   -1    0    0  501    0  0.00000000000E+00  0.00000000000E+00  0.28433857976E+04  0.28433857976E+04  0.25500000920E-02 0.  1.
       -2   -1    0    0    0  501  0.00000000000E+00  0.00000000000E+00 -0.10154236586E+04  0.10154236586E+04  0.25500000920E-02 0. -1.
    10030    2    1    2    0    0  0.00000000000E+00  0.00000000000E+00  0.18279621389E+04  0.38588094562E+04  0.33983767946E+04 0.  0.
        3    1    3    3  502    0  0.13194627898E+04 -0.10607206632E+04  0.10790403637E+04  0.20075952021E+04  0.10100000352E+00 0.  1.
       -3    1    3    3    0  502 -0.13194627898E+04  0.10607206632E+04  0.74892177522E+03  0.18512142541E+04  0.10100000352E+00 0. -1.
</event>
<event>
 5   0  0.6584420E-08  0.3399456E+04  0.7818609E-02  0.8138040E-01
       -1   -1    0    0    0  501  0.00000000000E+00  0.00000000000E+00  0.19811190871E+04  0.19811190871E+04  0.50400001928E-02 0. -1.
        1   -1    0    0  501    0  0.00000000000E+00  0.00000000000E+00 -0.14583046370E+04  0.14583046370E+04  0.50400001928E-02 0.  1.
    10030    2    1    2    0    0  0.00000000000E+00  0.00000000000E+00  0.52281445010E+03  0.34394237240E+04  0.33994559277E+04 0.  0.
        1    1    3    3  502    0 -0.99917903352E+03  0.47288232596E+03 -0.10449348829E+04  0.15211394890E+04  0.50400001928E-02 0.  1.
       -1    1    3    3    0  502  0.99917903352E+03 -0.47288232596E+03  0.15677493330E+04  0.19182842351E+04  0.50400001928E-02 0. -1.
</event>
<event>
 5   0  0.6788600E-08  0.3399661E+04  0.7818609E-02  0.8137990E-01
       -1   -1    0    0    0  501  0.00000000000E+00  0.00000000000E+00  0.29206715443E+04  0.29206715443E+04  0.50400001928E-02 0. -1.
        1   -1    0    0  501    0  0.00000000000E+00  0.00000000000E+00 -0.98930090844E+03  0.98930090846E+03  0.50400001928E-02 0.  1.
    10030    2    1    2    0    0  0.00000000000E+00  0.00000000000E+00  0.19313706358E+04  0.39099724527E+04  0.33996605784E+04 0.  0.
        2    1    3    3  502    0 -0.10087204685E+04  0.12819227296E+04  0.15155519794E+04  0.22265984529E+04  0.25500000920E-02 0. -1.
       -2    1    3    3    0  502  0.10087204685E+04 -0.12819227296E+04  0.41581865641E+03  0.16833739998E+04  0.25500000920E-02 0.  1.
</event>
<event>
 5   0  0.6584420E-08  0.3387551E+04  0.7818609E-02  0.8140969E-01
       -1   -1    0    0    0  501  0.00000000000E+00  0.00000000000E+00  0.11746353904E+04  0.11746353904E+04  0.50400001928E-02 0.  1.
        1   -1    0    0  501    0  0.00000000000E+00  0.00000000000E+00 -0.24423533536E+04  0.24423533536E+04  0.50400001928E-02 0. -1.
    10030    2    1    2    0    0  0.00000000000E+00  0.00000000000E+00 -0.12677179633E+04  0.36169887440E+04  0.33875505516E+04 0.  0.
        1    1    3    3  502    0 -0.80054931826E+02  0.50821539241E+03 -0.23569059772E+04  0.24124049126E+04  0.50400001928E-02 0. -1.
       -1    1    3    3    0  502  0.80054931826E+02 -0.50821539241E+03  0.10891880139E+04  0.12045838314E+04  0.50400001928E-02 0.  1.
</event>
<event>
 5   0  0.6311750E-08  0.3399240E+04  0.7818609E-02  0.8138093E-01
        1   -1    0    0  501    0  0.00000000000E+00  0.00000000000E+00  0.11065702276E+04  0.11065702276E+04  0.50400001928E-02 0. -1.
       -1   -1    0    0    0  501  0.00000000000E+00  0.00000000000E+00 -0.26105063442E+04  0.26105063442E+04  0.50400001928E-02 0.  1.
    10030    2    1    2    0    0  0.00000000000E+00  0.00000000000E+00 -0.15039361166E+04  0.37170765718E+04  0.33992402678E+04 0.  0.
        4    1    3    3  502    0  0.15217704837E+04 -0.50841965193E+03 -0.13879600827E+03  0.16104477304E+04  0.12699999809E+01 0. -1.
       -4    1    3    3    0  502 -0.15217704837E+04  0.50841965193E+03 -0.13651401083E+04  0.21066288414E+04  0.12699999809E+01 0.  1.
</event>
<event>
 5   0  0.6367111E-08  0.3427300E+04  0.7818609E-02  0.8131238E-01
       -1   -1    0    0    0  501  0.00000000000E+00  0.00000000000E+00  0.32295224961E+04  0.32295224961E+04  0.50400001928E-02 0. -1.
        1   -1    0    0  501    0  0.00000000000E+00  0.00000000000E+00 -0.90929757478E+03  0.90929757480E+03  0.50400001928E-02 0.  1.
    10030    2    1    2    0    0  0.00000000000E+00  0.00000000000E+00  0.23202249213E+04  0.41388200709E+04  0.34273003799E+04 0.  0.
        3    1    3    3  502    0  0.55820187329E+03 -0.16178495286E+04  0.10550403016E+04  0.20105065224E+04  0.10100000352E+00 0.  1.
       -3    1    3    3    0  502 -0.55820187329E+03  0.16178495286E+04  0.12651846197E+04  0.21283135485E+04  0.10100000352E+00 0. -1.
</event>
<event>
 5   0  0.1970449E-07  0.3395770E+04  0.7818609E-02  0.8138945E-01
        2   -1    0    0  501    0  0.00000000000E+00  0.00000000000E+00  0.12482094677E+04  0.12482094678E+04  0.25500000920E-02 0.  1.
       -2   -1    0    0    0  501  0.00000000000E+00  0.00000000000E+00 -0.23095595880E+04  0.23095595880E+04  0.25500000920E-02 0. -1.
    10030    2    1    2    0    0  0.00000000000E+00  0.00000000000E+00 -0.10613501203E+04  0.35577690558E+04  0.33957703951E+04 0.  0.
        1    1    3    3  502    0 -0.25798520377E+03  0.14455801356E+04 -0.14237212825E+04  0.20452971872E+04  0.50400001928E-02 0. -1.
       -1    1    3    3    0  502  0.25798520377E+03 -0.14455801356E+04  0.36237116230E+03  0.15124718685E+04  0.50400001928E-02 0.  1.
</event>
<event>
 5   0  0.6341535E-08  0.3395275E+04  0.7818609E-02  0.8139067E-01
        1   -1    0    0  501    0  0.00000000000E+00  0.00000000000E+00  0.19387284348E+04  0.19387284348E+04  0.50400001928E-02 0.  1.
       -1   -1    0    0    0  501  0.00000000000E+00  0.00000000000E+00 -0.14865273004E+04  0.14865273004E+04  0.50400001928E-02 0. -1.
    10030    2    1    2    0    0  0.00000000000E+00  0.00000000000E+00  0.45220113435E+03  0.34252557352E+04  0.33952748027E+04 0.  0.
        5    1    3    3  502    0 -0.55610402910E+02 -0.93999765749E+03 -0.11989100385E+04  0.15244984367E+04  0.46999998093E+01 0. -1.
       -5    1    3    3    0  502  0.55610402910E+02  0.93999765749E+03  0.16511111728E+04  0.19007572986E+04  0.46999998093E+01 0.  1.
</event>
<event>
 5   0  0.1928004E-07  0.3399792E+04  0.7818609E-02  0.8137957E-01
        2   -1    0    0  501    0  0.00000000000E+00  0.00000000000E+00  0.92603830911E+03  0.92603830912E+03  0.25500000920E-02 0.  1.
       -2   -1    0    0    0  501  0.00000000000E+00  0.00000000000E+00 -0.31204388650E+04  0.31204388650E+04  0.25500000920E-02 0. -1.
    10030    2    1    2    0    0  0.00000000000E+00  0.00000000000E+00 -0.21944005559E+04  0.40464771741E+04  0.33997917173E+04 0.  0.
        2    1    3    3  502    0  0.47435986730E+02 -0.16975610110E+04 -0.10074802099E+04  0.19745834832E+04  0.25500000920E-02 0.  1.
       -2    1    3    3    0  502 -0.47435986730E+02  0.16975610110E+04 -0.11869203460E+04  0.20718936909E+04  0.25500000920E-02 0. -1.
</event>
<event>
 5   0  0.6311750E-08  0.3400088E+04  0.7818609E-02  0.8137885E-01
        1   -1    0    0  501    0  0.00000000000E+00  0.00000000000E+00  0.16553560530E+04  0.16553560530E+04  0.50400001928E-02 0. -1.
       -1   -1    0    0    0  501  0.00000000000E+00  0.00000000000E+00 -0.17459384915E+04  0.17459384915E+04  0.50400001928E-02 0.  1.
    10030    2    1    2    0    0  0.00000000000E+00  0.00000000000E+00 -0.90582438477E+02  0.34012945445E+04  0.34000881460E+04 0.  0.
        4    1    3    3  502    0  0.21247900755E+03 -0.64275918692E+02  0.16407947313E+04  0.16557438466E+04  0.12699999809E+01 0. -1.
       -4    1    3    3    0  502 -0.21247900755E+03  0.64275918692E+02 -0.17313771697E+04  0.17455506980E+04  0.12699999809E+01 0.  1.
</event>
<event>
 5   0  0.1897313E-07  0.3388873E+04  0.7818609E-02  0.8140643E-01
       -2   -1    0    0    0  501  0.00000000000E+00  0.00000000000E+00  0.18812192181E+04  0.18812192182E+04  0.25500000920E-02 0. -1.
        2   -1    0    0  501    0  0.00000000000E+00  0.00000000000E+00 -0.15261994970E+04  0.15261994970E+04  0.25500000920E-02 0.  1.
    10030    2    1    2    0    0  0.00000000000E+00  0.00000000000E+00  0.35501972112E+03  0.34074187152E+04  0.33888734556E+04 0.  0.
        3    1    3    3  502    0 -0.13694493466E+04  0.71568941277E+03 -0.52164634160E+03  0.16308641159E+04  0.10100000352E+00 0. -1.
       -3    1    3    3    0  502  0.13694493466E+04 -0.71568941277E+03  0.87666606272E+03  0.17765545993E+04  0.10100000352E+00 0.  1.
</event>
<event>
 5   0  0.6584420E-08  0.3331966E+04  0.7818609E-02  0.8154809E-01
        1   -1    0    0  501    0  0.00000000000E+00  0.00000000000E+00  0.11526445091E+04  0.11526445091E+04  0.50400001928E-02 0.  1.
       -1   -1    0    0    0  501  0.00000000000E+00  0.00000000000E+00 -0.24079406137E+04  0.24079406137E+04  0.50400001928E-02 0. -1.
    10030    2    1    2    0    0  0.00000000000E+00  0.00000000000E+00 -0.12552961045E+04  0.35605851228E+04  0.33319661023E+04 0.  0.
        1    1    3    3  502    0  0.11944874800E+04  0.30438258344E+03  0.56998655391E+03  0.13580625054E+04  0.50400001928E-02 0.  1.
       -1    1    3    3    0  502 -0.11944874800E+04 -0.30438258344E+03 -0.18252826584E+04  0.22025226174E+04  0.50400001928E-02 0. -1.
</event>
<event>
 5   0  0.1897313E-07  0.3387749E+04  0.7818609E-02  0.8140920E-01
        2   -1    0    0  501    0  0.00000000000E+00  0.00000000000E+00  0.21351796271E+04  0.21351796271E+04  0.25500000920E-02 0. -1.
       -2   -1    0    0    0  501  0.00000000000E+00  0.00000000000E+00 -0.13437793817E+04  0.13437793817E+04  0.25500000920E-02 0.  1.
    10030    2    1    2    0    0  0.00000000000E+00  0.00000000000E+00  0.79140024537E+03  0.34789590088E+04  0.33877487269E+04 0.  0.
        3    1    3    3  502    0 -0.34125454262E+03  0.14077460836E+04  0.12974107390E+04  0.19446023590E+04  0.10100000352E+00 0. -1.
       -3    1    3    3    0  502  0.34125454262E+03 -0.14077460836E+04 -0.50601049361E+03  0.15343566498E+04  0.10100000352E+00 0.  1.
</event>
<event>
 5   0  0.6367111E-08  0.3449539E+04  0.7818609E-02  0.8125854E-01
        1   -1    0    0  501    0  0.00000000000E+00  0.00000000000E+00  0.15786267837E+04  0.15786267837E+04  0.50400001928E-02 0. -1.
       -1   -1    0    0    0  501  0.00000000000E+00  0.00000000000E+00 -0.18844415132E+04  0.18844415132E+04  0.50400001928E-02 0.  1.
    10030    2    1    2    0    0  0.00000000000E+00  0.00000000000E+00 -0.30581472950E+03  0.34630682969E+04  0.34495390098E+04 0.  0.
        3    1    3    3  502    0 -0.57095706235E+03  0.26529721801E+03  0.14591474146E+04  0.15891777021E+04  0.10100000352E+00 0. -1.
       -3    1    3    3    0  502  0.57095706235E+03 -0.26529721801E+03 -0.17649621441E+04  0.18738905948E+04  0.10100000352E+00 0.  1.
</event>
<event>
 5   0  0.6341535E-08  0.3398642E+04  0.7818609E-02  0.8138240E-01
        1   -1    0    0  501    0  0.00000000000E+00  0.00000000000E+00  0.22700816788E+04  0.22700816788E+04  0.50400001928E-02 0.  1.
       -1   -1    0    0    0  501  0.00000000000E+00  0.00000000000E+00 -0.12720649200E+04  0.12720649200E+04  0.50400001928E-02 0. -1.
    10030    2    1    2    0    0  0.00000000000E+00  0.00000000000E+00  0.99801675880E+03  0.35421465989E+04  0.33986416518E+04 0.  0.
        5    1    3    3  502    0 -0.19583836201E+03  0.16424066186E+04  0.92919236066E+02  0.16566557395E+04  0.46999998093E+01 0. -1.
       -5    1    3    3    0  502  0.19583836201E+03 -0.16424066186E+04  0.90509752273E+03  0.18854908593E+04  0.46999998093E+01 0.  1.
</event>
<event>
 5   0  0.6367111E-08  0.3396733E+04  0.7818609E-02  0.8138709E-01
        1   -1    0    0  501    0  0.00000000000E+00  0.00000000000E+00  0.14078885158E+04  0.14078885158E+04  0.50400001928E-02 0. -1.
       -1   -1    0    0    0  501  0.00000000000E+00  0.00000000000E+00 -0.20487769191E+04  0.20487769192E+04  0.50400001928E-02 0.  1.
    10030    2    1    2    0    0  0.00000000000E+00  0.00000000000E+00 -0.64088840339E+03  0.34566654349E+04  0.33967334284E+04 0.  0.
        3    1    3    3  502    0 -0.34333358801E+02 -0.81754942736E+03 -0.18349513910E+04  0.20091322663E+04  0.10100000352E+00 0.  1.
       -3    1    3    3    0  502  0.34333358801E+02  0.81754942736E+03  0.11940629876E+04  0.14475331687E+04  0.10100000352E+00 0. -1.
</event>
<event>
 5   0  0.1986613E-07  0.3399825E+04  0.7818609E-02  0.8137949E-01
        2   -1    0    0  501    0  0.00000000000E+00  0.00000000000E+00  0.18073491732E+04  0.18073491732E+04  0.25500000920E-02 0. -1.
       -2   -1    0    0    0  501  0.00000000000E+00  0.00000000000E+00 -0.15988621549E+04  0.15988621549E+04  0.25500000920E-02 0.  1.
    10030    2    1    2    0    0  0.00000000000E+00  0.00000000000E+00  0.20848701828E+03  0.34062113280E+04  0.33998248153E+04 0.  0.
        5    1    3    3  502    0  0.14675818682E+03 -0.57327070230E+03 -0.14923317714E+04  0.16053826552E+04  0.46999998093E+01 0.  1.
       -5    1    3    3    0  502 -0.14675818682E+03  0.57327070230E+03  0.17008187897E+04  0.18008286729E+04  0.46999998093E+01 0. -1.
</event>
<event>
 5   0  0.1970449E-07  0.3401184E+04  0.7818609E-02  0.8137616E-01
       -2   -1    0    0    0  501  0.00000000000E+00  0.00000000000E+00  0.14166483037E+04  0.14166483037E+04  0.25500000920E-02 0. -1.
        2   -1    0    0  501    0  0.00000000000E+00  0.00000000000E+00 -0.20414478774E+04  0.20414478774E+04  0.25500000920E-02 0.  1.
    10030    2    1    2    0    0  0.00000000000E+00  0.00000000000E+00 -0.62479957368E+03  0.34580961812E+04  0.34011843071E+04 0.  0.
        1    1    3    3  502    0 -0.77344417756E+03 -0.60314267409E+03  0.11000968882E+04  0.14738419673E+04  0.50400001928E-02 0. -1.
       -1    1    3    3    0  502  0.77344417756E+03  0.60314267409E+03 -0.17248964619E+04  0.19842542139E+04  0.50400001928E-02 0.  1.
</event>
<event>
 5   0  0.1970449E-07  0.3412525E+04  0.7818609E-02  0.8134839E-01
        2   -1    0    0  501    0  0.00000000000E+00  0.00000000000E+00  0.22445413006E+04  0.22445413006E+04  0.25500000920E-02 0.  1.
       -2   -1    0    0    0  501  0.00000000000E+00  0.00000000000E+00 -0.12970721911E+04  0.12970721911E+04  0.25500000920E-02 0. -1.
    10030    2    1    2    0    0  0.00000000000E+00  0.00000000000E+00  0.94746910948E+03  0.35416134917E+04  0.34125252250E+04 0.  0.
        1    1    3    3  502    0 -0.81967929189E+03 -0.87726089088E+03 -0.78450967314E+03  0.14341953282E+04  0.50400001928E-02 0. -1.
       -1    1    3    3    0  502  0.81967929189E+03  0.87726089088E+03  0.17319787826E+04  0.21074181635E+04  0.50400001928E-02 0.  1.
</event>
<event>
 5   0  0.6788600E-08  0.3399493E+04  0.7818609E-02  0.8138031E-01
       -1   -1    0    0    0  501  0.00000000000E+00  0.00000000000E+00  0.10974553127E+04  0.10974553127E+04  0.50400001928E-02 0.  1.
        1   -1    0    0  501    0  0.00000000000E+00  0.00000000000E+00 -0.26325798943E+04  0.26325798943E+04  0.50400001928E-02 0. -1.
    10030    2    1    2    0    0  0.00000000000E+00  0.00000000000E+00 -0.15351245816E+04  0.37300352070E+04  0.33994933688E+04 0.  0.
        2    1    3    3  502    0 -0.10996486388E+04 -0.35169160764E+03 -0.21363461687E+04  0.24283511007E+04  0.25500000920E-02 0. -1.
       -2    1    3    3    0  502  0.10996486388E+04  0.35169160764E+03  0.60122158711E+03  0.13016841063E+04  0.25500000920E-02 0.  1.
</event>
<event>
 5   0  0.1986613E-07  0.3404463E+04  0.7818609E-02  0.8136812E-01
       -2   -1    0    0    0  501  0.00000000000E+00  0.00000000000E+00  0.12393791862E+04  0.12393791862E+04  0.25500000920E-02 0. -1.
        2   -1    0    0  501    0  0.00000000000E+00  0.00000000000E+00 -0.23379383063E+04  0.23379383063E+04  0.25500000920E-02 0.  1.
    10030    2    1    2    0    0  0.00000000000E+00  0.00000000000E+00 -0.10985591202E+04  0.35773174925E+04  0.34044629975E+04 0.  0.
        5    1    3    3  502    0  0.10956226193E+03 -0.16961617918E+04 -0.64673143869E+03  0.18185852625E+04  0.46999998093E+01 0. -1.
       -5    1    3    3    0  502 -0.10956226193E+03  0.16961617918E+04 -0.45182768147E+03  0.17587322300E+04  0.46999998093E+01 0.  1.
</event>
<event>
 5   0  0.1928004E-07  0.3408180E+04  0.7818609E-02  0.8135902E-01
        2   -1    0    0  501    0  0.00000000000E+00  0.00000000000E+00  0.18542528195E+04  0.18542528195E+04  0.25500000920E-02 0. -1.
       -2   -1    0    0    0  501  0.00000000000E+00  0.00000000000E+00 -0.15660880770E+04  0.15660880770E+04  0.25500000920E-02 0.  1.
    10030    2    1    2    0    0  0.00000000000E+00  0.00000000000E+00  0.28816474247E+03  0.34203408965E+04  0.34081802960E+04 0.  0.
        2    1    3    3  502    0 -0.61519931167E+03 -0.15235606418E+04  0.59759744373E+03  0.17483792286E+04  0.25500000920E-02 0. -1.
       -2    1    3    3    0  502  0.61519931167E+03  0.15235606418E+04 -0.30943270126E+03  0.16719616679E+04  0.25500000920E-02 0.  1.
</event>
<event>
 5   0  0.6341535E-08  0.3391728E+04  0.7818609E-02  0.8139939E-01
        1   -1    0    0  501    0  0.00000000000E+00  0.00000000000E+00  0.16236056929E+04  0.16236056929E+04  0.50400001928E-02 0.  1.
       -1   -1    0    0    0  501  0.00000000000E+00  0.00000000000E+00 -0.17713384028E+04  0.17713384028E+04  0.50400001928E-02 0. -1.
    10030    2    1    2    0    0  0.00000000000E+00  0.00000000000E+00 -0.14773270991E+03  0.33949440957E+04  0.33917282408E+04 0.  0.
        5    1    3    3  502    0 -0.15168958489E+03 -0.27917006508E+03  0.15935424290E+04  0.16249139110E+04  0.46999998093E+01 0.  1.
       -5    1    3    3    0  502  0.15168958489E+03  0.27917006508E+03 -0.17412751389E+04  0.17700301847E+04  0.46999998093E+01 0. -1.
</event>
<event>
 5   0  0.6311750E-08  0.3397295E+04  0.7818609E-02  0.8138570E-01
        1   -1    0    0  501    0  0.00000000000E+00  0.00000000000E+00  0.28064105694E+04  0.28064105694E+04  0.50400001928E-02 0. -1.
       -1   -1    0    0    0  501  0.00000000000E+00  0.00000000000E+00 -0.10281474441E+04  0.10281474441E+04  0.50400001928E-02 0.  1.
    10030    2    1    2    0    0  0.00000000000E+00  0.00000000000E+00  0.17782631253E+04  0.38345580135E+04  0.33972953089E+04 0.  0.
        4    1    3    3  502    0 -0.10874745962E+04 -0.44171917686E+03  0.22750490659E+04  0.25599934948E+04  0.12699999809E+01 0. -1.
       -4    1    3    3    0  502  0.10874745962E+04  0.44171917686E+03 -0.49678594058E+03  0.12745645187E+04  0.12699999809E+01 0.  1.
</event>
<event>
 5   0  0.6367111E-08  0.3401082E+04  0.7818609E-02  0.8137641E-01
       -1   -1    0    0    0  501  0.00000000000E+00  0.00000000000E+00  0.18354208191E+04  0.18354208191E+04  0.50400001928E-02 0. -1.
        1   -1    0    0  501    0  0.00000000000E+00  0.00000000000E+00 -0.15755734037E+04  0.15755734037E+04  0.50400001928E-02 0.  1.
    10030    2    1    2    0    0  0.00000000000E+00  0.00000000000E+00  0.25984741546E+03  0.34109942228E+04  0.34010823143E+04 0.  0.
        3    1    3    3  502    0  0.82037471138E+03 -0.11508475665E+04 -0.81854666722E+03  0.16332432290E+04  0.10100000352E+00 0.  1.
       -3    1    3    3    0  502 -0.82037471138E+03  0.11508475665E+04  0.10783940827E+04  0.17777509938E+04  0.10100000352E+00 0. -1.
</event>
<event>
 5   0  0.6341535E-08  0.3398205E+04  0.7818609E-02  0.8138347E-01
       -1   -1    0    0    0  501  0.00000000000E+00  0.00000000000E+00  0.21129997717E+04  0.21129997717E+04  0.50400001928E-02 0.  1.
        1   -1    0    0  501    0  0.00000000000E+00  0.00000000000E+00 -0.13662799543E+04  0.13662799543E+04  0.50400001928E-02 0. -1.
    10030    2    1    2    0    0  0.00000000000E+00  0.00000000000E+00  0.74671981738E+03  0.34792797261E+04  0.33982049565E+04 0.  0.
        5    1    3    3  502    0 -0.24455779848E+03 -0.14668743778E+04 -0.46807344274E+03  0.15590522104E+04  0.46999998093E+01 0. -1.
       -5    1    3    3    0  502  0.24455779848E+03  0.14668743778E+04  0.12147932601E+04  0.19202275156E+04  0.46999998093E+01 0.  1.
</event>
<event>
 5   0  0.1928004E-07  0.3404381E+04  0.7818609E-02  0.8136832E-01
       -2   -1    0    0    0  501  0.00000000000E+00  0.00000000000E+00  0.18557089025E+04  0.18557089025E+04  0.25500000920E-02 0.  1.
        2   -1    0    0  501    0  0.00000000000E+00  0.00000000000E+00 -0.15613720973E+04  0.15613720973E+04  0.25500000920E-02 0. -1.
    10030    2    1    2    0    0  0.00000000000E+00  0.00000000000E+00  0.29433680525E+03  0.34170809998E+04  0.34043807666E+04 0.  0.
        2    1    3    3  502    0  0.14932957947E+04  0.49586450524E+02 -0.67138660738E+03  0.16380326990E+04  0.25500000920E-02 0. -1.
       -2    1    3    3    0  502 -0.14932957947E+04 -0.49586450524E+02  0.96572341262E+03  0.17790483007E+04  0.25500000920E-02 0.  1.
</event>
<event>
 5   0  0.1928004E-07  0.3374418E+04  0.7818609E-02  0.8144214E-01
        2   -1    0    0  501    0  0.00000000000E+00  0.00000000000E+00  0.21155131712E+04  0.21155131712E+04  0.25500000920E-02 0.  1.
       -2   -1    0    0    0  501  0.00000000000E+00  0.00000000000E+00 -0.13456189582E+04  0.13456189582E+04  0.25500000920E-02 0. -1.
    10030    2    1    2    0    0  0.00000000000E+00  0.00000000000E+00  0.76989421300E+03  0.34611321294E+04  0.33744182488E+04 0.  0.
        2    1    3    3  502    0  0.82350972884E+03 -0.47980640869E+03  0.18129493445E+04  0.20482108751E+04  0.25500000920E-02 0.  1.
       -2    1    3    3    0  502 -0.82350972884E+03  0.47980640869E+03 -0.10430551315E+04  0.14129212542E+04  0.25500000920E-02 0. -1.
</event>
<event>
 5   0  0.6311750E-08  0.3398441E+04  0.7818609E-02  0.8138289E-01
       -1   -1    0    0    0  501  0.00000000000E+00  0.00000000000E+00  0.26474880500E+04  0.26474880500E+04  0.50400001928E-02 0.  1.
        1   -1    0    0  501    0  0.00000000000E+00  0.00000000000E+00 -0.10906000222E+04  0.10906000222E+04  0.50400001928E-02 0. -1.
    10030    2    1    2    0    0  0.00000000000E+00  0.00000000000E+00  0.15568880278E+04  0.37380880722E+04  0.33984411286E+04 0.  0.
        4    1    3    3  502    0  0.75131085633E+03 -0.54243434260E+03  0.23450973277E+04  0.25215443894E+04  0.12699999809E+01 0.  1.
       -4    1    3    3    0  502 -0.75131085633E+03  0.54243434260E+03 -0.78820929980E+03  0.12165436828E+04  0.12699999809E+01 0. -1.
</event>
<event>
 5   0  0.6584420E-08  0.3401899E+04  0.7818609E-02  0.8137440E-01
        1   -1    0    0  501    0  0.00000000000E+00  0.00000000000E+00  0.15664229989E+04  0.15664229989E+04  0.50400001928E-02 0. -1.
       -1   -1    0    0    0  501  0.00000000000E+00  0.00000000000E+00 -0.18470288951E+04  0.18470288951E+04  0.50400001928E-02 0.  1.
    10030    2    1    2    0    0  0.00000000000E+00  0.00000000000E+00 -0.28060589622E+03  0.34134518940E+04  0.34018986116E+04 0.  0.
        1    1    3    3  502    0 -0.15148042828E+03 -0.16940978150E+04 -0.15810620089E+03  0.17081894795E+04  0.50400001928E-02 0.  1.
       -1    1    3    3    0  502  0.15148042828E+03  0.16940978150E+04 -0.12249969533E+03  0.17052624145E+04  0.50400001928E-02 0. -1.
</event>
<event>
 5   0  0.6584420E-08  0.3397809E+04  0.7818609E-02  0.8138444E-01
        1   -1    0    0  501    0  0.00000000000E+00  0.00000000000E+00  0.21305521415E+04  0.21305521416E+04  0.50400001928E-02 0.  1.
       -1   -1    0    0    0  501  0.00000000000E+00  0.00000000000E+00 -0.13547084512E+04  0.13547084513E+04  0.50400001928E-02 0. -1.
    10030    2    1    2    0    0  0.00000000000E+00  0.00000000000E+00  0.77584369030E+03  0.34852605928E+04  0.33978092895E+04 0.  0.
        1    1    3    3  502    0 -0.11027924860E+04 -0.12632688287E+04  0.66747549207E+03  0.18048609180E+04  0.50400001928E-02 0.  1.
       -1    1    3    3    0  502  0.11027924860E+04  0.12632688287E+04  0.10836819824E+03  0.16803996748E+04  0.50400001928E-02 0. -1.
</event>
<event>
 5   0  0.6341535E-08  0.3403275E+04  0.7818609E-02  0.8137103E-01
       -1   -1    0    0    0  501  0.00000000000E+00  0.00000000000E+00  0.17135255385E+04  0.17135255386E+04  0.50400001928E-02 0. -1.
        1   -1    0    0  501    0  0.00000000000E+00  0.00000000000E+00 -0.16898323328E+04  0.16898323328E+04  0.50400001928E-02 0.  1.
    10030    2    1    2    0    0  0.00000000000E+00  0.00000000000E+00  0.23693205734E+02  0.34033578714E+04  0.34032753977E+04 0.  0.
        5    1    3    3  502    0  0.96215339076E+02  0.15734527491E+04 -0.62890117972E+03  0.16972182326E+04  0.46999998093E+01 0. -1.
       -5    1    3    3    0  502 -0.96215339076E+02 -0.15734527491E+04  0.65259438545E+03  0.17061396388E+04  0.46999998093E+01 0.  1.
</event>
<event>
 5   0  0.1963852E-07  0.3401733E+04  0.7818609E-02  0.8137481E-01
       -2   -1    0    0    0  501  0.00000000000E+00  0.00000000000E+00  0.15229884727E+04  0.15229884727E+04  0.25500000920E-02 0.  1.
        2   -1    0    0  501    0  0.00000000000E+00  0.00000000000E+00 -0.18995201506E+04  0.18995201506E+04  0.25500000920E-02 0. -1.
    10030    2    1    2    0    0  0.00000000000E+00  0.00000000000E+00 -0.37653167789E+03  0.34225086233E+04  0.34017332600E+04 0.  0.
        4    1    3    3  502    0 -0.11077113962E+04  0.10027413211E+03 -0.14829293883E+04  0.18536883833E+04  0.12699999809E+01 0. -1.
       -4    1    3    3    0  502  0.11077113962E+04 -0.10027413211E+03  0.11063977104E+04  0.15688202400E+04  0.12699999809E+01 0.  1.
</event>
<event>
 5   0  0.1897313E-07  0.3397764E+04  0.7818609E-02  0.8138455E-01
        2   -1    0    0  501    0  0.00000000000E+00  0.00000000000E+00  0.30954626985E+04  0.30954626985E+04  0.25500000920E-02 0.  1.
       -2   -1    0    0    0  501  0.00000000000E+00  0.00000000000E+00 -0.93239675874E+03  0.93239675874E+03  0.25500000920E-02 0. -1.
    10030    2    1    2    0    0  0.00000000000E+00  0.00000000000E+00  0.21630659397E+04  0.40278594572E+04  0.33977636097E+04 0.  0.
        3    1    3    3  502    0 -0.11363166023E+04  0.11119118705E+03 -0.40978255137E+03  0.12130542652E+04  0.10100000352E+00 0. -1.
       -3    1    3    3    0  502  0.11363166023E+04 -0.11119118705E+03  0.25728484911E+04  0.28148051920E+04  0.10100000352E+00 0.  1.
</event>
<event>
 5   0  0.1970449E-07  0.3401443E+04  0.7818609E-02  0.8137552E-01
       -2   -1    0    0    0  501  0.00000000000E+00  0.00000000000E+00  0.24558273957E+04  0.24558273957E+04  0.25500000920E-02 0.  1.
        2   -1    0    0  501    0  0.00000000000E+00  0.00000000000E+00 -0.11777916049E+04  0.11777916049E+04  0.25500000920E-02 0. -1.
    10030    2    1    2    0    0  0.00000000000E+00  0.00000000000E+00  0.12780357909E+04  0.36336190006E+04  0.34014425703E+04 0.  0.
        1    1    3    3  502    0 -0.49709666721E+03 -0.15818375752E+04  0.23485798727E+03  0.16746562290E+04  0.50400001928E-02 0.  1.
       -1    1    3    3    0  502  0.49709666721E+03  0.15818375752E+04  0.10431778036E+04  0.19589627717E+04  0.50400001928E-02 0. -1.
</event>
<event>
 5   0  0.1897313E-07  0.3389561E+04  0.7818609E-02  0.8140473E-01
       -2   -1    0    0    0  501  0.00000000000E+00  0.00000000000E+00  0.13734801736E+04  0.13734801736E+04  0.25500000920E-02 0.  1.
        2   -1    0    0  501    0  0.00000000000E+00  0.00000000000E+00 -0.20912425085E+04  0.20912425085E+04  0.25500000920E-02 0. -1.
    10030    2    1    2    0    0  0.00000000000E+00  0.00000000000E+00 -0.71776233494E+03  0.34647226821E+04  0.33895605164E+04 0.  0.
        3    1    3    3  502    0 -0.15850154923E+04  0.51655860423E+02  0.25215158594E+03  0.16057779645E+04  0.10100000352E+00 0. -1.
       -3    1    3    3    0  502  0.15850154923E+04 -0.51655860423E+02 -0.96991392088E+03  0.18589447176E+04  0.10100000352E+00 0.  1.
</event>
<event>
 5   0  0.1986613E-07  0.3443525E+04  0.7818609E-02  0.8127306E-01
       -2   -1    0    0    0  501  0.00000000000E+00  0.00000000000E+00  0.15465603140E+04  0.15465603140E+04  0.25500000920E-02 0.  1.
        2   -1    0    0  501    0  0.00000000000E+00  0.00000000000E+00 -0.19168129553E+04  0.19168129553E+04  0.25500000920E-02 0. -1.
    10030    2    1    2    0    0  0.00000000000E+00  0.00000000000E+00 -0.37025264130E+03  0.34633732692E+04  0.34435254295E+04 0.  0.
        5    1    3    3  502    0  0.11613290880E+04 -0.11597696413E+04  0.33815499533E+03  0.16757451364E+04  0.46999998093E+01 0.  1.
       -5    1    3    3    0  502 -0.11613290880E+04  0.11597696413E+04 -0.70840763663E+03  0.17876281328E+04  0.46999998093E+01 0. -1.
</event>
<event>
 5   0  0.1986613E-07  0.3402912E+04  0.7818609E-02  0.8137192E-01
        2   -1    0    0  501    0  0.00000000000E+00  0.00000000000E+00  0.24680790455E+04  0.24680790455E+04  0.25500000920E-02 0.  1.
       -2   -1    0    0    0  501  0.00000000000E+00  0.00000000000E+00 -0.11729579017E+04  0.11729579017E+04  0.25500000920E-02 0. -1.
    10030    2    1    2    0    0  0.00000000000E+00  0.00000000000E+00  0.12951211438E+04  0.36410369473E+04  0.34029121755E+04 0.  0.
        5    1    3    3  502    0 -0.60969730650E+03  0.52781281221E+03 -0.95548229583E+03  0.12503142317E+04  0.46999998093E+01 0. -1.
       -5    1    3    3    0  502  0.60969730650E+03 -0.52781281221E+03  0.22506034396E+04  0.23907227156E+04  0.46999998093E+01 0.  1.
</event>
<event>
 5   0  0.6367111E-08  0.3400178E+04  0.7818609E-02  0.8137863E-01
       -1   -1    0    0    0  501  0.00000000000E+00  0.00000000000E+00  0.10917809630E+04  0.10917809630E+04  0.50400001928E-02 0.  1.
        1   -1    0    0  501    0  0.00000000000E+00  0.00000000000E+00 -0.26473278899E+04  0.26473278899E+04  0.50400001928E-02 0. -1.
    10030    2    1    2    0    0  0.00000000000E+00  0.00000000000E+00 -0.15555469269E+04  0.37391088529E+04  0.34001777560E+04 0.  0.
        3    1    3    3  502    0 -0.13175007440E+04 -0.10254676272E+04 -0.11305466146E+04  0.20163153828E+04  0.10100000352E+00 0. -1.
       -3    1    3    3    0  502  0.13175007440E+04  0.10254676272E+04 -0.42500031228E+03  0.17227934701E+04  0.10100000352E+00 0.  1.
</event>
<event>
 5   0  0.1970449E-07  0.3404952E+04  0.7818609E-02  0.8136692E-01
        2   -1    0    0  501    0  0.00000000000E+00  0.00000000000E+00  0.22680915646E+04  0.22680915646E+04  0.25500000920E-02 0. -1.
       -2   -1    0    0    0  501  0.00000000000E+00  0.00000000000E+00 -0.12779137089E+04  0.12779137089E+04  0.25500000920E-02 0.  1.
    10030    2    1    2    0    0  0.00000000000E+00  0.00000000000E+00  0.99017785568E+03  0.35460052735E+04  0.34049524540E+04 0.  0.
        1    1    3    3  502    0  0.77500093222E+03  0.13092185671E+04  0.12907720318E+04  0.19951872442E+04  0.50400001928E-02 0. -1.
       -1    1    3    3    0  502 -0.77500093222E+03 -0.13092185671E+04 -0.30059417612E+03  0.15508180293E+04  0.50400001928E-02 0.  1.
</event>
<event>
 5   0  0.6367111E-08  0.3402654E+04  0.7818609E-02  0.8137255E-01
        1   -1    0    0  501    0  0.00000000000E+00  0.00000000000E+00  0.12102334342E+04  0.12102334342E+04  0.50400001928E-02 0. -1.
       -1   -1    0    0    0  501  0.00000000000E+00  0.00000000000E+00 -0.23916981290E+04  0.23916981290E+04  0.50400001928E-02 0.  1.
    10030    2    1    2    0    0  0.00000000000E+00  0.00000000000E+00 -0.11814646948E+04  0.36019315632E+04  0.34026536939E+04 0.  0.
        3    1    3    3  502    0 -0.34283022314E+03  0.16652687764E+04 -0.52496168962E+03  0.17793924372E+04  0.10100000352E+00 0. -1.
       -3    1    3    3    0  502  0.34283022314E+03 -0.16652687764E+04 -0.65650300523E+03  0.18225391260E+04  0.10100000352E+00 0.  1.
</event>
<event>
 5   0  0.6788600E-08  0.3399343E+04  0.7818609E-02  0.8138068E-01
       -1   -1    0    0    0  501  0.00000000000E+00  0.00000000000E+00  0.17397377165E+04  0.17397377165E+04  0.50400001928E-02 0. -1.
        1   -1    0    0  501    0  0.00000000000E+00  0.00000000000E+00 -0.16605277446E+04  0.16605277446E+04  0.50400001928E-02 0.  1.
    10030    2    1    2    0    0  0.00000000000E+00  0.00000000000E+00  0.79209971973E+02  0.34002654611E+04  0.33993427286E+04 0.  0.
        2    1    3    3  502    0 -0.52856284494E+03 -0.17576026156E+03 -0.15666367411E+04  0.16627149573E+04  0.25500000920E-02 0.  1.
       -2    1    3    3    0  502  0.52856284494E+03  0.17576026156E+03  0.16458467131E+04  0.17375505039E+04  0.25500000920E-02 0. -1.
</event>
<event>
 5   0  0.6311750E-08  0.3394258E+04  0.7818609E-02  0.8139317E-01
        1   -1    0    0  501    0  0.00000000000E+00  0.00000000000E+00  0.22662454146E+04  0.22662454146E+04  0.50400001928E-02 0. -1.
       -1   -1    0    0    0  501  0.00000000000E+00  0.00000000000E+00 -0.12709334591E+04  0.12709334591E+04  0.50400001928E-02 0.  1.
    10030    2    1    2    0    0  0.00000000000E+00  0.00000000000E+00  0.99531195556E+03  0.35371788737E+04  0.33942581657E+04 0.  0.
        4    1    3    3  502    0 -0.79472061562E+03 -0.92234684554E+03 -0.73447411469E+03  0.14218855082E+04  0.12699999809E+01 0.  1.
       -4    1    3    3    0  502  0.79472061562E+03  0.92234684554E+03  0.17297860703E+04  0.21152933655E+04  0.12699999809E+01 0. -1.
</event>
<event>
 5   0  0.1963852E-07  0.3396719E+04  0.7818609E-02  0.8138712E-01
       -2   -1    0    0    0  501  0.00000000000E+00  0.00000000000E+00  0.11260084574E+04  0.11260084574E+04  0.25500000920E-02 0.  1.
        2   -1    0    0  501    0  0.00000000000E+00  0.00000000000E+00 -0.25616366362E+04  0.25616366362E+04  0.25500000920E-02 0. -1.
    10030    2    1    2    0    0  0.00000000000E+00  0.00000000000E+00 -0.14356281788E+04  0.36876450937E+04  0.33967187209E+04 0.  0.
        4    1    3    3  502    0 -0.26650444502E+02  0.15660494008E+04 -0.49120101140E+01  0.15662843652E+04  0.12699999809E+01 0. -1.
       -4    1    3    3    0  502  0.26650444502E+02 -0.15660494008E+04 -0.14307161687E+04  0.21213607285E+04  0.12699999809E+01 0.  1.
</event>
<event>
 5   0  0.6341535E-08  0.3391055E+04  0.7818609E-02  0.8140105E-01
       -1   -1    0    0    0  501  0.00000000000E+00  0.00000000000E+00  0.22310987966E+04  0.22310987966E+04  0.50400001928E-02 0.  1.
        1   -1    0    0  501    0  0.00000000000E+00  0.00000000000E+00 -0.12885195041E+04  0.12885195041E+04  0.50400001928E-02 0. -1.
    10030    2    1    2    0    0  0.00000000000E+00  0.00000000000E+00  0.94257929253E+03  0.35196183007E+04  0.33910554788E+04 0.  0.
        5    1    3    3  502    0 -0.61316317956E+03 -0.58352452026E+03 -0.10535311925E+04  0.13514510772E+04  0.46999998093E+01 0. -1.
       -5    1    3    3    0  502  0.61316317956E+03  0.58352452026E+03  0.19961104851E+04  0.21681672235E+04  0.46999998093E+01 0.  1.
</event>
<event>
 5   0  0.6341535E-08  0.3416554E+04  0.7818609E-02  0.8133855E-01
       -1   -1    0    0    0  501  0.00000000000E+00  0.00000000000E+00  0.12565036453E+04  0.12565036453E+04  0.50400001928E-02 0.  1.
        1   -1    0    0  501    0  0.00000000000E+00  0.00000000000E+00 -0.23224838816E+04  0.23224838816E+04  0.50400001928E-02 0. -1.
    10030    2    1    2    0    0  0.00000000000E+00  0.00000000000E+00 -0.10659802363E+04  0.35789875270E+04  0.34165535052E+04 0.  0.
        5    1    3    3  502    0  0.20124241391E+03  0.15278315785E+04 -0.13052075134E+04  0.20194941408E+04  0.46999998093E+01 0. -1.
       -5    1    3    3    0  502 -0.20124241391E+03 -0.15278315785E+04  0.23922727713E+03  0.15594933862E+04  0.46999998093E+01 0.  1.
</event>
<event>
 5   0  0.6341535E-08  0.3398974E+04  0.7818609E-02  0.8138158E-01
       -1   -1    0    0    0  501  0.00000000000E+00  0.00000000000E+00  0.24232704355E+04  0.24232704355E+04  0.50400001928E-02 0. -1.
        1   -1    0    0  501    0  0.00000000000E+00  0.00000000000E+00 -0.11918831572E+04  0.11918831572E+04  0.50400001928E-02 0.  1.
    10030    2    1    2    0    0  0.00000000000E+00  0.00000000000E+00  0.12313872783E+04  0.36151535927E+04  0.33989735023E+04 0.  0.
        5    1    3    3  502    0 -0.15581683615E+04  0.30686385054E+03  0.12593080035E+04  0.20268035927E+04  0.46999998093E+01 0. -1.
       -5    1    3    3    0  502  0.15581683615E+04 -0.30686385054E+03 -0.27920725193E+02  0.15883500000E+04  0.46999998093E+01 0.  1.
</event>
<event>
 5   0  0.1986613E-07  0.3399968E+04  0.7818609E-02  0.8137914E-01
        2   -1    0    0  501    0  0.00000000000E+00  0.00000000000E+00  0.12267124828E+04  0.12267124828E+04  0.25500000920E-02 0.  1.
       -2   -1    0    0    0  501  0.00000000000E+00  0.00000000000E+00 -0.23558457209E+04  0.23558457209E+04  0.25500000920E-02 0. -1.
    10030    2    1    2    0    0  0.00000000000E+00  0.00000000000E+00 -0.11291332381E+04  0.35825582037E+04  0.33999678548E+04 0.  0.
        5    1    3    3  502    0  0.15411433829E+04  0.31367941829E+03  0.11538295074E+03  0.15769759096E+04  0.46999998093E+01 0.  1.
       -5    1    3    3    0  502 -0.15411433829E+04 -0.31367941829E+03 -0.12445161888E+04  0.20055822941E+04  0.46999998093E+01 0. -1.
</event>
<event>
 5   0  0.1970449E-07  0.3401547E+04  0.7818609E-02  0.8137527E-01
        2   -1    0    0  501    0  0.00000000000E+00  0.00000000000E+00  0.10714801348E+04  0.10714801348E+04  0.25500000920E-02 0.  1.
       -2   -1    0    0    0  501  0.00000000000E+00  0.00000000000E+00 -0.26996579530E+04  0.26996579530E+04  0.25500000920E-02 0. -1.
    10030    2    1    2    0    0  0.00000000000E+00  0.00000000000E+00 -0.16281778182E+04  0.37711380878E+04  0.34015466291E+04 0.  0.
        1    1    3    3  502    0  0.71955137192E+03 -0.15335682329E+04 -0.98238595740E+03  0.19582308013E+04  0.50400001928E-02 0. -1.
       -1    1    3    3    0  502 -0.71955137192E+03  0.15335682329E+04 -0.64579186083E+03  0.18129072865E+04  0.50400001928E-02 0.  1.
</event>
<event>
 5   0  0.6788600E-08  0.3399856E+04  0.7818609E-02  0.8137942E-01
        1   -1    0    0  501    0  0.00000000000E+00  0.00000000000E+00  0.22950002969E+04  0.22950002969E+04  0.50400001928E-02 0. -1.
       -1   -1    0    0    0  501  0.00000000000E+00  0.00000000000E+00 -0.12591523415E+04  0.12591523415E+04  0.50400001928E-02 0.  1.
    10030    2    1    2    0    0  0.00000000000E+00  0.00000000000E+00  0.10358479554E+04  0.35541526384E+04  0.33998558779E+04 0.  0.
        2    1    3    3  502    0 -0.12235852510E+04 -0.23722259522E+03  0.17263796718E+04  0.21292773886E+04  0.25500000920E-02 0. -1.
       -2    1    3    3    0  502  0.12235852510E+04  0.23722259522E+03 -0.69053171640E+03  0.14248752498E+04  0.25500000920E-02 0.  1.
</event>
<event>
 5   0  0.1986613E-07  0.3399024E+04  0.7818609E-02  0.8138146E-01
        2   -1    0    0  501    0  0.00000000000E+00  0.00000000000E+00  0.24982585546E+04  0.24982585546E+04  0.25500000920E-02 0. -1.
       -2   -1    0    0    0  501  0.00000000000E+00  0.00000000000E+00 -0.11561418780E+04  0.11561418780E+04  0.25500000920E-02 0.  1.
    10030    2    1    2    0    0  0.00000000000E+00  0.00000000000E+00  0.13421166766E+04  0.36544004326E+04  0.33990241759E+04 0.  0.
        5    1    3    3  502    0  0.13608327939E+04 -0.10048663054E+04  0.84672672748E+03  0.18917162646E+04  0.46999998093E+01 0.  1.
       -5    1    3    3    0  502 -0.13608327939E+04  0.10048663054E+04  0.49538994911E+03  0.17626841680E+04  0.46999998093E+01 0. -1.
</event>
<event>
 5   0  0.1970449E-07  0.3400759E+04  0.7818609E-02  0.8137720E-01
       -2   -1    0    0    0  501  0.00000000000E+00  0.00000000000E+00  0.15425789406E+04  0.15425789406E+04  0.25500000920E-02 0. -1.
        2   -1    0    0  501    0  0.00000000000E+00  0.00000000000E+00 -0.18743223112E+04  0.18743223112E+04  0.25500000920E-02 0.  1.
    10030    2    1    2    0    0  0.00000000000E+00  0.00000000000E+00 -0.33174337062E+03  0.34169012518E+04  0.34007588125E+04 0.  0.
        1    1    3    3  502    0  0.91278151106E+01  0.14715022748E+04 -0.10219063732E+04  0.17915621389E+04  0.50400001928E-02 0.  1.
       -1    1    3    3    0  502 -0.91278151106E+01 -0.14715022748E+04  0.69016300257E+03  0.16253391129E+04  0.50400001928E-02 0. -1.
</event>
<event>
 5   0  0.1970449E-07  0.3405096E+04  0.7818609E-02  0.8136657E-01
        2   -1    0    0  501    0  0.00000000000E+00  0.00000000000E+00  0.22980236415E+04  0.22980236415E+04  0.25500000920E-02 0.  1.
       -2   -1    0    0    0  501  0.00000000000E+00  0.00000000000E+00 -0.12613747149E+04  0.12613747149E+04  0.25500000920E-02 0. -1.
    10030    2    1    2    0    0  0.00000000000E+00  0.00000000000E+00  0.10366489266E+04  0.35593983565E+04  0.34050955439E+04 0.  0.
        1    1    3    3  502    0 -0.73676306581E+03  0.38376283737E+03  0.20717963113E+04  0.22321365742E+04  0.50400001928E-02 0.  1.
       -1    1    3    3    0  502  0.73676306581E+03 -0.38376283737E+03 -0.10351473847E+04  0.13272617822E+04  0.50400001928E-02 0. -1.
</event>
<event>
 5   0  0.1897313E-07  0.3399299E+04  0.7818609E-02  0.8138078E-01
       -2   -1    0    0    0  501  0.00000000000E+00  0.00000000000E+00  0.15297918858E+04  0.15297918858E+04  0.25500000920E-02 0.  1.
        2   -1    0    0  501    0  0.00000000000E+00  0.00000000000E+00 -0.18883671107E+04  0.18883671107E+04  0.25500000920E-02 0. -1.
    10030    2    1    2    0    0  0.00000000000E+00  0.00000000000E+00 -0.35857522494E+03  0.34181589965E+04  0.33992991533E+04 0.  0.
        3    1    3    3  502    0 -0.65672509207E+03 -0.26955859543E+03  0.13735792660E+04  0.15461790624E+04  0.10100000352E+00 0.  1.
       -3    1    3    3    0  502  0.65672509207E+03  0.26955859543E+03 -0.17321544909E+04  0.18719799341E+04  0.10100000352E+00 0. -1.
</event>
<event>
 5   0  0.6311750E-08  0.3402180E+04  0.7818609E-02  0.8137372E-01
        1   -1    0    0  501    0  0.00000000000E+00  0.00000000000E+00  0.19710100937E+04  0.19710100937E+04  0.50400001928E-02 0.  1.
       -1   -1    0    0    0  501  0.00000000000E+00  0.00000000000E+00 -0.14681337849E+04  0.14681337849E+04  0.50400001928E-02 0. -1.
    10030    2    1    2    0    0  0.00000000000E+00  0.00000000000E+00  0.50287630880E+03  0.34391438787E+04  0.34021796008E+04 0.  0.
        4    1    3    3  502    0  0.20393636471E+03  0.89032627934E+03  0.17021028608E+04  0.19316901114E+04  0.12699999809E+01 0.  1.
       -4    1    3    3    0  502 -0.20393636471E+03 -0.89032627934E+03 -0.11992265520E+04  0.15074537673E+04  0.12699999809E+01 0. -1.
</event>
<event>
 5   0  0.6311750E-08  0.3370406E+04  0.7818609E-02  0.8145208E-01
        1   -1    0    0  501    0  0.00000000000E+00  0.00000000000E+00  0.22345918467E+04  0.22345918467E+04  0.50400001928E-02 0.  1.
       -1   -1    0    0    0  501  0.00000000000E+00  0.00000000000E+00 -0.12708848310E+04  0.12708848310E+04  0.50400001928E-02 0. -1.
    10030    2    1    2    0    0  0.00000000000E+00  0.00000000000E+00  0.96370701574E+03  0.35054766777E+04  0.33704058399E+04 0.  0.
        4    1    3    3  502    0  0.12253025543E+04  0.71794388796E+02  0.16828532325E+04  0.20829107995E+04  0.12699999809E+01 0.  1.
       -4    1    3    3    0  502 -0.12253025543E+04 -0.71794388796E+02 -0.71914621673E+03  0.14225658782E+04  0.12699999809E+01 0. -1.
</event>
<event>
 5   0  0.6584420E-08  0.3399763E+04  0.7818609E-02  0.8137964E-01
        1   -1    0    0  501    0  0.00000000000E+00  0.00000000000E+00  0.23282946977E+04  0.23282946977E+04  0.50400001928E-02 0. -1.
       -1   -1    0    0    0  501  0.00000000000E+00  0.00000000000E+00 -0.12410789860E+04  0.12410789860E+04  0.50400001928E-02 0.  1.
    10030    2    1    2    0    0  0.00000000000E+00  0.00000000000E+00  0.10872157117E+04  0.35693736837E+04  0.33997632991E+04 0.  0.
        1    1    3    3  502    0 -0.12790365565E+04  0.10105990789E+04  0.37530255977E+02  0.16305378043E+04  0.50400001928E-02 0.  1.
       -1    1    3    3    0  502  0.12790365565E+04 -0.10105990789E+04  0.10496854557E+04  0.19388358794E+04  0.50400001928E-02 0. -1.
</event>
<event>
 5   0  0.1986613E-07  0.3393314E+04  0.7818609E-02  0.8139549E-01
       -2   -1    0    0    0  501  0.00000000000E+00  0.00000000000E+00  0.10014600650E+04  0.10014600650E+04  0.25500000920E-02 0. -1.
        2   -1    0    0  501    0  0.00000000000E+00  0.00000000000E+00 -0.28744478596E+04  0.28744478596E+04  0.25500000920E-02 0.  1.
    10030    2    1    2    0    0  0.00000000000E+00  0.00000000000E+00 -0.18729877946E+04  0.38759079246E+04  0.33933138613E+04 0.  0.
        5    1    3    3  502    0 -0.11194515890E+04  0.10151325102E+04 -0.18175268011E+04  0.23637029500E+04  0.46999998093E+01 0.  1.
       -5    1    3    3    0  502  0.11194515890E+04 -0.10151325102E+04 -0.55460993479E+02  0.15122049745E+04  0.46999998093E+01 0. -1.
</event>
<event>
 5   0  0.6584420E-08  0.3375708E+04  0.7818609E-02  0.8143894E-01
        1   -1    0    0  501    0  0.00000000000E+00  0.00000000000E+00  0.23556071034E+04  0.23556071034E+04  0.50400001928E-02 0. -1.
       -1   -1    0    0    0  501  0.00000000000E+00  0.00000000000E+00 -0.12093912054E+04  0.12093912054E+04  0.50400001928E-02 0.  1.
    10030    2    1    2    0    0  0.00000000000E+00  0.00000000000E+00  0.11462158981E+04  0.35649983088E+04  0.33757076380E+04 0.  0.
        1    1    3    3  502    0 -0.40277599307E+03 -0.89523101957E+02 -0.11553111333E+04  0.12267789944E+04  0.50400001928E-02 0.  1.
       -1    1    3    3    0  502  0.40277599307E+03  0.89523101957E+02  0.23015270313E+04  0.23382193144E+04  0.50400001928E-02 0. -1.
</event>
<event>
 5   0  0.1986613E-07  0.3399581E+04  0.7818609E-02  0.8138009E-01
       -2   -1    0    0    0  501  0.00000000000E+00  0.00000000000E+00  0.19620099452E+04  0.19620099452E+04  0.25500000920E-02 0.  1.
        2   -1    0    0  501    0  0.00000000000E+00  0.00000000000E+00 -0.14726162203E+04  0.14726162203E+04  0.25500000920E-02 0. -1.
    10030    2    1    2    0    0  0.00000000000E+00  0.00000000000E+00  0.48939372491E+03  0.34346261655E+04  0.33995809563E+04 0.  0.
        5    1    3    3  502    0  0.72572318639E+03 -0.12666446342E+04 -0.63502782641E+03  0.15919626890E+04  0.46999998093E+01 0. -1.
       -5    1    3    3    0  502 -0.72572318639E+03  0.12666446342E+04  0.11244215513E+04  0.18426634765E+04  0.46999998093E+01 0.  1.
</event>
<event>
 5   0  0.1970449E-07  0.3397344E+04  0.7818609E-02  0.8138558E-01
       -2   -1    0    0    0  501  0.00000000000E+00  0.00000000000E+00  0.14276274555E+04  0.14276274555E+04  0.25500000920E-02 0.  1.
        2   -1    0    0  501    0  0.00000000000E+00  0.00000000000E+00 -0.20211762004E+04  0.20211762005E+04  0.25500000920E-02 0. -1.
    10030    2    1    2    0    0  0.00000000000E+00  0.00000000000E+00 -0.59354874493E+03  0.34488036560E+04  0.33973440428E+04 0.  0.
        1    1    3    3  502    0  0.13414270609E+04 -0.40475562517E+03 -0.12716501075E+04  0.18921806657E+04  0.50400001928E-02 0. -1.
       -1    1    3    3    0  502 -0.13414270609E+04  0.40475562517E+03  0.67810136256E+03  0.15566229902E+04  0.50400001928E-02 0.  1.
</event>
<event>
 5   0  0.1963852E-07  0.3397544E+04  0.7818609E-02  0.8138509E-01
        2   -1    0    0  501    0  0.00000000000E+00  0.00000000000E+00  0.18084450342E+04  0.18084450342E+04  0.25500000920E-02 0.  1.
       -2   -1    0    0    0  501  0.00000000000E+00  0.00000000000E+00 -0.15957504436E+04  0.15957504436E+04  0.25500000920E-02 0. -1.
    10030    2    1    2    0    0  0.00000000000E+00  0.00000000000E+00  0.21269459058E+03  0.34041954778E+04  0.33975443871E+04 0.  0.
        4    1    3    3  502    0 -0.71774242903E+03  0.52566175151E+03 -0.13436729739E+04  0.16115002778E+04  0.12699999809E+01 0. -1.
       -4    1    3    3    0  502  0.71774242903E+03 -0.52566175151E+03  0.15563675645E+04  0.17926952000E+04  0.12699999809E+01 0.  1.
</event>
<event>
 5   0  0.1986613E-07  0.3405714E+04  0.7818609E-02  0.8136505E-01
       -2   -1    0    0    0  501  0.00000000000E+00  0.00000000000E+00  0.16004781368E+04  0.16004781368E+04  0.25500000920E-02 0.  1.
        2   -1    0    0  501    0  0.00000000000E+00  0.00000000000E+00 -0.18117850513E+04  0.18117850513E+04  0.25500000920E-02 0. -1.
    10030    2    1    2    0    0  0.00000000000E+00  0.00000000000E+00 -0.21130691448E+03  0.34122631880E+04  0.34057142353E+04 0.  0.
        5    1    3    3  502    0 -0.15496665098E+03  0.10877681869E+04  0.11977885832E+04  0.16254149844E+04  0.46999998093E+01 0.  1.
       -5    1    3    3    0  502  0.15496665098E+03 -0.10877681869E+04 -0.14090954977E+04  0.17868482037E+04  0.46999998093E+01 0. -1.
</event>
<event>
 5   0  0.6311750E-08  0.3400055E+04  0.7818609E-02  0.8137893E-01
       -1   -1    0    0    0  501  0.00000000000E+00  0.00000000000E+00  0.19927895774E+04  0.19927895774E+04  0.50400001928E-02 0. -1.
        1   -1    0    0  501    0  0.00000000000E+00  0.00000000000E+00 -0.14502754794E+04  0.14502754794E+04  0.50400001928E-02 0.  1.
    10030    2    1    2    0    0  0.00000000000E+00  0.00000000000E+00  0.54251409793E+03  0.34430650568E+04  0.34000552112E+04 0.  0.
        4    1    3    3  502    0  0.12844022667E+04  0.10907410574E+04  0.43271355402E+02  0.16856094625E+04  0.12699999809E+01 0.  1.
       -4    1    3    3    0  502 -0.12844022667E+04 -0.10907410574E+04  0.49924274253E+03  0.17574555943E+04  0.12699999809E+01 0. -1.
</event>
<event>
 5   0  0.1970449E-07  0.3400338E+04  0.7818609E-02  0.8137823E-01
        2   -1    0    0  501    0  0.00000000000E+00  0.00000000000E+00  0.18022177867E+04  0.18022177867E+04  0.25500000920E-02 0. -1.
       -2   -1    0    0    0  501  0.00000000000E+00  0.00000000000E+00 -0.16038989870E+04  0.16038989870E+04  0.25500000920E-02 0.  1.
    10030    2    1    2    0    0  0.00000000000E+00  0.00000000000E+00  0.19831879969E+03  0.34061167738E+04  0.34003383846E+04 0.  0.
        1    1    3    3  502    0 -0.26935574634E+03 -0.65904081832E+03 -0.14473839464E+04  0.16130119673E+04  0.50400001928E-02 0.  1.
       -1    1    3    3    0  502  0.26935574634E+03  0.65904081832E+03  0.16457027461E+04  0.17931048064E+04  0.50400001928E-02 0. -1.
</event>
<event>
 5   0  0.6311750E-08  0.3400537E+04  0.7818609E-02  0.8137774E-01
        1   -1    0    0  501    0  0.00000000000E+00  0.00000000000E+00  0.15705934207E+04  0.15705934207E+04  0.50400001928E-02 0.  1.
       -1   -1    0    0    0  501  0.00000000000E+00  0.00000000000E+00 -0.18406504558E+04  0.18406504558E+04  0.50400001928E-02 0. -1.
    10030    2    1    2    0    0  0.00000000000E+00  0.00000000000E+00 -0.27005703510E+03  0.34112438765E+04  0.34005373080E+04 0.  0.
        4    1    3    3  502    0  0.27857020316E+03  0.16326233650E+04  0.25069671798E+03  0.16750853313E+04  0.12699999809E+01 0. -1.
       -4    1    3    3    0  502 -0.27857020316E+03 -0.16326233650E+04 -0.52075375308E+03  0.17361585452E+04  0.12699999809E+01 0.  1.
</event>
<event>
 5   0  0.6788600E-08  0.3399632E+04  0.7818609E-02  0.8137997E-01
       -1   -1    0    0    0  501  0.00000000000E+00  0.00000000000E+00  0.13688012584E+04  0.13688012584E+04  0.50400001928E-02 0.  1.
        1   -1    0    0  501    0  0.00000000000E+00  0.00000000000E+00 -0.21108793894E+04  0.21108793894E+04  0.50400001928E-02 0. -1.
    10030    2    1    2    0    0  0.00000000000E+00  0.00000000000E+00 -0.74207813103E+03  0.34796806478E+04  0.33996319592E+04 0.  0.
        2    1    3    3  502    0 -0.91285511565E+03 -0.14300279368E+04 -0.26325034870E+03  0.17168532577E+04  0.25500000920E-02 0.  1.
       -2    1    3    3    0  502  0.91285511565E+03  0.14300279368E+04 -0.47882778233E+03  0.17628273901E+04  0.25500000920E-02 0. -1.
</event>
<event>
 5   0  0.6788600E-08  0.3398803E+04  0.7818609E-02  0.8138200E-01
       -1   -1    0    0    0  501  0.00000000000E+00  0.00000000000E+00  0.11711294091E+04  0.11711294091E+04  0.50400001928E-02 0.  1.
        1   -1    0    0  501    0  0.00000000000E+00  0.00000000000E+00 -0.24659660036E+04  0.24659660036E+04  0.50400001928E-02 0. -1.
    10030    2    1    2    0    0  0.00000000000E+00  0.00000000000E+00 -0.12948365946E+04  0.36370954127E+04  0.33988029120E+04 0.  0.
        2    1    3    3  502    0 -0.66008734564E+03 -0.43113076811E+03  0.96357865636E+03  0.12450192248E+04  0.25500000920E-02 0.  1.
       -2    1    3    3    0  502  0.66008734564E+03  0.43113076811E+03 -0.22584152509E+04  0.23920761879E+04  0.25500000920E-02 0. -1.
</event>
<event>
 5   0  0.6584420E-08  0.3398994E+04  0.7818609E-02  0.8138153E-01
        1   -1    0    0  501    0  0.00000000000E+00  0.00000000000E+00  0.18941124368E+04  0.18941124368E+04  0.50400001928E-02 0.  1.
       -1   -1    0    0    0  501  0.00000000000E+00  0.00000000000E+00 -0.15248776505E+04  0.15248776505E+04  0.50400001928E-02 0. -1.
    10030    2    1    2    0    0  0.00000000000E+00  0.00000000000E+00  0.36923478637E+03  0.34189900873E+04  0.33989938055E+04 0.  0.
        1    1    3    3  502    0  0.11764148712E+04  0.80569194906E+03 -0.74559232402E+03  0.16090367863E+04  0.50400001928E-02 0. -1.
       -1    1    3    3    0  502 -0.11764148712E+04 -0.80569194906E+03  0.11148271104E+04  0.18099533010E+04  0.50400001928E-02 0.  1.
</event>
<event>
 5   0  0.6311750E-08  0.3404054E+04  0.7818609E-02  0.8136912E-01
       -1   -1    0    0    0  501  0.00000000000E+00  0.00000000000E+00  0.14093513817E+04  0.14093513817E+04  0.50400001928E-02 0.  1.
        1   -1    0    0  501    0  0.00000000000E+00  0.00000000000E+00 -0.20554819469E+04  0.20554819469E+04  0.50400001928E-02 0. -1.
    10030    2    1    2    0    0  0.00000000000E+00  0.00000000000E+00 -0.64613056517E+03  0.34648333286E+04  0.34040542427E+04 0.  0.
        4    1    3    3  502    0  0.11876818014E+04 -0.52665133148E+03 -0.14422174812E+04  0.19411188944E+04  0.12699999809E+01 0. -1.
       -4    1    3    3    0  502 -0.11876818014E+04  0.52665133148E+03  0.79608691601E+03  0.15237144342E+04  0.12699999809E+01 0.  1.
</event>
<event>
 5   0  0.1963852E-07  0.3447265E+04  0.7818609E-02  0.8126402E-01
       -2   -1    0    0    0  501  0.00000000000E+00  0.00000000000E+00  0.11471558029E+04  0.11471558029E+04  0.25500000920E-02 0.  1.
        2   -1    0    0  501    0  0.00000000000E+00  0.00000000000E+00 -0.25898044637E+04  0.25898044637E+04  0.25500000920E-02 0. -1.
    10030    2    1    2    0    0  0.00000000000E+00  0.00000000000E+00 -0.14426486608E+04  0.37369602665E+04  0.34472651298E+04 0.  0.
        4    1    3    3  502    0  0.11258410103E+04  0.66259197993E+03 -0.19402561782E+04  0.23390471911E+04  0.12699999809E+01 0. -1.
       -4    1    3    3    0  502 -0.11258410103E+04 -0.66259197993E+03  0.49760751739E+03  0.13979130754E+04  0.12699999809E+01 0.  1.
</event>
<event>
 5   0  0.1928004E-07  0.3410254E+04  0.7818609E-02  0.8135394E-01
        2   -1    0    0  501    0  0.00000000000E+00  0.00000000000E+00  0.20917616619E+04  0.20917616619E+04  0.25500000920E-02 0. -1.
       -2   -1    0    0    0  501  0.00000000000E+00  0.00000000000E+00 -0.13899564061E+04  0.13899564061E+04  0.25500000920E-02 0.  1.
    10030    2    1    2    0    0  0.00000000000E+00  0.00000000000E+00  0.70180525581E+03  0.34817180680E+04  0.34102536692E+04 0.  0.
        2    1    3    3  502    0  0.13234592433E+04 -0.25175864452E+03  0.14180484015E+04  0.19559621808E+04  0.25500000920E-02 0. -1.
       -2    1    3    3    0  502 -0.13234592433E+04  0.25175864452E+03 -0.71624314567E+03  0.15257558872E+04  0.25500000920E-02 0.  1.
</event>
<event>
 5   0  0.6341535E-08  0.3400789E+04  0.7818609E-02  0.8137713E-01
        1   -1    0    0  501    0  0.00000000000E+00  0.00000000000E+00  0.22270651529E+04  0.22270651529E+04  0.50400001928E-02 0. -1.
       -1   -1    0    0    0  501  0.00000000000E+00  0.00000000000E+00 -0.12982746314E+04  0.12982746314E+04  0.50400001928E-02 0.  1.
    10030    2    1    2    0    0  0.00000000000E+00  0.00000000000E+00  0.92879052147E+03  0.35253397843E+04  0.34007894322E+04 0.  0.
        5    1    3    3  502    0 -0.13631190228E+03 -0.73268721962E+03  0.20487380911E+04  0.21800828775E+04  0.46999998093E+01 0. -1.
       -5    1    3    3    0  502  0.13631190228E+03  0.73268721962E+03 -0.11199475697E+04  0.13452569068E+04  0.46999998093E+01 0.  1.
</event>
<event>
 5   0  0.1928004E-07  0.3403101E+04  0.7818609E-02  0.8137146E-01
        2   -1    0    0  501    0  0.00000000000E+00  0.00000000000E+00  0.28573913685E+04  0.28573913685E+04  0.25500000920E-02 0.  1.
       -2   -1    0    0    0  501  0.00000000000E+00  0.00000000000E+00 -0.10132578924E+04  0.10132578924E+04  0.25500000920E-02 0. -1.
    10030    2    1    2    0    0  0.00000000000E+00  0.00000000000E+00  0.18441334761E+04  0.38706492609E+04  0.34031011480E+04 0.  0.
        2    1    3    3  502    0 -0.12262261473E+04 -0.10326569568E+04  0.27339263299E+03  0.16262701149E+04  0.25500000920E-02 0. -1.
       -2    1    3    3    0  502  0.12262261473E+04  0.10326569568E+04  0.15707408431E+04  0.22443791460E+04  0.25500000920E-02 0.  1.
</event>
<event>
 5   0  0.6341535E-08  0.3399093E+04  0.7818609E-02  0.8138129E-01
       -1   -1    0    0    0  501  0.00000000000E+00  0.00000000000E+00  0.11919166610E+04  0.11919166610E+04  0.50400001928E-02 0.  1.
        1   -1    0    0  501    0  0.00000000000E+00  0.00000000000E+00 -0.24233732415E+04  0.24233732415E+04  0.50400001928E-02 0. -1.
    10030    2    1    2    0    0  0.00000000000E+00  0.00000000000E+00 -0.12314565804E+04  0.36152899025E+04  0.33990933747E+04 0.  0.
        5    1    3    3  502    0  0.79965889916E+03 -0.14467218135E+04 -0.10357893189E+04  0.19507280599E+04  0.46999998093E+01 0. -1.
       -5    1    3    3    0  502 -0.79965889916E+03  0.14467218135E+04 -0.19566726159E+03  0.16645618426E+04  0.46999998093E+01 0.  1.
</event>
<event>
 5   0  0.1970449E-07  0.3402219E+04  0.7818609E-02  0.8137362E-01
       -2   -1    0    0    0  501  0.00000000000E+00  0.00000000000E+00  0.18122081991E+04  0.18122081992E+04  0.25500000920E-02 0.  1.
        2   -1    0    0  501    0  0.00000000000E+00  0.00000000000E+00 -0.15968220342E+04  0.15968220342E+04  0.25500000920E-02 0. -1.
    10030    2    1    2    0    0  0.00000000000E+00  0.00000000000E+00  0.21538616499E+03  0.34090302333E+04  0.34022192656E+04 0.  0.
        1    1    3    3  502    0  0.11238373749E+04 -0.12083261010E+04 -0.30630662386E+03  0.16783581738E+04  0.50400001928E-02 0. -1.
       -1    1    3    3    0  502 -0.11238373749E+04  0.12083261010E+04  0.52169278885E+03  0.17306720595E+04  0.50400001928E-02 0.  1.
</event>
<event>
 5   0  0.1963852E-07  0.3397760E+04  0.7818609E-02  0.8138456E-01
        2   -1    0    0  501    0  0.00000000000E+00  0.00000000000E+00  0.18817070742E+04  0.18817070742E+04  0.25500000920E-02 0.  1.
       -2   -1    0    0    0  501  0.00000000000E+00  0.00000000000E+00 -0.15338161633E+04  0.15338161633E+04  0.25500000920E-02 0. -1.
    10030    2    1    2    0    0  0.00000000000E+00  0.00000000000E+00  0.34789091089E+03  0.34155232376E+04  0.33977596885E+04 0.  0.
        4    1    3    3  502    0  0.11214124264E+04  0.25224074130E+03 -0.10835943495E+04  0.15796738742E+04  0.12699999809E+01 0. -1.
       -4    1    3    3    0  502 -0.11214124264E+04 -0.25224074130E+03  0.14314852604E+04  0.18358493634E+04  0.12699999809E+01 0.  1.
</event>
<event>
 5   0  0.6341535E-08  0.3398125E+04  0.7818609E-02  0.8138367E-01
        1   -1    0    0  501    0  0.00000000000E+00  0.00000000000E+00  0.21030808689E+04  0.21030808689E+04  0.50400001928E-02 0.  1.
       -1   -1    0    0    0  501  0.00000000000E+00  0.00000000000E+00 -0.13726593062E+04  0.13726593062E+04  0.50400001928E-02 0. -1.
    10030    2    1    2    0    0  0.00000000000E+00  0.00000000000E+00  0.73042156267E+03  0.34757401750E+04  0.33981250868E+04 0.  0.
        5    1    3    3  502    0  0.98419960054E+03 -0.41593688773E+03 -0.98599957556E+03  0.14539152662E+04  0.46999998093E+01 0. -1.
       -5    1    3    3    0  502 -0.98419960054E+03  0.41593688773E+03  0.17164211382E+04  0.20218249088E+04  0.46999998093E+01 0.  1.
</event>
<event>
 5   0  0.1963852E-07  0.3396965E+04  0.7818609E-02  0.8138652E-01
        2   -1    0    0  501    0  0.00000000000E+00  0.00000000000E+00  0.28893461069E+04  0.28893461069E+04  0.25500000920E-02 0.  1.
       -2   -1    0    0    0  501  0.00000000000E+00  0.00000000000E+00 -0.99844165586E+03  0.99844165587E+03  0.25500000920E-02 0. -1.
    10030    2    1    2    0    0  0.00000000000E+00  0.00000000000E+00  0.18909044511E+04  0.38877877628E+04  0.33969654172E+04 0.  0.
        4    1    3    3  502    0 -0.10165943664E+04  0.95931589790E+03  0.20498040190E+04  0.24810177804E+04  0.12699999809E+01 0.  1.
       -4    1    3    3    0  502  0.10165943664E+04 -0.95931589790E+03 -0.15889956792E+03  0.14067699824E+04  0.12699999809E+01 0. -1.
</event>
<event>
 5   0  0.1986613E-07  0.3404204E+04  0.7818609E-02  0.8136875E-01
       -2   -1    0    0    0  501  0.00000000000E+00  0.00000000000E+00  0.21120575488E+04  0.21120575488E+04  0.25500000920E-02 0.  1.
        2   -1    0    0  501    0  0.00000000000E+00  0.00000000000E+00 -0.13717196604E+04  0.13717196604E+04  0.25500000920E-02 0. -1.
    10030    2    1    2    0    0  0.00000000000E+00  0.00000000000E+00  0.74033788839E+03  0.34837772093E+04  0.34042037916E+04 0.  0.
        5    1    3    3  502    0  0.20182013237E+03 -0.14717721747E+04  0.12204230724E+04  0.19225762055E+04  0.46999998093E+01 0.  1.
       -5    1    3    3    0  502 -0.20182013237E+03  0.14717721747E+04 -0.48008518406E+03  0.15612010038E+04  0.46999998093E+01 0. -1.
</event>
<event>
 5   0  0.1970449E-07  0.3384167E+04  0.7818609E-02  0.8141803E-01
       -2   -1    0    0    0  501  0.00000000000E+00  0.00000000000E+00  0.12679670027E+04  0.12679670027E+04  0.25500000920E-02 0. -1.
        2   -1    0    0  501    0  0.00000000000E+00  0.00000000000E+00 -0.22580610339E+04  0.22580610339E+04  0.25500000920E-02 0.  1.
    10030    2    1    2    0    0  0.00000000000E+00  0.00000000000E+00 -0.99009403116E+03  0.35260280366E+04  0.33841671833E+04 0.  0.
        1    1    3    3  502    0 -0.98061399897E+03 -0.94516113201E+03  0.55114212024E+03  0.14692484532E+04  0.50400001928E-02 0. -1.
       -1    1    3    3    0  502  0.98061399897E+03  0.94516113201E+03 -0.15412361514E+04  0.20567795834E+04  0.50400001928E-02 0.  1.
</event>
<event>
 5   0  0.6311750E-08  0.3400544E+04  0.7818609E-02  0.8137773E-01
        1   -1    0    0  501    0  0.00000000000E+00  0.00000000000E+00  0.21961388977E+04  0.21961388977E+04  0.50400001928E-02 0.  1.
       -1   -1    0    0    0  501  0.00000000000E+00  0.00000000000E+00 -0.13163673571E+04  0.13163673571E+04  0.50400001928E-02 0. -1.
    10030    2    1    2    0    0  0.00000000000E+00  0.00000000000E+00  0.87977154059E+03  0.35125062548E+04  0.34005444014E+04 0.  0.
        4    1    3    3  502    0  0.28620148169E+03 -0.30794378292E+03  0.21416063146E+04  0.21824802132E+04  0.12699999809E+01 0.  1.
       -4    1    3    3    0  502 -0.28620148169E+03  0.30794378292E+03 -0.12618347740E+04  0.13300260416E+04  0.12699999809E+01 0. -1.
</event>
<event>
 5   0  0.1970449E-07  0.3396487E+04  0.7818609E-02  0.8138769E-01
        2   -1    0    0  501    0  0.00000000000E+00  0.00000000000E+00  0.25184804127E+04  0.25184804127E+04  0.25500000920E-02 0.  1.
       -2   -1    0    0    0  501  0.00000000000E+00  0.00000000000E+00 -0.11451469931E+04  0.11451469931E+04  0.25500000920E-02 0. -1.
    10030    2    1    2    0    0  0.00000000000E+00  0.00000000000E+00  0.13733334196E+04  0.36636274058E+04  0.33964865799E+04 0.  0.
        1    1    3    3  502    0 -0.60227583359E+03 -0.30126960182E+03  0.23683025445E+04  0.24621853089E+04  0.50400001928E-02 0.  1.
       -1    1    3    3    0  502  0.60227583359E+03  0.30126960182E+03 -0.99496912493E+03  0.12014420969E+04  0.50400001928E-02 0. -1.
</event>
<event>
 5   0  0.6788600E-08  0.3400602E+04  0.7818609E-02  0.8137759E-01
       -1   -1    0    0    0  501  0.00000000000E+00  0.00000000000E+00  0.16276979371E+04  0.16276979371E+04  0.50400001928E-02 0. -1.
        1   -1    0    0  501    0  0.00000000000E+00  0.00000000000E+00 -0.17761422793E+04  0.17761422793E+04  0.50400001928E-02 0.  1.
    10030    2    1    2    0    0  0.00000000000E+00  0.00000000000E+00 -0.14844434220E+03  0.34038402164E+04  0.34006017844E+04 0.  0.
        2    1    3    3  502    0 -0.55997401357E+01 -0.16979459308E+04 -0.16358979868E+03  0.17058175058E+04  0.25500000920E-02 0. -1.
       -2    1    3    3    0  502  0.55997401357E+01  0.16979459308E+04  0.15145456482E+02  0.16980227106E+04  0.25500000920E-02 0.  1.
</event>
<event>
 5   0  0.1897313E-07  0.3399725E+04  0.7818609E-02  0.8137974E-01
       -2   -1    0    0    0  501  0.00000000000E+00  0.00000000000E+00  0.11419096987E+04  0.11419096987E+04  0.25500000920E-02 0. -1.
        2   -1    0    0  501    0  0.00000000000E+00  0.00000000000E+00 -0.25304389505E+04  0.25304389505E+04  0.25500000920E-02 0.  1.
    10030    2    1    2    0    0  0.00000000000E+00  0.00000000000E+00 -0.13885292518E+04  0.36723486493E+04  0.33997251534E+04 0.  0.
        3    1    3    3  502    0  0.81294865704E+03 -0.49390406742E+03  0.82750247664E+03  0.12607882875E+04  0.10100000352E+00 0. -1.
       -3    1    3    3    0  502 -0.81294865704E+03  0.49390406742E+03 -0.22160317284E+04  0.24115603618E+04  0.10100000352E+00 0.  1.
</event>
<event>
 5   0  0.6311750E-08  0.3395438E+04  0.7818609E-02  0.8139027E-01
       -1   -1    0    0    0  501  0.00000000000E+00  0.00000000000E+00  0.19568112679E+04  0.19568112679E+04  0.50400001928E-02 0.  1.
        1   -1    0    0  501    0  0.00000000000E+00  0.00000000000E+00 -0.14729322814E+04  0.14729322815E+04  0.50400001928E-02 0. -1.
    10030    2    1    2    0    0  0.00000000000E+00  0.00000000000E+00  0.48387898646E+03  0.34297435494E+04  0.33954384019E+04 0.  0.
        4    1    3    3  502    0  0.62014155428E+02 -0.67091047779E+03 -0.13320990920E+04  0.14928014699E+04  0.12699999809E+01 0. -1.
       -4    1    3    3    0  502 -0.62014155428E+02  0.67091047779E+03  0.18159780785E+04  0.19369420795E+04  0.12699999809E+01 0.  1.
</event>
<event>
 5   0  0.6584420E-08  0.3399123E+04  0.7818609E-02  0.8138122E-01
        1   -1    0    0  501    0  0.00000000000E+00  0.00000000000E+00  0.20759173533E+04  0.20759173533E+04  0.50400001928E-02 0.  1.
       -1   -1    0    0    0  501  0.00000000000E+00  0.00000000000E+00 -0.13914372159E+04  0.13914372159E+04  0.50400001928E-02 0. -1.
    10030    2    1    2    0    0  0.00000000000E+00  0.00000000000E+00  0.68448013740E+03  0.34673545692E+04  0.33991226294E+04 0.  0.
        1    1    3    3  502    0 -0.62920224515E+03 -0.13551515779E+03 -0.12623093937E+04  0.14169279547E+04  0.50400001928E-02 0. -1.
       -1    1    3    3    0  502  0.62920224515E+03  0.13551515779E+03  0.19467895311E+04  0.20504266145E+04  0.50400001928E-02 0.  1.
</event>
<event>
 5   0  0.1970449E-07  0.3407297E+04  0.7818609E-02  0.8136118E-01
        2   -1    0    0  501    0  0.00000000000E+00  0.00000000000E+00  0.26943046570E+04  0.26943046570E+04  0.25500000920E-02 0. -1.
       -2   -1    0    0    0  501  0.00000000000E+00  0.00000000000E+00 -0.10772419093E+04  0.10772419093E+04  0.25500000920E-02 0.  1.
    10030    2    1    2    0    0  0.00000000000E+00  0.00000000000E+00  0.16170627477E+04  0.37715465662E+04  0.34072968129E+04 0.  0.
        1    1    3    3  502    0  0.62336963598E+03  0.11955670470E+04 -0.34416200439E+03  0.13915522816E+04  0.50400001928E-02 0.  1.
       -1    1    3    3    0  502 -0.62336963598E+03 -0.11955670470E+04  0.19612247521E+04  0.23799942847E+04  0.50400001928E-02 0. -1.
</event>
<event>
 5   0  0.1963852E-07  0.3403064E+04  0.7818609E-02  0.8137155E-01
       -2   -1    0    0    0  501  0.00000000000E+00  0.00000000000E+00  0.14168313712E+04  0.14168313712E+04  0.25500000920E-02 0.  1.
        2   -1    0    0  501    0  0.00000000000E+00  0.00000000000E+00 -0.20434412166E+04  0.20434412166E+04  0.25500000920E-02 0. -1.
    10030    2    1    2    0    0  0.00000000000E+00  0.00000000000E+00 -0.62660984543E+03  0.34602725878E+04  0.34030642785E+04 0.  0.
        4    1    3    3  502    0  0.10915610363E+04  0.73155787243E+03  0.78585186382E+03  0.15310934594E+04  0.12699999809E+01 0.  1.
       -4    1    3    3    0  502 -0.10915610363E+04 -0.73155787243E+03 -0.14124617093E+04  0.19291791284E+04  0.12699999809E+01 0. -1.
</event>
<event>
 5   0  0.6341535E-08  0.3399234E+04  0.7818609E-02  0.8138094E-01
        1   -1    0    0  501    0  0.00000000000E+00  0.00000000000E+00  0.24159966966E+04  0.24159966966E+04  0.50400001928E-02 0. -1.
       -1   -1    0    0    0  501  0.00000000000E+00  0.00000000000E+00 -0.11956546957E+04  0.11956546957E+04  0.50400001928E-02 0.  1.
    10030    2    1    2    0    0  0.00000000000E+00  0.00000000000E+00  0.12203420009E+04  0.36116513923E+04  0.33992339108E+04 0.  0.
        5    1    3    3  502    0  0.11955526225E+04 -0.94151917566E+03 -0.19400905198E+03  0.15341010506E+04  0.46999998093E+01 0.  1.
       -5    1    3    3    0  502 -0.11955526225E+04  0.94151917566E+03  0.14143510529E+04  0.20775503417E+04  0.46999998093E+01 0. -1.
</event>
<event>
 5   0  0.1970449E-07  0.3396309E+04  0.7818609E-02  0.8138813E-01
       -2   -1    0    0    0  501  0.00000000000E+00  0.00000000000E+00  0.31218613620E+04  0.31218613620E+04  0.25500000920E-02 0. -1.
        2   -1    0    0  501    0  0.00000000000E+00  0.00000000000E+00 -0.92372099275E+03  0.92372099276E+03  0.25500000920E-02 0.  1.
    10030    2    1    2    0    0  0.00000000000E+00  0.00000000000E+00  0.21981403693E+04  0.40455823548E+04  0.33963091005E+04 0.  0.
        1    1    3    3  502    0 -0.12962312988E+04  0.56778418524E+02 -0.20594883874E+03  0.13137177372E+04  0.50400001928E-02 0. -1.
       -1    1    3    3    0  502  0.12962312988E+04 -0.56778418524E+02  0.24040892080E+04  0.27318646176E+04  0.50400001928E-02 0.  1.
</event>
<event>
 5   0  0.1897313E-07  0.3402753E+04  0.7818609E-02  0.8137231E-01
       -2   -1    0    0    0  501  0.00000000000E+00  0.00000000000E+00  0.10647311298E+04  0.10647311298E+04  0.25500000920E-02 0. -1.
        2   -1    0    0  501    0  0.00000000000E+00  0.00000000000E+00 -0.27186975999E+04  0.27186975999E+04  0.25500000920E-02 0.  1.
    10030    2    1    2    0    0  0.00000000000E+00  0.00000000000E+00 -0.16539664701E+04  0.37834287297E+04  0.34027529838E+04 0.  0.
        3    1    3    3  502    0  0.88724379285E+03 -0.72461867279E+03  0.57168397856E+03  0.12802719830E+04  0.10100000352E+00 0. -1.
       -3    1    3    3    0  502 -0.88724379285E+03  0.72461867279E+03 -0.22256504486E+04  0.25031567467E+04  0.10100000352E+00 0.  1.
</event>
<event>
 5   0  0.6584420E-08  0.3421730E+04  0.7818609E-02  0.8132594E-01
        1   -1    0    0  501    0  0.00000000000E+00  0.00000000000E+00  0.13655279326E+04  0.13655279326E+04  0.50400001928E-02 0.  1.
       -1   -1    0    0    0  501  0.00000000000E+00  0.00000000000E+00 -0.21435363344E+04  0.21435363344E+04  0.50400001928E-02 0. -1.
    10030    2    1    2    0    0  0.00000000000E+00  0.00000000000E+00 -0.77800840176E+03  0.35090642670E+04  0.34217298194E+04 0.  0.
        1    1    3    3  502    0 -0.84425045068E+03  0.81837152046E+03 -0.16635314351E+04  0.20371125655E+04  0.50400001928E-02 0. -1.
       -1    1    3    3    0  502  0.84425045068E+03 -0.81837152046E+03  0.88552303334E+03  0.14719517015E+04  0.50400001928E-02 0.  1.
</event>
<event>
 5   0  0.6584420E-08  0.3389983E+04  0.7818609E-02  0.8140369E-01
        1   -1    0    0  501    0  0.00000000000E+00  0.00000000000E+00  0.16242315735E+04  0.16242315735E+04  0.50400001928E-02 0. -1.
       -1   -1    0    0    0  501  0.00000000000E+00  0.00000000000E+00 -0.17688343730E+04  0.17688343730E+04  0.50400001928E-02 0.  1.
    10030    2    1    2    0    0  0.00000000000E+00  0.00000000000E+00 -0.14460279947E+03  0.33930659465E+04  0.33899832666E+04 0.  0.
        1    1    3    3  502    0  0.80484808384E+02  0.66936200886E+02  0.16209930020E+04  0.16243695922E+04  0.50400001928E-02 0. -1.
       -1    1    3    3    0  502 -0.80484808384E+02 -0.66936200886E+02 -0.17655958015E+04  0.17686963543E+04  0.50400001928E-02 0.  1.
</event>
<event>
 5   0  0.6367111E-08  0.3394580E+04  0.7818609E-02  0.8139238E-01
        1   -1    0    0  501    0  0.00000000000E+00  0.00000000000E+00  0.19623438464E+04  0.19623438464E+04  0.50400001928E-02 0.  1.
       -1   -1    0    0    0  501  0.00000000000E+00  0.00000000000E+00 -0.14680373275E+04  0.14680373275E+04  0.50400001928E-02 0. -1.
    10030    2    1    2    0    0  0.00000000000E+00  0.00000000000E+00  0.49430651890E+03  0.34303811740E+04  0.33945803959E+04 0.  0.
        3    1    3    3  502    0 -0.84497839237E+03  0.65681109282E+03  0.15783942066E+04  0.19070179802E+04  0.10100000352E+00 0.  1.
       -3    1    3    3    0  502  0.84497839237E+03 -0.65681109282E+03 -0.10840876877E+04  0.15233631938E+04  0.10100000352E+00 0. -1.
</event>
<event>
 5   0  0.6341535E-08  0.3367874E+04  0.7818609E-02  0.8145836E-01
        1   -1    0    0  501    0  0.00000000000E+00  0.00000000000E+00  0.19415287293E+04  0.19415287293E+04  0.50400001928E-02 0. -1.
       -1   -1    0    0    0  501  0.00000000000E+00  0.00000000000E+00 -0.14605208306E+04  0.14605208306E+04  0.50400001928E-02 0.  1.
    10030    2    1    2    0    0  0.00000000000E+00  0.00000000000E+00  0.48100789876E+03  0.34020495599E+04  0.33678736035E+04 0.  0.
        5    1    3    3  502    0 -0.93274434194E+03 -0.70044227715E+03 -0.98631179679E+03  0.15275681463E+04  0.46999998093E+01 0.  1.
       -5    1    3    3    0  502  0.93274434194E+03  0.70044227715E+03  0.14673196955E+04  0.18744814136E+04  0.46999998093E+01 0. -1.
</event>
<event>
 5   0  0.6341535E-08  0.3396017E+04  0.7818609E-02  0.8138885E-01
        1   -1    0    0  501    0  0.00000000000E+00  0.00000000000E+00  0.23056185482E+04  0.23056185482E+04  0.50400001928E-02 0. -1.
       -1   -1    0    0    0  501  0.00000000000E+00  0.00000000000E+00 -0.12505245084E+04  0.12505245085E+04  0.50400001928E-02 0.  1.
    10030    2    1    2    0    0  0.00000000000E+00  0.00000000000E+00  0.10550940398E+04  0.35561430567E+04  0.33960167854E+04 0.  0.
        5    1    3    3  502    0 -0.81974463356E+03  0.63860922206E+03  0.19337768946E+04  0.21952945522E+04  0.46999998093E+01 0. -1.
       -5    1    3    3    0  502  0.81974463356E+03 -0.63860922206E+03 -0.87868285484E+03  0.13608485045E+04  0.46999998093E+01 0.  1.
</event>
<event>
 5   0  0.1963852E-07  0.3398353E+04  0.7818609E-02  0.8138311E-01
        2   -1    0    0  501    0  0.00000000000E+00  0.00000000000E+00  0.20849773259E+04  0.20849773259E+04  0.25500000920E-02 0.  1.
       -2   -1    0    0    0  501  0.00000000000E+00  0.00000000000E+00 -0.13847635227E+04  0.13847635227E+04  0.25500000920E-02 0. -1.
    10030    2    1    2    0    0  0.00000000000E+00  0.00000000000E+00  0.70021380322E+03  0.34697408485E+04  0.33983528636E+04 0.  0.
        4    1    3    3  502    0  0.17510907926E+03 -0.66680364124E+02  0.20743962306E+04  0.20828419996E+04  0.12699999809E+01 0.  1.
       -4    1    3    3    0  502 -0.17510907926E+03  0.66680364124E+02 -0.13741824274E+04  0.13868988490E+04  0.12699999809E+01 0. -1.
</event>
<event>
 5   0  0.1970449E-07  0.3403643E+04  0.7818609E-02  0.8137013E-01
        2   -1    0    0  501    0  0.00000000000E+00  0.00000000000E+00  0.18787656365E+04  0.18787656365E+04  0.25500000920E-02 0.  1.
       -2   -1    0    0    0  501  0.00000000000E+00  0.00000000000E+00 -0.15415418494E+04  0.15415418494E+04  0.25500000920E-02 0. -1.
    10030    2    1    2    0    0  0.00000000000E+00  0.00000000000E+00  0.33722378707E+03  0.34203074859E+04  0.34036426686E+04 0.  0.
        1    1    3    3  502    0 -0.41314591987E+03 -0.14105013752E+04  0.10307121802E+04  0.17951521604E+04  0.50400001928E-02 0.  1.
       -1    1    3    3    0  502  0.41314591987E+03  0.14105013752E+04 -0.69348839313E+03  0.16251553255E+04  0.50400001928E-02 0. -1.
</event>
<event>
 5   0  0.6788600E-08  0.3415263E+04  0.7818609E-02  0.8134170E-01
       -1   -1    0    0    0  501  0.00000000000E+00  0.00000000000E+00  0.97710448222E+03  0.97710448223E+03  0.50400001928E-02 0. -1.
        1   -1    0    0  501    0  0.00000000000E+00  0.00000000000E+00 -0.29843333356E+04  0.29843333356E+04  0.50400001928E-02 0.  1.
    10030    2    1    2    0    0  0.00000000000E+00  0.00000000000E+00 -0.20072288534E+04  0.39614378179E+04  0.34152630813E+04 0.  0.
        2    1    3    3  502    0 -0.60261068386E+03  0.47908800090E+03 -0.27716260429E+04  0.28765562519E+04  0.25500000920E-02 0.  1.
       -2    1    3    3    0  502  0.60261068386E+03 -0.47908800090E+03  0.76439718945E+03  0.10848815660E+04  0.25500000920E-02 0. -1.
</event>
<event>
 5   0  0.1986613E-07  0.3395920E+04  0.7818609E-02  0.8138909E-01
       -2   -1    0    0    0  501  0.00000000000E+00  0.00000000000E+00  0.15721173382E+04  0.15721173382E+04  0.25500000920E-02 0. -1.
        2   -1    0    0  501    0  0.00000000000E+00  0.00000000000E+00 -0.18338754604E+04  0.18338754604E+04  0.25500000920E-02 0.  1.
    10030    2    1    2    0    0  0.00000000000E+00  0.00000000000E+00 -0.26175812217E+03  0.34059927986E+04  0.33959195558E+04 0.  0.
        5    1    3    3  502    0 -0.87355823748E+03  0.11952950385E+04 -0.96473625804E+03  0.17670801795E+04  0.46999998093E+01 0.  1.
       -5    1    3    3    0  502  0.87355823748E+03 -0.11952950385E+04  0.70297813587E+03  0.16389126190E+04  0.46999998093E+01 0. -1.
</event>
<event>
 5   0  0.6788600E-08  0.3391770E+04  0.7818609E-02  0.8139929E-01
       -1   -1    0    0    0  501  0.00000000000E+00  0.00000000000E+00  0.12198087518E+04  0.12198087518E+04  0.50400001928E-02 0. -1.
        1   -1    0    0  501    0  0.00000000000E+00  0.00000000000E+00 -0.23577685895E+04  0.23577685896E+04  0.50400001928E-02 0.  1.
    10030    2    1    2    0    0  0.00000000000E+00  0.00000000000E+00 -0.11379598377E+04  0.35775773414E+04  0.33917704877E+04 0.  0.
        2    1    3    3  502    0  0.40170324596E+03 -0.16287472347E+04 -0.83128719292E+03  0.18722236644E+04  0.25500000920E-02 0.  1.
       -2    1    3    3    0  502 -0.40170324596E+03  0.16287472347E+04 -0.30667264480E+03  0.17053536770E+04  0.25500000920E-02 0. -1.
</event>
<event>
 5   0  0.1928004E-07  0.3410148E+04  0.7818609E-02  0.8135420E-01
        2   -1    0    0  501    0  0.00000000000E+00  0.00000000000E+00  0.18130877509E+04  0.18130877509E+04  0.25500000920E-02 0.  1.
       -2   -1    0    0    0  501  0.00000000000E+00  0.00000000000E+00 -0.16034952653E+04  0.16034952653E+04  0.25500000920E-02 0. -1.
    10030    2    1    2    0    0  0.00000000000E+00  0.00000000000E+00  0.20959248560E+03  0.34165830161E+04  0.34101481634E+04 0.  0.
        2    1    3    3  502    0  0.16360378509E+04  0.13777501852E+03 -0.35615432397E+03  0.16800141987E+04  0.25500000920E-02 0. -1.
       -2    1    3    3    0  502 -0.16360378509E+04 -0.13777501852E+03  0.56574680957E+03  0.17365688175E+04  0.25500000920E-02 0.  1.
</event>
<event>
 5   0  0.1897313E-07  0.3397073E+04  0.7818609E-02  0.8138625E-01
        2   -1    0    0  501    0  0.00000000000E+00  0.00000000000E+00  0.19875854586E+04  0.19875854586E+04  0.25500000920E-02 0. -1.
       -2   -1    0    0    0  501  0.00000000000E+00  0.00000000000E+00 -0.14515233000E+04  0.14515233000E+04  0.25500000920E-02 0.  1.
    10030    2    1    2    0    0  0.00000000000E+00  0.00000000000E+00  0.53606215867E+03  0.34391087586E+04  0.33970732131E+04 0.  0.
        3    1    3    3  502    0  0.10000073141E+04  0.10273888133E+04  0.11900610970E+04  0.18632734171E+04  0.10100000352E+00 0. -1.
       -3    1    3    3    0  502 -0.10000073141E+04 -0.10273888133E+04 -0.65399893831E+03  0.15758353415E+04  0.10100000352E+00 0.  1.
</event>
<event>
 5   0  0.1970449E-07  0.3396088E+04  0.7818609E-02  0.8138867E-01
       -2   -1    0    0    0  501  0.00000000000E+00  0.00000000000E+00  0.13481165013E+04  0.13481165013E+04  0.25500000920E-02 0.  1.
        2   -1    0    0  501    0  0.00000000000E+00  0.00000000000E+00 -0.21388013031E+04  0.21388013031E+04  0.25500000920E-02 0. -1.
    10030    2    1    2    0    0  0.00000000000E+00  0.00000000000E+00 -0.79068480180E+03  0.34869178045E+04  0.33960879434E+04 0.  0.
        1    1    3    3  502    0 -0.16398808990E+04 -0.37700287315E+03 -0.62950520013E+03  0.17965570757E+04  0.50400001928E-02 0. -1.
       -1    1    3    3    0  502  0.16398808990E+04  0.37700287315E+03 -0.16117960167E+03  0.16903607287E+04  0.50400001928E-02 0.  1.
</event>
<event>
 5   0  0.1963852E-07  0.3457670E+04  0.7818609E-02  0.8123896E-01
       -2   -1    0    0    0  501  0.00000000000E+00  0.00000000000E+00  0.18334842782E+04  0.18334842782E+04  0.25500000920E-02 0.  1.
        2   -1    0    0  501    0  0.00000000000E+00  0.00000000000E+00 -0.16301583639E+04  0.16301583639E+04  0.25500000920E-02 0. -1.
    10030    2    1    2    0    0  0.00000000000E+00  0.00000000000E+00  0.20332591437E+03  0.34636426421E+04  0.34576695800E+04 0.  0.
        4    1    3    3  502    0  0.86004703227E+03 -0.18121962284E+03 -0.13896487745E+04  0.16442769775E+04  0.12699999809E+01 0. -1.
       -4    1    3    3    0  502 -0.86004703227E+03  0.18121962284E+03  0.15929746888E+04  0.18193656646E+04  0.12699999809E+01 0.  1.
</event>
<event>
 5   0  0.6341535E-08  0.3462847E+04  0.7818609E-02  0.8122652E-01
        1   -1    0    0  501    0  0.00000000000E+00  0.00000000000E+00  0.19082344944E+04  0.19082344944E+04  0.50400001928E-02 0. -1.
       -1   -1    0    0    0  501  0.00000000000E+00  0.00000000000E+00 -0.15709950874E+04  0.15709950874E+04  0.50400001928E-02 0.  1.
    10030    2    1    2    0    0  0.00000000000E+00  0.00000000000E+00  0.33723940702E+03  0.34792295818E+04  0.34628468151E+04 0.  0.
        5    1    3    3  502    0  0.82903293593E+03  0.37448779370E+03  0.16487723685E+04  0.18830850033E+04  0.46999998093E+01 0. -1.
       -5    1    3    3    0  502 -0.82903293593E+03 -0.37448779370E+03 -0.13115329615E+04  0.15961445785E+04  0.46999998093E+01 0.  1.
</event>
<event>
 5   0  0.6311750E-08  0.3392336E+04  0.7818609E-02  0.8139790E-01
       -1   -1    0    0    0  501  0.00000000000E+00  0.00000000000E+00  0.15253800363E+04  0.15253800363E+04  0.50400001928E-02 0. -1.
        1   -1    0    0  501    0  0.00000000000E+00  0.00000000000E+00 -0.18860775781E+04  0.18860775781E+04  0.50400001928E-02 0.  1.
    10030    2    1    2    0    0  0.00000000000E+00  0.00000000000E+00 -0.36069754181E+03  0.34114576144E+04  0.33923355285E+04 0.  0.
        4    1    3    3  502    0 -0.31648621589E+03  0.92306773055E+03 -0.15755284375E+04  0.18532428417E+04  0.12699999809E+01 0.  1.
       -4    1    3    3    0  502  0.31648621589E+03 -0.92306773055E+03  0.12148308957E+04  0.15582147727E+04  0.12699999809E+01 0. -1.
</event>
<event>
 5   0  0.6341535E-08  0.3396722E+04  0.7818609E-02  0.8138711E-01
        1   -1    0    0  501    0  0.00000000000E+00  0.00000000000E+00  0.25866765886E+04  0.25866765886E+04  0.50400001928E-02 0.  1.
       -1   -1    0    0    0  501  0.00000000000E+00  0.00000000000E+00 -0.11151103368E+04  0.11151103368E+04  0.50400001928E-02 0. -1.
    10030    2    1    2    0    0  0.00000000000E+00  0.00000000000E+00  0.14715662518E+04  0.37017869255E+04  0.33967218326E+04 0.  0.
        5    1    3    3  502    0  0.36703936370E+03  0.15529884439E+04  0.10226904976E+03  0.15990534856E+04  0.46999998093E+01 0. -1.
       -5    1    3    3    0  502 -0.36703936370E+03 -0.15529884439E+04  0.13692972020E+04  0.21027334398E+04  0.46999998093E+01 0.  1.
</event>
<event>
 5   0  0.1897313E-07  0.3329944E+04  0.7818609E-02  0.8155318E-01
        2   -1    0    0  501    0  0.00000000000E+00  0.00000000000E+00  0.11995810320E+04  0.11995810320E+04  0.25500000920E-02 0. -1.
       -2   -1    0    0    0  501  0.00000000000E+00  0.00000000000E+00 -0.23109161210E+04  0.23109161210E+04  0.25500000920E-02 0.  1.
    10030    2    1    2    0    0  0.00000000000E+00  0.00000000000E+00 -0.11113350890E+04  0.35104971529E+04  0.33299436303E+04 0.  0.
        3    1    3    3  502    0 -0.40879304379E+03 -0.96545021485E+03  0.80787914530E+03  0.13235839957E+04  0.10100000352E+00 0. -1.
       -3    1    3    3    0  502  0.40879304379E+03  0.96545021485E+03 -0.19192142343E+04  0.21869131573E+04  0.10100000352E+00 0.  1.
</event>
<event>
 5   0  0.1928004E-07  0.3411388E+04  0.7818609E-02  0.8135117E-01
        2   -1    0    0  501    0  0.00000000000E+00  0.00000000000E+00  0.11279780498E+04  0.11279780498E+04  0.25500000920E-02 0. -1.
       -2   -1    0    0    0  501  0.00000000000E+00  0.00000000000E+00 -0.25792982957E+04  0.25792982957E+04  0.25500000920E-02 0.  1.
    10030    2    1    2    0    0  0.00000000000E+00  0.00000000000E+00 -0.14513202459E+04  0.37072763455E+04  0.34113879061E+04 0.  0.
        2    1    3    3  502    0  0.11049187713E+03  0.30231274971E+03  0.10946754987E+04  0.11410152939E+04  0.25500000920E-02 0. -1.
       -2    1    3    3    0  502 -0.11049187713E+03 -0.30231274971E+03 -0.25459957446E+04  0.25662610516E+04  0.25500000920E-02 0.  1.
</event>
<event>
 5   0  0.1986613E-07  0.3397093E+04  0.7818609E-02  0.8138620E-01
        2   -1    0    0  501    0  0.00000000000E+00  0.00000000000E+00  0.14624157476E+04  0.14624157476E+04  0.25500000920E-02 0. -1.
       -2   -1    0    0    0  501  0.00000000000E+00  0.00000000000E+00 -0.19728044907E+04  0.19728044907E+04  0.25500000920E-02 0.  1.
    10030    2    1    2    0    0  0.00000000000E+00  0.00000000000E+00 -0.51038874305E+03  0.34352202383E+04  0.33970930833E+04 0.  0.
        5    1    3    3  502    0 -0.66157174967E+03  0.15297288528E+04  0.76034527200E+02  0.16683976991E+04  0.46999998093E+01 0. -1.
       -5    1    3    3    0  502  0.66157174967E+03 -0.15297288528E+04 -0.58642327025E+03  0.17668225392E+04  0.46999998093E+01 0.  1.
</event>
<event>
 5   0  0.6311750E-08  0.3402219E+04  0.7818609E-02  0.8137362E-01
       -1   -1    0    0    0  501  0.00000000000E+00  0.00000000000E+00  0.14098458873E+04  0.14098458873E+04  0.50400001928E-02 0.  1.
        1   -1    0    0  501    0  0.00000000000E+00  0.00000000000E+00 -0.20525462847E+04  0.20525462847E+04  0.50400001928E-02 0. -1.
    10030    2    1    2    0    0  0.00000000000E+00  0.00000000000E+00 -0.64270039741E+03  0.34623921721E+04  0.34022192393E+04 0.  0.
        4    1    3    3  502    0  0.12402007565E+04 -0.75478663833E+03  0.58088002460E+03  0.15637212033E+04  0.12699999809E+01 0.  1.
       -4    1    3    3    0  502 -0.12402007565E+04  0.75478663833E+03 -0.12235804220E+04  0.18986709688E+04  0.12699999809E+01 0. -1.
</event>
<event>
 5   0  0.6584420E-08  0.3402016E+04  0.7818609E-02  0.8137412E-01
        1   -1    0    0  501    0  0.00000000000E+00  0.00000000000E+00  0.21159021113E+04  0.21159021113E+04  0.50400001928E-02 0. -1.
       -1   -1    0    0    0  501  0.00000000000E+00  0.00000000000E+00 -0.13674675233E+04  0.13674675233E+04  0.50400001928E-02 0.  1.
    10030    2    1    2    0    0  0.00000000000E+00  0.00000000000E+00  0.74843458808E+03  0.34833696346E+04  0.34020155318E+04 0.  0.
        1    1    3    3  502    0  0.18441738709E+03  0.25153034790E+03 -0.13379394174E+04  0.13738119133E+04  0.50400001928E-02 0.  1.
       -1    1    3    3    0  502 -0.18441738709E+03 -0.25153034790E+03  0.20863740055E+04  0.21095577213E+04  0.50400001928E-02 0. -1.
</event>
<event>
 5   0  0.1928004E-07  0.3399405E+04  0.7818609E-02  0.8138052E-01
        2   -1    0    0  501    0  0.00000000000E+00  0.00000000000E+00  0.24100032358E+04  0.24100032358E+04  0.25500000920E-02 0.  1.
       -2   -1    0    0    0  501  0.00000000000E+00  0.00000000000E+00 -0.11987486621E+04  0.11987486621E+04  0.25500000920E-02 0. -1.
    10030    2    1    2    0    0  0.00000000000E+00  0.00000000000E+00  0.12112545737E+04  0.36087518979E+04  0.33994047447E+04 0.  0.
        2    1    3    3  502    0 -0.75995604379E+03  0.11282921716E+03  0.22151518709E+04  0.23446026171E+04  0.25500000920E-02 0.  1.
       -2    1    3    3    0  502  0.75995604379E+03 -0.11282921716E+03 -0.10038972972E+04  0.12641492808E+04  0.25500000920E-02 0. -1.
</event>
<event>
 5   0  0.6311750E-08  0.3400535E+04  0.7818609E-02  0.8137775E-01
       -3   -1    0    0    0  501  0.00000000000E+00  0.00000000000E+00  0.14349369761E+04  0.14349369796E+04  0.10100000352E+00 0. -1.
        3   -1    0    0  501    0  0.00000000000E+00  0.00000000000E+00 -0.20146600937E+04  0.20146600963E+04  0.10100000352E+00 0.  1.
    10030    2    1    2    0    0  0.00000000000E+00  0.00000000000E+00 -0.57972311767E+03  0.34495970759E+04  0.34005354127E+04 0.  0.
        5    1    3    3  502    0 -0.10906427414E+04 -0.86065291120E+03 -0.12841368284E+04  0.18918917800E+04  0.46999998093E+01 0.  1.
       -5    1    3    3    0  502  0.10906427414E+04  0.86065291120E+03  0.70441371078E+03  0.15577052959E+04  0.46999998093E+01 0. -1.
</event>
<event>
 5   0  0.6311750E-08  0.3375707E+04  0.7818609E-02  0.8143894E-01
        1   -1    0    0  501    0  0.00000000000E+00  0.00000000000E+00  0.97270963856E+03  0.97270963857E+03  0.50400001928E-02 0. -1.
       -1   -1    0    0    0  501  0.00000000000E+00  0.00000000000E+00 -0.29287775395E+04  0.29287775395E+04  0.50400001928E-02 0.  1.
    10030    2    1    2    0    0  0.00000000000E+00  0.00000000000E+00 -0.19560679009E+04  0.39014871780E+04  0.33757074173E+04 0.  0.
        4    1    3    3  502    0 -0.11075380948E+04 -0.66657389607E+03  0.27631169325E+03  0.13218589770E+04  0.12699999809E+01 0. -1.
       -4    1    3    3    0  502  0.11075380948E+04  0.66657389607E+03 -0.22323795942E+04  0.25796282010E+04  0.12699999809E+01 0.  1.
</event>
<event>
 5   0  0.1963852E-07  0.3399890E+04  0.7818609E-02  0.8137933E-01
       -2   -1    0    0    0  501  0.00000000000E+00  0.00000000000E+00  0.12801986576E+04  0.12801986576E+04  0.25500000920E-02 0. -1.
        2   -1    0    0  501    0  0.00000000000E+00  0.00000000000E+00 -0.22573157431E+04  0.22573157431E+04  0.25500000920E-02 0.  1.
    10030    2    1    2    0    0  0.00000000000E+00  0.00000000000E+00 -0.97711708551E+03  0.35375144007E+04  0.33998897535E+04 0.  0.
        4    1    3    3  502    0 -0.15701619825E+04  0.64263492088E+03 -0.37735532421E+03  0.17380411233E+04  0.12699999809E+01 0. -1.
       -4    1    3    3    0  502  0.15701619825E+04 -0.64263492088E+03 -0.59976176130E+03  0.17994732774E+04  0.12699999809E+01 0.  1.
</event>
<event>
 5   0  0.6341535E-08  0.3401710E+04  0.7818609E-02  0.8137487E-01
       -1   -1    0    0    0  501  0.00000000000E+00  0.00000000000E+00  0.12643760662E+04  0.12643760662E+04  0.50400001928E-02 0.  1.
        1   -1    0    0  501    0  0.00000000000E+00  0.00000000000E+00 -0.22880118669E+04  0.22880118669E+04  0.50400001928E-02 0. -1.
    10030    2    1    2    0    0  0.00000000000E+00  0.00000000000E+00 -0.10236358008E+04  0.35523879331E+04  0.34017098311E+04 0.  0.
        5    1    3    3  502    0 -0.16788877152E+04 -0.27234602697E+03 -0.51913056939E+03  0.17783011435E+04  0.46999998093E+01 0. -1.
       -5    1    3    3    0  502  0.16788877152E+04  0.27234602697E+03 -0.50450523138E+03  0.17740867897E+04  0.46999998093E+01 0.  1.
</event>
<event>
 5   0  0.1897313E-07  0.3407922E+04  0.7818609E-02  0.8135965E-01
        2   -1    0    0  501    0  0.00000000000E+00  0.00000000000E+00  0.16387661411E+04  0.16387661411E+04  0.25500000920E-02 0. -1.
       -2   -1    0    0    0  501  0.00000000000E+00  0.00000000000E+00 -0.17717499248E+04  0.17717499248E+04  0.25500000920E-02 0.  1.
    10030    2    1    2    0    0  0.00000000000E+00  0.00000000000E+00 -0.13298378366E+03  0.34105160659E+04  0.34079224095E+04 0.  0.
        3    1    3    3  502    0 -0.50104058537E+03 -0.14507857017E+04  0.67411386696E+03  0.16763801288E+04  0.10100000352E+00 0. -1.
       -3    1    3    3    0  502  0.50104058537E+03  0.14507857017E+04 -0.80709765063E+03  0.17341359371E+04  0.10100000352E+00 0.  1.
</event>
<event>
 5   0  0.1970449E-07  0.3404073E+04  0.7818609E-02  0.8136907E-01
       -2   -1    0    0    0  501  0.00000000000E+00  0.00000000000E+00  0.15192066680E+04  0.15192066680E+04  0.25500000920E-02 0.  1.
        2   -1    0    0  501    0  0.00000000000E+00  0.00000000000E+00 -0.19068694275E+04  0.19068694275E+04  0.25500000920E-02 0. -1.
    10030    2    1    2    0    0  0.00000000000E+00  0.00000000000E+00 -0.38766275948E+03  0.34260760956E+04  0.34040732950E+04 0.  0.
        1    1    3    3  502    0 -0.16816593694E+04  0.21710851586E+03 -0.34248305546E+03  0.17298580825E+04  0.50400001928E-02 0. -1.
       -1    1    3    3    0  502  0.16816593694E+04 -0.21710851586E+03 -0.45179704018E+02  0.16962180131E+04  0.50400001928E-02 0.  1.
</event>
<event>
 5   0  0.6367111E-08  0.3417944E+04  0.7818609E-02  0.8133516E-01
       -1   -1    0    0    0  501  0.00000000000E+00  0.00000000000E+00  0.33412433539E+04  0.33412433539E+04  0.50400001928E-02 0.  1.
        1   -1    0    0  501    0  0.00000000000E+00  0.00000000000E+00 -0.87410129331E+03  0.87410129333E+03  0.50400001928E-02 0. -1.
    10030    2    1    2    0    0  0.00000000000E+00  0.00000000000E+00  0.24671420605E+04  0.42153446472E+04  0.34179439065E+04 0.  0.
        3    1    3    3  502    0  0.95074302250E+03  0.14200449212E+04  0.12187071619E+04  0.20989728511E+04  0.10100000352E+00 0. -1.
       -3    1    3    3    0  502 -0.95074302250E+03 -0.14200449212E+04  0.12484348986E+04  0.21163717961E+04  0.10100000352E+00 0.  1.
</event>
<event>
 5   0  0.6311750E-08  0.3395511E+04  0.7818609E-02  0.8139009E-01
       -1   -1    0    0    0  501  0.00000000000E+00  0.00000000000E+00  0.11374386344E+04  0.11374386344E+04  0.50400001928E-02 0. -1.
        1   -1    0    0  501    0  0.00000000000E+00  0.00000000000E+00 -0.25340912950E+04  0.25340912950E+04  0.50400001928E-02 0.  1.
    10030    2    1    2    0    0  0.00000000000E+00  0.00000000000E+00 -0.13966526607E+04  0.36715299294E+04  0.33955107669E+04 0.  0.
        4    1    3    3  502    0  0.85780930816E+03  0.86284597590E+03  0.58200061015E+03  0.13487276635E+04  0.12699999809E+01 0. -1.
       -4    1    3    3    0  502 -0.85780930816E+03 -0.86284597590E+03 -0.19786532708E+04  0.23228022659E+04  0.12699999809E+01 0.  1.
</event>
<event>
 5   0  0.6311750E-08  0.3409557E+04  0.7818609E-02  0.8135565E-01
        1   -1    0    0  501    0  0.00000000000E+00  0.00000000000E+00  0.20746954827E+04  0.20746954827E+04  0.50400001928E-02 0.  1.
       -1   -1    0    0    0  501  0.00000000000E+00  0.00000000000E+00 -0.14008174615E+04  0.14008174615E+04  0.50400001928E-02 0. -1.
    10030    2    1    2    0    0  0.00000000000E+00  0.00000000000E+00  0.67387802122E+03  0.34755129442E+04  0.34095569562E+04 0.  0.
        4    1    3    3  502    0 -0.65193828019E+03 -0.35503587951E+03  0.19012903861E+04  0.20410734289E+04  0.12699999809E+01 0.  1.
       -4    1    3    3    0  502  0.65193828019E+03  0.35503587951E+03 -0.12274123649E+04  0.14344395154E+04  0.12699999809E+01 0. -1.
</event>
<event>
 5   0  0.6311750E-08  0.3412246E+04  0.7818609E-02  0.8134907E-01
       -1   -1    0    0    0  501  0.00000000000E+00  0.00000000000E+00  0.27212327221E+04  0.27212327221E+04  0.50400001928E-02 0. -1.
        1   -1    0    0  501    0  0.00000000000E+00  0.00000000000E+00 -0.10696829557E+04  0.10696829557E+04  0.50400001928E-02 0.  1.
    10030    2    1    2    0    0  0.00000000000E+00  0.00000000000E+00  0.16515497664E+04  0.37909156778E+04  0.34122463341E+04 0.  0.
        4    1    3    3  502    0 -0.16136293430E+04  0.25322270454E+03  0.27819531886E+03  0.16568994064E+04  0.12699999809E+01 0.  1.
       -4    1    3    3    0  502  0.16136293430E+04 -0.25322270454E+03  0.13733544476E+04  0.21340162713E+04  0.12699999809E+01 0. -1.
</event>
<event>
 5   0  0.6367111E-08  0.3391458E+04  0.7818609E-02  0.8140006E-01
        1   -1    0    0  501    0  0.00000000000E+00  0.00000000000E+00  0.13905388038E+04  0.13905388038E+04  0.50400001928E-02 0. -1.
       -1   -1    0    0    0  501  0.00000000000E+00  0.00000000000E+00 -0.20679015626E+04  0.20679015626E+04  0.50400001928E-02 0.  1.
    10030    2    1    2    0    0  0.00000000000E+00  0.00000000000E+00 -0.67736275876E+03  0.34584403664E+04  0.33914583089E+04 0.  0.
        3    1    3    3  502    0  0.23862976132E+03 -0.54435908985E+03  0.12808368476E+04  0.14120247951E+04  0.10100000352E+00 0. -1.
       -3    1    3    3    0  502 -0.23862976132E+03  0.54435908985E+03 -0.19581996064E+04  0.20464155713E+04  0.10100000352E+00 0.  1.
</event>
<event>
 5   0  0.1986613E-07  0.3397466E+04  0.7818609E-02  0.8138529E-01
        2   -1    0    0  501    0  0.00000000000E+00  0.00000000000E+00  0.11813319713E+04  0.11813319713E+04  0.25500000920E-02 0. -1.
       -2   -1    0    0    0  501  0.00000000000E+00  0.00000000000E+00 -0.24427452517E+04  0.24427452517E+04  0.25500000920E-02 0.  1.
    10030    2    1    2    0    0  0.00000000000E+00  0.00000000000E+00 -0.12614132804E+04  0.36240772230E+04  0.33974655633E+04 0.  0.
        5    1    3    3  502    0  0.51441760180E+03 -0.12501593402E+04  0.46656816830E+03  0.14301160060E+04  0.46999998093E+01 0. -1.
       -5    1    3    3    0  502 -0.51441760180E+03  0.12501593402E+04 -0.17279814487E+04  0.21939612170E+04  0.46999998093E+01 0.  1.
</event>
<event>
 5   0  0.1928004E-07  0.3374861E+04  0.7818609E-02  0.8144104E-01
       -2   -1    0    0    0  501  0.00000000000E+00  0.00000000000E+00  0.10890154383E+04  0.10890154383E+04  0.25500000920E-02 0. -1.
        2   -1    0    0  501    0  0.00000000000E+00  0.00000000000E+00 -0.26146750417E+04  0.26146750417E+04  0.25500000920E-02 0.  1.
    10030    2    1    2    0    0  0.00000000000E+00  0.00000000000E+00 -0.15256596034E+04  0.37036904800E+04  0.33748608780E+04 0.  0.
        2    1    3    3  502    0  0.48296089933E+02 -0.16861969861E+04 -0.71589987690E+03  0.18325134165E+04  0.25500000920E-02 0. -1.
       -2    1    3    3    0  502 -0.48296089933E+02  0.16861969861E+04 -0.80975972649E+03  0.18711770634E+04  0.25500000920E-02 0.  1.
</event>
<event>
 5   0  0.6788600E-08  0.3381075E+04  0.7818609E-02  0.8142567E-01
        1   -1    0    0  501    0  0.00000000000E+00  0.00000000000E+00  0.16163883793E+04  0.16163883793E+04  0.50400001928E-02 0.  1.
       -1   -1    0    0    0  501  0.00000000000E+00  0.00000000000E+00 -0.17680876919E+04  0.17680876919E+04  0.50400001928E-02 0. -1.
    10030    2    1    2    0    0  0.00000000000E+00  0.00000000000E+00 -0.15169931260E+03  0.33844760711E+04  0.33810746213E+04 0.  0.
        2    1    3    3  502    0  0.76252952093E+03 -0.15618696748E+03 -0.15780494844E+04  0.17595697810E+04  0.25500000920E-02 0. -1.
       -2    1    3    3    0  502 -0.76252952093E+03  0.15618696748E+03  0.14263501718E+04  0.16249062901E+04  0.25500000920E-02 0.  1.
</event>
<event>
 5   0  0.6584420E-08  0.3391691E+04  0.7818609E-02  0.8139949E-01
        1   -1    0    0  501    0  0.00000000000E+00  0.00000000000E+00  0.10125199477E+04  0.10125199477E+04  0.50400001928E-02 0. -1.
       -1   -1    0    0    0  501  0.00000000000E+00  0.00000000000E+00 -0.28403315062E+04  0.28403315062E+04  0.50400001928E-02 0.  1.
    10030    2    1    2    0    0  0.00000000000E+00  0.00000000000E+00 -0.18278115585E+04  0.38528514539E+04  0.33916912054E+04 0.  0.
        1    1    3    3  502    0  0.10875115516E+04 -0.10382630165E+04 -0.18049135255E+04  0.23491241561E+04  0.50400001928E-02 0.  1.
       -1    1    3    3    0  502 -0.10875115516E+04  0.10382630165E+04 -0.22898032998E+02  0.15037272978E+04  0.50400001928E-02 0. -1.
</event>
<event>
 5   0  0.6367111E-08  0.3396586E+04  0.7818609E-02  0.8138745E-01
        1   -1    0    0  501    0  0.00000000000E+00  0.00000000000E+00  0.17505503226E+04  0.17505503226E+04  0.50400001928E-02 0. -1.
       -1   -1    0    0    0  501  0.00000000000E+00  0.00000000000E+00 -0.16475956212E+04  0.16475956212E+04  0.50400001928E-02 0.  1.
    10030    2    1    2    0    0  0.00000000000E+00  0.00000000000E+00  0.10295470139E+03  0.33981459438E+04  0.33965859602E+04 0.  0.
        3    1    3    3  502    0  0.71841440606E+02  0.11795151065E+04 -0.11688295318E+04  0.16621009487E+04  0.10100000352E+00 0.  1.
       -3    1    3    3    0  502 -0.71841440606E+02 -0.11795151065E+04  0.12717842332E+04  0.17360449951E+04  0.10100000352E+00 0. -1.
</event>
<event>
 5   0  0.6584420E-08  0.3388058E+04  0.7818609E-02  0.8140843E-01
       -1   -1    0    0    0  501  0.00000000000E+00  0.00000000000E+00  0.28023892502E+04  0.28023892502E+04  0.50400001928E-02 0. -1.
        1   -1    0    0  501    0  0.00000000000E+00  0.00000000000E+00 -0.10240314319E+04  0.10240314319E+04  0.50400001928E-02 0.  1.
    10030    2    1    2    0    0  0.00000000000E+00  0.00000000000E+00  0.17783578183E+04  0.38264206821E+04  0.33880582502E+04 0.  0.
        1    1    3    3  502    0 -0.15614486856E+04 -0.52648227873E+03  0.13329984315E+04  0.21194788053E+04  0.50400001928E-02 0. -1.
       -1    1    3    3    0  502  0.15614486856E+04  0.52648227873E+03  0.44535938678E+03  0.17069418768E+04  0.50400001928E-02 0.  1.
</event>
<event>
 5   0  0.6311750E-08  0.3401475E+04  0.7818609E-02  0.8137544E-01
        1   -1    0    0  501    0  0.00000000000E+00  0.00000000000E+00  0.30446179571E+04  0.30446179571E+04  0.50400001928E-02 0. -1.
       -1   -1    0    0    0  501  0.00000000000E+00  0.00000000000E+00 -0.95003953937E+03  0.95003953938E+03  0.50400001928E-02 0.  1.
    10030    2    1    2    0    0  0.00000000000E+00  0.00000000000E+00  0.20945784177E+04  0.39946574964E+04  0.34014746458E+04 0.  0.
        4    1    3    3  502    0  0.50705079741E+03  0.13902798507E+04  0.62952006977E+02  0.14811965240E+04  0.12699999809E+01 0. -1.
       -4    1    3    3    0  502 -0.50705079741E+03 -0.13902798507E+04  0.20316264107E+04  0.25134609725E+04  0.12699999809E+01 0.  1.
</event>
<event>
 5   0  0.6311750E-08  0.3395848E+04  0.7818609E-02  0.8138926E-01
       -1   -1    0    0    0  501  0.00000000000E+00  0.00000000000E+00  0.11637123889E+04  0.11637123889E+04  0.50400001928E-02 0. -1.
        1   -1    0    0  501    0  0.00000000000E+00  0.00000000000E+00 -0.24773694924E+04  0.24773694924E+04  0.50400001928E-02 0.  1.
    10030    2    1    2    0    0  0.00000000000E+00  0.00000000000E+00 -0.13136571035E+04  0.36410818814E+04  0.33958478001E+04 0.  0.
        4    1    3    3  502    0  0.33912117613E+03  0.15585345263E+03 -0.24328435183E+04  0.24613050742E+04  0.12699999809E+01 0.  1.
       -4    1    3    3    0  502 -0.33912117613E+03 -0.15585345263E+03  0.11191864148E+04  0.11797768072E+04  0.12699999809E+01 0. -1.
</event>
<event>
 5   0  0.6367111E-08  0.3405390E+04  0.7818609E-02  0.8136585E-01
        1   -1    0    0  501    0  0.00000000000E+00  0.00000000000E+00  0.23764789568E+04  0.23764789569E+04  0.50400001928E-02 0.  1.
       -1   -1    0    0    0  501  0.00000000000E+00  0.00000000000E+00 -0.12199436891E+04  0.12199436891E+04  0.50400001928E-02 0. -1.
    10030    2    1    2    0    0  0.00000000000E+00  0.00000000000E+00  0.11565352677E+04  0.35964226460E+04  0.34053901425E+04 0.  0.
        3    1    3    3  502    0 -0.62742713665E+03 -0.13318630703E+04  0.14816143761E+04  0.20887089839E+04  0.10100000352E+00 0.  1.
       -3    1    3    3    0  502  0.62742713665E+03  0.13318630703E+04 -0.32507910833E+03  0.15077136621E+04  0.10100000352E+00 0. -1.
</event>
<event>
 5   0  0.1928004E-07  0.3421860E+04  0.7818609E-02  0.8132562E-01
       -2   -1    0    0    0  501  0.00000000000E+00  0.00000000000E+00  0.25373987949E+04  0.25373987949E+04  0.25500000920E-02 0. -1.
        2   -1    0    0  501    0  0.00000000000E+00  0.00000000000E+00 -0.11536544840E+04  0.11536544840E+04  0.25500000920E-02 0.  1.
    10030    2    1    2    0    0  0.00000000000E+00  0.00000000000E+00  0.13837443109E+04  0.36910532789E+04  0.34218600190E+04 0.  0.
        2    1    3    3  502    0  0.56080178866E+03  0.24713121278E+03  0.24149450417E+04  0.24914919300E+04  0.25500000920E-02 0. -1.
       -2    1    3    3    0  502 -0.56080178866E+03 -0.24713121278E+03 -0.10312007308E+04  0.11995613489E+04  0.25500000920E-02 0.  1.
</event>
<event>
 5   0  0.6341535E-08  0.3403163E+04  0.7818609E-02  0.8137130E-01
       -1   -1    0    0    0  501  0.00000000000E+00  0.00000000000E+00  0.16715037249E+04  0.16715037249E+04  0.50400001928E-02 0.  1.
        1   -1    0    0  501    0  0.00000000000E+00  0.00000000000E+00 -0.17322003158E+04  0.17322003158E+04  0.50400001928E-02 0. -1.
    10030    2    1    2    0    0  0.00000000000E+00  0.00000000000E+00 -0.60696590901E+02  0.34037040407E+04  0.34031628113E+04 0.  0.
        5    1    3    3  502    0 -0.14804968806E+04 -0.57455874652E+03  0.58078768928E+03  0.16909539310E+04  0.46999998093E+01 0. -1.
       -5    1    3    3    0  502  0.14804968806E+04  0.57455874652E+03 -0.64148428018E+03  0.17127501097E+04  0.46999998093E+01 0.  1.
</event>
<event>
 5   0  0.1970449E-07  0.3392902E+04  0.7818609E-02  0.8139651E-01
        2   -1    0    0  501    0  0.00000000000E+00  0.00000000000E+00  0.18376263953E+04  0.18376263953E+04  0.25500000920E-02 0.  1.
       -2   -1    0    0    0  501  0.00000000000E+00  0.00000000000E+00 -0.15661214969E+04  0.15661214970E+04  0.25500000920E-02 0. -1.
    10030    2    1    2    0    0  0.00000000000E+00  0.00000000000E+00  0.27150489833E+03  0.34037478922E+04  0.33929021212E+04 0.  0.
        1    1    3    3  502    0 -0.93554003712E+03  0.40065405495E+03  0.14973631447E+04  0.18104848025E+04  0.50400001928E-02 0.  1.
       -1    1    3    3    0  502  0.93554003712E+03 -0.40065405495E+03 -0.12258582464E+04  0.15932630897E+04  0.50400001928E-02 0. -1.
</event>
<event>
 5   0  0.6367111E-08  0.3399854E+04  0.7818609E-02  0.8137942E-01
        1   -1    0    0  501    0  0.00000000000E+00  0.00000000000E+00  0.18789495985E+04  0.18789495985E+04  0.50400001928E-02 0.  1.
       -1   -1    0    0    0  501  0.00000000000E+00  0.00000000000E+00 -0.15379611703E+04  0.15379611703E+04  0.50400001928E-02 0. -1.
    10030    2    1    2    0    0  0.00000000000E+00  0.00000000000E+00  0.34098842828E+03  0.34169107688E+04  0.33998538342E+04 0.  0.
        3    1    3    3  502    0 -0.28755258876E+03 -0.86506294943E+02 -0.15110951927E+04  0.15406422433E+04  0.10100000352E+00 0. -1.
       -3    1    3    3    0  502  0.28755258876E+03  0.86506294943E+02  0.18520836210E+04  0.18762685255E+04  0.10100000352E+00 0.  1.
</event>
<event>
 5   0  0.1970449E-07  0.3398404E+04  0.7818609E-02  0.8138298E-01
        2   -1    0    0  501    0  0.00000000000E+00  0.00000000000E+00  0.24078476696E+04  0.24078476696E+04  0.25500000920E-02 0.  1.
       -2   -1    0    0    0  501  0.00000000000E+00  0.00000000000E+00 -0.11991156668E+04  0.11991156668E+04  0.25500000920E-02 0. -1.
    10030    2    1    2    0    0  0.00000000000E+00  0.00000000000E+00  0.12087320027E+04  0.36069633364E+04  0.33984042514E+04 0.  0.
        1    1    3    3  502    0  0.56134029809E+03  0.15796077646E+04  0.89893050476E+03  0.19021933847E+04  0.50400001928E-02 0.  1.
       -1    1    3    3    0  502 -0.56134029809E+03 -0.15796077646E+04  0.30980149797E+03  0.17047699517E+04  0.50400001928E-02 0. -1.
</event>
<event>
 5   0  0.6584420E-08  0.3378387E+04  0.7818609E-02  0.8143231E-01
        1   -1    0    0  501    0  0.00000000000E+00  0.00000000000E+00  0.26951153463E+04  0.26951153463E+04  0.50400001928E-02 0. -1.
       -1   -1    0    0    0  501  0.00000000000E+00  0.00000000000E+00 -0.10587208340E+04  0.10587208340E+04  0.50400001928E-02 0.  1.
    10030    2    1    2    0    0  0.00000000000E+00  0.00000000000E+00  0.16363945123E+04  0.37538361803E+04  0.33783870514E+04 0.  0.
        1    1    3    3  502    0 -0.92308333073E+03  0.63850292999E+03  0.22208700771E+04  0.24883795382E+04  0.50400001928E-02 0. -1.
       -1    1    3    3    0  502  0.92308333073E+03 -0.63850292999E+03 -0.58447556481E+03  0.12654566421E+04  0.50400001928E-02 0.  1.
</event>
<event>
 5   0  0.1986613E-07  0.3412158E+04  0.7818609E-02  0.8134929E-01
       -2   -1    0    0    0  501  0.00000000000E+00  0.00000000000E+00  0.17425159104E+04  0.17425159104E+04  0.25500000920E-02 0.  1.
        2   -1    0    0  501    0  0.00000000000E+00  0.00000000000E+00 -0.16704036151E+04  0.16704036151E+04  0.25500000920E-02 0. -1.
    10030    2    1    2    0    0  0.00000000000E+00  0.00000000000E+00  0.72112295256E+02  0.34129195255E+04  0.34121576025E+04 0.  0.
        5    1    3    3  502    0  0.11249889740E+04  0.67454599833E+02 -0.12450625837E+04  0.16793907353E+04  0.46999998093E+01 0. -1.
       -5    1    3    3    0  502 -0.11249889740E+04 -0.67454599833E+02  0.13171748789E+04  0.17335287901E+04  0.46999998093E+01 0.  1.
</event>
<event>
 5   0  0.6788600E-08  0.3404123E+04  0.7818609E-02  0.8136895E-01
       -1   -1    0    0    0  501  0.00000000000E+00  0.00000000000E+00  0.12151724502E+04  0.12151724502E+04  0.50400001928E-02 0.  1.
        1   -1    0    0  501    0  0.00000000000E+00  0.00000000000E+00 -0.23840349370E+04  0.23840349371E+04  0.50400001928E-02 0. -1.
    10030    2    1    2    0    0  0.00000000000E+00  0.00000000000E+00 -0.11688624868E+04  0.35992073873E+04  0.34041231329E+04 0.  0.
        2    1    3    3  502    0 -0.91411151473E+03 -0.11384336022E+04  0.34056701850E+03  0.14992053969E+04  0.25500000920E-02 0.  1.
       -2    1    3    3    0  502  0.91411151473E+03  0.11384336022E+04 -0.15094295053E+04  0.21000019904E+04  0.25500000920E-02 0. -1.
</event>
<event>
 5   0  0.1897313E-07  0.3400260E+04  0.7818609E-02  0.8137843E-01
       -2   -1    0    0    0  501  0.00000000000E+00  0.00000000000E+00  0.11658087687E+04  0.11658087687E+04  0.25500000920E-02 0.  1.
        2   -1    0    0  501    0  0.00000000000E+00  0.00000000000E+00 -0.24793445454E+04  0.24793445454E+04  0.25500000920E-02 0. -1.
    10030    2    1    2    0    0  0.00000000000E+00  0.00000000000E+00 -0.13135357767E+04  0.36451533141E+04  0.34002597616E+04 0.  0.
        3    1    3    3  502    0  0.15640399464E+04 -0.40250524183E+03 -0.87272725774E+02  0.16173583284E+04  0.10100000352E+00 0.  1.
       -3    1    3    3    0  502 -0.15640399464E+04  0.40250524183E+03 -0.12262630509E+04  0.20277949857E+04  0.10100000352E+00 0. -1.
</event>
<event>
 5   0  0.1928004E-07  0.3316709E+04  0.7818609E-02  0.8158657E-01
       -2   -1    0    0    0  501  0.00000000000E+00  0.00000000000E+00  0.14163166080E+04  0.14163166080E+04  0.25500000920E-02 0. -1.
        2   -1    0    0  501    0  0.00000000000E+00  0.00000000000E+00 -0.19417552831E+04  0.19417552831E+04  0.25500000920E-02 0.  1.
    10030    2    1    2    0    0  0.00000000000E+00  0.00000000000E+00 -0.52543867504E+03  0.33580718911E+04  0.33167093669E+04 0.  0.
        2    1    3    3  502    0 -0.13281834039E+04  0.38382445965E+03 -0.11899724322E+04  0.18241235593E+04  0.25500000920E-02 0.  1.
       -2    1    3    3    0  502  0.13281834039E+04 -0.38382445965E+03  0.66453375718E+03  0.15339483318E+04  0.25500000920E-02 0. -1.
</event>
<event>
 5   0  0.6788600E-08  0.3399220E+04  0.7818609E-02  0.8138098E-01
       -1   -1    0    0    0  501  0.00000000000E+00  0.00000000000E+00  0.14354272334E+04  0.14354272334E+04  0.50400001928E-02 0.  1.
        1   -1    0    0  501    0  0.00000000000E+00  0.00000000000E+00 -0.20124137375E+04  0.20124137375E+04  0.50400001928E-02 0. -1.
    10030    2    1    2    0    0  0.00000000000E+00  0.00000000000E+00 -0.57698650412E+03  0.34478409709E+04  0.33992196067E+04 0.  0.
        2    1    3    3  502    0 -0.96711068160E+03  0.13416617518E+04 -0.68564742726E+03  0.17903831214E+04  0.25500000920E-02 0. -1.
       -2    1    3    3    0  502  0.96711068160E+03 -0.13416617518E+04  0.10866092314E+03  0.16574578495E+04  0.25500000920E-02 0.  1.
</event>
<event>
 5   0  0.1986613E-07  0.3391589E+04  0.7818609E-02  0.8139974E-01
        2   -1    0    0  501    0  0.00000000000E+00  0.00000000000E+00  0.29703037168E+04  0.29703037168E+04  0.25500000920E-02 0.  1.
       -2   -1    0    0    0  501  0.00000000000E+00  0.00000000000E+00 -0.96815669732E+03  0.96815669733E+03  0.25500000920E-02 0. -1.
    10030    2    1    2    0    0  0.00000000000E+00  0.00000000000E+00  0.20021470194E+04  0.39384604141E+04  0.33915892655E+04 0.  0.
        5    1    3    3  502    0  0.28233295061E+03 -0.16647089662E+04  0.11836862118E+04  0.20620627961E+04  0.46999998093E+01 0. -1.
       -5    1    3    3    0  502 -0.28233295061E+03  0.16647089662E+04  0.81846080763E+03  0.18763976180E+04  0.46999998093E+01 0.  1.
</event>
<event>
 5   0  0.1986613E-07  0.3392892E+04  0.7818609E-02  0.8139653E-01
        2   -1    0    0  501    0  0.00000000000E+00  0.00000000000E+00  0.19573513454E+04  0.19573513454E+04  0.25500000920E-02 0.  1.
       -2   -1    0    0    0  501  0.00000000000E+00  0.00000000000E+00 -0.14703180959E+04  0.14703180959E+04  0.25500000920E-02 0. -1.
    10030    2    1    2    0    0  0.00000000000E+00  0.00000000000E+00  0.48703324952E+03  0.34276694413E+04  0.33928920426E+04 0.  0.
        5    1    3    3  502    0 -0.30983603095E+03  0.11283502959E+04 -0.99737903960E+03  0.15375174129E+04  0.46999998093E+01 0. -1.
       -5    1    3    3    0  502  0.30983603095E+03 -0.11283502959E+04  0.14844122891E+04  0.18901520284E+04  0.46999998093E+01 0.  1.
</event>
<event>
 5   0  0.1897313E-07  0.3396105E+04  0.7818609E-02  0.8138863E-01
       -2   -1    0    0    0  501  0.00000000000E+00  0.00000000000E+00  0.20003002772E+04  0.20003002772E+04  0.25500000920E-02 0.  1.
        2   -1    0    0  501    0  0.00000000000E+00  0.00000000000E+00 -0.14414746819E+04  0.14414746819E+04  0.25500000920E-02 0. -1.
    10030    2    1    2    0    0  0.00000000000E+00  0.00000000000E+00  0.55882559528E+03  0.34417749591E+04  0.33961049488E+04 0.  0.
        3    1    3    3  502    0  0.77895595579E+03  0.61451523073E+03 -0.11171538301E+04  0.14941332070E+04  0.10100000352E+00 0. -1.
       -3    1    3    3    0  502 -0.77895595579E+03 -0.61451523073E+03  0.16759794254E+04  0.19476417521E+04  0.10100000352E+00 0.  1.
</event>
<event>
 5   0  0.1970449E-07  0.3400713E+04  0.7818609E-02  0.8137731E-01
       -2   -1    0    0    0  501  0.00000000000E+00  0.00000000000E+00  0.13633359230E+04  0.13633359230E+04  0.25500000920E-02 0.  1.
        2   -1    0    0  501    0  0.00000000000E+00  0.00000000000E+00 -0.21206897917E+04  0.21206897917E+04  0.25500000920E-02 0. -1.
    10030    2    1    2    0    0  0.00000000000E+00  0.00000000000E+00 -0.75735386870E+03  0.34840257148E+04  0.34007132044E+04 0.  0.
        1    1    3    3  502    0  0.10913313105E+04 -0.50878493491E+03  0.85129593879E+03  0.14746426397E+04  0.50400001928E-02 0.  1.
       -1    1    3    3    0  502 -0.10913313105E+04  0.50878493491E+03 -0.16086498075E+04  0.20093830751E+04  0.50400001928E-02 0. -1.
</event>
<event>
 5   0  0.6341535E-08  0.3430359E+04  0.7818609E-02  0.8130495E-01
        1   -1    0    0  501    0  0.00000000000E+00  0.00000000000E+00  0.24504735520E+04  0.24504735520E+04  0.50400001928E-02 0.  1.
       -1   -1    0    0    0  501  0.00000000000E+00  0.00000000000E+00 -0.12005194370E+04  0.12005194370E+04  0.50400001928E-02 0. -1.
    10030    2    1    2    0    0  0.00000000000E+00  0.00000000000E+00  0.12499541150E+04  0.36509929891E+04  0.34303592402E+04 0.  0.
        5    1    3    3  502    0  0.45859057604E+03  0.54479298480E+03  0.22856931775E+04  0.23940593360E+04  0.46999998093E+01 0.  1.
       -5    1    3    3    0  502 -0.45859057604E+03 -0.54479298480E+03 -0.10357390625E+04  0.12569336531E+04  0.46999998093E+01 0. -1.
</event>
<event>
 5   0  0.6584420E-08  0.3403594E+04  0.7818609E-02  0.8137025E-01
       -1   -1    0    0    0  501  0.00000000000E+00  0.00000000000E+00  0.24295746813E+04  0.24295746813E+04  0.50400001928E-02 0.  1.
        1   -1    0    0  501    0  0.00000000000E+00  0.00000000000E+00 -0.11920247757E+04  0.11920247757E+04  0.50400001928E-02 0. -1.
    10030    2    1    2    0    0  0.00000000000E+00  0.00000000000E+00  0.12375499056E+04  0.36215994570E+04  0.34035941088E+04 0.  0.
        1    1    3    3  502    0 -0.10403315486E+04 -0.24365446609E+03 -0.79062382863E+03  0.13291889513E+04  0.50400001928E-02 0. -1.
       -1    1    3    3    0  502  0.10403315486E+04  0.24365446609E+03  0.20281737343E+04  0.22924105056E+04  0.50400001928E-02 0.  1.
</event>
<event>
 5   0  0.1928004E-07  0.3399672E+04  0.7818609E-02  0.8137987E-01
       -2   -1    0    0    0  501  0.00000000000E+00  0.00000000000E+00  0.16712872853E+04  0.16712872853E+04  0.25500000920E-02 0. -1.
        2   -1    0    0  501    0  0.00000000000E+00  0.00000000000E+00 -0.17288726665E+04  0.17288726665E+04  0.25500000920E-02 0.  1.
    10030    2    1    2    0    0  0.00000000000E+00  0.00000000000E+00 -0.57585381237E+02  0.34001599517E+04  0.33996722815E+04 0.  0.
        2    1    3    3  502    0  0.25107771441E+03 -0.16628750328E+04 -0.27631457922E+03  0.17042720264E+04  0.25500000920E-02 0.  1.
       -2    1    3    3    0  502 -0.25107771441E+03  0.16628750328E+04  0.21872919799E+03  0.16958879253E+04  0.25500000920E-02 0. -1.
</event>
<event>
 5   0  0.6788600E-08  0.3391840E+04  0.7818609E-02  0.8139912E-01
       -1   -1    0    0    0  501  0.00000000000E+00  0.00000000000E+00  0.30948259978E+04  0.30948259978E+04  0.50400001928E-02 0.  1.
        1   -1    0    0  501    0  0.00000000000E+00  0.00000000000E+00 -0.92933967425E+03  0.92933967427E+03  0.50400001928E-02 0. -1.
    10030    2    1    2    0    0  0.00000000000E+00  0.00000000000E+00  0.21654863236E+04  0.40241656721E+04  0.33918399636E+04 0.  0.
        2    1    3    3  502    0 -0.33176446298E+03  0.48768190730E+03  0.29692132794E+04  0.30272312103E+04  0.25500000920E-02 0.  1.
       -2    1    3    3    0  502  0.33176446298E+03 -0.48768190730E+03 -0.80372695586E+03  0.99693446184E+03  0.25500000920E-02 0. -1.
</event>
<event>
 5   0  0.1970449E-07  0.3400886E+04  0.7818609E-02  0.8137689E-01
       -2   -1    0    0    0  501  0.00000000000E+00  0.00000000000E+00  0.14668763607E+04  0.14668763607E+04  0.25500000920E-02 0. -1.
        2   -1    0    0  501    0  0.00000000000E+00  0.00000000000E+00 -0.19711998170E+04  0.19711998170E+04  0.25500000920E-02 0.  1.
    10030    2    1    2    0    0  0.00000000000E+00  0.00000000000E+00 -0.50432345630E+03  0.34380761778E+04  0.34008860104E+04 0.  0.
        1    1    3    3  502    0 -0.13090638217E+04 -0.10324638575E+04  0.85975710056E+02  0.16694374888E+04  0.50400001928E-02 0. -1.
       -1    1    3    3    0  502  0.13090638217E+04  0.10324638575E+04 -0.59029916636E+03  0.17686386890E+04  0.50400001928E-02 0.  1.
</event>
<event>
 5   0  0.1986613E-07  0.3399447E+04  0.7818609E-02  0.8138042E-01
        2   -1    0    0  501    0  0.00000000000E+00  0.00000000000E+00  0.24743590403E+04  0.24743590403E+04  0.25500000920E-02 0. -1.
       -2   -1    0    0    0  501  0.00000000000E+00  0.00000000000E+00 -0.11675990566E+04  0.11675990566E+04  0.25500000920E-02 0.  1.
    10030    2    1    2    0    0  0.00000000000E+00  0.00000000000E+00  0.13067599837E+04  0.36419580968E+04  0.33994465908E+04 0.  0.
        5    1    3    3  502    0 -0.11837251784E+04 -0.12196828647E+04  0.66874175542E+03  0.18264909564E+04  0.46999998093E+01 0.  1.
       -5    1    3    3    0  502  0.11837251784E+04  0.12196828647E+04  0.63801822829E+03  0.18154671404E+04  0.46999998093E+01 0. -1.
</event>
<event>
 5   0  0.6341535E-08  0.3403287E+04  0.7818609E-02  0.8137100E-01
       -1   -1    0    0    0  501  0.00000000000E+00  0.00000000000E+00  0.22403535515E+04  0.22403535515E+04  0.50400001928E-02 0.  1.
        1   -1    0    0  501    0  0.00000000000E+00  0.00000000000E+00 -0.12924704289E+04  0.12924704289E+04  0.50400001928E-02 0. -1.
    10030    2    1    2    0    0  0.00000000000E+00  0.00000000000E+00  0.94788312256E+03  0.35328239804E+04  0.34032870673E+04 0.  0.
        5    1    3    3  502    0  0.10104193137E+04 -0.98296774115E+03 -0.51543356688E+03  0.15009552363E+04  0.46999998093E+01 0. -1.
       -5    1    3    3    0  502 -0.10104193137E+04  0.98296774115E+03  0.14633166894E+04  0.20318687441E+04  0.46999998093E+01 0.  1.
</event>
<event>
 5   0  0.6341535E-08  0.3398590E+04  0.7818609E-02  0.8138252E-01
        1   -1    0    0  501    0  0.00000000000E+00  0.00000000000E+00  0.15361057918E+04  0.15361057918E+04  0.50400001928E-02 0.  1.
       -1   -1    0    0    0  501  0.00000000000E+00  0.00000000000E+00 -0.18798210263E+04  0.18798210263E+04  0.50400001928E-02 0. -1.
    10030    2    1    2    0    0  0.00000000000E+00  0.00000000000E+00 -0.34371523449E+03  0.34159268180E+04  0.33985902759E+04 0.  0.
        5    1    3    3  502    0  0.85555743063E+03 -0.84329980968E+03 -0.13798406162E+04  0.18295123127E+04  0.46999998093E+01 0.  1.
       -5    1    3    3    0  502 -0.85555743063E+03  0.84329980968E+03  0.10361253817E+04  0.15864145053E+04  0.46999998093E+01 0. -1.
</event>
<event>
 5   0  0.1970449E-07  0.3394068E+04  0.7818609E-02  0.8139364E-01
        2   -1    0    0  501    0  0.00000000000E+00  0.00000000000E+00  0.21137937523E+04  0.21137937523E+04  0.25500000920E-02 0. -1.
       -2   -1    0    0    0  501  0.00000000000E+00  0.00000000000E+00 -0.13624437748E+04  0.13624437748E+04  0.25500000920E-02 0.  1.
    10030    2    1    2    0    0  0.00000000000E+00  0.00000000000E+00  0.75134997755E+03  0.34762375271E+04  0.33940684371E+04 0.  0.
        1    1    3    3  502    0  0.72183789579E+03  0.10414443054E+04 -0.78048889536E+03  0.14882268325E+04  0.50400001928E-02 0.  1.
       -1    1    3    3    0  502 -0.72183789579E+03 -0.10414443054E+04  0.15318388729E+04  0.19880106946E+04  0.50400001928E-02 0. -1.
</event>
<event>
 5   0  0.1963852E-07  0.3403014E+04  0.7818609E-02  0.8137167E-01
        2   -1    0    0  501    0  0.00000000000E+00  0.00000000000E+00  0.22436039383E+04  0.22436039383E+04  0.25500000920E-02 0.  1.
       -2   -1    0    0    0  501  0.00000000000E+00  0.00000000000E+00 -0.12903905965E+04  0.12903905965E+04  0.25500000920E-02 0. -1.
    10030    2    1    2    0    0  0.00000000000E+00  0.00000000000E+00  0.95321334176E+03  0.35339945349E+04  0.34030136199E+04 0.  0.
        4    1    3    3  502    0 -0.11658498450E+04  0.38387416606E+03  0.17003329561E+04  0.20970691479E+04  0.12699999809E+01 0.  1.
       -4    1    3    3    0  502  0.11658498450E+04 -0.38387416606E+03 -0.74711961437E+03  0.14369253869E+04  0.12699999809E+01 0. -1.
</event>
<event>
 5   0  0.6788600E-08  0.3308324E+04  0.7818609E-02  0.8160780E-01
       -1   -1    0    0    0  501  0.00000000000E+00  0.00000000000E+00  0.12236267414E+04  0.12236267414E+04  0.50400001928E-02 0. -1.
        1   -1    0    0  501    0  0.00000000000E+00  0.00000000000E+00 -0.22361823483E+04  0.22361823483E+04  0.50400001928E-02 0.  1.
    10030    2    1    2    0    0  0.00000000000E+00  0.00000000000E+00 -0.10125556069E+04  0.34598090896E+04  0.33083243613E+04 0.  0.
        2    1    3    3  502    0  0.84488438939E+03  0.12453461819E+04 -0.12244050037E+04  0.19400732866E+04  0.25500000920E-02 0.  1.
       -2    1    3    3    0  502 -0.84488438939E+03 -0.12453461819E+04  0.21184939677E+03  0.15197358031E+04  0.25500000920E-02 0. -1.
</event>
<event>
 5   0  0.6311750E-08  0.3394354E+04  0.7818609E-02  0.8139293E-01
       -1   -1    0    0    0  501  0.00000000000E+00  0.00000000000E+00  0.11713063733E+04  0.11713063733E+04  0.50400001928E-02 0.  1.
        1   -1    0    0  501    0  0.00000000000E+00  0.00000000000E+00 -0.24591427186E+04  0.24591427186E+04  0.50400001928E-02 0. -1.
    10030    2    1    2    0    0  0.00000000000E+00  0.00000000000E+00 -0.12878363453E+04  0.36304490919E+04  0.33943538644E+04 0.  0.
        4    1    3    3  502    0 -0.90460368308E+03  0.12242127434E+04  0.15889208648E+03  0.15304420841E+04  0.12699999809E+01 0.  1.
       -4    1    3    3    0  502  0.90460368308E+03 -0.12242127434E+04 -0.14467284318E+04  0.21000070078E+04  0.12699999809E+01 0. -1.
</event>
<event>
 5   0  0.1897313E-07  0.3406835E+04  0.7818609E-02  0.8136231E-01
        2   -1    0    0  501    0  0.00000000000E+00  0.00000000000E+00  0.20875341036E+04  0.20875341036E+04  0.25500000920E-02 0.  1.
       -2   -1    0    0    0  501  0.00000000000E+00  0.00000000000E+00 -0.13899803367E+04  0.13899803367E+04  0.25500000920E-02 0. -1.
    10030    2    1    2    0    0  0.00000000000E+00  0.00000000000E+00  0.69755376685E+03  0.34775144403E+04  0.34068351039E+04 0.  0.
        3    1    3    3  502    0  0.10000472403E+04 -0.13769039616E+04  0.27189941037E+03  0.17233363867E+04  0.10100000352E+00 0. -1.
       -3    1    3    3    0  502 -0.10000472403E+04  0.13769039616E+04  0.42565435649E+03  0.17541780536E+04  0.10100000352E+00 0.  1.
</event>
<event>
 5   0  0.6584420E-08  0.3401678E+04  0.7818609E-02  0.8137495E-01
        1   -1    0    0  501    0  0.00000000000E+00  0.00000000000E+00  0.24380822647E+04  0.24380822647E+04  0.50400001928E-02 0. -1.
       -1   -1    0    0    0  501  0.00000000000E+00  0.00000000000E+00 -0.11865282260E+04  0.11865282260E+04  0.50400001928E-02 0.  1.
    10030    2    1    2    0    0  0.00000000000E+00  0.00000000000E+00  0.12515540387E+04  0.36246104907E+04  0.34016780708E+04 0.  0.
        1    1    3    3  502    0 -0.73894081400E+03 -0.73617617120E+03  0.20572740099E+04  0.23065916920E+04  0.50400001928E-02 0. -1.
       -1    1    3    3    0  502  0.73894081400E+03  0.73617617120E+03 -0.80571997124E+03  0.13180187987E+04  0.50400001928E-02 0.  1.
</event>
<event>
 5   0  0.1897313E-07  0.3402293E+04  0.7818609E-02  0.8137344E-01
       -2   -1    0    0    0  501  0.00000000000E+00  0.00000000000E+00  0.18232328844E+04  0.18232328844E+04  0.25500000920E-02 0.  1.
        2   -1    0    0  501    0  0.00000000000E+00  0.00000000000E+00 -0.15872355211E+04  0.15872355211E+04  0.25500000920E-02 0. -1.
    10030    2    1    2    0    0  0.00000000000E+00  0.00000000000E+00  0.23599736337E+03  0.34104684055E+04  0.34022933426E+04 0.  0.
        3    1    3    3  502    0 -0.62800697879E+02 -0.73387791249E+03 -0.14191066100E+04  0.15988696941E+04  0.10100000352E+00 0. -1.
       -3    1    3    3    0  502  0.62800697879E+02  0.73387791249E+03  0.16551039734E+04  0.18115987113E+04  0.10100000352E+00 0.  1.
</event>
<event>
 5   0  0.6788600E-08  0.3380843E+04  0.7818609E-02  0.8142624E-01
        1   -1    0    0  501    0  0.00000000000E+00  0.00000000000E+00  0.20212219796E+04  0.20212219796E+04  0.50400001928E-02 0. -1.
       -1   -1    0    0    0  501  0.00000000000E+00  0.00000000000E+00 -0.14137610975E+04  0.14137610975E+04  0.50400001928E-02 0.  1.
    10030    2    1    2    0    0  0.00000000000E+00  0.00000000000E+00  0.60746088211E+03  0.34349830772E+04  0.33808430926E+04 0.  0.
        2    1    3    3  502    0  0.16797318132E+04  0.17248130887E+03  0.22323907560E+03  0.17032570126E+04  0.25500000920E-02 0.  1.
       -2    1    3    3    0  502 -0.16797318132E+04 -0.17248130887E+03  0.38422180651E+03  0.17317260646E+04  0.25500000920E-02 0. -1.
</event>
<event>
 5   0  0.1970449E-07  0.3396222E+04  0.7818609E-02  0.8138834E-01
        2   -1    0    0  501    0  0.00000000000E+00  0.00000000000E+00  0.23751802065E+04  0.23751802065E+04  0.25500000920E-02 0.  1.
       -2   -1    0    0    0  501  0.00000000000E+00  0.00000000000E+00 -0.12140475609E+04  0.12140475609E+04  0.25500000920E-02 0. -1.
    10030    2    1    2    0    0  0.00000000000E+00  0.00000000000E+00  0.11611326455E+04  0.35892277674E+04  0.33962224523E+04 0.  0.
        1    1    3    3  502    0  0.17456046448E+03  0.16605491777E+04  0.90747837057E+03  0.19003715217E+04  0.50400001928E-02 0.  1.
       -1    1    3    3    0  502 -0.17456046448E+03 -0.16605491777E+04  0.25365427497E+03  0.16888562457E+04  0.50400001928E-02 0. -1.
</event>
<event>
 5   0  0.1928004E-07  0.3400207E+04  0.7818609E-02  0.8137856E-01
       -2   -1    0    0    0  501  0.00000000000E+00  0.00000000000E+00  0.19937686489E+04  0.19937686489E+04  0.25500000920E-02 0. -1.
        2   -1    0    0  501    0  0.00000000000E+00  0.00000000000E+00 -0.14496923699E+04  0.14496923699E+04  0.25500000920E-02 0.  1.
    10030    2    1    2    0    0  0.00000000000E+00  0.00000000000E+00  0.54407627899E+03  0.34434610188E+04  0.34002065806E+04 0.  0.
        2    1    3    3  502    0 -0.51278441559E+03 -0.15525591783E+04 -0.19968050862E+03  0.16471976701E+04  0.25500000920E-02 0. -1.
       -2    1    3    3    0  502  0.51278441559E+03  0.15525591783E+04  0.74375678761E+03  0.17962633487E+04  0.25500000920E-02 0.  1.
</event>
<event>
 5   0  0.6311750E-08  0.3395374E+04  0.7818609E-02  0.8139043E-01
        3   -1    0    0  501    0  0.00000000000E+00  0.00000000000E+00  0.19174187981E+04  0.19174188007E+04  0.10100000352E+00 0. -1.
       -3   -1    0    0    0  501  0.00000000000E+00  0.00000000000E+00 -0.15031363178E+04  0.15031363212E+04  0.10100000352E+00 0.  1.
    10030    2    1    2    0    0  0.00000000000E+00  0.00000000000E+00  0.41428248025E+03  0.34205551219E+04  0.33953744077E+04 0.  0.
        1    1    3    3  502    0  0.16387754368E+04 -0.32412683611E+03  0.51187206954E+03  0.17471852088E+04  0.50400001928E-02 0.  1.
       -1    1    3    3    0  502 -0.16387754368E+04  0.32412683611E+03 -0.97589589282E+02  0.16733699131E+04  0.50400001928E-02 0. -1.
</event>
<event>
 5   0  0.6311750E-08  0.3403243E+04  0.7818609E-02  0.8137111E-01
       -1   -1    0    0    0  501  0.00000000000E+00  0.00000000000E+00  0.13353363933E+04  0.13353363933E+04  0.50400001928E-02 0. -1.
        1   -1    0    0  501    0  0.00000000000E+00  0.00000000000E+00 -0.21683786995E+04  0.21683786995E+04  0.50400001928E-02 0.  1.
    10030    2    1    2    0    0  0.00000000000E+00  0.00000000000E+00 -0.83304230618E+03  0.35037150929E+04  0.34032425667E+04 0.  0.
        4    1    3    3  502    0 -0.79658228946E+03 -0.12135685533E+04  0.49750787965E+03  0.15345382630E+04  0.12699999809E+01 0. -1.
       -4    1    3    3    0  502  0.79658228946E+03  0.12135685533E+04 -0.13305501858E+04  0.19691768299E+04  0.12699999809E+01 0.  1.
</event>
<event>
 5   0  0.1963852E-07  0.3404066E+04  0.7818609E-02  0.8136909E-01
        2   -1    0    0  501    0  0.00000000000E+00  0.00000000000E+00  0.22038548714E+04  0.22038548714E+04  0.25500000920E-02 0. -1.
       -2   -1    0    0    0  501  0.00000000000E+00  0.00000000000E+00 -0.13144772161E+04  0.13144772161E+04  0.25500000920E-02 0.  1.
    10030    2    1    2    0    0  0.00000000000E+00  0.00000000000E+00  0.88937765531E+03  0.35183320874E+04  0.34040664012E+04 0.  0.
        4    1    3    3  502    0  0.11585602607E+04 -0.79181543778E+03  0.14401821086E+04  0.20108107032E+04  0.12699999809E+01 0. -1.
       -4    1    3    3    0  502 -0.11585602607E+04  0.79181543778E+03 -0.55080445332E+03  0.15075213842E+04  0.12699999809E+01 0.  1.
</event>
<event>
 5   0  0.1986613E-07  0.3397702E+04  0.7818609E-02  0.8138471E-01
        2   -1    0    0  501    0  0.00000000000E+00  0.00000000000E+00  0.28228281128E+04  0.28228281128E+04  0.25500000920E-02 0. -1.
       -2   -1    0    0    0  501  0.00000000000E+00  0.00000000000E+00 -0.10224124239E+04  0.10224124239E+04  0.25500000920E-02 0.  1.
    10030    2    1    2    0    0  0.00000000000E+00  0.00000000000E+00  0.18004156890E+04  0.38452405367E+04  0.33977018898E+04 0.  0.
        5    1    3    3  502    0  0.14473018985E+04 -0.36318607720E+02 -0.10573011180E+03  0.14516207401E+04  0.46999998093E+01 0.  1.
       -5    1    3    3    0  502 -0.14473018985E+04  0.36318607720E+02  0.19061458008E+04  0.23936197966E+04  0.46999998093E+01 0. -1.
</event>
<event>
 5   0  0.6584420E-08  0.3395690E+04  0.7818609E-02  0.8138965E-01
        1   -1    0    0  501    0  0.00000000000E+00  0.00000000000E+00  0.23507059659E+04  0.23507059659E+04  0.50400001928E-02 0.  1.
       -1   -1    0    0    0  501  0.00000000000E+00  0.00000000000E+00 -0.12263026703E+04  0.12263026703E+04  0.50400001928E-02 0. -1.
    10030    2    1    2    0    0  0.00000000000E+00  0.00000000000E+00  0.11244032956E+04  0.35770086363E+04  0.33956896226E+04 0.  0.
        1    1    3    3  502    0  0.14527095953E+04 -0.55109557367E+03 -0.15889868117E+03  0.15618323503E+04  0.50400001928E-02 0. -1.
       -1    1    3    3    0  502 -0.14527095953E+04  0.55109557367E+03  0.12833019768E+04  0.20151762859E+04  0.50400001928E-02 0.  1.
</event>
<event>
 5   0  0.1963852E-07  0.3422665E+04  0.7818609E-02  0.8132366E-01
       -2   -1    0    0    0  501  0.00000000000E+00  0.00000000000E+00  0.22189388132E+04  0.22189388132E+04  0.25500000920E-02 0.  1.
        2   -1    0    0  501    0  0.00000000000E+00  0.00000000000E+00 -0.13198464255E+04  0.13198464255E+04  0.25500000920E-02 0. -1.
    10030    2    1    2    0    0  0.00000000000E+00  0.00000000000E+00  0.89909238774E+03  0.35387852387E+04  0.34226647286E+04 0.  0.
        4    1    3    3  502    0 -0.83964445029E+03  0.10087789351E+04 -0.68590100062E+03  0.14809117254E+04  0.12699999809E+01 0. -1.
       -4    1    3    3    0  502  0.83964445029E+03 -0.10087789351E+04  0.15849933884E+04  0.20578735133E+04  0.12699999809E+01 0.  1.
</event>
<event>
 5   0  0.6367111E-08  0.3402484E+04  0.7818609E-02  0.8137297E-01
       -1   -1    0    0    0  501  0.00000000000E+00  0.00000000000E+00  0.20200331739E+04  0.20200331739E+04  0.50400001928E-02 0. -1.
        1   -1    0    0  501    0  0.00000000000E+00  0.00000000000E+00 -0.14327604631E+04  0.14327604631E+04  0.50400001928E-02 0.  1.
    10030    2    1    2    0    0  0.00000000000E+00  0.00000000000E+00  0.58727271072E+03  0.34527936370E+04  0.34024836022E+04 0.  0.
        3    1    3    3  502    0 -0.13384850726E+03  0.69524773615E+03  0.18634220940E+04  0.19933957831E+04  0.10100000352E+00 0. -1.
       -3    1    3    3    0  502  0.13384850726E+03 -0.69524773615E+03 -0.12761493832E+04  0.14593978539E+04  0.10100000352E+00 0.  1.
</event>
<event>
 5   0  0.6788600E-08  0.3403055E+04  0.7818609E-02  0.8137157E-01
        1   -1    0    0  501    0  0.00000000000E+00  0.00000000000E+00  0.18867440393E+04  0.18867440393E+04  0.50400001928E-02 0. -1.
       -1   -1    0    0    0  501  0.00000000000E+00  0.00000000000E+00 -0.15344935183E+04  0.15344935183E+04  0.50400001928E-02 0.  1.
    10030    2    1    2    0    0  0.00000000000E+00  0.00000000000E+00  0.35225052102E+03  0.34212375577E+04  0.34030553913E+04 0.  0.
        2    1    3    3  502    0 -0.10970516482E+04  0.12530500856E+04  0.52661332009E+03  0.17467050194E+04  0.25500000920E-02 0. -1.
       -2    1    3    3    0  502  0.10970516482E+04 -0.12530500856E+04 -0.17436279906E+03  0.16745325383E+04  0.25500000920E-02 0.  1.
</event>
<event>
 5   0  0.6788600E-08  0.3418804E+04  0.7818609E-02  0.8133307E-01
       -1   -1    0    0    0  501  0.00000000000E+00  0.00000000000E+00  0.22536442849E+04  0.22536442849E+04  0.50400001928E-02 0. -1.
        1   -1    0    0  501    0  0.00000000000E+00  0.00000000000E+00 -0.12965910840E+04  0.12965910840E+04  0.50400001928E-02 0.  1.
    10030    2    1    2    0    0  0.00000000000E+00  0.00000000000E+00  0.95705320089E+03  0.35502353689E+04  0.34188039349E+04 0.  0.
        2    1    3    3  502    0 -0.14366097590E+04 -0.83763002006E+03  0.67607942769E+02  0.16643444608E+04  0.25500000920E-02 0. -1.
       -2    1    3    3    0  502  0.14366097590E+04  0.83763002006E+03  0.88944525812E+03  0.18858909081E+04  0.25500000920E-02 0.  1.
</event>
<event>
 5   0  0.6584420E-08  0.3407202E+04  0.7818609E-02  0.8136141E-01
        1   -1    0    0  501    0  0.00000000000E+00  0.00000000000E+00  0.23911333787E+04  0.23911333787E+04  0.50400001928E-02 0.  1.
       -1   -1    0    0    0  501  0.00000000000E+00  0.00000000000E+00 -0.12137578355E+04  0.12137578355E+04  0.50400001928E-02 0. -1.
    10030    2    1    2    0    0  0.00000000000E+00  0.00000000000E+00  0.11773755433E+04  0.36048912142E+04  0.34072022976E+04 0.  0.
        1    1    3    3  502    0  0.24215949667E+03  0.14425695687E+04 -0.33525509939E+03  0.15006812333E+04  0.50400001928E-02 0. -1.
       -1    1    3    3    0  502 -0.24215949667E+03 -0.14425695687E+04  0.15126306427E+04  0.21042099809E+04  0.50400001928E-02 0.  1.
</event>
<event>
 5   0  0.6341535E-08  0.3408076E+04  0.7818609E-02  0.8135927E-01
        1   -1    0    0  501    0  0.00000000000E+00  0.00000000000E+00  0.23325780492E+04  0.23325780492E+04  0.50400001928E-02 0. -1.
       -1   -1    0    0    0  501  0.00000000000E+00  0.00000000000E+00 -0.12448652799E+04  0.12448652799E+04  0.50400001928E-02 0.  1.
    10030    2    1    2    0    0  0.00000000000E+00  0.00000000000E+00  0.10877127694E+04  0.35774433291E+04  0.34080759534E+04 0.  0.
        5    1    3    3  502    0  0.17651353646E+03 -0.40129740655E+03  0.22723605891E+04  0.23142690799E+04  0.46999998093E+01 0. -1.
       -5    1    3    3    0  502 -0.17651353646E+03  0.40129740655E+03 -0.11846478198E+04  0.12631742492E+04  0.46999998093E+01 0.  1.
</event>
<event>
 5   0  0.6788600E-08  0.3393805E+04  0.7818609E-02  0.8139428E-01
       -1   -1    0    0    0  501  0.00000000000E+00  0.00000000000E+00  0.15125750760E+04  0.15125750760E+04  0.50400001928E-02 0. -1.
        1   -1    0    0  501    0  0.00000000000E+00  0.00000000000E+00 -0.19036925418E+04  0.19036925418E+04  0.50400001928E-02 0.  1.
    10030    2    1    2    0    0  0.00000000000E+00  0.00000000000E+00 -0.39111746581E+03  0.34162676178E+04  0.33938048801E+04 0.  0.
        2    1    3    3  502    0 -0.85312636965E+03  0.35088798736E+03 -0.16292506253E+04  0.18722725716E+04  0.25500000920E-02 0.  1.
       -2    1    3    3    0  502  0.85312636965E+03 -0.35088798736E+03  0.12381331595E+04  0.15439950462E+04  0.25500000920E-02 0. -1.
</event>
<event>
 5   0  0.1963852E-07  0.3399947E+04  0.7818609E-02  0.8137919E-01
        2   -1    0    0  501    0  0.00000000000E+00  0.00000000000E+00  0.28510074408E+04  0.28510074408E+04  0.25500000920E-02 0. -1.
       -2   -1    0    0    0  501  0.00000000000E+00  0.00000000000E+00 -0.10136449565E+04  0.10136449565E+04  0.25500000920E-02 0.  1.
    10030    2    1    2    0    0  0.00000000000E+00  0.00000000000E+00  0.18373624843E+04  0.38646523974E+04  0.33999466545E+04 0.  0.
        4    1    3    3  502    0 -0.12127013637E+04  0.40519202310E+03  0.21921094818E+04  0.25377491536E+04  0.12699999809E+01 0. -1.
       -4    1    3    3    0  502  0.12127013637E+04 -0.40519202310E+03 -0.35474699754E+03  0.13269032438E+04  0.12699999809E+01 0.  1.
</event>
<event>
 5   0  0.1963852E-07  0.3393453E+04  0.7818609E-02  0.8139515E-01
        2   -1    0    0  501    0  0.00000000000E+00  0.00000000000E+00  0.15055806072E+04  0.15055806072E+04  0.25500000920E-02 0. -1.
       -2   -1    0    0    0  501  0.00000000000E+00  0.00000000000E+00 -0.19121402615E+04  0.19121402615E+04  0.25500000920E-02 0.  1.
    10030    2    1    2    0    0  0.00000000000E+00  0.00000000000E+00 -0.40655965430E+03  0.34177208687E+04  0.33934532830E+04 0.  0.
        4    1    3    3  502    0  0.22830444143E+03 -0.15372227435E+04  0.48254731589E+03  0.16272769297E+04  0.12699999809E+01 0. -1.
       -4    1    3    3    0  502 -0.22830444143E+03  0.15372227435E+04 -0.88910697019E+03  0.17904439389E+04  0.12699999809E+01 0.  1.
</event>
<event>
 5   0  0.1970449E-07  0.3396693E+04  0.7818609E-02  0.8138718E-01
       -2   -1    0    0    0  501  0.00000000000E+00  0.00000000000E+00  0.11731000117E+04  0.11731000117E+04  0.25500000920E-02 0. -1.
        2   -1    0    0  501    0  0.00000000000E+00  0.00000000000E+00 -0.24587685518E+04  0.24587685518E+04  0.25500000920E-02 0.  1.
    10030    2    1    2    0    0  0.00000000000E+00  0.00000000000E+00 -0.12856685400E+04  0.36318685635E+04  0.33966933432E+04 0.  0.
        1    1    3    3  502    0 -0.10352617240E+03  0.12510958670E+04 -0.18658945097E+04  0.22488932518E+04  0.50400001928E-02 0.  1.
       -1    1    3    3    0  502  0.10352617240E+03 -0.12510958670E+04  0.58022596966E+03  0.13829753117E+04  0.50400001928E-02 0. -1.
</event>
<event>
 5   0  0.6311750E-08  0.3427479E+04  0.7818609E-02  0.8131195E-01
        1   -1    0    0  501    0  0.00000000000E+00  0.00000000000E+00  0.20817180530E+04  0.20817180530E+04  0.50400001928E-02 0.  1.
       -1   -1    0    0    0  501  0.00000000000E+00  0.00000000000E+00 -0.14108070635E+04  0.14108070635E+04  0.50400001928E-02 0. -1.
    10030    2    1    2    0    0  0.00000000000E+00  0.00000000000E+00  0.67091098956E+03  0.34925251165E+04  0.34274786846E+04 0.  0.
        4    1    3    3  502    0  0.29343621798E+03  0.88542442225E+03 -0.11294718019E+04  0.14648513187E+04  0.12699999809E+01 0. -1.
       -4    1    3    3    0  502 -0.29343621798E+03 -0.88542442225E+03  0.18003827915E+04  0.20276737978E+04  0.12699999809E+01 0.  1.
</event>
<event>
 5   0  0.6311750E-08  0.3401771E+04  0.7818609E-02  0.8137472E-01
       -1   -1    0    0    0  501  0.00000000000E+00  0.00000000000E+00  0.15776286035E+04  0.15776286035E+04  0.50400001928E-02 0.  1.
        1   -1    0    0  501    0  0.00000000000E+00  0.00000000000E+00 -0.18337719620E+04  0.18337719620E+04  0.50400001928E-02 0. -1.
    10030    2    1    2    0    0  0.00000000000E+00  0.00000000000E+00 -0.25614335853E+03  0.34114005655E+04  0.34017707739E+04 0.  0.
        4    1    3    3  502    0  0.11349116330E+04  0.90642782201E+03 -0.10156611838E+04  0.17723445106E+04  0.12699999809E+01 0. -1.
       -4    1    3    3    0  502 -0.11349116330E+04 -0.90642782201E+03  0.75951782527E+03  0.16390560549E+04  0.12699999809E+01 0.  1.
</event>
<event>
 5   0  0.1986613E-07  0.3362700E+04  0.7818609E-02  0.8147122E-01
        2   -1    0    0  501    0  0.00000000000E+00  0.00000000000E+00  0.17550811580E+04  0.17550811580E+04  0.25500000920E-02 0. -1.
       -2   -1    0    0    0  501  0.00000000000E+00  0.00000000000E+00 -0.16107166946E+04  0.16107166946E+04  0.25500000920E-02 0.  1.
    10030    2    1    2    0    0  0.00000000000E+00  0.00000000000E+00  0.14436446332E+03  0.33657978526E+04  0.33627004158E+04 0.  0.
        5    1    3    3  502    0  0.92857409915E+03 -0.13856522984E+04  0.28364510428E+03  0.16919689078E+04  0.46999998093E+01 0. -1.
       -5    1    3    3    0  502 -0.92857409915E+03  0.13856522984E+04 -0.13928064096E+03  0.16738289448E+04  0.46999998093E+01 0.  1.
</event>
<event>
 5   0  0.6341535E-08  0.3402701E+04  0.7818609E-02  0.8137244E-01
       -1   -1    0    0    0  501  0.00000000000E+00  0.00000000000E+00  0.11730940356E+04  0.11730940356E+04  0.50400001928E-02 0. -1.
        1   -1    0    0  501    0  0.00000000000E+00  0.00000000000E+00 -0.24674866614E+04  0.24674866614E+04  0.50400001928E-02 0.  1.
    10030    2    1    2    0    0  0.00000000000E+00  0.00000000000E+00 -0.12943926258E+04  0.36405806970E+04  0.34027012125E+04 0.  0.
        5    1    3    3  502    0 -0.94881478538E+03  0.13043141029E+04 -0.12264184322E+04  0.20262302527E+04  0.46999998093E+01 0.  1.
       -5    1    3    3    0  502  0.94881478538E+03 -0.13043141029E+04 -0.67974193568E+02  0.16143504443E+04  0.46999998093E+01 0. -1.
</event>
<event>
 5   0  0.6341535E-08  0.3401773E+04  0.7818609E-02  0.8137471E-01
        1   -1    0    0  501    0  0.00000000000E+00  0.00000000000E+00  0.19550878390E+04  0.19550878390E+04  0.50400001928E-02 0. -1.
       -1   -1    0    0    0  501  0.00000000000E+00  0.00000000000E+00 -0.14797366746E+04  0.14797366746E+04  0.50400001928E-02 0.  1.
    10030    2    1    2    0    0  0.00000000000E+00  0.00000000000E+00  0.47535116439E+03  0.34348245136E+04  0.34017731714E+04 0.  0.
        5    1    3    3  502    0  0.13576066751E+04  0.10209154170E+04  0.14948330159E+03  0.17052071782E+04  0.46999998093E+01 0. -1.
       -5    1    3    3    0  502 -0.13576066751E+04 -0.10209154170E+04  0.32586786280E+03  0.17296173354E+04  0.46999998093E+01 0.  1.
</event>
<event>
 5   0  0.1928004E-07  0.3399395E+04  0.7818609E-02  0.8138055E-01
       -2   -1    0    0    0  501  0.00000000000E+00  0.00000000000E+00  0.14540968235E+04  0.14540968235E+04  0.25500000920E-02 0.  1.
        2   -1    0    0  501    0  0.00000000000E+00  0.00000000000E+00 -0.19867805350E+04  0.19867805350E+04  0.25500000920E-02 0. -1.
    10030    2    1    2    0    0  0.00000000000E+00  0.00000000000E+00 -0.53268371145E+03  0.34408773585E+04  0.33993948079E+04 0.  0.
        2    1    3    3  502    0 -0.78289439743E+03 -0.58644400933E+03  0.11406315121E+04  0.15026245239E+04  0.25500000920E-02 0.  1.
       -2    1    3    3    0  502  0.78289439743E+03  0.58644400933E+03 -0.16733152235E+04  0.19382528346E+04  0.25500000920E-02 0. -1.
</event>
<event>
 5   0  0.6367111E-08  0.3420619E+04  0.7818609E-02  0.8132864E-01
       -1   -1    0    0    0  501  0.00000000000E+00  0.00000000000E+00  0.14919407484E+04  0.14919407484E+04  0.50400001928E-02 0.  1.
        1   -1    0    0  501    0  0.00000000000E+00  0.00000000000E+00 -0.19606396337E+04  0.19606396337E+04  0.50400001928E-02 0. -1.
    10030    2    1    2    0    0  0.00000000000E+00  0.00000000000E+00 -0.46869888525E+03  0.34525803821E+04  0.34206187525E+04 0.  0.
        3    1    3    3  502    0 -0.24655461115E+03  0.89606848455E+03  0.12148342830E+04  0.15295588419E+04  0.10100000352E+00 0.  1.
       -3    1    3    3    0  502  0.24655461115E+03 -0.89606848455E+03 -0.16835331683E+04  0.19230215402E+04  0.10100000352E+00 0. -1.
</event>
<event>
 5   0  0.1897313E-07  0.3400639E+04  0.7818609E-02  0.8137750E-01
       -2   -1    0    0    0  501  0.00000000000E+00  0.00000000000E+00  0.15526194771E+04  0.15526194771E+04  0.25500000920E-02 0.  1.
        2   -1    0    0  501    0  0.00000000000E+00  0.00000000000E+00 -0.18620700862E+04  0.18620700862E+04  0.25500000920E-02 0. -1.
    10030    2    1    2    0    0  0.00000000000E+00  0.00000000000E+00 -0.30945060910E+03  0.34146895633E+04  0.34006389303E+04 0.  0.
        3    1    3    3  502    0  0.32827365729E+03 -0.11292429979E+04  0.10784093887E+04  0.15955939841E+04  0.10100000352E+00 0.  1.
       -3    1    3    3    0  502 -0.32827365729E+03  0.11292429979E+04 -0.13878599978E+04  0.18190955791E+04  0.10100000352E+00 0. -1.
</event>
<event>
 5   0  0.1963852E-07  0.3401306E+04  0.7818609E-02  0.8137586E-01
        2   -1    0    0  501    0  0.00000000000E+00  0.00000000000E+00  0.20362892994E+04  0.20362892994E+04  0.25500000920E-02 0. -1.
       -2   -1    0    0    0  501  0.00000000000E+00  0.00000000000E+00 -0.14203389298E+04  0.14203389298E+04  0.25500000920E-02 0.  1.
    10030    2    1    2    0    0  0.00000000000E+00  0.00000000000E+00  0.61595036956E+03  0.34566282291E+04  0.34013061986E+04 0.  0.
        4    1    3    3  502    0  0.13421207673E+04  0.72212418721E+03 -0.45892977978E+03  0.15916562604E+04  0.12699999809E+01 0. -1.
       -4    1    3    3    0  502 -0.13421207673E+04 -0.72212418721E+03  0.10748801493E+04  0.18649719687E+04  0.12699999809E+01 0.  1.
</event>
<event>
 5   0  0.1963852E-07  0.3395121E+04  0.7818609E-02  0.8139105E-01
       -2   -1    0    0    0  501  0.00000000000E+00  0.00000000000E+00  0.12388341943E+04  0.12388341943E+04  0.25500000920E-02 0.  1.
        2   -1    0    0  501    0  0.00000000000E+00  0.00000000000E+00 -0.23261480569E+04  0.23261480569E+04  0.25500000920E-02 0. -1.
    10030    2    1    2    0    0  0.00000000000E+00  0.00000000000E+00 -0.10873138626E+04  0.35649822512E+04  0.33951210605E+04 0.  0.
        4    1    3    3  502    0  0.12405967834E+04 -0.95865590489E+03 -0.12270719221E+04  0.19909316005E+04  0.12699999809E+01 0. -1.
       -4    1    3    3    0  502 -0.12405967834E+04  0.95865590489E+03  0.13975805956E+03  0.15740506507E+04  0.12699999809E+01 0.  1.
</event>
<event>
 5   0  0.6788600E-08  0.3400078E+04  0.7818609E-02  0.8137887E-01
       -1   -1    0    0    0  501  0.00000000000E+00  0.00000000000E+00  0.12492315550E+04  0.12492315550E+04  0.50400001928E-02 0. -1.
        1   -1    0    0  501    0  0.00000000000E+00  0.00000000000E+00 -0.23135280394E+04  0.23135280394E+04  0.50400001928E-02 0.  1.
    10030    2    1    2    0    0  0.00000000000E+00  0.00000000000E+00 -0.10642964844E+04  0.35627595945E+04  0.34000777816E+04 0.  0.
        2    1    3    3  502    0  0.16894876046E+04 -0.81527708823E+02 -0.35334651847E+03  0.17279666940E+04  0.25500000920E-02 0. -1.
       -2    1    3    3    0  502 -0.16894876046E+04  0.81527708823E+02 -0.71094996595E+03  0.18347929005E+04  0.25500000920E-02 0.  1.
</event>
<event>
 5   0  0.1970449E-07  0.3373789E+04  0.7818609E-02  0.8144370E-01
       -2   -1    0    0    0  501  0.00000000000E+00  0.00000000000E+00  0.17530356935E+04  0.17530356935E+04  0.25500000920E-02 0.  1.
        2   -1    0    0  501    0  0.00000000000E+00  0.00000000000E+00 -0.16232485839E+04  0.16232485839E+04  0.25500000920E-02 0. -1.
    10030    2    1    2    0    0  0.00000000000E+00  0.00000000000E+00  0.12978710958E+03  0.33762842775E+04  0.33737887943E+04 0.  0.
        1    1    3    3  502    0 -0.11039135070E+04 -0.12754069874E+04  0.82926116752E+02  0.16888353251E+04  0.50400001928E-02 0.  1.
       -1    1    3    3    0  502  0.11039135070E+04  0.12754069874E+04  0.46860992827E+02  0.16874489524E+04  0.50400001928E-02 0. -1.
</event>
<event>
 5   0  0.6584420E-08  0.3397038E+04  0.7818609E-02  0.8138634E-01
        1   -1    0    0  501    0  0.00000000000E+00  0.00000000000E+00  0.28091603859E+04  0.28091603859E+04  0.50400001928E-02 0.  1.
       -1   -1    0    0    0  501  0.00000000000E+00  0.00000000000E+00 -0.10269852425E+04  0.10269852425E+04  0.50400001928E-02 0. -1.
    10030    2    1    2    0    0  0.00000000000E+00  0.00000000000E+00  0.17821751435E+04  0.38361456284E+04  0.33970376860E+04 0.  0.
        1    1    3    3  502    0 -0.12264070385E+04 -0.23704017497E+03  0.21908205640E+04  0.25218955197E+04  0.50400001928E-02 0.  1.
       -1    1    3    3    0  502  0.12264070385E+04  0.23704017497E+03 -0.40864542051E+03  0.13142501087E+04  0.50400001928E-02 0. -1.
</event>
<event>
 5   0  0.6341535E-08  0.3434782E+04  0.7818609E-02  0.8129422E-01
       -1   -1    0    0    0  501  0.00000000000E+00  0.00000000000E+00  0.14578560310E+04  0.14578560310E+04  0.50400001928E-02 0.  1.
        1   -1    0    0  501    0  0.00000000000E+00  0.00000000000E+00 -0.20231292837E+04  0.20231292837E+04  0.50400001928E-02 0. -1.
    10030    2    1    2    0    0  0.00000000000E+00  0.00000000000E+00 -0.56527325271E+03  0.34809853147E+04  0.34347816395E+04 0.  0.
        5    1    3    3  502    0 -0.10316391934E+04 -0.52882242612E+03  0.10014816944E+04  0.15319661413E+04  0.46999998093E+01 0.  1.
       -5    1    3    3    0  502  0.10316391934E+04  0.52882242612E+03 -0.15667549472E+04  0.19490191734E+04  0.46999998093E+01 0. -1.
</event>
<event>
 5   0  0.1970449E-07  0.3419072E+04  0.7818609E-02  0.8133241E-01
        2   -1    0    0  501    0  0.00000000000E+00  0.00000000000E+00  0.14438235903E+04  0.14438235903E+04  0.25500000920E-02 0.  1.
       -2   -1    0    0    0  501  0.00000000000E+00  0.00000000000E+00 -0.20241489476E+04  0.20241489476E+04  0.25500000920E-02 0. -1.
    10030    2    1    2    0    0  0.00000000000E+00  0.00000000000E+00 -0.58032535727E+03  0.34679725379E+04  0.34190723893E+04 0.  0.
        1    1    3    3  502    0 -0.22227066766E+03 -0.14856888241E+04 -0.11178223522E+04  0.18724856055E+04  0.50400001928E-02 0. -1.
       -1    1    3    3    0  502  0.22227066766E+03  0.14856888241E+04  0.53749699493E+03  0.15954869324E+04  0.50400001928E-02 0.  1.
</event>
<event>
 5   0  0.6341535E-08  0.3401525E+04  0.7818609E-02  0.8137532E-01
        1   -1    0    0  501    0  0.00000000000E+00  0.00000000000E+00  0.27316517202E+04  0.27316517203E+04  0.50400001928E-02 0.  1.
       -1   -1    0    0    0  501  0.00000000000E+00  0.00000000000E+00 -0.10589172900E+04  0.10589172900E+04  0.50400001928E-02 0. -1.
    10030    2    1    2    0    0  0.00000000000E+00  0.00000000000E+00  0.16727344303E+04  0.37905690103E+04  0.34015250914E+04 0.  0.
        5    1    3    3  502    0  0.55542736646E+03  0.43436374118E+03  0.25610916918E+04  0.26563855448E+04  0.46999998093E+01 0.  1.
       -5    1    3    3    0  502 -0.55542736646E+03 -0.43436374118E+03 -0.88835726154E+03  0.11341834654E+04  0.46999998093E+01 0. -1.
</event>
<event>
 5   0  0.6367111E-08  0.3398852E+04  0.7818609E-02  0.8138188E-01
        1   -1    0    0  501    0  0.00000000000E+00  0.00000000000E+00  0.19877569363E+04  0.19877569363E+04  0.50400001928E-02 0. -1.
       -1   -1    0    0    0  501  0.00000000000E+00  0.00000000000E+00 -0.14529181975E+04  0.14529181975E+04  0.50400001928E-02 0.  1.
    10030    2    1    2    0    0  0.00000000000E+00  0.00000000000E+00  0.53483873883E+03  0.34406751338E+04  0.33988517031E+04 0.  0.
        3    1    3    3  502    0  0.90093856011E+03 -0.93695048644E+03  0.13756423670E+04  0.18926062547E+04  0.10100000352E+00 0. -1.
       -3    1    3    3    0  502 -0.90093856011E+03  0.93695048644E+03 -0.84080362815E+03  0.15480688791E+04  0.10100000352E+00 0.  1.
</event>
<event>
 5   0  0.6311750E-08  0.3443962E+04  0.7818609E-02  0.8127200E-01
       -1   -1    0    0    0  501  0.00000000000E+00  0.00000000000E+00  0.12653052197E+04  0.12653052197E+04  0.50400001928E-02 0.  1.
        1   -1    0    0  501    0  0.00000000000E+00  0.00000000000E+00 -0.23434808061E+04  0.23434808061E+04  0.50400001928E-02 0. -1.
    10030    2    1    2    0    0  0.00000000000E+00  0.00000000000E+00 -0.10781755864E+04  0.36087860258E+04  0.34439619604E+04 0.  0.
        4    1    3    3  502    0 -0.12510914293E+03  0.16985720201E+04 -0.27313453211E+03  0.17249357353E+04  0.12699999809E+01 0. -1.
       -4    1    3    3    0  502  0.12510914293E+03 -0.16985720201E+04 -0.80504105431E+03  0.18838502906E+04  0.12699999809E+01 0.  1.
</event>
<event>
 5   0  0.1986613E-07  0.3395120E+04  0.7818609E-02  0.8139105E-01
        2   -1    0    0  501    0  0.00000000000E+00  0.00000000000E+00  0.19788810088E+04  0.19788810088E+04  0.25500000920E-02 0. -1.
       -2   -1    0    0    0  501  0.00000000000E+00  0.00000000000E+00 -0.14562323186E+04  0.14562323186E+04  0.25500000920E-02 0.  1.
    10030    2    1    2    0    0  0.00000000000E+00  0.00000000000E+00  0.52264869022E+03  0.34351133274E+04  0.33951203099E+04 0.  0.
        5    1    3    3  502    0 -0.16119269644E+04  0.53231158396E+03  0.25634410838E+03  0.17167989262E+04  0.46999998093E+01 0. -1.
       -5    1    3    3    0  502  0.16119269644E+04 -0.53231158396E+03  0.26630458184E+03  0.17183144012E+04  0.46999998093E+01 0.  1.
</event>
<event>
 5   0  0.1970449E-07  0.3397853E+04  0.7818609E-02  0.8138433E-01
        2   -1    0    0  501    0  0.00000000000E+00  0.00000000000E+00  0.14532075043E+04  0.14532075043E+04  0.25500000920E-02 0. -1.
       -2   -1    0    0    0  501  0.00000000000E+00  0.00000000000E+00 -0.19861936209E+04  0.19861936209E+04  0.25500000920E-02 0.  1.
    10030    2    1    2    0    0  0.00000000000E+00  0.00000000000E+00 -0.53298611669E+03  0.34394011252E+04  0.33978531309E+04 0.  0.
        1    1    3    3  502    0  0.15964586421E+04 -0.16649191625E+03  0.29704759587E+03  0.16323715963E+04  0.50400001928E-02 0. -1.
       -1    1    3    3    0  502 -0.15964586421E+04  0.16649191625E+03 -0.83003371256E+03  0.18070295289E+04  0.50400001928E-02 0.  1.
</event>
<event>
 5   0  0.6788600E-08  0.3398375E+04  0.7818609E-02  0.8138305E-01
        1   -1    0    0  501    0  0.00000000000E+00  0.00000000000E+00  0.24153061285E+04  0.24153061285E+04  0.50400001928E-02 0.  1.
       -1   -1    0    0    0  501  0.00000000000E+00  0.00000000000E+00 -0.11953921683E+04  0.11953921683E+04  0.50400001928E-02 0. -1.
    10030    2    1    2    0    0  0.00000000000E+00  0.00000000000E+00  0.12199139602E+04  0.36106982968E+04  0.33983749235E+04 0.  0.
        2    1    3    3  502    0  0.10305103495E+04  0.13212842732E+04  0.31039412763E+03  0.17041385582E+04  0.25500000920E-02 0. -1.
       -2    1    3    3    0  502 -0.10305103495E+04 -0.13212842732E+04  0.90951983254E+03  0.19065597386E+04  0.25500000920E-02 0.  1.
</event>
<event>
 5   0  0.6341535E-08  0.3394828E+04  0.7818609E-02  0.8139177E-01
       -1   -1    0    0    0  501  0.00000000000E+00  0.00000000000E+00  0.15203061721E+04  0.15203061721E+04  0.50400001928E-02 0.  1.
        1   -1    0    0  501    0  0.00000000000E+00  0.00000000000E+00 -0.18951539519E+04  0.18951539519E+04  0.50400001928E-02 0. -1.
    10030    2    1    2    0    0  0.00000000000E+00  0.00000000000E+00 -0.37484777979E+03  0.34154601241E+04  0.33948279781E+04 0.  0.
        5    1    3    3  502    0  0.71674521733E+03 -0.15370371546E+04 -0.11638855297E+03  0.16999339124E+04  0.46999998093E+01 0.  1.
       -5    1    3    3    0  502 -0.71674521733E+03  0.15370371546E+04 -0.25845922682E+03  0.17155262117E+04  0.46999998093E+01 0. -1.
</event>
<event>
 5   0  0.1897313E-07  0.3400313E+04  0.7818609E-02  0.8137829E-01
       -2   -1    0    0    0  501  0.00000000000E+00  0.00000000000E+00  0.17520848679E+04  0.17520848679E+04  0.25500000920E-02 0. -1.
        2   -1    0    0  501    0  0.00000000000E+00  0.00000000000E+00 -0.16497672360E+04  0.16497672360E+04  0.25500000920E-02 0.  1.
    10030    2    1    2    0    0  0.00000000000E+00  0.00000000000E+00  0.10231763190E+03  0.34018521038E+04  0.34003130501E+04 0.  0.
        3    1    3    3  502    0 -0.87269935413E+02  0.52040874115E+02 -0.16467268638E+04  0.16498586814E+04  0.10100000352E+00 0.  1.
       -3    1    3    3    0  502  0.87269935413E+02 -0.52040874115E+02  0.17490444957E+04  0.17519934225E+04  0.10100000352E+00 0. -1.
</event>
<event>
 5   0  0.1970449E-07  0.3398014E+04  0.7818609E-02  0.8138394E-01
       -2   -1    0    0    0  501  0.00000000000E+00  0.00000000000E+00  0.10073778990E+04  0.10073778990E+04  0.25500000920E-02 0. -1.
        2   -1    0    0  501    0  0.00000000000E+00  0.00000000000E+00 -0.28654838789E+04  0.28654838789E+04  0.25500000920E-02 0.  1.
    10030    2    1    2    0    0  0.00000000000E+00  0.00000000000E+00 -0.18581059799E+04  0.38728617779E+04  0.33980142021E+04 0.  0.
        1    1    3    3  502    0  0.14482791287E+04  0.30591414369E+03  0.21474105375E+02  0.14803908386E+04  0.50400001928E-02 0. -1.
       -1    1    3    3    0  502 -0.14482791287E+04 -0.30591414369E+03 -0.18795800853E+04  0.23924709392E+04  0.50400001928E-02 0.  1.
</event>
<event>
 5   0  0.6311750E-08  0.3398539E+04  0.7818609E-02  0.8138265E-01
       -3   -1    0    0    0  501  0.00000000000E+00  0.00000000000E+00  0.17510750055E+04  0.17510750084E+04  0.10100000352E+00 0.  1.
        3   -1    0    0  501    0  0.00000000000E+00  0.00000000000E+00 -0.16489968623E+04  0.16489968654E+04  0.10100000352E+00 0. -1.
    10030    2    1    2    0    0  0.00000000000E+00  0.00000000000E+00  0.10207814320E+03  0.34000718739E+04  0.33985392156E+04 0.  0.
        2    1    3    3  502    0 -0.14999891470E+04  0.19932252752E+03 -0.72249800909E+03  0.16768125370E+04  0.25500000920E-02 0.  1.
       -2    1    3    3    0  502  0.14999891470E+04 -0.19932252752E+03  0.82457615229E+03  0.17232593369E+04  0.25500000920E-02 0. -1.
</event>
<event>
 5   0  0.6788600E-08  0.3407481E+04  0.7818609E-02  0.8136073E-01
       -1   -1    0    0    0  501  0.00000000000E+00  0.00000000000E+00  0.23210104062E+04  0.23210104062E+04  0.50400001928E-02 0.  1.
        1   -1    0    0  501    0  0.00000000000E+00  0.00000000000E+00 -0.12506328685E+04  0.12506328685E+04  0.50400001928E-02 0. -1.
    10030    2    1    2    0    0  0.00000000000E+00  0.00000000000E+00  0.10703775377E+04  0.35716432747E+04  0.34074811237E+04 0.  0.
        2    1    3    3  502    0  0.13073877262E+04 -0.10556518744E+04  0.82992665968E+03  0.18741509563E+04  0.25500000920E-02 0.  1.
       -2    1    3    3    0  502 -0.13073877262E+04  0.10556518744E+04  0.24045087799E+03  0.16974923184E+04  0.25500000920E-02 0. -1.
</event>
<event>
 5   0  0.6341535E-08  0.3400197E+04  0.7818609E-02  0.8137858E-01
       -1   -1    0    0    0  501  0.00000000000E+00  0.00000000000E+00  0.10015666900E+04  0.10015666900E+04  0.50400001928E-02 0.  1.
        1   -1    0    0  501    0  0.00000000000E+00  0.00000000000E+00 -0.28858135968E+04  0.28858135968E+04  0.50400001928E-02 0. -1.
    10030    2    1    2    0    0  0.00000000000E+00  0.00000000000E+00 -0.18842469067E+04  0.38873802868E+04  0.34001969191E+04 0.  0.
        5    1    3    3  502    0 -0.11877229231E+04 -0.12102786839E+04 -0.80279110124E+03  0.18761545451E+04  0.46999998093E+01 0. -1.
       -5    1    3    3    0  502  0.11877229231E+04  0.12102786839E+04 -0.10814558055E+04  0.20112257417E+04  0.46999998093E+01 0.  1.
</event>
<event>
 5   0  0.6788600E-08  0.3403028E+04  0.7818609E-02  0.8137163E-01
        1   -1    0    0  501    0  0.00000000000E+00  0.00000000000E+00  0.16552722405E+04  0.16552722405E+04  0.50400001928E-02 0.  1.
       -1   -1    0    0    0  501  0.00000000000E+00  0.00000000000E+00 -0.17490478263E+04  0.17490478263E+04  0.50400001928E-02 0. -1.
    10030    2    1    2    0    0  0.00000000000E+00  0.00000000000E+00 -0.93775585768E+02  0.34043200668E+04  0.34030282480E+04 0.  0.
        2    1    3    3  502    0  0.10914658397E+04  0.12845282909E+04  0.18523413329E+03  0.16957659902E+04  0.25500000920E-02 0. -1.
       -2    1    3    3    0  502 -0.10914658397E+04 -0.12845282909E+04 -0.27900971906E+03  0.17085540766E+04  0.25500000920E-02 0.  1.
</event>
<event>
 5   0  0.6341535E-08  0.3409159E+04  0.7818609E-02  0.8135662E-01
       -1   -1    0    0    0  501  0.00000000000E+00  0.00000000000E+00  0.13186745260E+04  0.13186745261E+04  0.50400001928E-02 0. -1.
        1   -1    0    0  501    0  0.00000000000E+00  0.00000000000E+00 -0.22034186170E+04  0.22034186170E+04  0.50400001928E-02 0.  1.
    10030    2    1    2    0    0  0.00000000000E+00  0.00000000000E+00 -0.88474409094E+03  0.35220931430E+04  0.34091594275E+04 0.  0.
        5    1    3    3  502    0  0.13612882497E+04 -0.65912581703E+03  0.36981090053E+03  0.15570275314E+04  0.46999998093E+01 0. -1.
       -5    1    3    3    0  502 -0.13612882497E+04  0.65912581703E+03 -0.12545549915E+04  0.19650656116E+04  0.46999998093E+01 0.  1.
</event>
<event>
 5   0  0.6788600E-08  0.3393681E+04  0.7818609E-02  0.8139459E-01
       -1   -1    0    0    0  501  0.00000000000E+00  0.00000000000E+00  0.17195043946E+04  0.17195043946E+04  0.50400001928E-02 0. -1.
        1   -1    0    0  501    0  0.00000000000E+00  0.00000000000E+00 -0.16744748918E+04  0.16744748918E+04  0.50400001928E-02 0.  1.
    10030    2    1    2    0    0  0.00000000000E+00  0.00000000000E+00  0.45029502750E+02  0.33939792864E+04  0.33936805596E+04 0.  0.
        2    1    3    3  502    0  0.67521923833E+03  0.15144372737E+04 -0.33783024451E+03  0.16922087784E+04  0.25500000920E-02 0.  1.
       -2    1    3    3    0  502 -0.67521923833E+03 -0.15144372737E+04  0.38285974726E+03  0.17017705080E+04  0.25500000920E-02 0. -1.
</event>
<event>
 5   0  0.1897313E-07  0.3402205E+04  0.7818609E-02  0.8137365E-01
        2   -1    0    0  501    0  0.00000000000E+00  0.00000000000E+00  0.20379011971E+04  0.20379011971E+04  0.25500000920E-02 0. -1.
       -2   -1    0    0    0  501  0.00000000000E+00  0.00000000000E+00 -0.14199659881E+04  0.14199659881E+04  0.25500000920E-02 0.  1.
    10030    2    1    2    0    0  0.00000000000E+00  0.00000000000E+00  0.61793520900E+03  0.34578671852E+04  0.34022053947E+04 0.  0.
        3    1    3    3  502    0  0.15854950238E+04 -0.41247409666E+03 -0.15658877532E+03  0.16457367364E+04  0.10100000352E+00 0. -1.
       -3    1    3    3    0  502 -0.15854950238E+04  0.41247409666E+03  0.77452398433E+03  0.18121304488E+04  0.10100000352E+00 0.  1.
</event>
<event>
 5   0  0.1928004E-07  0.3402059E+04  0.7818609E-02  0.8137401E-01
       -2   -1    0    0    0  501  0.00000000000E+00  0.00000000000E+00  0.12403694709E+04  0.12403694709E+04  0.25500000920E-02 0. -1.
        2   -1    0    0  501    0  0.00000000000E+00  0.00000000000E+00 -0.23327742275E+04  0.23327742275E+04  0.25500000920E-02 0.  1.
    10030    2    1    2    0    0  0.00000000000E+00  0.00000000000E+00 -0.10924047566E+04  0.35731436984E+04  0.34020593377E+04 0.  0.
        2    1    3    3  502    0 -0.35431061361E+03 -0.15866786274E+04 -0.10717842511E+04  0.19472561615E+04  0.25500000920E-02 0. -1.
       -2    1    3    3    0  502  0.35431061361E+03  0.15866786274E+04 -0.20620505449E+02  0.16258875369E+04  0.25500000920E-02 0.  1.
</event>
<event>
 5   0  0.1970449E-07  0.3394612E+04  0.7818609E-02  0.8139230E-01
       -2   -1    0    0    0  501  0.00000000000E+00  0.00000000000E+00  0.13588041576E+04  0.13588041576E+04  0.25500000920E-02 0. -1.
        2   -1    0    0  501    0  0.00000000000E+00  0.00000000000E+00 -0.21201347868E+04  0.21201347868E+04  0.25500000920E-02 0.  1.
    10030    2    1    2    0    0  0.00000000000E+00  0.00000000000E+00 -0.76133062926E+03  0.34789389444E+04  0.33946121799E+04 0.  0.
        1    1    3    3  502    0  0.55791271130E+03  0.12350156403E+04  0.66663918407E+03  0.15102774669E+04  0.50400001928E-02 0. -1.
       -1    1    3    3    0  502 -0.55791271130E+03 -0.12350156403E+04 -0.14279698133E+04  0.19686614775E+04  0.50400001928E-02 0.  1.
</event>
<event>
 5   0  0.6788600E-08  0.3393479E+04  0.7818609E-02  0.8139509E-01
       -1   -1    0    0    0  501  0.00000000000E+00  0.00000000000E+00  0.23202048408E+04  0.23202048408E+04  0.50400001928E-02 0. -1.
        1   -1    0    0  501    0  0.00000000000E+00  0.00000000000E+00 -0.12408063292E+04  0.12408063292E+04  0.50400001928E-02 0.  1.
    10030    2    1    2    0    0  0.00000000000E+00  0.00000000000E+00  0.10793985117E+04  0.35610111700E+04  0.33934789532E+04 0.  0.
        2    1    3    3  502    0 -0.64312580059E+03 -0.10100423978E+04 -0.72178372469E+03  0.13981302465E+04  0.25500000920E-02 0.  1.
       -2    1    3    3    0  502  0.64312580059E+03  0.10100423978E+04  0.18011822364E+04  0.21628809236E+04  0.25500000920E-02 0. -1.
</event>
<event>
 5   0  0.1963852E-07  0.3402342E+04  0.7818609E-02  0.8137332E-01
        2   -1    0    0  501    0  0.00000000000E+00  0.00000000000E+00  0.20716789309E+04  0.20716789309E+04  0.25500000920E-02 0.  1.
       -2   -1    0    0    0  501  0.00000000000E+00  0.00000000000E+00 -0.13969264189E+04  0.13969264189E+04  0.25500000920E-02 0. -1.
    10030    2    1    2    0    0  0.00000000000E+00  0.00000000000E+00  0.67475251196E+03  0.34686053498E+04  0.34023421521E+04 0.  0.
        4    1    3    3  502    0 -0.10614611852E+04  0.12926087849E+04  0.65397904271E+03  0.17958918452E+04  0.12699999809E+01 0.  1.
       -4    1    3    3    0  502  0.10614611852E+04 -0.12926087849E+04  0.20773469258E+02  0.16727135046E+04  0.12699999809E+01 0. -1.
</event>
<event>
 5   0  0.6584420E-08  0.3394748E+04  0.7818609E-02  0.8139197E-01
       -1   -1    0    0    0  501  0.00000000000E+00  0.00000000000E+00  0.14634159432E+04  0.14634159432E+04  0.50400001928E-02 0.  1.
        1   -1    0    0  501    0  0.00000000000E+00  0.00000000000E+00 -0.19687353236E+04  0.19687353236E+04  0.50400001928E-02 0. -1.
    10030    2    1    2    0    0  0.00000000000E+00  0.00000000000E+00 -0.50531938044E+03  0.34321512668E+04  0.33947480970E+04 0.  0.
        1    1    3    3  502    0 -0.25237602270E+03 -0.10147758869E+04  0.10990886663E+04  0.15170562462E+04  0.50400001928E-02 0.  1.
       -1    1    3    3    0  502  0.25237602270E+03  0.10147758869E+04 -0.16044080468E+04  0.19150950207E+04  0.50400001928E-02 0. -1.
</event>
<event>
 5   0  0.6311750E-08  0.3447910E+04  0.7818609E-02  0.8126247E-01
        1   -1    0    0  501    0  0.00000000000E+00  0.00000000000E+00  0.28554760654E+04  0.28554760654E+04  0.50400001928E-02 0. -1.
       -1   -1    0    0    0  501  0.00000000000E+00  0.00000000000E+00 -0.10408143723E+04  0.10408143723E+04  0.50400001928E-02 0.  1.
    10030    2    1    2    0    0  0.00000000000E+00  0.00000000000E+00  0.18146616931E+04  0.38962904378E+04  0.34479098183E+04 0.  0.
        4    1    3    3  502    0 -0.96232646830E+03  0.12174596336E+04  0.17557966806E+04  0.23433104335E+04  0.12699999809E+01 0. -1.
       -4    1    3    3    0  502  0.96232646830E+03 -0.12174596336E+04  0.58865012482E+02  0.15529800043E+04  0.12699999809E+01 0.  1.
</event>
<event>
 5   0  0.1897313E-07  0.3410105E+04  0.7818609E-02  0.8135431E-01
        2   -1    0    0  501    0  0.00000000000E+00  0.00000000000E+00  0.12421289754E+04  0.12421289754E+04  0.25500000920E-02 0.  1.
       -2   -1    0    0    0  501  0.00000000000E+00  0.00000000000E+00 -0.23405010762E+04  0.23405010762E+04  0.25500000920E-02 0. -1.
    10030    2    1    2    0    0  0.00000000000E+00  0.00000000000E+00 -0.10983721008E+04  0.35826300516E+04  0.34101051032E+04 0.  0.
        3    1    3    3  502    0 -0.45524977973E+03 -0.15038135143E+04 -0.12448786557E+04  0.20046022861E+04  0.10100000352E+00 0. -1.
       -3    1    3    3    0  502  0.45524977973E+03  0.15038135143E+04  0.14650655492E+03  0.15780277655E+04  0.10100000352E+00 0.  1.
</event>
<event>
 5   0  0.6341535E-08  0.3401345E+04  0.7818609E-02  0.8137576E-01
        1   -1    0    0  501    0  0.00000000000E+00  0.00000000000E+00  0.18564413537E+04  0.18564413537E+04  0.50400001928E-02 0.  1.
       -1   -1    0    0    0  501  0.00000000000E+00  0.00000000000E+00 -0.15579737180E+04  0.15579737181E+04  0.50400001928E-02 0. -1.
    10030    2    1    2    0    0  0.00000000000E+00  0.00000000000E+00  0.29846763562E+03  0.34144150717E+04  0.34013449329E+04 0.  0.
        5    1    3    3  502    0  0.13622302540E+04 -0.16919953897E+03  0.11570663301E+04  0.17953061943E+04  0.46999998093E+01 0.  1.
       -5    1    3    3    0  502 -0.13622302540E+04  0.16919953897E+03 -0.85859869444E+03  0.16191088775E+04  0.46999998093E+01 0. -1.
</event>
<event>
 5   0  0.1897313E-07  0.3390950E+04  0.7818609E-02  0.8140131E-01
        2   -1    0    0  501    0  0.00000000000E+00  0.00000000000E+00  0.28451243864E+04  0.28451243864E+04  0.25500000920E-02 0. -1.
       -2   -1    0    0    0  501  0.00000000000E+00  0.00000000000E+00 -0.10103724092E+04  0.10103724092E+04  0.25500000920E-02 0.  1.
    10030    2    1    2    0    0  0.00000000000E+00  0.00000000000E+00  0.18347519772E+04  0.38554967956E+04  0.33909498261E+04 0.  0.
        3    1    3    3  502    0  0.15107687962E+04  0.31042621049E+03  0.11674308699E+03  0.15467435942E+04  0.10100000352E+00 0.  1.
       -3    1    3    3    0  502 -0.15107687962E+04 -0.31042621049E+03  0.17180088902E+04  0.23087532014E+04  0.10100000352E+00 0. -1.
</event>
<event>
 5   0  0.6311750E-08  0.3399315E+04  0.7818609E-02  0.8138074E-01
        1   -1    0    0  501    0  0.00000000000E+00  0.00000000000E+00  0.28621746629E+04  0.28621746629E+04  0.50400001928E-02 0.  1.
       -1   -1    0    0    0  501  0.00000000000E+00  0.00000000000E+00 -0.10093148521E+04  0.10093148521E+04  0.50400001928E-02 0. -1.
    10030    2    1    2    0    0  0.00000000000E+00  0.00000000000E+00  0.18528598108E+04  0.38714895149E+04  0.33993148701E+04 0.  0.
        4    1    3    3  502    0  0.23036310528E+03 -0.10804302431E+04  0.23975279366E+04  0.26397989488E+04  0.12699999809E+01 0.  1.
       -4    1    3    3    0  502 -0.23036310528E+03  0.10804302431E+04 -0.54466812585E+03  0.12316905661E+04  0.12699999809E+01 0. -1.
</event>
<event>
 5   0  0.6341535E-08  0.3397298E+04  0.7818609E-02  0.8138570E-01
        1   -1    0    0  501    0  0.00000000000E+00  0.00000000000E+00  0.95152502403E+03  0.95152502404E+03  0.50400001928E-02 0.  1.
       -1   -1    0    0    0  501  0.00000000000E+00  0.00000000000E+00 -0.30324037759E+04  0.30324037759E+04  0.50400001928E-02 0. -1.
    10030    2    1    2    0    0  0.00000000000E+00  0.00000000000E+00 -0.20808787518E+04  0.39839287999E+04  0.33972977943E+04 0.  0.
        5    1    3    3  502    0 -0.87969318476E+03 -0.30351011564E+03  0.62600158915E+03  0.11215518576E+04  0.46999998093E+01 0.  1.
       -5    1    3    3    0  502  0.87969318476E+03  0.30351011564E+03 -0.27068803410E+04  0.28623769423E+04  0.46999998093E+01 0. -1.
</event>
<event>
 5   0  0.1897313E-07  0.3397192E+04  0.7818609E-02  0.8138596E-01
       -2   -1    0    0    0  501  0.00000000000E+00  0.00000000000E+00  0.20706231443E+04  0.20706231443E+04  0.25500000920E-02 0.  1.
        2   -1    0    0  501    0  0.00000000000E+00  0.00000000000E+00 -0.13934107742E+04  0.13934107743E+04  0.25500000920E-02 0. -1.
    10030    2    1    2    0    0  0.00000000000E+00  0.00000000000E+00  0.67721237001E+03  0.34640339185E+04  0.33971921339E+04 0.  0.
        3    1    3    3  502    0 -0.10042587747E+04 -0.11001996529E+03  0.17309725633E+04  0.20042220696E+04  0.10100000352E+00 0.  1.
       -3    1    3    3    0  502  0.10042587747E+04  0.11001996529E+03 -0.10537601932E+04  0.14598118489E+04  0.10100000352E+00 0. -1.
</event>
<event>
 5   0  0.6584420E-08  0.3403096E+04  0.7818609E-02  0.8137147E-01
        1   -1    0    0  501    0  0.00000000000E+00  0.00000000000E+00  0.17761602887E+04  0.17761602887E+04  0.50400001928E-02 0. -1.
       -1   -1    0    0    0  501  0.00000000000E+00  0.00000000000E+00 -0.16300704136E+04  0.16300704136E+04  0.50400001928E-02 0.  1.
    10030    2    1    2    0    0  0.00000000000E+00  0.00000000000E+00  0.14608987503E+03  0.34062307023E+04  0.34030964350E+04 0.  0.
        1    1    3    3  502    0  0.71498952373E+03 -0.13212340403E+04 -0.72668839468E+03  0.16688155774E+04  0.50400001928E-02 0.  1.
       -1    1    3    3    0  502 -0.71498952373E+03  0.13212340403E+04  0.87277826971E+03  0.17374151249E+04  0.50400001928E-02 0. -1.
</event>
<event>
 5   0  0.1986613E-07  0.3405905E+04  0.7818609E-02  0.8136459E-01
        2   -1    0    0  501    0  0.00000000000E+00  0.00000000000E+00  0.20447432846E+04  0.20447432847E+04  0.25500000920E-02 0. -1.
       -2   -1    0    0    0  501  0.00000000000E+00  0.00000000000E+00 -0.14182939164E+04  0.14182939164E+04  0.25500000920E-02 0.  1.
    10030    2    1    2    0    0  0.00000000000E+00  0.00000000000E+00  0.62644936821E+03  0.34630372011E+04  0.34059048497E+04 0.  0.
        5    1    3    3  502    0  0.62028838742E+03  0.10134254763E+04  0.15536212284E+04  0.19559012988E+04  0.46999998093E+01 0. -1.
       -5    1    3    3    0  502 -0.62028838742E+03 -0.10134254763E+04 -0.92717186014E+03  0.15071359022E+04  0.46999998093E+01 0.  1.
</event>
<event>
 5   0  0.6788600E-08  0.3401284E+04  0.7818609E-02  0.8137591E-01
        1   -1    0    0  501    0  0.00000000000E+00  0.00000000000E+00  0.13359899715E+04  0.13359899715E+04  0.50400001928E-02 0.  1.
       -1   -1    0    0    0  501  0.00000000000E+00  0.00000000000E+00 -0.21648234306E+04  0.21648234306E+04  0.50400001928E-02 0. -1.
    10030    2    1    2    0    0  0.00000000000E+00  0.00000000000E+00 -0.82883345912E+03  0.35008134021E+04  0.34012835185E+04 0.  0.
        2    1    3    3  502    0 -0.35558672044E+03  0.79702163849E+03  0.10879175964E+04  0.13947222320E+04  0.25500000920E-02 0.  1.
       -2    1    3    3    0  502  0.35558672044E+03 -0.79702163849E+03 -0.19167510555E+04  0.21060911701E+04  0.25500000920E-02 0. -1.
</event>
<event>
 5   0  0.6367111E-08  0.3376130E+04  0.7818609E-02  0.8143790E-01
        1   -1    0    0  501    0  0.00000000000E+00  0.00000000000E+00  0.28381894369E+04  0.28381894369E+04  0.50400001928E-02 0. -1.
       -1   -1    0    0    0  501  0.00000000000E+00  0.00000000000E+00 -0.10040075735E+04  0.10040075735E+04  0.50400001928E-02 0.  1.
    10030    2    1    2    0    0  0.00000000000E+00  0.00000000000E+00  0.18341818634E+04  0.38421970104E+04  0.33761301454E+04 0.  0.
        3    1    3    3  502    0 -0.16614461329E+04  0.27355745437E+03  0.78087301488E+03  0.18560710139E+04  0.10100000352E+00 0. -1.
       -3    1    3    3    0  502  0.16614461329E+04 -0.27355745437E+03  0.10533088485E+04  0.19861259964E+04  0.10100000352E+00 0.  1.
</event>
<event>
 5   0  0.6341535E-08  0.3402232E+04  0.7818609E-02  0.8137359E-01
        1   -1    0    0  501    0  0.00000000000E+00  0.00000000000E+00  0.17584521862E+04  0.17584521862E+04  0.50400001928E-02 0. -1.
       -1   -1    0    0    0  501  0.00000000000E+00  0.00000000000E+00 -0.16456494096E+04  0.16456494096E+04  0.50400001928E-02 0.  1.
    10030    2    1    2    0    0  0.00000000000E+00  0.00000000000E+00  0.11280277661E+03  0.34041015958E+04  0.34022320920E+04 0.  0.
        5    1    3    3  502    0 -0.15310853513E+04 -0.57749615569E+03  0.52146810415E+03  0.17174618588E+04  0.46999998093E+01 0. -1.
       -5    1    3    3    0  502  0.15310853513E+04  0.57749615569E+03 -0.40866532754E+03  0.16866397370E+04  0.46999998093E+01 0.  1.
</event>
<event>
 5   0  0.1928004E-07  0.3489959E+04  0.7818609E-02  0.8116174E-01
       -2   -1    0    0    0  501  0.00000000000E+00  0.00000000000E+00  0.19364383231E+04  0.19364383231E+04  0.25500000920E-02 0. -1.
        2   -1    0    0  501    0  0.00000000000E+00  0.00000000000E+00 -0.15724509705E+04  0.15724509705E+04  0.25500000920E-02 0.  1.
    10030    2    1    2    0    0  0.00000000000E+00  0.00000000000E+00  0.36398735254E+03  0.35088892936E+04  0.34899594957E+04 0.  0.
        2    1    3    3  502    0  0.14049399573E+04 -0.52914255591E+03 -0.71227222598E+03  0.16616798284E+04  0.25500000920E-02 0.  1.
       -2    1    3    3    0  502 -0.14049399573E+04  0.52914255591E+03  0.10762595785E+04  0.18472094652E+04  0.25500000920E-02 0. -1.
</event>
<event>
 5   0  0.1970449E-07  0.3400397E+04  0.7818609E-02  0.8137809E-01
        2   -1    0    0  501    0  0.00000000000E+00  0.00000000000E+00  0.22105636716E+04  0.22105636716E+04  0.25500000920E-02 0. -1.
       -2   -1    0    0    0  501  0.00000000000E+00  0.00000000000E+00 -0.13076642054E+04  0.13076642054E+04  0.25500000920E-02 0.  1.
    10030    2    1    2    0    0  0.00000000000E+00  0.00000000000E+00  0.90289946618E+03  0.35182278770E+04  0.34003970281E+04 0.  0.
        1    1    3    3  502    0 -0.31395005624E+02  0.80628481231E+03  0.19998348883E+04  0.21564833469E+04  0.50400001928E-02 0. -1.
       -1    1    3    3    0  502  0.31395005624E+02 -0.80628481231E+03 -0.10969354221E+04  0.13617445301E+04  0.50400001928E-02 0.  1.
</event>
<event>
 5   0  0.6584420E-08  0.3401564E+04  0.7818609E-02  0.8137523E-01
        1   -1    0    0  501    0  0.00000000000E+00  0.00000000000E+00  0.15967259117E+04  0.15967259117E+04  0.50400001928E-02 0. -1.
       -1   -1    0    0    0  501  0.00000000000E+00  0.00000000000E+00 -0.18116193870E+04  0.18116193870E+04  0.50400001928E-02 0.  1.
    10030    2    1    2    0    0  0.00000000000E+00  0.00000000000E+00 -0.21489347533E+03  0.34083452987E+04  0.34015641211E+04 0.  0.
        1    1    3    3  502    0  0.79251094993E+02 -0.11087139045E+04 -0.13973095549E+04  0.17854974798E+04  0.50400001928E-02 0.  1.
       -1    1    3    3    0  502 -0.79251094993E+02  0.11087139045E+04  0.11824160796E+04  0.16228478189E+04  0.50400001928E-02 0. -1.
</event>
<event>
 5   0  0.6367111E-08  0.3405282E+04  0.7818609E-02  0.8136611E-01
        1   -1    0    0  501    0  0.00000000000E+00  0.00000000000E+00  0.11365171345E+04  0.11365171345E+04  0.50400001928E-02 0.  1.
       -1   -1    0    0    0  501  0.00000000000E+00  0.00000000000E+00 -0.25507638704E+04  0.25507638704E+04  0.50400001928E-02 0. -1.
    10030    2    1    2    0    0  0.00000000000E+00  0.00000000000E+00 -0.14142467359E+04  0.36872810049E+04  0.34052822760E+04 0.  0.
        3    1    3    3  502    0 -0.93320674842E+03  0.13917511474E+04 -0.38022752295E+03  0.17182604782E+04  0.10100000352E+00 0.  1.
       -3    1    3    3    0  502  0.93320674842E+03 -0.13917511474E+04 -0.10340192129E+04  0.19690205267E+04  0.10100000352E+00 0. -1.
</event>
<event>
 5   0  0.6367111E-08  0.3402818E+04  0.7818609E-02  0.8137215E-01
       -1   -1    0    0    0  501  0.00000000000E+00  0.00000000000E+00  0.13500133079E+04  0.13500133079E+04  0.50400001928E-02 0. -1.
        1   -1    0    0  501    0  0.00000000000E+00  0.00000000000E+00 -0.21442698915E+04  0.21442698915E+04  0.50400001928E-02 0.  1.
    10030    2    1    2    0    0  0.00000000000E+00  0.00000000000E+00 -0.79425658367E+03  0.34942831994E+04  0.34028181787E+04 0.  0.
        3    1    3    3  502    0 -0.62967724499E+02 -0.62412568323E+03 -0.20211873570E+04  0.21162930197E+04  0.10100000352E+00 0.  1.
       -3    1    3    3    0  502  0.62967724499E+02  0.62412568323E+03  0.12269307733E+04  0.13779901798E+04  0.10100000352E+00 0. -1.
</event>
<event>
 5   0  0.6311750E-08  0.3400746E+04  0.7818609E-02  0.8137723E-01
        1   -1    0    0  501    0  0.00000000000E+00  0.00000000000E+00  0.17255022729E+04  0.17255022729E+04  0.50400001928E-02 0.  1.
       -1   -1    0    0    0  501  0.00000000000E+00  0.00000000000E+00 -0.16756093238E+04  0.16756093238E+04  0.50400001928E-02 0. -1.
    10030    2    1    2    0    0  0.00000000000E+00  0.00000000000E+00  0.49892949144E+02  0.34011115967E+04  0.34007456222E+04 0.  0.
        4    1    3    3  502    0  0.10392515722E+04  0.87544531361E+03  0.10472197485E+04  0.17155521391E+04  0.12699999809E+01 0.  1.
       -4    1    3    3    0  502 -0.10392515722E+04 -0.87544531361E+03 -0.99732679933E+03  0.16855594576E+04  0.12699999809E+01 0. -1.
</event>
<event>
 5   0  0.1970449E-07  0.3411394E+04  0.7818609E-02  0.8135115E-01
        2   -1    0    0  501    0  0.00000000000E+00  0.00000000000E+00  0.27187939470E+04  0.27187939470E+04  0.25500000920E-02 0. -1.
       -2   -1    0    0    0  501  0.00000000000E+00  0.00000000000E+00 -0.10701077293E+04  0.10701077293E+04  0.25500000920E-02 0.  1.
    10030    2    1    2    0    0  0.00000000000E+00  0.00000000000E+00  0.16486862177E+04  0.37889016762E+04  0.34113940945E+04 0.  0.
        1    1    3    3  502    0  0.11209400900E+04 -0.11628433968E+04  0.14333772405E+04  0.21594633047E+04  0.50400001928E-02 0. -1.
       -1    1    3    3    0  502 -0.11209400900E+04  0.11628433968E+04  0.21530897725E+03  0.16294383715E+04  0.50400001928E-02 0.  1.
</event>
<event>
 5   0  0.1897313E-07  0.3362976E+04  0.7818609E-02  0.8147053E-01
        2   -1    0    0  501    0  0.00000000000E+00  0.00000000000E+00  0.17153932545E+04  0.17153932545E+04  0.25500000920E-02 0. -1.
       -2   -1    0    0    0  501  0.00000000000E+00  0.00000000000E+00 -0.16482532469E+04  0.16482532469E+04  0.25500000920E-02 0.  1.
    10030    2    1    2    0    0  0.00000000000E+00  0.00000000000E+00  0.67140007559E+02  0.33636465014E+04  0.33629763612E+04 0.  0.
        3    1    3    3  502    0 -0.22788056288E+03  0.11887013436E+04 -0.11339080927E+04  0.16585198245E+04  0.10100000352E+00 0.  1.
       -3    1    3    3    0  502  0.22788056288E+03 -0.11887013436E+04  0.12010481003E+04  0.17051266770E+04  0.10100000352E+00 0. -1.
</event>
<event>
 5   0  0.6367111E-08  0.3403107E+04  0.7818609E-02  0.8137144E-01
        1   -1    0    0  501    0  0.00000000000E+00  0.00000000000E+00  0.18028514978E+04  0.18028514979E+04  0.50400001928E-02 0. -1.
       -1   -1    0    0    0  501  0.00000000000E+00  0.00000000000E+00 -0.16059473452E+04  0.16059473452E+04  0.50400001928E-02 0.  1.
    10030    2    1    2    0    0  0.00000000000E+00  0.00000000000E+00  0.19690415269E+03  0.34087988430E+04  0.34031071548E+04 0.  0.
        3    1    3    3  502    0 -0.14606742918E+04 -0.51948177784E+03 -0.60404382182E+03  0.16638207996E+04  0.10100000352E+00 0.  1.
       -3    1    3    3    0  502  0.14606742918E+04  0.51948177784E+03  0.80094797451E+03  0.17449780435E+04  0.10100000352E+00 0. -1.
</event>
<event>
 5   0  0.1963852E-07  0.3402457E+04  0.7818609E-02  0.8137304E-01
        2   -1    0    0  501    0  0.00000000000E+00  0.00000000000E+00  0.15538916956E+04  0.15538916956E+04  0.25500000920E-02 0. -1.
       -2   -1    0    0    0  501  0.00000000000E+00  0.00000000000E+00 -0.18625353273E+04  0.18625353273E+04  0.25500000920E-02 0.  1.
    10030    2    1    2    0    0  0.00000000000E+00  0.00000000000E+00 -0.30864363171E+03  0.34164270229E+04  0.34024568640E+04 0.  0.
        4    1    3    3  502    0  0.58230404949E+03  0.13396320815E+04 -0.10299599927E+04  0.17873195908E+04  0.12699999809E+01 0.  1.
       -4    1    3    3    0  502 -0.58230404949E+03 -0.13396320815E+04  0.72131636103E+03  0.16291074322E+04  0.12699999809E+01 0. -1.
</event>
<event>
 5   0  0.6367111E-08  0.3401192E+04  0.7818609E-02  0.8137614E-01
       -1   -1    0    0    0  501  0.00000000000E+00  0.00000000000E+00  0.13600509746E+04  0.13600509746E+04  0.50400001928E-02 0.  1.
        1   -1    0    0  501    0  0.00000000000E+00  0.00000000000E+00 -0.21264107081E+04  0.21264107081E+04  0.50400001928E-02 0. -1.
    10030    2    1    2    0    0  0.00000000000E+00  0.00000000000E+00 -0.76635973349E+03  0.34864616827E+04  0.34011921180E+04 0.  0.
        3    1    3    3  502    0  0.14488457417E+03 -0.43410973019E+03 -0.20621014397E+04  0.21122748769E+04  0.10100000352E+00 0. -1.
       -3    1    3    3    0  502 -0.14488457417E+03  0.43410973019E+03  0.12957417062E+04  0.13741868058E+04  0.10100000352E+00 0.  1.
</event>
<event>
 5   0  0.6367111E-08  0.3403751E+04  0.7818609E-02  0.8136986E-01
        1   -1    0    0  501    0  0.00000000000E+00  0.00000000000E+00  0.99879043101E+03  0.99879043102E+03  0.50400001928E-02 0.  1.
       -1   -1    0    0    0  501  0.00000000000E+00  0.00000000000E+00 -0.28998882775E+04  0.28998882775E+04  0.50400001928E-02 0. -1.
    10030    2    1    2    0    0  0.00000000000E+00  0.00000000000E+00 -0.19010978465E+04  0.38986787085E+04  0.34037512615E+04 0.  0.
        3    1    3    3  502    0  0.14457948845E+03  0.16397302720E+04 -0.14455475083E+04  0.21907136285E+04  0.10100000352E+00 0. -1.
       -3    1    3    3    0  502 -0.14457948845E+03 -0.16397302720E+04 -0.45555033820E+03  0.17079650799E+04  0.10100000352E+00 0.  1.
</event>
<event>
 5   0  0.1897313E-07  0.3401525E+04  0.7818609E-02  0.8137532E-01
       -2   -1    0    0    0  501  0.00000000000E+00  0.00000000000E+00  0.17031721887E+04  0.17031721887E+04  0.25500000920E-02 0. -1.
        2   -1    0    0  501    0  0.00000000000E+00  0.00000000000E+00 -0.16983558480E+04  0.16983558480E+04  0.25500000920E-02 0.  1.
    10030    2    1    2    0    0  0.00000000000E+00  0.00000000000E+00  0.48163407047E+01  0.34015280367E+04  0.34015246269E+04 0.  0.
        3    1    3    3  502    0 -0.12999051454E+03 -0.15891863610E+04 -0.58935387189E+03  0.16999261221E+04  0.10100000352E+00 0.  1.
       -3    1    3    3    0  502  0.12999051454E+03  0.15891863610E+04  0.59417021259E+03  0.17016019146E+04  0.10100000352E+00 0. -1.
</event>
<event>
 5   0  0.6311750E-08  0.3390348E+04  0.7818609E-02  0.8140279E-01
        1   -1    0    0  501    0  0.00000000000E+00  0.00000000000E+00  0.22070291444E+04  0.22070291444E+04  0.50400001928E-02 0. -1.
       -1   -1    0    0    0  501  0.00000000000E+00  0.00000000000E+00 -0.13020281472E+04  0.13020281473E+04  0.50400001928E-02 0.  1.
    10030    2    1    2    0    0  0.00000000000E+00  0.00000000000E+00  0.90500099718E+03  0.35090572917E+04  0.33903475149E+04 0.  0.
        4    1    3    3  502    0 -0.10066395610E+04  0.10304503974E+04  0.13773544551E+04  0.19930524667E+04  0.12699999809E+01 0. -1.
       -4    1    3    3    0  502  0.10066395610E+04 -0.10304503974E+04 -0.47235345795E+03  0.15160048250E+04  0.12699999809E+01 0.  1.
</event>
<event>
 5   0  0.6367111E-08  0.3397795E+04  0.7818609E-02  0.8138448E-01
       -1   -1    0    0    0  501  0.00000000000E+00  0.00000000000E+00  0.18077100327E+04  0.18077100327E+04  0.50400001928E-02 0. -1.
        1   -1    0    0  501    0  0.00000000000E+00  0.00000000000E+00 -0.15966343286E+04  0.15966343286E+04  0.50400001928E-02 0.  1.
    10030    2    1    2    0    0  0.00000000000E+00  0.00000000000E+00  0.21107570410E+03  0.34043443613E+04  0.33977945167E+04 0.  0.
        3    1    3    3  502    0  0.63245968102E+03  0.12851554840E+04  0.10208754290E+04  0.17589248188E+04  0.10100000352E+00 0. -1.
       -3    1    3    3    0  502 -0.63245968102E+03 -0.12851554840E+04 -0.80979972494E+03  0.16454195425E+04  0.10100000352E+00 0.  1.
</event>
<event>
 5   0  0.1928004E-07  0.3399858E+04  0.7818609E-02  0.8137941E-01
       -2   -1    0    0    0  501  0.00000000000E+00  0.00000000000E+00  0.94169827873E+03  0.94169827873E+03  0.25500000920E-02 0.  1.
        2   -1    0    0  501    0  0.00000000000E+00  0.00000000000E+00 -0.30686675438E+04  0.30686675438E+04  0.25500000920E-02 0. -1.
    10030    2    1    2    0    0  0.00000000000E+00  0.00000000000E+00 -0.21269692651E+04  0.40103658226E+04  0.33998581994E+04 0.  0.
        2    1    3    3  502    0 -0.46033535980E+03  0.14221521319E+04 -0.10859229381E+03  0.14987386751E+04  0.25500000920E-02 0.  1.
       -2    1    3    3    0  502  0.46033535980E+03 -0.14221521319E+04 -0.20183769713E+04  0.25116271475E+04  0.25500000920E-02 0. -1.
</event>
<event>
 5   0  0.6311750E-08  0.3461315E+04  0.7818609E-02  0.8123019E-01
       -1   -1    0    0    0  501  0.00000000000E+00  0.00000000000E+00  0.12203938128E+04  0.12203938129E+04  0.50400001928E-02 0.  1.
        1   -1    0    0  501    0  0.00000000000E+00  0.00000000000E+00 -0.24542693487E+04  0.24542693487E+04  0.50400001928E-02 0. -1.
    10030    2    1    2    0    0  0.00000000000E+00  0.00000000000E+00 -0.12338755358E+04  0.36746631615E+04  0.34613148532E+04 0.  0.
        4    1    3    3  502    0  0.13806248453E+04 -0.66398772141E+03  0.23777562659E+03  0.15503365825E+04  0.12699999809E+01 0.  1.
       -4    1    3    3    0  502 -0.13806248453E+04  0.66398772141E+03 -0.14716511624E+04  0.21243265790E+04  0.12699999809E+01 0. -1.
</event>
<event>
 5   0  0.1970449E-07  0.3405212E+04  0.7818609E-02  0.8136628E-01
        2   -1    0    0  501    0  0.00000000000E+00  0.00000000000E+00  0.21789903104E+04  0.21789903104E+04  0.25500000920E-02 0.  1.
       -2   -1    0    0    0  501  0.00000000000E+00  0.00000000000E+00 -0.13303715640E+04  0.13303715640E+04  0.25500000920E-02 0. -1.
    10030    2    1    2    0    0  0.00000000000E+00  0.00000000000E+00  0.84861874642E+03  0.35093618745E+04  0.34052117393E+04 0.  0.
        1    1    3    3  502    0  0.17498640870E+03 -0.44795683970E+03  0.21075370115E+04  0.21617117820E+04  0.50400001928E-02 0.  1.
       -1    1    3    3    0  502 -0.17498640870E+03  0.44795683970E+03 -0.12589182651E+04  0.13476500925E+04  0.50400001928E-02 0. -1.
</event>
<event>
 5   0  0.6788600E-08  0.3397225E+04  0.7818609E-02  0.8138588E-01
       -1   -1    0    0    0  501  0.00000000000E+00  0.00000000000E+00  0.14952676449E+04  0.14952676449E+04  0.50400001928E-02 0.  1.
        1   -1    0    0  501    0  0.00000000000E+00  0.00000000000E+00 -0.19296108580E+04  0.19296108580E+04  0.50400001928E-02 0. -1.
    10030    2    1    2    0    0  0.00000000000E+00  0.00000000000E+00 -0.43434321307E+03  0.34248785029E+04  0.33972251519E+04 0.  0.
        2    1    3    3  502    0 -0.75721511456E+03 -0.11509513767E+04 -0.12188493065E+04  0.18394720528E+04  0.25500000920E-02 0. -1.
       -2    1    3    3    0  502  0.75721511456E+03  0.11509513767E+04  0.78450609339E+03  0.15854064500E+04  0.25500000920E-02 0.  1.
</event>
<event>
 5   0  0.6311750E-08  0.3396595E+04  0.7818609E-02  0.8138742E-01
        1   -1    0    0  501    0  0.00000000000E+00  0.00000000000E+00  0.13991582544E+04  0.13991582544E+04  0.50400001928E-02 0.  1.
       -1   -1    0    0    0  501  0.00000000000E+00  0.00000000000E+00 -0.20613928222E+04  0.20613928222E+04  0.50400001928E-02 0. -1.
    10030    2    1    2    0    0  0.00000000000E+00  0.00000000000E+00 -0.66223456780E+03  0.34605510766E+04  0.33965952262E+04 0.  0.
        4    1    3    3  502    0  0.84801777741E+03 -0.79961742122E+03 -0.15895637941E+04  0.19711004134E+04  0.12699999809E+01 0. -1.
       -4    1    3    3    0  502 -0.84801777741E+03  0.79961742122E+03  0.92732922634E+03  0.14894506632E+04  0.12699999809E+01 0.  1.
</event>
<event>
 5   0  0.1897313E-07  0.3502404E+04  0.7818609E-02  0.8113220E-01
       -2   -1    0    0    0  501  0.00000000000E+00  0.00000000000E+00  0.15350371511E+04  0.15350371511E+04  0.25500000920E-02 0. -1.
        2   -1    0    0  501    0  0.00000000000E+00  0.00000000000E+00 -0.19978073664E+04  0.19978073664E+04  0.25500000920E-02 0.  1.
    10030    2    1    2    0    0  0.00000000000E+00  0.00000000000E+00 -0.46277021525E+03  0.35328445175E+04  0.35024040476E+04 0.  0.
        3    1    3    3  502    0 -0.37644350578E+03 -0.62600672626E+03 -0.18367940534E+04  0.19767160998E+04  0.10100000352E+00 0.  1.
       -3    1    3    3    0  502  0.37644350578E+03  0.62600672626E+03  0.13740238381E+04  0.15561284177E+04  0.10100000352E+00 0. -1.
</event>
<event>
 5   0  0.6367111E-08  0.3395065E+04  0.7818609E-02  0.8139118E-01
        1   -1    0    0  501    0  0.00000000000E+00  0.00000000000E+00  0.25966104365E+04  0.25966104366E+04  0.50400001928E-02 0. -1.
       -1   -1    0    0    0  501  0.00000000000E+00  0.00000000000E+00 -0.11097611405E+04  0.11097611405E+04  0.50400001928E-02 0.  1.
    10030    2    1    2    0    0  0.00000000000E+00  0.00000000000E+00  0.14868492960E+04  0.37063715771E+04  0.33950654542E+04 0.  0.
        3    1    3    3  502    0  0.75157291422E+03 -0.54757873100E+03 -0.80697760861E+03  0.12312258863E+04  0.10100000352E+00 0.  1.
       -3    1    3    3    0  502 -0.75157291422E+03  0.54757873100E+03  0.22938269046E+04  0.24751456908E+04  0.10100000352E+00 0. -1.
</event>
<event>
 5   0  0.1928004E-07  0.3449222E+04  0.7818609E-02  0.8125930E-01
       -2   -1    0    0    0  501  0.00000000000E+00  0.00000000000E+00  0.15345880389E+04  0.15345880389E+04  0.25500000920E-02 0. -1.
        2   -1    0    0  501    0  0.00000000000E+00  0.00000000000E+00 -0.19381638988E+04  0.19381638988E+04  0.25500000920E-02 0.  1.
    10030    2    1    2    0    0  0.00000000000E+00  0.00000000000E+00 -0.40357585987E+03  0.34727519376E+04  0.34492220204E+04 0.  0.
        2    1    3    3  502    0 -0.52950655312E+03 -0.16361704850E+04 -0.33248910867E+03  0.17515650297E+04  0.25500000920E-02 0. -1.
       -2    1    3    3    0  502  0.52950655312E+03  0.16361704850E+04 -0.71086751207E+02  0.17211869079E+04  0.25500000920E-02 0.  1.
</event>
<event>
 5   0  0.1897313E-07  0.3373336E+04  0.7818609E-02  0.8144482E-01
       -2   -1    0    0    0  501  0.00000000000E+00  0.00000000000E+00  0.14866073275E+04  0.14866073275E+04  0.25500000920E-02 0. -1.
        2   -1    0    0  501    0  0.00000000000E+00  0.00000000000E+00 -0.19136519298E+04  0.19136519298E+04  0.25500000920E-02 0.  1.
    10030    2    1    2    0    0  0.00000000000E+00  0.00000000000E+00 -0.42704460233E+03  0.34002592573E+04  0.33733360230E+04 0.  0.
        3    1    3    3  502    0  0.13052459522E+03 -0.12140052875E+04 -0.13864258899E+04  0.18474366746E+04  0.10100000352E+00 0.  1.
       -3    1    3    3    0  502 -0.13052459522E+03  0.12140052875E+04  0.95938128762E+03  0.15528225827E+04  0.10100000352E+00 0. -1.
</event>
<event>
 5   0  0.1928004E-07  0.3392481E+04  0.7818609E-02  0.8139754E-01
       -2   -1    0    0    0  501  0.00000000000E+00  0.00000000000E+00  0.15897934734E+04  0.15897934734E+04  0.25500000920E-02 0. -1.
        2   -1    0    0  501    0  0.00000000000E+00  0.00000000000E+00 -0.18098151326E+04  0.18098151326E+04  0.25500000920E-02 0.  1.
    10030    2    1    2    0    0  0.00000000000E+00  0.00000000000E+00 -0.22002165926E+03  0.33996086060E+04  0.33924812665E+04 0.  0.
        2    1    3    3  502    0  0.44638404671E+03  0.10627995050E+04  0.11369630598E+04  0.16191005232E+04  0.25500000920E-02 0. -1.
       -2    1    3    3    0  502 -0.44638404671E+03 -0.10627995050E+04 -0.13569847191E+04  0.17805080827E+04  0.25500000920E-02 0.  1.
</event>
<event>
 5   0  0.1928004E-07  0.3408479E+04  0.7818609E-02  0.8135828E-01
        2   -1    0    0  501    0  0.00000000000E+00  0.00000000000E+00  0.21861382165E+04  0.21861382165E+04  0.25500000920E-02 0. -1.
       -2   -1    0    0    0  501  0.00000000000E+00  0.00000000000E+00 -0.13285678548E+04  0.13285678548E+04  0.25500000920E-02 0.  1.
    10030    2    1    2    0    0  0.00000000000E+00  0.00000000000E+00  0.85757036166E+03  0.35147060714E+04  0.34084794033E+04 0.  0.
        2    1    3    3  502    0 -0.39460118861E+03 -0.48433836043E+03 -0.12062345528E+04  0.13584165568E+04  0.25500000920E-02 0.  1.
       -2    1    3    3    0  502  0.39460118861E+03  0.48433836043E+03  0.20638049145E+04  0.21562895145E+04  0.25500000920E-02 0. -1.
</event>
<event>
 5   0  0.6341535E-08  0.3398203E+04  0.7818609E-02  0.8138348E-01
       -1   -1    0    0    0  501  0.00000000000E+00  0.00000000000E+00  0.11197971414E+04  0.11197971414E+04  0.50400001928E-02 0. -1.
        1   -1    0    0  501    0  0.00000000000E+00  0.00000000000E+00 -0.25780966602E+04  0.25780966602E+04  0.50400001928E-02 0.  1.
    10030    2    1    2    0    0  0.00000000000E+00  0.00000000000E+00 -0.14582995188E+04  0.36978938015E+04  0.33982026251E+04 0.  0.
        5    1    3    3  502    0  0.29489601838E+03  0.92001494718E+03 -0.22501014858E+04  0.24487486500E+04  0.46999998093E+01 0.  1.
       -5    1    3    3    0  502 -0.29489601838E+03 -0.92001494718E+03  0.79180196698E+03  0.12491451515E+04  0.46999998093E+01 0. -1.
</event>
<event>
 5   0  0.6311750E-08  0.3394369E+04  0.7818609E-02  0.8139290E-01
        1   -1    0    0  501    0  0.00000000000E+00  0.00000000000E+00  0.22239615447E+04  0.22239615447E+04  0.50400001928E-02 0.  1.
       -1   -1    0    0    0  501  0.00000000000E+00  0.00000000000E+00 -0.12951822125E+04  0.12951822125E+04  0.50400001928E-02 0. -1.
    10030    2    1    2    0    0  0.00000000000E+00  0.00000000000E+00  0.92877933225E+03  0.35191437572E+04  0.33943691219E+04 0.  0.
        4    1    3    3  502    0 -0.16364325812E+04 -0.44407676882E+03  0.38878402348E+03  0.17396178889E+04  0.12699999809E+01 0. -1.
       -4    1    3    3    0  502  0.16364325812E+04  0.44407676882E+03  0.53999530877E+03  0.17795258683E+04  0.12699999809E+01 0.  1.
</event>
<event>
 5   0  0.1928004E-07  0.3396523E+04  0.7818609E-02  0.8138760E-01
       -2   -1    0    0    0  501  0.00000000000E+00  0.00000000000E+00  0.17106937455E+04  0.17106937455E+04  0.25500000920E-02 0.  1.
        2   -1    0    0  501    0  0.00000000000E+00  0.00000000000E+00 -0.16859199758E+04  0.16859199758E+04  0.25500000920E-02 0. -1.
    10030    2    1    2    0    0  0.00000000000E+00  0.00000000000E+00  0.24773769748E+02  0.33966137213E+04  0.33965233743E+04 0.  0.
        2    1    3    3  502    0 -0.10730841531E+04 -0.12465308234E+04  0.43517947470E+03  0.17013905691E+04  0.25500000920E-02 0. -1.
       -2    1    3    3    0  502  0.10730841531E+04  0.12465308234E+04 -0.41040570495E+03  0.16952231523E+04  0.25500000920E-02 0.  1.
</event>
<event>
 5   0  0.1928004E-07  0.3368522E+04  0.7818609E-02  0.8145676E-01
       -2   -1    0    0    0  501  0.00000000000E+00  0.00000000000E+00  0.21010025651E+04  0.21010025651E+04  0.25500000920E-02 0.  1.
        2   -1    0    0  501    0  0.00000000000E+00  0.00000000000E+00 -0.13501817502E+04  0.13501817502E+04  0.25500000920E-02 0. -1.
    10030    2    1    2    0    0  0.00000000000E+00  0.00000000000E+00  0.75082081480E+03  0.34511843153E+04  0.33685221214E+04 0.  0.
        2    1    3    3  502    0  0.15108904723E+04  0.13151136955E+03  0.11259512695E+04  0.18888757294E+04  0.25500000920E-02 0.  1.
       -2    1    3    3    0  502 -0.15108904723E+04 -0.13151136955E+03 -0.37513045468E+03  0.15623085859E+04  0.25500000920E-02 0. -1.
</event>
<event>
 5   0  0.1897313E-07  0.3394779E+04  0.7818609E-02  0.8139189E-01
        2   -1    0    0  501    0  0.00000000000E+00  0.00000000000E+00  0.19941183362E+04  0.19941183362E+04  0.25500000920E-02 0.  1.
       -2   -1    0    0    0  501  0.00000000000E+00  0.00000000000E+00 -0.14448141250E+04  0.14448141250E+04  0.25500000920E-02 0. -1.
    10030    2    1    2    0    0  0.00000000000E+00  0.00000000000E+00  0.54930421123E+03  0.34389324612E+04  0.33947785430E+04 0.  0.
        3    1    3    3  502    0 -0.62195575254E+03  0.14022918130E+04  0.10106548064E+04  0.18370286973E+04  0.10100000352E+00 0.  1.
       -3    1    3    3    0  502  0.62195575254E+03 -0.14022918130E+04 -0.46135059514E+03  0.16019037639E+04  0.10100000352E+00 0. -1.
</event>
<event>
 5   0  0.6788600E-08  0.3398858E+04  0.7818609E-02  0.8138187E-01
       -1   -1    0    0    0  501  0.00000000000E+00  0.00000000000E+00  0.30766578488E+04  0.30766578488E+04  0.50400001928E-02 0. -1.
        1   -1    0    0  501    0  0.00000000000E+00  0.00000000000E+00 -0.93869991725E+03  0.93869991726E+03  0.50400001928E-02 0.  1.
    10030    2    1    2    0    0  0.00000000000E+00  0.00000000000E+00  0.21379579316E+04  0.40153577661E+04  0.33988577306E+04 0.  0.
        2    1    3    3  502    0 -0.28458473684E+03  0.11224576161E+04  0.25384421840E+04  0.27900875065E+04  0.25500000920E-02 0. -1.
       -2    1    3    3    0  502  0.28458473684E+03 -0.11224576161E+04 -0.40048425246E+03  0.12252702596E+04  0.25500000920E-02 0.  1.
</event>
<event>
 5   0  0.6584420E-08  0.3348677E+04  0.7818609E-02  0.8150619E-01
       -1   -1    0    0    0  501  0.00000000000E+00  0.00000000000E+00  0.10922410220E+04  0.10922410221E+04  0.50400001928E-02 0. -1.
        1   -1    0    0  501    0  0.00000000000E+00  0.00000000000E+00 -0.25666587846E+04  0.25666587846E+04  0.50400001928E-02 0.  1.
    10030    2    1    2    0    0  0.00000000000E+00  0.00000000000E+00 -0.14744177625E+04  0.36588998066E+04  0.33486773593E+04 0.  0.
        1    1    3    3  502    0 -0.81609965725E+03  0.58174730996E+03 -0.22027166921E+04  0.24200019440E+04  0.50400001928E-02 0.  1.
       -1    1    3    3    0  502  0.81609965725E+03 -0.58174730996E+03  0.72829892958E+03  0.12388978626E+04  0.50400001928E-02 0. -1.
</event>
<event>
 5   0  0.1928004E-07  0.3399498E+04  0.7818609E-02  0.8138030E-01
        2   -1    0    0  501    0  0.00000000000E+00  0.00000000000E+00  0.20719762366E+04  0.20719762366E+04  0.25500000920E-02 0.  1.
       -2   -1    0    0    0  501  0.00000000000E+00  0.00000000000E+00 -0.13943915552E+04  0.13943915552E+04  0.25500000920E-02 0. -1.
    10030    2    1    2    0    0  0.00000000000E+00  0.00000000000E+00  0.67758468136E+03  0.34663677919E+04  0.33994977082E+04 0.  0.
        2    1    3    3  502    0 -0.13255410494E+04 -0.35478304162E+03  0.13616271889E+04  0.19331214866E+04  0.25500000920E-02 0.  1.
       -2    1    3    3    0  502  0.13255410494E+04  0.35478304162E+03 -0.68404250756E+03  0.15332463052E+04  0.25500000920E-02 0. -1.
</event>
<event>
 5   0  0.1986613E-07  0.3404783E+04  0.7818609E-02  0.8136733E-01
        2   -1    0    0  501    0  0.00000000000E+00  0.00000000000E+00  0.16410081979E+04  0.16410081979E+04  0.25500000920E-02 0. -1.
       -2   -1    0    0    0  501  0.00000000000E+00  0.00000000000E+00 -0.17660706511E+04  0.17660706511E+04  0.25500000920E-02 0.  1.
    10030    2    1    2    0    0  0.00000000000E+00  0.00000000000E+00 -0.12506245317E+03  0.34070788490E+04  0.34047827634E+04 0.  0.
        5    1    3    3  502    0  0.30146626514E+03 -0.45310082355E+03 -0.16766695657E+04  0.17627890367E+04  0.46999998093E+01 0.  1.
       -5    1    3    3    0  502 -0.30146626514E+03  0.45310082355E+03  0.15516071125E+04  0.16442898123E+04  0.46999998093E+01 0. -1.
</event>
<event>
 5   0  0.6788600E-08  0.3396260E+04  0.7818609E-02  0.8138825E-01
        1   -1    0    0  501    0  0.00000000000E+00  0.00000000000E+00  0.15423442160E+04  0.15423442160E+04  0.50400001928E-02 0. -1.
       -1   -1    0    0    0  501  0.00000000000E+00  0.00000000000E+00 -0.18696511811E+04  0.18696511811E+04  0.50400001928E-02 0.  1.
    10030    2    1    2    0    0  0.00000000000E+00  0.00000000000E+00 -0.32730696515E+03  0.34119953971E+04  0.33962601109E+04 0.  0.
        2    1    3    3  502    0 -0.16851218902E+04 -0.14071026769E+03 -0.73352772288E+01  0.16910023567E+04  0.25500000920E-02 0.  1.
       -2    1    3    3    0  502  0.16851218902E+04  0.14071026769E+03 -0.31997168792E+03  0.17209930404E+04  0.25500000920E-02 0. -1.
</event>
<event>
 5   0  0.6341535E-08  0.3407524E+04  0.7818609E-02  0.8136062E-01
        1   -1    0    0  501    0  0.00000000000E+00  0.00000000000E+00  0.16044141553E+04  0.16044141553E+04  0.50400001928E-02 0.  1.
       -1   -1    0    0    0  501  0.00000000000E+00  0.00000000000E+00 -0.18092610948E+04  0.18092610948E+04  0.50400001928E-02 0. -1.
    10030    2    1    2    0    0  0.00000000000E+00  0.00000000000E+00 -0.20484693953E+03  0.34136752501E+04  0.34075235061E+04 0.  0.
        5    1    3    3  502    0 -0.94240613429E+03 -0.19190432108E+03  0.13064672918E+04  0.16222932734E+04  0.46999998093E+01 0.  1.
       -5    1    3    3    0  502  0.94240613429E+03  0.19190432108E+03 -0.15113142314E+04  0.17913819767E+04  0.46999998093E+01 0. -1.
</event>
<event>
 5   0  0.1963852E-07  0.3399193E+04  0.7818609E-02  0.8138104E-01
       -2   -1    0    0    0  501  0.00000000000E+00  0.00000000000E+00  0.12435645448E+04  0.12435645448E+04  0.25500000920E-02 0. -1.
        2   -1    0    0  501    0  0.00000000000E+00  0.00000000000E+00 -0.23228616785E+04  0.23228616785E+04  0.25500000920E-02 0.  1.
    10030    2    1    2    0    0  0.00000000000E+00  0.00000000000E+00 -0.10792971337E+04  0.35664262233E+04  0.33991930960E+04 0.  0.
        4    1    3    3  502    0  0.42188592035E+03  0.16244476614E+04 -0.25849313354E+03  0.16981278655E+04  0.12699999809E+01 0. -1.
       -4    1    3    3    0  502 -0.42188592035E+03 -0.16244476614E+04 -0.82080400013E+03  0.18682983579E+04  0.12699999809E+01 0.  1.
</event>
<event>
 5   0  0.6367111E-08  0.3392644E+04  0.7818609E-02  0.8139714E-01
        1   -1    0    0  501    0  0.00000000000E+00  0.00000000000E+00  0.24351824996E+04  0.24351824996E+04  0.50400001928E-02 0. -1.
       -1   -1    0    0    0  501  0.00000000000E+00  0.00000000000E+00 -0.11816398690E+04  0.11816398691E+04  0.50400001928E-02 0.  1.
    10030    2    1    2    0    0  0.00000000000E+00  0.00000000000E+00  0.12535426306E+04  0.36168223687E+04  0.33926442372E+04 0.  0.
        3    1    3    3  502    0 -0.14855744444E+04  0.33525807957E+03  0.14232528772E+04  0.20844611228E+04  0.10100000352E+00 0. -1.
       -3    1    3    3    0  502  0.14855744444E+04 -0.33525807957E+03 -0.16971024662E+03  0.15323612459E+04  0.10100000352E+00 0.  1.
</event>
<event>
 5   0  0.6788600E-08  0.3430595E+04  0.7818609E-02  0.8130438E-01
        1   -1    0    0  501    0  0.00000000000E+00  0.00000000000E+00  0.26113881451E+04  0.26113881451E+04  0.50400001928E-02 0.  1.
       -1   -1    0    0    0  501  0.00000000000E+00  0.00000000000E+00 -0.11266980158E+04  0.11266980158E+04  0.50400001928E-02 0. -1.
    10030    2    1    2    0    0  0.00000000000E+00  0.00000000000E+00  0.14846901293E+04  0.37380861609E+04  0.34305951912E+04 0.  0.
        2    1    3    3  502    0 -0.13657938017E+04  0.73010521442E+03 -0.61179648159E+02  0.15498997652E+04  0.25500000920E-02 0. -1.
       -2    1    3    3    0  502  0.13657938017E+04 -0.73010521442E+03  0.15458697775E+04  0.21881863956E+04  0.25500000920E-02 0.  1.
</event>
<event>
 5   0  0.1928004E-07  0.3401866E+04  0.7818609E-02  0.8137449E-01
       -2   -1    0    0    0  501  0.00000000000E+00  0.00000000000E+00  0.10861140350E+04  0.10861140350E+04  0.25500000920E-02 0.  1.
        2   -1    0    0  501    0  0.00000000000E+00  0.00000000000E+00 -0.26637836449E+04  0.26637836449E+04  0.25500000920E-02 0. -1.
    10030    2    1    2    0    0  0.00000000000E+00  0.00000000000E+00 -0.15776696099E+04  0.37498976799E+04  0.34018658427E+04 0.  0.
        2    1    3    3  502    0 -0.15728435446E+04 -0.54633191434E+03 -0.40562297605E+03  0.17137226657E+04  0.25500000920E-02 0.  1.
       -2    1    3    3    0  502  0.15728435446E+04  0.54633191434E+03 -0.11720466339E+04  0.20361750142E+04  0.25500000920E-02 0. -1.
</event>
<event>
 5   0  0.1897313E-07  0.3414403E+04  0.7818609E-02  0.8134380E-01
       -2   -1    0    0    0  501  0.00000000000E+00  0.00000000000E+00  0.11943712071E+04  0.11943712071E+04  0.25500000920E-02 0. -1.
        2   -1    0    0  501    0  0.00000000000E+00  0.00000000000E+00 -0.24402276666E+04  0.24402276666E+04  0.25500000920E-02 0.  1.
    10030    2    1    2    0    0  0.00000000000E+00  0.00000000000E+00 -0.12458564595E+04  0.36345988737E+04  0.34144034113E+04 0.  0.
        3    1    3    3  502    0  0.14538373768E+04  0.41600538863E+03  0.22053098947E+03  0.15281811178E+04  0.10100000352E+00 0. -1.
       -3    1    3    3    0  502 -0.14538373768E+04 -0.41600538863E+03 -0.14663874489E+04  0.21064177558E+04  0.10100000352E+00 0.  1.
</event>
<event>
 5   0  0.6311750E-08  0.3397913E+04  0.7818609E-02  0.8138419E-01
       -1   -1    0    0    0  501  0.00000000000E+00  0.00000000000E+00  0.24207021244E+04  0.24207021244E+04  0.50400001928E-02 0.  1.
        1   -1    0    0  501    0  0.00000000000E+00  0.00000000000E+00 -0.11924030934E+04  0.11924030934E+04  0.50400001928E-02 0. -1.
    10030    2    1    2    0    0  0.00000000000E+00  0.00000000000E+00  0.12282990310E+04  0.36131052178E+04  0.33979127130E+04 0.  0.
        4    1    3    3  502    0 -0.47770117239E+03 -0.60299631690E+03  0.22248932064E+04  0.23541355868E+04  0.12699999809E+01 0.  1.
       -4    1    3    3    0  502  0.47770117239E+03  0.60299631690E+03 -0.99659417542E+03  0.12589696310E+04  0.12699999809E+01 0. -1.
</event>
<event>
 5   0  0.1897313E-07  0.3403302E+04  0.7818609E-02  0.8137096E-01
       -2   -1    0    0    0  501  0.00000000000E+00  0.00000000000E+00  0.18611306010E+04  0.18611306010E+04  0.25500000920E-02 0.  1.
        2   -1    0    0  501    0  0.00000000000E+00  0.00000000000E+00 -0.15558375569E+04  0.15558375570E+04  0.25500000920E-02 0. -1.
    10030    2    1    2    0    0  0.00000000000E+00  0.00000000000E+00  0.30529304403E+03  0.34169681579E+04  0.34033024476E+04 0.  0.
        3    1    3    3  502    0  0.14398353689E+04 -0.20429555319E+03 -0.73450455096E+03  0.16292205216E+04  0.10100000352E+00 0.  1.
       -3    1    3    3    0  502 -0.14398353689E+04  0.20429555319E+03  0.10397975950E+04  0.17877476363E+04  0.10100000352E+00 0. -1.
</event>
<event>
 5   0  0.6367111E-08  0.3371170E+04  0.7818609E-02  0.8145019E-01
        1   -1    0    0  501    0  0.00000000000E+00  0.00000000000E+00  0.23292712182E+04  0.23292712182E+04  0.50400001928E-02 0. -1.
       -1   -1    0    0    0  501  0.00000000000E+00  0.00000000000E+00 -0.12197792428E+04  0.12197792428E+04  0.50400001928E-02 0.  1.
    10030    2    1    2    0    0  0.00000000000E+00  0.00000000000E+00  0.11094919755E+04  0.35490504610E+04  0.33711699351E+04 0.  0.
        3    1    3    3  502    0  0.76652450885E+03  0.37610529109E+03 -0.97527420587E+03  0.12962155683E+04  0.10100000352E+00 0.  1.
       -3    1    3    3    0  502 -0.76652450885E+03 -0.37610529109E+03  0.20847661813E+04  0.22528348927E+04  0.10100000352E+00 0. -1.
</event>
<event>
 5   0  0.1928004E-07  0.3401387E+04  0.7818609E-02  0.8137566E-01
        2   -1    0    0  501    0  0.00000000000E+00  0.00000000000E+00  0.16366188980E+04  0.16366188980E+04  0.25500000920E-02 0. -1.
       -2   -1    0    0    0  501  0.00000000000E+00  0.00000000000E+00 -0.17672770657E+04  0.17672770657E+04  0.25500000920E-02 0.  1.
    10030    2    1    2    0    0  0.00000000000E+00  0.00000000000E+00 -0.13065816773E+03  0.34038959637E+04  0.34013873897E+04 0.  0.
        2    1    3    3  502    0 -0.12307666005E+04 -0.23563954299E+03  0.10853217763E+04  0.16577803766E+04  0.25500000920E-02 0. -1.
       -2    1    3    3    0  502  0.12307666005E+04  0.23563954299E+03 -0.12159799440E+04  0.17461155870E+04  0.25500000920E-02 0.  1.
</event>
<event>
 5   0  0.1897313E-07  0.3403210E+04  0.7818609E-02  0.8137119E-01
       -2   -1    0    0    0  501  0.00000000000E+00  0.00000000000E+00  0.31041183275E+04  0.31041183275E+04  0.25500000920E-02 0.  1.
        2   -1    0    0  501    0  0.00000000000E+00  0.00000000000E+00 -0.93277989636E+03  0.93277989636E+03  0.25500000920E-02 0. -1.
    10030    2    1    2    0    0  0.00000000000E+00  0.00000000000E+00  0.21713384311E+04  0.40368982238E+04  0.34032097624E+04 0.  0.
        3    1    3    3  502    0 -0.13542120405E+03  0.16901207558E+04  0.91536707879E+03  0.19268481961E+04  0.10100000352E+00 0. -1.
       -3    1    3    3    0  502  0.13542120405E+03 -0.16901207558E+04  0.12559713523E+04  0.21100500277E+04  0.10100000352E+00 0.  1.
</event>
<event>
 5   0  0.1970449E-07  0.3418948E+04  0.7818609E-02  0.8133271E-01
        2   -1    0    0  501    0  0.00000000000E+00  0.00000000000E+00  0.27847361287E+04  0.27847361287E+04  0.25500000920E-02 0.  1.
       -2   -1    0    0    0  501  0.00000000000E+00  0.00000000000E+00 -0.10493999498E+04  0.10493999498E+04  0.25500000920E-02 0. -1.
    10030    2    1    2    0    0  0.00000000000E+00  0.00000000000E+00  0.17353361789E+04  0.38341360784E+04  0.34189483491E+04 0.  0.
        1    1    3    3  502    0 -0.66765745362E+03  0.43105102280E+03  0.25649812600E+04  0.26852747203E+04  0.50400001928E-02 0.  1.
       -1    1    3    3    0  502  0.66765745362E+03 -0.43105102280E+03 -0.82964508104E+03  0.11488613581E+04  0.50400001928E-02 0. -1.
</event>
<event>
 5   0  0.6584420E-08  0.3407271E+04  0.7818609E-02  0.8136124E-01
        1   -1    0    0  501    0  0.00000000000E+00  0.00000000000E+00  0.20329407927E+04  0.20329407927E+04  0.50400001928E-02 0. -1.
       -1   -1    0    0    0  501  0.00000000000E+00  0.00000000000E+00 -0.14276726261E+04  0.14276726261E+04  0.50400001928E-02 0.  1.
    10030    2    1    2    0    0  0.00000000000E+00  0.00000000000E+00  0.60526816653E+03  0.34606134188E+04  0.34072710020E+04 0.  0.
        1    1    3    3  502    0  0.21446553926E+03 -0.10640586760E+04 -0.10309944816E+04  0.14970524222E+04  0.50400001928E-02 0.  1.
       -1    1    3    3    0  502 -0.21446553926E+03  0.10640586760E+04  0.16362626482E+04  0.19635609966E+04  0.50400001928E-02 0. -1.
</event>
<event>
 5   0  0.1897313E-07  0.3403356E+04  0.7818609E-02  0.8137083E-01
       -2   -1    0    0    0  501  0.00000000000E+00  0.00000000000E+00  0.15664737528E+04  0.15664737528E+04  0.25500000920E-02 0.  1.
        2   -1    0    0  501    0  0.00000000000E+00  0.00000000000E+00 -0.18485524303E+04  0.18485524303E+04  0.25500000920E-02 0. -1.
    10030    2    1    2    0    0  0.00000000000E+00  0.00000000000E+00 -0.28207867753E+03  0.34150261830E+04  0.34033564977E+04 0.  0.
        3    1    3    3  502    0  0.11058804991E+04 -0.43299900703E+03 -0.13639260727E+04  0.18085226458E+04  0.10100000352E+00 0. -1.
       -3    1    3    3    0  502 -0.11058804991E+04  0.43299900703E+03  0.10818473952E+04  0.16065035372E+04  0.10100000352E+00 0.  1.
</event>
<event>
 5   0  0.6311750E-08  0.3399936E+04  0.7818609E-02  0.8137922E-01
       -1   -1    0    0    0  501  0.00000000000E+00  0.00000000000E+00  0.27336738182E+04  0.27336738182E+04  0.50400001928E-02 0.  1.
        1   -1    0    0  501    0  0.00000000000E+00  0.00000000000E+00 -0.10571458189E+04  0.10571458189E+04  0.50400001928E-02 0. -1.
    10030    2    1    2    0    0  0.00000000000E+00  0.00000000000E+00  0.16765279993E+04  0.37908196371E+04  0.33999363801E+04 0.  0.
        4    1    3    3  502    0 -0.46178014183E+03  0.13394432273E+04  0.18857056029E+04  0.23586513715E+04  0.12699999809E+01 0.  1.
       -4    1    3    3    0  502  0.46178014183E+03 -0.13394432273E+04 -0.20917760355E+03  0.14321682657E+04  0.12699999809E+01 0. -1.
</event>
<event>
 5   0  0.1986613E-07  0.3379597E+04  0.7818609E-02  0.8142932E-01
       -2   -1    0    0    0  501  0.00000000000E+00  0.00000000000E+00  0.11664670053E+04  0.11664670053E+04  0.25500000920E-02 0. -1.
        2   -1    0    0  501    0  0.00000000000E+00  0.00000000000E+00 -0.24479210186E+04  0.24479210186E+04  0.25500000920E-02 0.  1.
    10030    2    1    2    0    0  0.00000000000E+00  0.00000000000E+00 -0.12814540133E+04  0.36143880239E+04  0.33795970765E+04 0.  0.
        5    1    3    3  502    0 -0.23135638524E+03 -0.15884220032E+04 -0.12054115897E+04  0.20073986719E+04  0.46999998093E+01 0.  1.
       -5    1    3    3    0  502  0.23135638524E+03  0.15884220032E+04 -0.76042423635E+02  0.16069893520E+04  0.46999998093E+01 0. -1.
</event>
<event>
 5   0  0.6311750E-08  0.3408386E+04  0.7818609E-02  0.8135851E-01
       -1   -1    0    0    0  501  0.00000000000E+00  0.00000000000E+00  0.25679834775E+04  0.25679834776E+04  0.50400001928E-02 0.  1.
        1   -1    0    0  501    0  0.00000000000E+00  0.00000000000E+00 -0.11309548451E+04  0.11309548451E+04  0.50400001928E-02 0. -1.
    10030    2    1    2    0    0  0.00000000000E+00  0.00000000000E+00  0.14370286325E+04  0.36989383226E+04  0.34083857505E+04 0.  0.
        4    1    3    3  502    0 -0.11000508870E+04  0.12571268715E+04  0.35242768683E+03  0.17072453872E+04  0.12699999809E+01 0. -1.
       -4    1    3    3    0  502  0.11000508870E+04 -0.12571268715E+04  0.10846009456E+04  0.19916929354E+04  0.12699999809E+01 0.  1.
</event>
<event>
 5   0  0.6367111E-08  0.3393646E+04  0.7818609E-02  0.8139468E-01
       -1   -1    0    0    0  501  0.00000000000E+00  0.00000000000E+00  0.24163377724E+04  0.24163377724E+04  0.50400001928E-02 0. -1.
        1   -1    0    0  501    0  0.00000000000E+00  0.00000000000E+00 -0.11915584654E+04  0.11915584654E+04  0.50400001928E-02 0.  1.
    10030    2    1    2    0    0  0.00000000000E+00  0.00000000000E+00  0.12247793070E+04  0.36078962379E+04  0.33936456669E+04 0.  0.
        3    1    3    3  502    0 -0.10219888385E+04  0.22241903266E+03 -0.80810716064E+03  0.13217293995E+04  0.10100000352E+00 0.  1.
       -3    1    3    3    0  502  0.10219888385E+04 -0.22241903266E+03  0.20328864677E+04  0.22861668384E+04  0.10100000352E+00 0. -1.
</event>
<event>
 5   0  0.1970449E-07  0.3397660E+04  0.7818609E-02  0.8138481E-01
       -2   -1    0    0    0  501  0.00000000000E+00  0.00000000000E+00  0.18019880595E+04  0.18019880595E+04  0.25500000920E-02 0. -1.
        2   -1    0    0  501    0  0.00000000000E+00  0.00000000000E+00 -0.16015777054E+04  0.16015777054E+04  0.25500000920E-02 0.  1.
    10030    2    1    2    0    0  0.00000000000E+00  0.00000000000E+00  0.20041035414E+03  0.34035657649E+04  0.33976603135E+04 0.  0.
        1    1    3    3  502    0  0.98453792479E+03 -0.50340044739E+03 -0.11917251313E+04  0.16257108367E+04  0.50400001928E-02 0.  1.
       -1    1    3    3    0  502 -0.98453792479E+03  0.50340044739E+03  0.13921354855E+04  0.17778549282E+04  0.50400001928E-02 0. -1.
</event>
<event>
 5   0  0.1963852E-07  0.3396768E+04  0.7818609E-02  0.8138700E-01
        2   -1    0    0  501    0  0.00000000000E+00  0.00000000000E+00  0.19486695688E+04  0.19486695688E+04  0.25500000920E-02 0. -1.
       -2   -1    0    0    0  501  0.00000000000E+00  0.00000000000E+00 -0.14802452402E+04  0.14802452402E+04  0.25500000920E-02 0.  1.
    10030    2    1    2    0    0  0.00000000000E+00  0.00000000000E+00  0.46842432860E+03  0.34289148089E+04  0.33967683782E+04 0.  0.
        4    1    3    3  502    0 -0.15680182482E+04 -0.51242834899E+03 -0.17364520429E+03  0.16587399764E+04  0.12699999809E+01 0.  1.
       -4    1    3    3    0  502  0.15680182482E+04  0.51242834899E+03  0.64206953289E+03  0.17701748325E+04  0.12699999809E+01 0. -1.
</event>
<event>
 5   0  0.1897313E-07  0.3414050E+04  0.7818609E-02  0.8134467E-01
       -2   -1    0    0    0  501  0.00000000000E+00  0.00000000000E+00  0.98102038975E+03  0.98102038975E+03  0.25500000920E-02 0.  1.
        2   -1    0    0  501    0  0.00000000000E+00  0.00000000000E+00 -0.29703099379E+04  0.29703099379E+04  0.25500000920E-02 0. -1.
    10030    2    1    2    0    0  0.00000000000E+00  0.00000000000E+00 -0.19892895482E+04  0.39513303277E+04  0.34140501537E+04 0.  0.
        3    1    3    3  502    0 -0.78027757105E+03  0.11669859335E+04  0.12940560539E+03  0.14097641922E+04  0.10100000352E+00 0.  1.
       -3    1    3    3    0  502  0.78027757105E+03 -0.11669859335E+04 -0.21186951536E+04  0.25415661355E+04  0.10100000352E+00 0. -1.
</event>
<event>
 5   0  0.6311750E-08  0.3401522E+04  0.7818609E-02  0.8137533E-01
       -1   -1    0    0    0  501  0.00000000000E+00  0.00000000000E+00  0.27718199129E+04  0.27718199129E+04  0.50400001928E-02 0.  1.
        1   -1    0    0  501    0  0.00000000000E+00  0.00000000000E+00 -0.10435702478E+04  0.10435702478E+04  0.50400001928E-02 0. -1.
    10030    2    1    2    0    0  0.00000000000E+00  0.00000000000E+00  0.17282496652E+04  0.38153901607E+04  0.34015224787E+04 0.  0.
        4    1    3    3  502    0 -0.18243393488E+03 -0.13209237156E+04  0.20482536204E+04  0.24440675337E+04  0.12699999809E+01 0.  1.
       -4    1    3    3    0  502  0.18243393488E+03  0.13209237156E+04 -0.32000395521E+03  0.13713226270E+04  0.12699999809E+01 0. -1.
</event>
<event>
 5   0  0.6788600E-08  0.3401917E+04  0.7818609E-02  0.8137436E-01
        1   -1    0    0  501    0  0.00000000000E+00  0.00000000000E+00  0.10948579848E+04  0.10948579848E+04  0.50400001928E-02 0.  1.
       -1   -1    0    0    0  501  0.00000000000E+00  0.00000000000E+00 -0.26425887446E+04  0.26425887446E+04  0.50400001928E-02 0. -1.
    10030    2    1    2    0    0  0.00000000000E+00  0.00000000000E+00 -0.15477307598E+04  0.37374467295E+04  0.34019167466E+04 0.  0.
        2    1    3    3  502    0 -0.53771523546E+03 -0.11398223662E+04 -0.20288672894E+04  0.23884378114E+04  0.25500000920E-02 0. -1.
       -2    1    3    3    0  502  0.53771523546E+03  0.11398223662E+04  0.48113652952E+03  0.13490089181E+04  0.25500000920E-02 0.  1.
</event>
<event>
 5   0  0.1986613E-07  0.3398321E+04  0.7818609E-02  0.8138319E-01
       -2   -1    0    0    0  501  0.00000000000E+00  0.00000000000E+00  0.16334320133E+04  0.16334320133E+04  0.25500000920E-02 0.  1.
        2   -1    0    0  501    0  0.00000000000E+00  0.00000000000E+00 -0.17675339213E+04  0.17675339213E+04  0.25500000920E-02 0. -1.
    10030    2    1    2    0    0  0.00000000000E+00  0.00000000000E+00 -0.13410190800E+03  0.34009659346E+04  0.33983210511E+04 0.  0.
        5    1    3    3  502    0 -0.61933993354E+03 -0.12769572997E+04 -0.10020813320E+04  0.17373517158E+04  0.46999998093E+01 0. -1.
       -5    1    3    3    0  502  0.61933993354E+03  0.12769572997E+04  0.86797942397E+03  0.16636142188E+04  0.46999998093E+01 0.  1.
</event>
<event>
 5   0  0.6584420E-08  0.3388012E+04  0.7818609E-02  0.8140855E-01
        1   -1    0    0  501    0  0.00000000000E+00  0.00000000000E+00  0.25295893219E+04  0.25295893219E+04  0.50400001928E-02 0. -1.
       -1   -1    0    0    0  501  0.00000000000E+00  0.00000000000E+00 -0.11344354761E+04  0.11344354761E+04  0.50400001928E-02 0.  1.
    10030    2    1    2    0    0  0.00000000000E+00  0.00000000000E+00  0.13951538458E+04  0.36640247980E+04  0.33880117277E+04 0.  0.
        1    1    3    3  502    0 -0.88118616478E+03  0.63027998138E+03  0.21059425149E+04  0.23682769660E+04  0.50400001928E-02 0. -1.
       -1    1    3    3    0  502  0.88118616478E+03 -0.63027998138E+03 -0.71078866910E+03  0.12957478320E+04  0.50400001928E-02 0.  1.
</event>
<event>
 5   0  0.1897313E-07  0.3400836E+04  0.7818609E-02  0.8137701E-01
        2   -1    0    0  501    0  0.00000000000E+00  0.00000000000E+00  0.26864942391E+04  0.26864942391E+04  0.25500000920E-02 0.  1.
       -2   -1    0    0    0  501  0.00000000000E+00  0.00000000000E+00 -0.10762804115E+04  0.10762804115E+04  0.25500000920E-02 0. -1.
    10030    2    1    2    0    0  0.00000000000E+00  0.00000000000E+00  0.16102138276E+04  0.37627746506E+04  0.34008358533E+04 0.  0.
        3    1    3    3  502    0 -0.14483349870E+04  0.82282699207E+03  0.42713211454E+03  0.17196395980E+04  0.10100000352E+00 0. -1.
       -3    1    3    3    0  502  0.14483349870E+04 -0.82282699207E+03  0.11830817131E+04  0.20431350527E+04  0.10100000352E+00 0.  1.
</event>
<event>
 5   0  0.6788600E-08  0.3397411E+04  0.7818609E-02  0.8138542E-01
       -1   -1    0    0    0  501  0.00000000000E+00  0.00000000000E+00  0.14506419598E+04  0.14506419599E+04  0.50400001928E-02 0.  1.
        1   -1    0    0  501    0  0.00000000000E+00  0.00000000000E+00 -0.19891890860E+04  0.19891890860E+04  0.50400001928E-02 0. -1.
    10030    2    1    2    0    0  0.00000000000E+00  0.00000000000E+00 -0.53854712618E+03  0.34398310459E+04  0.33974114583E+04 0.  0.
        2    1    3    3  502    0  0.16257889813E+04  0.31953949131E+02  0.22817577897E+03  0.16420338160E+04  0.25500000920E-02 0.  1.
       -2    1    3    3    0  502 -0.16257889813E+04 -0.31953949131E+02 -0.76672290515E+03  0.17977972299E+04  0.25500000920E-02 0. -1.
</event>
<event>
 5   0  0.6311750E-08  0.3403841E+04  0.7818609E-02  0.8136964E-01
        1   -1    0    0  501    0  0.00000000000E+00  0.00000000000E+00  0.29020229870E+04  0.29020229870E+04  0.50400001928E-02 0.  1.
       -1   -1    0    0    0  501  0.00000000000E+00  0.00000000000E+00 -0.99810836339E+03  0.99810836341E+03  0.50400001928E-02 0. -1.
    10030    2    1    2    0    0  0.00000000000E+00  0.00000000000E+00  0.19039146236E+04  0.39001313504E+04  0.34038410151E+04 0.  0.
        4    1    3    3  502    0 -0.16241181851E+04  0.73828168056E+01  0.36915294239E+03  0.16655599337E+04  0.12699999809E+01 0. -1.
       -4    1    3    3    0  502  0.16241181851E+04 -0.73828168056E+01  0.15347616812E+04  0.22345714166E+04  0.12699999809E+01 0.  1.
</event>
<event>
 5   0  0.6311750E-08  0.3396919E+04  0.7818609E-02  0.8138663E-01
        3   -1    0    0  501    0  0.00000000000E+00  0.00000000000E+00  0.29040028788E+04  0.29040028805E+04  0.10100000352E+00 0.  1.
       -3   -1    0    0    0  501  0.00000000000E+00  0.00000000000E+00 -0.99337499735E+03  0.99337500248E+03  0.10100000352E+00 0. -1.
    10030    2    1    2    0    0  0.00000000000E+00  0.00000000000E+00  0.19106278814E+04  0.38973778830E+04  0.33969185245E+04 0.  0.
        4    1    3    3  502    0 -0.52689145305E+03  0.10892993680E+04 -0.41216106982E+03  0.12783059402E+04  0.12699999809E+01 0. -1.
       -4    1    3    3    0  502  0.52689145305E+03 -0.10892993680E+04  0.23227889513E+04  0.26190719428E+04  0.12699999809E+01 0.  1.
</event>
<event>
 5   0  0.1963852E-07  0.3410385E+04  0.7818609E-02  0.8135362E-01
       -2   -1    0    0    0  501  0.00000000000E+00  0.00000000000E+00  0.18482665625E+04  0.18482665625E+04  0.25500000920E-02 0.  1.
        2   -1    0    0  501    0  0.00000000000E+00  0.00000000000E+00 -0.15731939108E+04  0.15731939108E+04  0.25500000920E-02 0. -1.
    10030    2    1    2    0    0  0.00000000000E+00  0.00000000000E+00  0.27507265165E+03  0.34214604733E+04  0.34103851405E+04 0.  0.
        4    1    3    3  502    0 -0.40433371895E+03  0.16554097897E+04  0.19948440782E+03  0.17157106312E+04  0.12699999809E+01 0. -1.
       -4    1    3    3    0  502  0.40433371895E+03 -0.16554097897E+04  0.75588243836E+02  0.17057498421E+04  0.12699999809E+01 0.  1.
</event>
<event>
 5   0  0.6341535E-08  0.3401522E+04  0.7818609E-02  0.8137533E-01
        1   -1    0    0  501    0  0.00000000000E+00  0.00000000000E+00  0.16792800513E+04  0.16792800513E+04  0.50400001928E-02 0.  1.
       -1   -1    0    0    0  501  0.00000000000E+00  0.00000000000E+00 -0.17225172047E+04  0.17225172047E+04  0.50400001928E-02 0. -1.
    10030    2    1    2    0    0  0.00000000000E+00  0.00000000000E+00 -0.43237153350E+02  0.34017972560E+04  0.34015224708E+04 0.  0.
        5    1    3    3  502    0  0.32695200582E+03  0.78491646568E+03  0.14514482112E+04  0.16821758148E+04  0.46999998093E+01 0.  1.
       -5    1    3    3    0  502 -0.32695200582E+03 -0.78491646568E+03 -0.14946853645E+04  0.17196214412E+04  0.46999998093E+01 0. -1.
</event>
<event>
 5   0  0.1928004E-07  0.3401298E+04  0.7818609E-02  0.8137588E-01
        2   -1    0    0  501    0  0.00000000000E+00  0.00000000000E+00  0.22292630264E+04  0.22292630264E+04  0.25500000920E-02 0.  1.
       -2   -1    0    0    0  501  0.00000000000E+00  0.00000000000E+00 -0.12973825502E+04  0.12973825502E+04  0.25500000920E-02 0. -1.
    10030    2    1    2    0    0  0.00000000000E+00  0.00000000000E+00  0.93188047624E+03  0.35266455766E+04  0.34012979583E+04 0.  0.
        2    1    3    3  502    0 -0.64452061383E+03  0.15539729596E+04  0.20783223518E+03  0.16951203553E+04  0.25500000920E-02 0.  1.
       -2    1    3    3    0  502  0.64452061383E+03 -0.15539729596E+04  0.72404824106E+03  0.18315252213E+04  0.25500000920E-02 0. -1.
</event>
<event>
 5   0  0.6311750E-08  0.3398088E+04  0.7818609E-02  0.8138376E-01
       -1   -1    0    0    0  501  0.00000000000E+00  0.00000000000E+00  0.11279422995E+04  0.11279422995E+04  0.50400001928E-02 0.  1.
        1   -1    0    0  501    0  0.00000000000E+00  0.00000000000E+00 -0.25593061654E+04  0.25593061654E+04  0.50400001928E-02 0. -1.
    10030    2    1    2    0    0  0.00000000000E+00  0.00000000000E+00 -0.14313638659E+04  0.36872484649E+04  0.33980875100E+04 0.  0.
        4    1    3    3  502    0 -0.71504905959E+03  0.14596971072E+04 -0.12524885947E+04  0.20520087951E+04  0.12699999809E+01 0. -1.
       -4    1    3    3    0  502  0.71504905959E+03 -0.14596971072E+04 -0.17887527125E+03  0.16352396699E+04  0.12699999809E+01 0.  1.
</event>
<event>
 5   0  0.6584420E-08  0.3399627E+04  0.7818609E-02  0.8137998E-01
        1   -1    0    0  501    0  0.00000000000E+00  0.00000000000E+00  0.18192169476E+04  0.18192169476E+04  0.50400001928E-02 0.  1.
       -1   -1    0    0    0  501  0.00000000000E+00  0.00000000000E+00 -0.15882468934E+04  0.15882468934E+04  0.50400001928E-02 0. -1.
    10030    2    1    2    0    0  0.00000000000E+00  0.00000000000E+00  0.23097005419E+03  0.34074638410E+04  0.33996268416E+04 0.  0.
        1    1    3    3  502    0 -0.17408719991E+03  0.90801578786E+03 -0.13141855064E+04  0.16068237518E+04  0.50400001928E-02 0. -1.
       -1    1    3    3    0  502  0.17408719991E+03 -0.90801578786E+03  0.15451555606E+04  0.18006400892E+04  0.50400001928E-02 0.  1.
</event>
<event>
 5   0  0.1928004E-07  0.3396757E+04  0.7818609E-02  0.8138703E-01
       -2   -1    0    0    0  501  0.00000000000E+00  0.00000000000E+00  0.11942090526E+04  0.11942090526E+04  0.25500000920E-02 0.  1.
        2   -1    0    0  501    0  0.00000000000E+00  0.00000000000E+00 -0.24153980596E+04  0.24153980596E+04  0.25500000920E-02 0. -1.
    10030    2    1    2    0    0  0.00000000000E+00  0.00000000000E+00 -0.12211890070E+04  0.36096071122E+04  0.33967574116E+04 0.  0.
        2    1    3    3  502    0  0.15541973574E+04 -0.27653717513E+03  0.55151533411E+02  0.15795708046E+04  0.25500000920E-02 0.  1.
       -2    1    3    3    0  502 -0.15541973574E+04  0.27653717513E+03 -0.12763405405E+04  0.20300363076E+04  0.25500000920E-02 0. -1.
</event>
<event>
 5   0  0.1963852E-07  0.3410337E+04  0.7818609E-02  0.8135374E-01
       -2   -1    0    0    0  501  0.00000000000E+00  0.00000000000E+00  0.17042455303E+04  0.17042455303E+04  0.25500000920E-02 0. -1.
        2   -1    0    0  501    0  0.00000000000E+00  0.00000000000E+00 -0.17060916466E+04  0.17060916466E+04  0.25500000920E-02 0.  1.
    10030    2    1    2    0    0  0.00000000000E+00  0.00000000000E+00 -0.18461163321E+01  0.34103371769E+04  0.34103366772E+04 0.  0.
        4    1    3    3  502    0  0.65627967927E+03  0.11818118218E+04 -0.10402572524E+04  0.17057312108E+04  0.12699999809E+01 0.  1.
       -4    1    3    3    0  502 -0.65627967927E+03 -0.11818118218E+04  0.10384111360E+04  0.17046059661E+04  0.12699999809E+01 0. -1.
</event>
<event>
 5   0  0.6788600E-08  0.3402495E+04  0.7818609E-02  0.8137294E-01
        1   -1    0    0  501    0  0.00000000000E+00  0.00000000000E+00  0.17647368818E+04  0.17647368818E+04  0.50400001928E-02 0.  1.
       -1   -1    0    0    0  501  0.00000000000E+00  0.00000000000E+00 -0.16400418126E+04  0.16400418126E+04  0.50400001928E-02 0. -1.
    10030    2    1    2    0    0  0.00000000000E+00  0.00000000000E+00  0.12469506923E+03  0.34047786945E+04  0.34024945405E+04 0.  0.
        2    1    3    3  502    0  0.15925695085E+04 -0.13420121080E+03  0.64579526864E+03  0.17237572722E+04  0.25500000920E-02 0.  1.
       -2    1    3    3    0  502 -0.15925695085E+04  0.13420121080E+03 -0.52110019940E+03  0.16810214223E+04  0.25500000920E-02 0. -1.
</event>
<event>
 5   0  0.6584420E-08  0.3360279E+04  0.7818609E-02  0.8147725E-01
        1   -1    0    0  501    0  0.00000000000E+00  0.00000000000E+00  0.12464382916E+04  0.12464382916E+04  0.50400001928E-02 0. -1.
       -1   -1    0    0    0  501  0.00000000000E+00  0.00000000000E+00 -0.22647477715E+04  0.22647477715E+04  0.50400001928E-02 0.  1.
    10030    2    1    2    0    0  0.00000000000E+00  0.00000000000E+00 -0.10183094799E+04  0.35111860631E+04  0.33602787641E+04 0.  0.
        1    1    3    3  502    0 -0.33921484767E+03  0.52183331288E+03  0.11215369453E+04  0.12826620128E+04  0.50400001928E-02 0. -1.
       -1    1    3    3    0  502  0.33921484767E+03 -0.52183331288E+03 -0.21398464252E+04  0.22285240503E+04  0.50400001928E-02 0.  1.
</event>
<event>
 5   0  0.6311750E-08  0.3411013E+04  0.7818609E-02  0.8135209E-01
       -1   -1    0    0    0  501  0.00000000000E+00  0.00000000000E+00  0.14794563099E+04  0.14794563099E+04  0.50400001928E-02 0. -1.
        1   -1    0    0  501    0  0.00000000000E+00  0.00000000000E+00 -0.19660954088E+04  0.19660954088E+04  0.50400001928E-02 0.  1.
    10030    2    1    2    0    0  0.00000000000E+00  0.00000000000E+00 -0.48663909894E+03  0.34455517187E+04  0.34110129044E+04 0.  0.
        4    1    3    3  502    0 -0.27625381106E+03  0.10864008650E+04 -0.15417014905E+04  0.19061553206E+04  0.12699999809E+01 0.  1.
       -4    1    3    3    0  502  0.27625381106E+03 -0.10864008650E+04  0.10550623916E+04  0.15393963981E+04  0.12699999809E+01 0. -1.
</event>
<event>
 5   0  0.1963852E-07  0.3385876E+04  0.7818609E-02  0.8141381E-01
       -2   -1    0    0    0  501  0.00000000000E+00  0.00000000000E+00  0.22412876502E+04  0.22412876502E+04  0.25500000920E-02 0.  1.
        2   -1    0    0  501    0  0.00000000000E+00  0.00000000000E+00 -0.12787468254E+04  0.12787468254E+04  0.25500000920E-02 0. -1.
    10030    2    1    2    0    0  0.00000000000E+00  0.00000000000E+00  0.96254082477E+03  0.35200344756E+04  0.33858762337E+04 0.  0.
        4    1    3    3  502    0  0.69478878797E+03 -0.50065639634E+03  0.19994934862E+04  0.21751699017E+04  0.12699999809E+01 0.  1.
       -4    1    3    3    0  502 -0.69478878797E+03  0.50065639634E+03 -0.10369526615E+04  0.13448645739E+04  0.12699999809E+01 0. -1.
</event>
<event>
 5   0  0.6367111E-08  0.3400245E+04  0.7818609E-02  0.8137846E-01
       -1   -1    0    0    0  501  0.00000000000E+00  0.00000000000E+00  0.15583394260E+04  0.15583394260E+04  0.50400001928E-02 0. -1.
        1   -1    0    0  501    0  0.00000000000E+00  0.00000000000E+00 -0.18548055726E+04  0.18548055727E+04  0.50400001928E-02 0.  1.
    10030    2    1    2    0    0  0.00000000000E+00  0.00000000000E+00 -0.29646614667E+03  0.34131449986E+04  0.34002450802E+04 0.  0.
        3    1    3    3  502    0 -0.91139331064E+03 -0.83767118253E+03  0.10215575398E+04  0.16049643591E+04  0.10100000352E+00 0. -1.
       -3    1    3    3    0  502  0.91139331064E+03  0.83767118253E+03 -0.13180236865E+04  0.18081806395E+04  0.10100000352E+00 0.  1.
</event>
<event>
 5   0  0.6584420E-08  0.3403382E+04  0.7818609E-02  0.8137077E-01
       -1   -1    0    0    0  501  0.00000000000E+00  0.00000000000E+00  0.11851510360E+04  0.11851510360E+04  0.50400001928E-02 0.  1.
        1   -1    0    0  501    0  0.00000000000E+00  0.00000000000E+00 -0.24433612531E+04  0.24433612531E+04  0.50400001928E-02 0. -1.
    10030    2    1    2    0    0  0.00000000000E+00  0.00000000000E+00 -0.12582102171E+04  0.36285122891E+04  0.34033819183E+04 0.  0.
        1    1    3    3  502    0  0.17100804117E+03 -0.11372973225E+04  0.70807834121E+03  0.13505790933E+04  0.50400001928E-02 0. -1.
       -1    1    3    3    0  502 -0.17100804117E+03  0.11372973225E+04 -0.19662885583E+04  0.22779331958E+04  0.50400001928E-02 0.  1.
</event>
<event>
 5   0  0.6584420E-08  0.3395766E+04  0.7818609E-02  0.8138946E-01
       -1   -1    0    0    0  501  0.00000000000E+00  0.00000000000E+00  0.25437338256E+04  0.25437338256E+04  0.50400001928E-02 0. -1.
        1   -1    0    0  501    0  0.00000000000E+00  0.00000000000E+00 -0.11332972230E+04  0.11332972230E+04  0.50400001928E-02 0.  1.
    10030    2    1    2    0    0  0.00000000000E+00  0.00000000000E+00  0.14104366027E+04  0.36770310486E+04  0.33957658816E+04 0.  0.
        1    1    3    3  502    0  0.67541026840E+03 -0.35229461033E+03  0.23483065171E+04  0.24687717637E+04  0.50400001928E-02 0. -1.
       -1    1    3    3    0  502 -0.67541026840E+03  0.35229461033E+03 -0.93786991442E+03  0.12082592849E+04  0.50400001928E-02 0.  1.
</event>
<event>
 5   0  0.1963852E-07  0.3399248E+04  0.7818609E-02  0.8138091E-01
       -2   -1    0    0    0  501  0.00000000000E+00  0.00000000000E+00  0.13557260210E+04  0.13557260211E+04  0.25500000920E-02 0.  1.
        2   -1    0    0  501    0  0.00000000000E+00  0.00000000000E+00 -0.21307562139E+04  0.21307562139E+04  0.25500000920E-02 0. -1.
    10030    2    1    2    0    0  0.00000000000E+00  0.00000000000E+00 -0.77503019287E+03  0.34864822350E+04  0.33992479426E+04 0.  0.
        4    1    3    3  502    0 -0.75909460864E+03 -0.62197109219E+03 -0.18108037701E+04  0.20596321446E+04  0.12699999809E+01 0. -1.
       -4    1    3    3    0  502  0.75909460864E+03  0.62197109219E+03  0.10357735772E+04  0.14268500904E+04  0.12699999809E+01 0.  1.
</event>
<event>
 5   0  0.1897313E-07  0.3399144E+04  0.7818609E-02  0.8138116E-01
        2   -1    0    0  501    0  0.00000000000E+00  0.00000000000E+00  0.22769957261E+04  0.22769957261E+04  0.25500000920E-02 0. -1.
       -2   -1    0    0    0  501  0.00000000000E+00  0.00000000000E+00 -0.12685773857E+04  0.12685773857E+04  0.25500000920E-02 0.  1.
    10030    2    1    2    0    0  0.00000000000E+00  0.00000000000E+00  0.10084183405E+04  0.35455731118E+04  0.33991441778E+04 0.  0.
        3    1    3    3  502    0  0.65820671470E+03 -0.14217185194E+04  0.11913955705E+04  0.19682334830E+04  0.10100000352E+00 0. -1.
       -3    1    3    3    0  502 -0.65820671470E+03  0.14217185194E+04 -0.18297723005E+03  0.15773396288E+04  0.10100000352E+00 0.  1.
</event>
<event>
 5   0  0.1986613E-07  0.3397561E+04  0.7818609E-02  0.8138505E-01
        2   -1    0    0  501    0  0.00000000000E+00  0.00000000000E+00  0.20424928359E+04  0.20424928359E+04  0.25500000920E-02 0.  1.
       -2   -1    0    0    0  501  0.00000000000E+00  0.00000000000E+00 -0.14129085209E+04  0.14129085209E+04  0.25500000920E-02 0. -1.
    10030    2    1    2    0    0  0.00000000000E+00  0.00000000000E+00  0.62958431505E+03  0.34554013568E+04  0.33975612028E+04 0.  0.
        5    1    3    3  502    0 -0.92624812814E+03  0.13889307098E+04 -0.48339643108E+01  0.16694638566E+04  0.46999998093E+01 0. -1.
       -5    1    3    3    0  502  0.92624812814E+03 -0.13889307098E+04  0.63441827936E+03  0.17859375002E+04  0.46999998093E+01 0.  1.
</event>
<event>
 5   0  0.1897313E-07  0.3402580E+04  0.7818609E-02  0.8137273E-01
       -2   -1    0    0    0  501  0.00000000000E+00  0.00000000000E+00  0.12487107934E+04  0.12487107934E+04  0.25500000920E-02 0. -1.
        2   -1    0    0  501    0  0.00000000000E+00  0.00000000000E+00 -0.23179012894E+04  0.23179012894E+04  0.25500000920E-02 0.  1.
    10030    2    1    2    0    0  0.00000000000E+00  0.00000000000E+00 -0.10691904960E+04  0.35666120828E+04  0.34025804079E+04 0.  0.
        3    1    3    3  502    0 -0.86253747531E+03  0.24057434978E+03 -0.20508930749E+04  0.22378582013E+04  0.10100000352E+00 0.  1.
       -3    1    3    3    0  502  0.86253747531E+03 -0.24057434978E+03  0.98170257889E+03  0.13287538815E+04  0.10100000352E+00 0. -1.
</event>
<event>
 5   0  0.6341535E-08  0.3403268E+04  0.7818609E-02  0.8137105E-01
        1   -1    0    0  501    0  0.00000000000E+00  0.00000000000E+00  0.19147965675E+04  0.19147965675E+04  0.50400001928E-02 0. -1.
       -1   -1    0    0    0  501  0.00000000000E+00  0.00000000000E+00 -0.15122014915E+04  0.15122014915E+04  0.50400001928E-02 0.  1.
    10030    2    1    2    0    0  0.00000000000E+00  0.00000000000E+00  0.40259507599E+03  0.34269980590E+04  0.34032679738E+04 0.  0.
        5    1    3    3  502    0 -0.10913634997E+03 -0.13105646745E+04  0.12886628733E+04  0.18412399626E+04  0.46999998093E+01 0. -1.
       -5    1    3    3    0  502  0.10913634997E+03  0.13105646745E+04 -0.88606779732E+03  0.15857580964E+04  0.46999998093E+01 0.  1.
</event>
<event>
 5   0  0.1986613E-07  0.3399998E+04  0.7818609E-02  0.8137907E-01
       -2   -1    0    0    0  501  0.00000000000E+00  0.00000000000E+00  0.12413092448E+04  0.12413092448E+04  0.25500000920E-02 0. -1.
        2   -1    0    0  501    0  0.00000000000E+00  0.00000000000E+00 -0.23281842389E+04  0.23281842389E+04  0.25500000920E-02 0.  1.
    10030    2    1    2    0    0  0.00000000000E+00  0.00000000000E+00 -0.10868749941E+04  0.35694934838E+04  0.33999980114E+04 0.  0.
        5    1    3    3  502    0  0.23841815556E+03  0.16487799409E+04 -0.89892665477E+03  0.18929896279E+04  0.46999998093E+01 0.  1.
       -5    1    3    3    0  502 -0.23841815556E+03 -0.16487799409E+04 -0.18794833932E+03  0.16765038559E+04  0.46999998093E+01 0. -1.
</event>
<event>
 5   0  0.1928004E-07  0.3401600E+04  0.7818609E-02  0.8137514E-01
       -2   -1    0    0    0  501  0.00000000000E+00  0.00000000000E+00  0.26355414560E+04  0.26355414560E+04  0.25500000920E-02 0.  1.
        2   -1    0    0  501    0  0.00000000000E+00  0.00000000000E+00 -0.10975814131E+04  0.10975814131E+04  0.25500000920E-02 0. -1.
    10030    2    1    2    0    0  0.00000000000E+00  0.00000000000E+00  0.15379600429E+04  0.37331228691E+04  0.34016003972E+04 0.  0.
        2    1    3    3  502    0 -0.16532839154E+04 -0.34696234409E+02  0.12054463530E+04  0.20463754405E+04  0.25500000920E-02 0.  1.
       -2    1    3    3    0  502  0.16532839154E+04  0.34696234409E+02  0.33251368993E+03  0.16867474285E+04  0.25500000920E-02 0. -1.
</event>
<event>
 5   0  0.1986613E-07  0.3403269E+04  0.7818609E-02  0.8137104E-01
       -2   -1    0    0    0  501  0.00000000000E+00  0.00000000000E+00  0.80914123115E+03  0.80914123115E+03  0.25500000920E-02 0. -1.
        2   -1    0    0  501    0  0.00000000000E+00  0.00000000000E+00 -0.35785593513E+04  0.35785593513E+04  0.25500000920E-02 0.  1.
    10030    2    1    2    0    0  0.00000000000E+00  0.00000000000E+00 -0.27694181202E+04  0.43877005825E+04  0.34032689693E+04 0.  0.
        5    1    3    3  502    0 -0.63686471418E+03 -0.81213155407E+03 -0.31289712078E+04  0.32947894067E+04  0.46999998093E+01 0.  1.
       -5    1    3    3    0  502  0.63686471418E+03  0.81213155407E+03  0.35955308763E+03  0.10929111758E+04  0.46999998093E+01 0. -1.
</event>
<event>
 5   0  0.6584420E-08  0.3402650E+04  0.7818609E-02  0.8137256E-01
       -1   -1    0    0    0  501  0.00000000000E+00  0.00000000000E+00  0.23162700507E+04  0.23162700507E+04  0.50400001928E-02 0.  1.
        1   -1    0    0  501    0  0.00000000000E+00  0.00000000000E+00 -0.12496409531E+04  0.12496409531E+04  0.50400001928E-02 0. -1.
    10030    2    1    2    0    0  0.00000000000E+00  0.00000000000E+00  0.10666290976E+04  0.35659110037E+04  0.34026495051E+04 0.  0.
        1    1    3    3  502    0 -0.46889666175E+03  0.41677511080E+03  0.21906291241E+04  0.22786885552E+04  0.50400001928E-02 0.  1.
       -1    1    3    3    0  502  0.46889666175E+03 -0.41677511080E+03 -0.11240000265E+04  0.12872224485E+04  0.50400001928E-02 0. -1.
</event>
<event>
 5   0  0.1928004E-07  0.3400520E+04  0.7818609E-02  0.8137779E-01
       -2   -1    0    0    0  501  0.00000000000E+00  0.00000000000E+00  0.13718186785E+04  0.13718186785E+04  0.25500000920E-02 0.  1.
        2   -1    0    0  501    0  0.00000000000E+00  0.00000000000E+00 -0.21073365499E+04  0.21073365499E+04  0.25500000920E-02 0. -1.
    10030    2    1    2    0    0  0.00000000000E+00  0.00000000000E+00 -0.73551787135E+03  0.34791552284E+04  0.34005197492E+04 0.  0.
        2    1    3    3  502    0 -0.61182563879E+02 -0.80315581979E+02  0.13687489011E+04  0.13724676511E+04  0.25500000920E-02 0.  1.
       -2    1    3    3    0  502  0.61182563879E+02  0.80315581979E+02 -0.21042667725E+04  0.21066875774E+04  0.25500000920E-02 0. -1.
</event>
<event>
 5   0  0.6341535E-08  0.3402304E+04  0.7818609E-02  0.8137341E-01
        1   -1    0    0  501    0  0.00000000000E+00  0.00000000000E+00  0.16006126635E+04  0.16006126635E+04  0.50400001928E-02 0.  1.
       -1   -1    0    0    0  501  0.00000000000E+00  0.00000000000E+00 -0.18080068135E+04  0.18080068135E+04  0.50400001928E-02 0. -1.
    10030    2    1    2    0    0  0.00000000000E+00  0.00000000000E+00 -0.20739415001E+03  0.34086194770E+04  0.34023042788E+04 0.  0.
        5    1    3    3  502    0  0.24225899026E+03  0.56963642024E+03 -0.16911638178E+04  0.18008976146E+04  0.46999998093E+01 0. -1.
       -5    1    3    3    0  502 -0.24225899026E+03 -0.56963642024E+03  0.14837696678E+04  0.16077218624E+04  0.46999998093E+01 0.  1.
</event>
<event>
 5   0  0.6367111E-08  0.3401230E+04  0.7818609E-02  0.8137604E-01
       -1   -1    0    0    0  501  0.00000000000E+00  0.00000000000E+00  0.23190383665E+04  0.23190383665E+04  0.50400001928E-02 0.  1.
        1   -1    0    0  501    0  0.00000000000E+00  0.00000000000E+00 -0.12471083564E+04  0.12471083564E+04  0.50400001928E-02 0. -1.
    10030    2    1    2    0    0  0.00000000000E+00  0.00000000000E+00  0.10719300101E+04  0.35661467230E+04  0.34012304396E+04 0.  0.
        3    1    3    3  502    0 -0.25417892930E+03 -0.59278979009E+03 -0.11138907067E+04  0.12871515761E+04  0.10100000352E+00 0. -1.
       -3    1    3    3    0  502  0.25417892930E+03  0.59278979009E+03  0.21858207168E+04  0.22789951469E+04  0.10100000352E+00 0.  1.
</event>
<event>
 5   0  0.1963852E-07  0.3385757E+04  0.7818609E-02  0.8141411E-01
        2   -1    0    0  501    0  0.00000000000E+00  0.00000000000E+00  0.19167693024E+04  0.19167693024E+04  0.25500000920E-02 0.  1.
       -2   -1    0    0    0  501  0.00000000000E+00  0.00000000000E+00 -0.14951395686E+04  0.14951395686E+04  0.25500000920E-02 0. -1.
    10030    2    1    2    0    0  0.00000000000E+00  0.00000000000E+00  0.42162973375E+03  0.34119088710E+04  0.33857570071E+04 0.  0.
        4    1    3    3  502    0  0.98595786761E+03  0.10716490594E+04 -0.65915596031E+03  0.15984470013E+04  0.12699999809E+01 0. -1.
       -4    1    3    3    0  502 -0.98595786761E+03 -0.10716490594E+04  0.10807856941E+04  0.18134618696E+04  0.12699999809E+01 0.  1.
</event>
<event>
 5   0  0.6341535E-08  0.3398706E+04  0.7818609E-02  0.8138224E-01
       -1   -1    0    0    0  501  0.00000000000E+00  0.00000000000E+00  0.19112520477E+04  0.19112520477E+04  0.50400001928E-02 0.  1.
        1   -1    0    0  501    0  0.00000000000E+00  0.00000000000E+00 -0.15109466044E+04  0.15109466045E+04  0.50400001928E-02 0. -1.
    10030    2    1    2    0    0  0.00000000000E+00  0.00000000000E+00  0.40030544330E+03  0.34221986522E+04  0.33987055135E+04 0.  0.
        5    1    3    3  502    0  0.63137505633E+03 -0.90655656508E+03  0.15003173632E+04  0.18631837128E+04  0.46999998093E+01 0.  1.
       -5    1    3    3    0  502 -0.63137505633E+03  0.90655656508E+03 -0.11000119199E+04  0.15590149394E+04  0.46999998093E+01 0. -1.
</event>
<event>
 5   0  0.6584420E-08  0.3401276E+04  0.7818609E-02  0.8137593E-01
       -1   -1    0    0    0  501  0.00000000000E+00  0.00000000000E+00  0.11795045557E+04  0.11795045557E+04  0.50400001928E-02 0. -1.
        1   -1    0    0  501    0  0.00000000000E+00  0.00000000000E+00 -0.24520204921E+04  0.24520204921E+04  0.50400001928E-02 0.  1.
    10030    2    1    2    0    0  0.00000000000E+00  0.00000000000E+00 -0.12725159365E+04  0.36315250478E+04  0.34012758436E+04 0.  0.
        1    1    3    3  502    0  0.53711545832E+03 -0.14263213240E+04  0.16932746441E+03  0.15334788310E+04  0.50400001928E-02 0. -1.
       -1    1    3    3    0  502 -0.53711545832E+03  0.14263213240E+04 -0.14418434009E+04  0.20980462168E+04  0.50400001928E-02 0.  1.
</event>
<event>
 5   0  0.6367111E-08  0.3410542E+04  0.7818609E-02  0.8135324E-01
       -1   -1    0    0    0  501  0.00000000000E+00  0.00000000000E+00  0.18104728324E+04  0.18104728324E+04  0.50400001928E-02 0.  1.
        1   -1    0    0  501    0  0.00000000000E+00  0.00000000000E+00 -0.16061826283E+04  0.16061826283E+04  0.50400001928E-02 0. -1.
    10030    2    1    2    0    0  0.00000000000E+00  0.00000000000E+00  0.20429020415E+03  0.34166554607E+04  0.34105424862E+04 0.  0.
        3    1    3    3  502    0  0.69541777286E+03 -0.14993797327E+04  0.52266472861E+03  0.17334716295E+04  0.10100000352E+00 0.  1.
       -3    1    3    3    0  502 -0.69541777286E+03  0.14993797327E+04 -0.31837452446E+03  0.16831838312E+04  0.10100000352E+00 0. -1.
</event>
<event>
 5   0  0.1897313E-07  0.3396037E+04  0.7818609E-02  0.8138880E-01
        2   -1    0    0  501    0  0.00000000000E+00  0.00000000000E+00  0.24288212638E+04  0.24288212638E+04  0.25500000920E-02 0. -1.
       -2   -1    0    0    0  501  0.00000000000E+00  0.00000000000E+00 -0.11871053477E+04  0.11871053477E+04  0.25500000920E-02 0.  1.
    10030    2    1    2    0    0  0.00000000000E+00  0.00000000000E+00  0.12417159162E+04  0.36159266115E+04  0.33960369319E+04 0.  0.
        3    1    3    3  502    0 -0.12358640389E+04 -0.76248906812E+03  0.15579078955E+04  0.21297479951E+04  0.10100000352E+00 0. -1.
       -3    1    3    3    0  502  0.12358640389E+04  0.76248906812E+03 -0.31619197929E+03  0.14861786164E+04  0.10100000352E+00 0.  1.
</event>
<event>
 5   0  0.6311750E-08  0.3400563E+04  0.7818609E-02  0.8137768E-01
       -1   -1    0    0    0  501  0.00000000000E+00  0.00000000000E+00  0.11123357887E+04  0.11123357887E+04  0.50400001928E-02 0.  1.
        1   -1    0    0  501    0  0.00000000000E+00  0.00000000000E+00 -0.25989966934E+04  0.25989966934E+04  0.50400001928E-02 0. -1.
    10030    2    1    2    0    0  0.00000000000E+00  0.00000000000E+00 -0.14866609047E+04  0.37113324821E+04  0.34005629162E+04 0.  0.
        4    1    3    3  502    0 -0.27176576707E+03 -0.51751318044E+03  0.99922948014E+03  0.11576431622E+04  0.12699999809E+01 0.  1.
       -4    1    3    3    0  502  0.27176576707E+03  0.51751318044E+03 -0.24858903848E+04  0.25536893199E+04  0.12699999809E+01 0. -1.
</event>
<event>
 5   0  0.6341535E-08  0.3409292E+04  0.7818609E-02  0.8135629E-01
       -1   -1    0    0    0  501  0.00000000000E+00  0.00000000000E+00  0.16305692208E+04  0.16305692208E+04  0.50400001928E-02 0.  1.
        1   -1    0    0  501    0  0.00000000000E+00  0.00000000000E+00 -0.17820885976E+04  0.17820885976E+04  0.50400001928E-02 0. -1.
    10030    2    1    2    0    0  0.00000000000E+00  0.00000000000E+00 -0.15151937683E+03  0.34126578184E+04  0.34092924872E+04 0.  0.
        5    1    3    3  502    0  0.15601955052E+04 -0.91070387063E+02  0.60556841560E+03  0.16760784665E+04  0.46999998093E+01 0.  1.
       -5    1    3    3    0  502 -0.15601955052E+04  0.91070387063E+02 -0.75708779243E+03  0.17365793519E+04  0.46999998093E+01 0. -1.
</event>
<event>
 5   0  0.1986613E-07  0.3401950E+04  0.7818609E-02  0.8137428E-01
        2   -1    0    0  501    0  0.00000000000E+00  0.00000000000E+00  0.18796001768E+04  0.18796001768E+04  0.25500000920E-02 0. -1.
       -2   -1    0    0    0  501  0.00000000000E+00  0.00000000000E+00 -0.15393251313E+04  0.15393251313E+04  0.25500000920E-02 0.  1.
    10030    2    1    2    0    0  0.00000000000E+00  0.00000000000E+00  0.34027504547E+03  0.34189253081E+04  0.34019499049E+04 0.  0.
        5    1    3    3  502    0  0.56141424708E+03 -0.16268809311E+03 -0.14352187431E+04  0.15496865177E+04  0.46999998093E+01 0.  1.
       -5    1    3    3    0  502 -0.56141424708E+03  0.16268809311E+03  0.17754937886E+04  0.18692387904E+04  0.46999998093E+01 0. -1.
</event>
<event>
 5   0  0.6341535E-08  0.3395935E+04  0.7818609E-02  0.8138905E-01
       -1   -1    0    0    0  501  0.00000000000E+00  0.00000000000E+00  0.25004246607E+04  0.25004246607E+04  0.50400001928E-02 0.  1.
        1   -1    0    0  501    0  0.00000000000E+00  0.00000000000E+00 -0.11530419036E+04  0.11530419037E+04  0.50400001928E-02 0. -1.
    10030    2    1    2    0    0  0.00000000000E+00  0.00000000000E+00  0.13473827571E+04  0.36534665644E+04  0.33959354592E+04 0.  0.
        5    1    3    3  502    0 -0.65284541916E+03  0.11748653011E+03  0.23552536787E+04  0.24468862269E+04  0.46999998093E+01 0.  1.
       -5    1    3    3    0  502  0.65284541916E+03 -0.11748653011E+03 -0.10078709217E+04  0.12065803375E+04  0.46999998093E+01 0. -1.
</event>
<event>
 5   0  0.1963852E-07  0.3394877E+04  0.7818609E-02  0.8139165E-01
       -2   -1    0    0    0  501  0.00000000000E+00  0.00000000000E+00  0.13494005457E+04  0.13494005457E+04  0.25500000920E-02 0. -1.
        2   -1    0    0  501    0  0.00000000000E+00  0.00000000000E+00 -0.21352427551E+04  0.21352427551E+04  0.25500000920E-02 0.  1.
    10030    2    1    2    0    0  0.00000000000E+00  0.00000000000E+00 -0.78584220937E+03  0.34846433008E+04  0.33948771636E+04 0.  0.
        4    1    3    3  502    0  0.31795847043E+03  0.91639838249E+03 -0.18227408840E+04  0.20647686378E+04  0.12699999809E+01 0.  1.
       -4    1    3    3    0  502 -0.31795847043E+03 -0.91639838249E+03  0.10368986746E+04  0.14198746630E+04  0.12699999809E+01 0. -1.
</event>
<event>
 5   0  0.6311750E-08  0.3389066E+04  0.7818609E-02  0.8140595E-01
        1   -1    0    0  501    0  0.00000000000E+00  0.00000000000E+00  0.18838362640E+04  0.18838362640E+04  0.50400001928E-02 0. -1.
       -1   -1    0    0    0  501  0.00000000000E+00  0.00000000000E+00 -0.15242524600E+04  0.15242524600E+04  0.50400001928E-02 0.  1.
    10030    2    1    2    0    0  0.00000000000E+00  0.00000000000E+00  0.35958380400E+03  0.34080887239E+04  0.33890659831E+04 0.  0.
        4    1    3    3  502    0 -0.12788028709E+04 -0.39379746571E+02  0.12971328628E+04  0.18219338143E+04  0.12699999809E+01 0. -1.
       -4    1    3    3    0  502  0.12788028709E+04  0.39379746571E+02 -0.93754905875E+03  0.15861549097E+04  0.12699999809E+01 0.  1.
</event>
<event>
 5   0  0.6788600E-08  0.3405466E+04  0.7818609E-02  0.8136566E-01
       -1   -1    0    0    0  501  0.00000000000E+00  0.00000000000E+00  0.29964178475E+04  0.29964178475E+04  0.50400001928E-02 0. -1.
        1   -1    0    0  501    0  0.00000000000E+00  0.00000000000E+00 -0.96758837818E+03  0.96758837820E+03  0.50400001928E-02 0.  1.
    10030    2    1    2    0    0  0.00000000000E+00  0.00000000000E+00  0.20288294693E+04  0.39640062257E+04  0.34054656571E+04 0.  0.
        2    1    3    3  502    0 -0.98511440775E+03  0.65902321203E+03  0.24374352866E+04  0.27103233694E+04  0.25500000920E-02 0. -1.
       -2    1    3    3    0  502  0.98511440775E+03 -0.65902321203E+03 -0.40860581726E+03  0.12536828563E+04  0.25500000920E-02 0.  1.
</event>
<event>
 5   0  0.6367111E-08  0.3405311E+04  0.7818609E-02  0.8136604E-01
       -1   -1    0    0    0  501  0.00000000000E+00  0.00000000000E+00  0.18815560909E+04  0.18815560909E+04  0.50400001928E-02 0. -1.
        1   -1    0    0  501    0  0.00000000000E+00  0.00000000000E+00 -0.15407646018E+04  0.15407646018E+04  0.50400001928E-02 0.  1.
    10030    2    1    2    0    0  0.00000000000E+00  0.00000000000E+00  0.34079148912E+03  0.34223206927E+04  0.34053105709E+04 0.  0.
        3    1    3    3  502    0  0.66430810178E+03 -0.14301010580E+04  0.81589744128E+03  0.17754388007E+04  0.10100000352E+00 0. -1.
       -3    1    3    3    0  502 -0.66430810178E+03  0.14301010580E+04 -0.47510595216E+03  0.16468818920E+04  0.10100000352E+00 0.  1.
</event>
<event>
 5   0  0.1897313E-07  0.3392030E+04  0.7818609E-02  0.8139865E-01
        2   -1    0    0  501    0  0.00000000000E+00  0.00000000000E+00  0.15679325787E+04  0.15679325787E+04  0.25500000920E-02 0. -1.
       -2   -1    0    0    0  501  0.00000000000E+00  0.00000000000E+00 -0.18345600390E+04  0.18345600390E+04  0.25500000920E-02 0.  1.
    10030    2    1    2    0    0  0.00000000000E+00  0.00000000000E+00 -0.26662746030E+03  0.34024926176E+04  0.33920297479E+04 0.  0.
        3    1    3    3  502    0  0.28182134244E+03 -0.15151677845E+04 -0.84353000236E+03  0.17569005548E+04  0.10100000352E+00 0.  1.
       -3    1    3    3    0  502 -0.28182134244E+03  0.15151677845E+04  0.57690254206E+03  0.16455920629E+04  0.10100000352E+00 0. -1.
</event>
<event>
 5   0  0.6788600E-08  0.3400779E+04  0.7818609E-02  0.8137715E-01
       -1   -1    0    0    0  501  0.00000000000E+00  0.00000000000E+00  0.14141861190E+04  0.14141861190E+04  0.50400001928E-02 0.  1.
        1   -1    0    0  501    0  0.00000000000E+00  0.00000000000E+00 -0.20445145983E+04  0.20445145983E+04  0.50400001928E-02 0. -1.
    10030    2    1    2    0    0  0.00000000000E+00  0.00000000000E+00 -0.63032847936E+03  0.34587007173E+04  0.34007788314E+04 0.  0.
        2    1    3    3  502    0  0.14110649326E+04 -0.78882266379E+03  0.22105250960E+03  0.16316279144E+04  0.25500000920E-02 0.  1.
       -2    1    3    3    0  502 -0.14110649326E+04  0.78882266379E+03 -0.85138098895E+03  0.18270728029E+04  0.25500000920E-02 0. -1.
</event>
<event>
 5   0  0.6788600E-08  0.3400462E+04  0.7818609E-02  0.8137793E-01
        1   -1    0    0  501    0  0.00000000000E+00  0.00000000000E+00  0.22437403317E+04  0.22437403317E+04  0.50400001928E-02 0. -1.
       -1   -1    0    0    0  501  0.00000000000E+00  0.00000000000E+00 -0.12883777373E+04  0.12883777373E+04  0.50400001928E-02 0.  1.
    10030    2    1    2    0    0  0.00000000000E+00  0.00000000000E+00  0.95536259440E+03  0.35321180689E+04  0.34004617872E+04 0.  0.
        2    1    3    3  502    0  0.47883399014E+03  0.79718907031E+03 -0.10008014138E+04  0.13661609985E+04  0.25500000920E-02 0.  1.
       -2    1    3    3    0  502 -0.47883399014E+03 -0.79718907031E+03  0.19561640082E+04  0.21659570704E+04  0.25500000920E-02 0. -1.
</event>
<event>
 5   0  0.1986613E-07  0.3402972E+04  0.7818609E-02  0.8137177E-01
        2   -1    0    0  501    0  0.00000000000E+00  0.00000000000E+00  0.13391470238E+04  0.13391470238E+04  0.25500000920E-02 0. -1.
       -2   -1    0    0    0  501  0.00000000000E+00  0.00000000000E+00 -0.21618651959E+04  0.21618651959E+04  0.25500000920E-02 0.  1.
    10030    2    1    2    0    0  0.00000000000E+00  0.00000000000E+00 -0.82271817213E+03  0.35010122197E+04  0.34029724318E+04 0.  0.
        5    1    3    3  502    0  0.35491148556E+03 -0.90453535524E+03 -0.18483407945E+04  0.20881887257E+04  0.46999998093E+01 0.  1.
       -5    1    3    3    0  502 -0.35491148556E+03  0.90453535524E+03  0.10256226224E+04  0.14128234939E+04  0.46999998093E+01 0. -1.
</event>
<event>
 5   0  0.1963852E-07  0.3398924E+04  0.7818609E-02  0.8138170E-01
        2   -1    0    0  501    0  0.00000000000E+00  0.00000000000E+00  0.13871600483E+04  0.13871600483E+04  0.25500000920E-02 0. -1.
       -2   -1    0    0    0  501  0.00000000000E+00  0.00000000000E+00 -0.20820754905E+04  0.20820754905E+04  0.25500000920E-02 0.  1.
    10030    2    1    2    0    0  0.00000000000E+00  0.00000000000E+00 -0.69491544222E+03  0.34692355388E+04  0.33989244993E+04 0.  0.
        4    1    3    3  502    0 -0.14783854008E+04  0.65314728495E+03  0.18871408214E+03  0.16272182972E+04  0.12699999809E+01 0.  1.
       -4    1    3    3    0  502  0.14783854008E+04 -0.65314728495E+03 -0.88362952436E+03  0.18420172416E+04  0.12699999809E+01 0. -1.
</event>
<event>
 5   0  0.6788600E-08  0.3398220E+04  0.7818609E-02  0.8138343E-01
        1   -1    0    0  501    0  0.00000000000E+00  0.00000000000E+00  0.13789904624E+04  0.13789904624E+04  0.50400001928E-02 0.  1.
       -1   -1    0    0    0  501  0.00000000000E+00  0.00000000000E+00 -0.20935424560E+04  0.20935424560E+04  0.50400001928E-02 0. -1.
    10030    2    1    2    0    0  0.00000000000E+00  0.00000000000E+00 -0.71455199360E+03  0.34725329184E+04  0.33982201691E+04 0.  0.
        2    1    3    3  502    0  0.84041206171E+02 -0.98554710230E+03 -0.17690115405E+04  0.20267628982E+04  0.25500000920E-02 0. -1.
       -2    1    3    3    0  502 -0.84041206171E+02  0.98554710230E+03  0.10544595469E+04  0.14457700202E+04  0.25500000920E-02 0.  1.
</event>
<event>
 5   0  0.6367111E-08  0.3410184E+04  0.7818609E-02  0.8135411E-01
       -1   -1    0    0    0  501  0.00000000000E+00  0.00000000000E+00  0.97528994600E+03  0.97528994601E+03  0.50400001928E-02 0. -1.
        1   -1    0    0  501    0  0.00000000000E+00  0.00000000000E+00 -0.29809989198E+04  0.29809989198E+04  0.50400001928E-02 0.  1.
    10030    2    1    2    0    0  0.00000000000E+00  0.00000000000E+00 -0.20057089738E+04  0.39562888658E+04  0.34101837344E+04 0.  0.
        3    1    3    3  502    0  0.12422215833E+04 -0.18037780849E+03 -0.23416412237E+04  0.26568654927E+04  0.10100000352E+00 0.  1.
       -3    1    3    3    0  502 -0.12422215833E+04  0.18037780849E+03  0.33593224986E+03  0.12994233731E+04  0.10100000352E+00 0. -1.
</event>
<event>
 5   0  0.6367111E-08  0.3398625E+04  0.7818609E-02  0.8138244E-01
       -1   -1    0    0    0  501  0.00000000000E+00  0.00000000000E+00  0.12693750408E+04  0.12693750408E+04  0.50400001928E-02 0. -1.
        1   -1    0    0  501    0  0.00000000000E+00  0.00000000000E+00 -0.22748699080E+04  0.22748699080E+04  0.50400001928E-02 0.  1.
    10030    2    1    2    0    0  0.00000000000E+00  0.00000000000E+00 -0.10054948672E+04  0.35442449488E+04  0.33986250645E+04 0.  0.
        3    1    3    3  502    0  0.21957247129E+03  0.12664456674E+04  0.65643959646E+03  0.14432635423E+04  0.10100000352E+00 0. -1.
       -3    1    3    3    0  502 -0.21957247129E+03 -0.12664456674E+04 -0.16619344637E+04  0.21009814065E+04  0.10100000352E+00 0.  1.
</event>
<event>
 5   0  0.1928004E-07  0.3399414E+04  0.7818609E-02  0.8138050E-01
        2   -1    0    0  501    0  0.00000000000E+00  0.00000000000E+00  0.29517347616E+04  0.29517347616E+04  0.25500000920E-02 0.  1.
       -2   -1    0    0    0  501  0.00000000000E+00  0.00000000000E+00 -0.97874777457E+03  0.97874777458E+03  0.25500000920E-02 0. -1.
    10030    2    1    2    0    0  0.00000000000E+00  0.00000000000E+00  0.19729869870E+04  0.39304825362E+04  0.33994139666E+04 0.  0.
        2    1    3    3  502    0  0.67500633540E+02 -0.32577694982E+03 -0.94073276702E+03  0.99783019373E+03  0.25500000920E-02 0. -1.
       -2    1    3    3    0  502 -0.67500633540E+02  0.32577694982E+03  0.29137197540E+04  0.29326523424E+04  0.25500000920E-02 0.  1.
</event>
<event>
 5   0  0.6584420E-08  0.3396337E+04  0.7818609E-02  0.8138806E-01
        1   -1    0    0  501    0  0.00000000000E+00  0.00000000000E+00  0.19579806127E+04  0.19579806127E+04  0.50400001928E-02 0.  1.
       -1   -1    0    0    0  501  0.00000000000E+00  0.00000000000E+00 -0.14728321569E+04  0.14728321569E+04  0.50400001928E-02 0. -1.
    10030    2    1    2    0    0  0.00000000000E+00  0.00000000000E+00  0.48514845580E+03  0.34308127695E+04  0.33963373265E+04 0.  0.
        1    1    3    3  502    0  0.23663984910E+03  0.13370408536E+04  0.12727795247E+04  0.18610868816E+04  0.50400001928E-02 0. -1.
       -1    1    3    3    0  502 -0.23663984910E+03 -0.13370408536E+04 -0.78763106887E+03  0.15697258879E+04  0.50400001928E-02 0.  1.
</event>
<event>
 5   0  0.1986613E-07  0.3405087E+04  0.7818609E-02  0.8136659E-01
        2   -1    0    0  501    0  0.00000000000E+00  0.00000000000E+00  0.10932033173E+04  0.10932033173E+04  0.25500000920E-02 0. -1.
       -2   -1    0    0    0  501  0.00000000000E+00  0.00000000000E+00 -0.26515233666E+04  0.26515233666E+04  0.25500000920E-02 0.  1.
    10030    2    1    2    0    0  0.00000000000E+00  0.00000000000E+00 -0.15583200493E+04  0.37447266839E+04  0.34050868654E+04 0.  0.
        5    1    3    3  502    0 -0.46444611219E+03  0.13307684891E+04  0.27106870263E+03  0.14353241078E+04  0.46999998093E+01 0. -1.
       -5    1    3    3    0  502  0.46444611219E+03 -0.13307684891E+04 -0.18293887519E+04  0.23094025761E+04  0.46999998093E+01 0.  1.
</event>
<event>
 5   0  0.6367111E-08  0.3415638E+04  0.7818609E-02  0.8134079E-01
        1   -1    0    0  501    0  0.00000000000E+00  0.00000000000E+00  0.21175525516E+04  0.21175525516E+04  0.50400001928E-02 0. -1.
       -1   -1    0    0    0  501  0.00000000000E+00  0.00000000000E+00 -0.13773660615E+04  0.13773660616E+04  0.50400001928E-02 0.  1.
    10030    2    1    2    0    0  0.00000000000E+00  0.00000000000E+00  0.74018649002E+03  0.34949186131E+04  0.34156375792E+04 0.  0.
        3    1    3    3  502    0 -0.54594012167E+03 -0.77413626601E+03  0.18241002726E+04  0.20554024885E+04  0.10100000352E+00 0. -1.
       -3    1    3    3    0  502  0.54594012167E+03  0.77413626601E+03 -0.10839137826E+04  0.14395161247E+04  0.10100000352E+00 0.  1.
</event>
<event>
 5   0  0.1928004E-07  0.3372241E+04  0.7818609E-02  0.8144753E-01
        2   -1    0    0  501    0  0.00000000000E+00  0.00000000000E+00  0.26889299374E+04  0.26889299374E+04  0.25500000920E-02 0. -1.
       -2   -1    0    0    0  501  0.00000000000E+00  0.00000000000E+00 -0.10572988663E+04  0.10572988663E+04  0.25500000920E-02 0.  1.
    10030    2    1    2    0    0  0.00000000000E+00  0.00000000000E+00  0.16316310711E+04  0.37462288036E+04  0.33722411386E+04 0.  0.
        2    1    3    3  502    0 -0.92691170172E+03 -0.68231184743E+03  0.21846556685E+04  0.24692985137E+04  0.25500000920E-02 0. -1.
       -2    1    3    3    0  502  0.92691170172E+03  0.68231184743E+03 -0.55302459740E+03  0.12769302899E+04  0.25500000920E-02 0.  1.
</event>
<event>
 5   0  0.6311750E-08  0.3402013E+04  0.7818609E-02  0.8137412E-01
        3   -1    0    0  501    0  0.00000000000E+00  0.00000000000E+00  0.18228311029E+04  0.18228311057E+04  0.10100000352E+00 0.  1.
       -3   -1    0    0    0  501  0.00000000000E+00  0.00000000000E+00 -0.15873240317E+04  0.15873240349E+04  0.10100000352E+00 0. -1.
    10030    2    1    2    0    0  0.00000000000E+00  0.00000000000E+00  0.23550707123E+03  0.34101551406E+04  0.34020133013E+04 0.  0.
        5    1    3    3  502    0 -0.12573415901E+04  0.11057177689E+04  0.41827410047E+03  0.17258316753E+04  0.46999998093E+01 0.  1.
       -5    1    3    3    0  502  0.12573415901E+04 -0.11057177689E+04 -0.18276702924E+03  0.16843234652E+04  0.46999998093E+01 0. -1.
</event>
<event>
 5   0  0.1986613E-07  0.3395751E+04  0.7818609E-02  0.8138950E-01
        2   -1    0    0  501    0  0.00000000000E+00  0.00000000000E+00  0.24141146262E+04  0.24141146262E+04  0.25500000920E-02 0. -1.
       -2   -1    0    0    0  501  0.00000000000E+00  0.00000000000E+00 -0.11941359970E+04  0.11941359970E+04  0.25500000920E-02 0.  1.
    10030    2    1    2    0    0  0.00000000000E+00  0.00000000000E+00  0.12199786292E+04  0.36082506233E+04  0.33957509780E+04 0.  0.
        5    1    3    3  502    0  0.96550846711E+03 -0.12032070953E+04  0.13634801999E+04  0.20588866554E+04  0.46999998093E+01 0.  1.
       -5    1    3    3    0  502 -0.96550846711E+03  0.12032070953E+04 -0.14350157067E+03  0.15493639679E+04  0.46999998093E+01 0. -1.
</event>
<event>
 5   0  0.6584420E-08  0.3391685E+04  0.7818609E-02  0.8139950E-01
        1   -1    0    0  501    0  0.00000000000E+00  0.00000000000E+00  0.14544701840E+04  0.14544701840E+04  0.50400001928E-02 0.  1.
       -1   -1    0    0    0  501  0.00000000000E+00  0.00000000000E+00 -0.19772712942E+04  0.19772712942E+04  0.50400001928E-02 0. -1.
    10030    2    1    2    0    0  0.00000000000E+00  0.00000000000E+00 -0.52280111026E+03  0.34317414782E+04  0.33916852113E+04 0.  0.
        1    1    3    3  502    0 -0.44724764652E+03  0.15048996203E+04  0.38736530249E+03  0.16170359309E+04  0.50400001928E-02 0.  1.
       -1    1    3    3    0  502  0.44724764652E+03 -0.15048996203E+04 -0.91016641275E+03  0.18147055473E+04  0.50400001928E-02 0. -1.
</event>
<event>
 5   0  0.6311750E-08  0.3398151E+04  0.7818609E-02  0.8138360E-01
       -1   -1    0    0    0  501  0.00000000000E+00  0.00000000000E+00  0.15413690315E+04  0.15413690315E+04  0.50400001928E-02 0. -1.
        1   -1    0    0  501    0  0.00000000000E+00  0.00000000000E+00 -0.18729174663E+04  0.18729174663E+04  0.50400001928E-02 0.  1.
    10030    2    1    2    0    0  0.00000000000E+00  0.00000000000E+00 -0.33154843477E+03  0.34142864978E+04  0.33981506624E+04 0.  0.
        4    1    3    3  502    0  0.13899104489E+04  0.94735137870E+03  0.75218157115E+02  0.16837413919E+04  0.12699999809E+01 0. -1.
       -4    1    3    3    0  502 -0.13899104489E+04 -0.94735137870E+03 -0.40676659188E+03  0.17305451060E+04  0.12699999809E+01 0.  1.
</event>
<event>
 5   0  0.1897313E-07  0.3399158E+04  0.7818609E-02  0.8138113E-01
        2   -1    0    0  501    0  0.00000000000E+00  0.00000000000E+00  0.18047890437E+04  0.18047890437E+04  0.25500000920E-02 0. -1.
       -2   -1    0    0    0  501  0.00000000000E+00  0.00000000000E+00 -0.16005020669E+04  0.16005020669E+04  0.25500000920E-02 0.  1.
    10030    2    1    2    0    0  0.00000000000E+00  0.00000000000E+00  0.20428697677E+03  0.34052911106E+04  0.33991578927E+04 0.  0.
        3    1    3    3  502    0 -0.96241746901E+03 -0.57768301471E+03 -0.11763266629E+04  0.16259487933E+04  0.10100000352E+00 0.  1.
       -3    1    3    3    0  502  0.96241746901E+03  0.57768301471E+03  0.13806136397E+04  0.17793423174E+04  0.10100000352E+00 0. -1.
</event>
<event>
 5   0  0.6341535E-08  0.3394217E+04  0.7818609E-02  0.8139327E-01
       -1   -1    0    0    0  501  0.00000000000E+00  0.00000000000E+00  0.11142309714E+04  0.11142309714E+04  0.50400001928E-02 0. -1.
        1   -1    0    0  501    0  0.00000000000E+00  0.00000000000E+00 -0.25849011757E+04  0.25849011757E+04  0.50400001928E-02 0.  1.
    10030    2    1    2    0    0  0.00000000000E+00  0.00000000000E+00 -0.14706702044E+04  0.36991321471E+04  0.33942168157E+04 0.  0.
        5    1    3    3  502    0  0.88617971767E+03 -0.68780727176E+03  0.65255079163E+03  0.12977819388E+04  0.46999998093E+01 0. -1.
       -5    1    3    3    0  502 -0.88617971767E+03  0.68780727176E+03 -0.21232209960E+04  0.24013502083E+04  0.46999998093E+01 0.  1.
</event>
<event>
 5   0  0.1970449E-07  0.3478173E+04  0.7818609E-02  0.8118982E-01
        2   -1    0    0  501    0  0.00000000000E+00  0.00000000000E+00  0.22652496394E+04  0.22652496394E+04  0.25500000920E-02 0.  1.
       -2   -1    0    0    0  501  0.00000000000E+00  0.00000000000E+00 -0.13351382730E+04  0.13351382730E+04  0.25500000920E-02 0. -1.
    10030    2    1    2    0    0  0.00000000000E+00  0.00000000000E+00  0.93011136643E+03  0.36003879124E+04  0.34781727913E+04 0.  0.
        1    1    3    3  502    0  0.14918529382E+04  0.10205000258E+03  0.13841636255E+04  0.20376330225E+04  0.50400001928E-02 0.  1.
       -1    1    3    3    0  502 -0.14918529382E+04 -0.10205000258E+03 -0.45405225902E+03  0.15627548900E+04  0.50400001928E-02 0. -1.
</event>
<event>
 5   0  0.6584420E-08  0.3390829E+04  0.7818609E-02  0.8140161E-01
       -1   -1    0    0    0  501  0.00000000000E+00  0.00000000000E+00  0.12805921988E+04  0.12805921988E+04  0.50400001928E-02 0.  1.
        1   -1    0    0  501    0  0.00000000000E+00  0.00000000000E+00 -0.22446101588E+04  0.22446101588E+04  0.50400001928E-02 0. -1.
    10030    2    1    2    0    0  0.00000000000E+00  0.00000000000E+00 -0.96401795993E+03  0.35252023576E+04  0.33908289598E+04 0.  0.
        1    1    3    3  502    0  0.92898923558E+03 -0.59882466700E+03 -0.18185759413E+04  0.21281048931E+04  0.50400001928E-02 0. -1.
       -1    1    3    3    0  502 -0.92898923558E+03  0.59882466700E+03  0.85455798141E+03  0.13970974645E+04  0.50400001928E-02 0.  1.
</event>
<event>
 5   0  0.1928004E-07  0.3405922E+04  0.7818609E-02  0.8136454E-01
        2   -1    0    0  501    0  0.00000000000E+00  0.00000000000E+00  0.16202297572E+04  0.16202297572E+04  0.25500000920E-02 0.  1.
       -2   -1    0    0    0  501  0.00000000000E+00  0.00000000000E+00 -0.17899167917E+04  0.17899167917E+04  0.25500000920E-02 0. -1.
    10030    2    1    2    0    0  0.00000000000E+00  0.00000000000E+00 -0.16968703448E+03  0.34101465489E+04  0.34059221651E+04 0.  0.
        2    1    3    3  502    0 -0.91128206450E+03  0.11921674335E+04 -0.89106162038E+03  0.17451902480E+04  0.25500000920E-02 0. -1.
       -2    1    3    3    0  502  0.91128206450E+03 -0.11921674335E+04  0.72137458590E+03  0.16649563008E+04  0.25500000920E-02 0.  1.
</event>
<event>
 5   0  0.6367111E-08  0.3398181E+04  0.7818609E-02  0.8138353E-01
       -1   -1    0    0    0  501  0.00000000000E+00  0.00000000000E+00  0.21305615181E+04  0.21305615181E+04  0.50400001928E-02 0. -1.
        1   -1    0    0  501    0  0.00000000000E+00  0.00000000000E+00 -0.13549990428E+04  0.13549990428E+04  0.50400001928E-02 0.  1.
    10030    2    1    2    0    0  0.00000000000E+00  0.00000000000E+00  0.77556247538E+03  0.34855605609E+04  0.33981811709E+04 0.  0.
        3    1    3    3  502    0  0.12942100108E+04  0.86587256486E+03 -0.30954857874E+03  0.15876193446E+04  0.10100000352E+00 0.  1.
       -3    1    3    3    0  502 -0.12942100108E+04 -0.86587256486E+03  0.10851110541E+04  0.18979412163E+04  0.10100000352E+00 0. -1.
</event>
<event>
 5   0  0.1963852E-07  0.3419922E+04  0.7818609E-02  0.8133034E-01
        2   -1    0    0  501    0  0.00000000000E+00  0.00000000000E+00  0.22454651150E+04  0.22454651150E+04  0.25500000920E-02 0. -1.
       -2   -1    0    0    0  501  0.00000000000E+00  0.00000000000E+00 -0.13021651179E+04  0.13021651179E+04  0.25500000920E-02 0.  1.
    10030    2    1    2    0    0  0.00000000000E+00  0.00000000000E+00  0.94329999706E+03  0.35476302330E+04  0.34199218391E+04 0.  0.
        4    1    3    3  502    0 -0.11893753501E+04  0.11289129352E+04  0.97442047979E+03  0.19074996784E+04  0.12699999809E+01 0. -1.
       -4    1    3    3    0  502  0.11893753501E+04 -0.11289129352E+04 -0.31120482730E+02  0.16401305546E+04  0.12699999809E+01 0.  1.
</event>
<event>
 5   0  0.1970449E-07  0.3398394E+04  0.7818609E-02  0.8138301E-01
       -2   -1    0    0    0  501  0.00000000000E+00  0.00000000000E+00  0.13262150557E+04  0.13262150557E+04  0.25500000920E-02 0.  1.
        2   -1    0    0  501    0  0.00000000000E+00  0.00000000000E+00 -0.21770751420E+04  0.21770751420E+04  0.25500000920E-02 0. -1.
    10030    2    1    2    0    0  0.00000000000E+00  0.00000000000E+00 -0.85086008626E+03  0.35032901977E+04  0.33983936386E+04 0.  0.
        1    1    3    3  502    0 -0.87491630639E+03 -0.12354603269E+04  0.37002831255E+03  0.15584484960E+04  0.50400001928E-02 0.  1.
       -1    1    3    3    0  502  0.87491630639E+03  0.12354603269E+04 -0.12208883988E+04  0.19448417017E+04  0.50400001928E-02 0. -1.
</event>
<event>
 5   0  0.6367111E-08  0.3396557E+04  0.7818609E-02  0.8138752E-01
        1   -1    0    0  501    0  0.00000000000E+00  0.00000000000E+00  0.88358533771E+03  0.88358533773E+03  0.50400001928E-02 0. -1.
       -1   -1    0    0    0  501  0.00000000000E+00  0.00000000000E+00 -0.32641448410E+04  0.32641448410E+04  0.50400001928E-02 0.  1.
    10030    2    1    2    0    0  0.00000000000E+00  0.00000000000E+00 -0.23805595033E+04  0.41477301787E+04  0.33965573875E+04 0.  0.
        3    1    3    3  502    0 -0.16044003534E+04 -0.42559186652E+03 -0.16287441649E+04  0.23255185434E+04  0.10100000352E+00 0.  1.
       -3    1    3    3    0  502  0.16044003534E+04  0.42559186652E+03 -0.75181533832E+03  0.18222116353E+04  0.10100000352E+00 0. -1.
</event>
<event>
 5   0  0.6341535E-08  0.3386432E+04  0.7818609E-02  0.8141244E-01
        1   -1    0    0  501    0  0.00000000000E+00  0.00000000000E+00  0.22248350414E+04  0.22248350414E+04  0.50400001928E-02 0. -1.
       -1   -1    0    0    0  501  0.00000000000E+00  0.00000000000E+00 -0.12886257419E+04  0.12886257419E+04  0.50400001928E-02 0.  1.
    10030    2    1    2    0    0  0.00000000000E+00  0.00000000000E+00  0.93620929956E+03  0.35134607833E+04  0.33864315767E+04 0.  0.
        5    1    3    3  502    0 -0.13121735857E+04  0.61906130162E+03  0.13737284651E+04  0.19980461456E+04  0.46999998093E+01 0. -1.
       -5    1    3    3    0  502  0.13121735857E+04 -0.61906130162E+03 -0.43751916555E+03  0.15154146377E+04  0.46999998093E+01 0.  1.
</event>
<event>
 5   0  0.6367111E-08  0.3406662E+04  0.7818609E-02  0.8136273E-01
       -1   -1    0    0    0  501  0.00000000000E+00  0.00000000000E+00  0.12671274514E+04  0.12671274514E+04  0.50400001928E-02 0.  1.
        1   -1    0    0  501    0  0.00000000000E+00  0.00000000000E+00 -0.22896962092E+04  0.22896962092E+04  0.50400001928E-02 0. -1.
    10030    2    1    2    0    0  0.00000000000E+00  0.00000000000E+00 -0.10225687578E+04  0.35568236606E+04  0.34066622504E+04 0.  0.
        3    1    3    3  502    0 -0.14000446665E+04  0.22774249327E+03 -0.14959038937E+04  0.20614849456E+04  0.10100000352E+00 0. -1.
       -3    1    3    3    0  502  0.14000446665E+04 -0.22774249327E+03  0.47333513591E+03  0.14953387150E+04  0.10100000352E+00 0.  1.
</event>
<event>
 5   0  0.6341535E-08  0.3400831E+04  0.7818609E-02  0.8137702E-01
       -1   -1    0    0    0  501  0.00000000000E+00  0.00000000000E+00  0.14909020563E+04  0.14909020563E+04  0.50400001928E-02 0.  1.
        1   -1    0    0  501    0  0.00000000000E+00  0.00000000000E+00 -0.19393718304E+04  0.19393718305E+04  0.50400001928E-02 0. -1.
    10030    2    1    2    0    0  0.00000000000E+00  0.00000000000E+00 -0.44846977415E+03  0.34302738868E+04  0.34008313395E+04 0.  0.
        5    1    3    3  502    0 -0.79747439047E+02  0.21699414934E+03  0.14749698460E+04  0.14929850138E+04  0.46999998093E+01 0.  1.
       -5    1    3    3    0  502  0.79747439047E+02 -0.21699414934E+03 -0.19234396201E+04  0.19372888729E+04  0.46999998093E+01 0. -1.
</event>
<event>
 5   0  0.1928004E-07  0.3399712E+04  0.7818609E-02  0.8137977E-01
        2   -1    0    0  501    0  0.00000000000E+00  0.00000000000E+00  0.28078836593E+04  0.28078836593E+04  0.25500000920E-02 0. -1.
       -2   -1    0    0    0  501  0.00000000000E+00  0.00000000000E+00 -0.10290707056E+04  0.10290707056E+04  0.25500000920E-02 0.  1.
    10030    2    1    2    0    0  0.00000000000E+00  0.00000000000E+00  0.17788129537E+04  0.38369543649E+04  0.33997122340E+04 0.  0.
        2    1    3    3  502    0  0.33650254807E+01 -0.55130269163E+03 -0.92536603434E+03  0.10771482158E+04  0.25500000920E-02 0.  1.
       -2    1    3    3    0  502 -0.33650254807E+01  0.55130269163E+03  0.27041789881E+04  0.27598061491E+04  0.25500000920E-02 0. -1.
</event>
<event>
 5   0  0.6367111E-08  0.3400292E+04  0.7818609E-02  0.8137835E-01
       -1   -1    0    0    0  501  0.00000000000E+00  0.00000000000E+00  0.12303302939E+04  0.12303302939E+04  0.50400001928E-02 0.  1.
        1   -1    0    0  501    0  0.00000000000E+00  0.00000000000E+00 -0.23493661559E+04  0.23493661559E+04  0.50400001928E-02 0. -1.
    10030    2    1    2    0    0  0.00000000000E+00  0.00000000000E+00 -0.11190358619E+04  0.35796964498E+04  0.34002919599E+04 0.  0.
        3    1    3    3  502    0  0.44980935254E+02 -0.14245543566E+04  0.41627212346E+03  0.14848100520E+04  0.10100000352E+00 0.  1.
       -3    1    3    3    0  502 -0.44980935254E+02  0.14245543566E+04 -0.15353079854E+04  0.20948863978E+04  0.10100000352E+00 0. -1.
</event>
<event>
 5   0  0.1970449E-07  0.3407055E+04  0.7818609E-02  0.8136177E-01
       -2   -1    0    0    0  501  0.00000000000E+00  0.00000000000E+00  0.11169778512E+04  0.11169778512E+04  0.25500000920E-02 0.  1.
        2   -1    0    0  501    0  0.00000000000E+00  0.00000000000E+00 -0.25980874512E+04  0.25980874512E+04  0.25500000920E-02 0. -1.
    10030    2    1    2    0    0  0.00000000000E+00  0.00000000000E+00 -0.14811096000E+04  0.37150653024E+04  0.34070551146E+04 0.  0.
        1    1    3    3  502    0 -0.48428109000E+03  0.13973854160E+04  0.18133099574E+03  0.14899983574E+04  0.50400001928E-02 0.  1.
       -1    1    3    3    0  502  0.48428109000E+03 -0.13973854160E+04 -0.16624405958E+04  0.22250669450E+04  0.50400001928E-02 0. -1.
</event>
<event>
 5   0  0.1963852E-07  0.3401303E+04  0.7818609E-02  0.8137587E-01
       -2   -1    0    0    0  501  0.00000000000E+00  0.00000000000E+00  0.11166207508E+04  0.11166207508E+04  0.25500000920E-02 0. -1.
        2   -1    0    0  501    0  0.00000000000E+00  0.00000000000E+00 -0.25901495837E+04  0.25901495837E+04  0.25500000920E-02 0.  1.
    10030    2    1    2    0    0  0.00000000000E+00  0.00000000000E+00 -0.14735288329E+04  0.37067703346E+04  0.34013025581E+04 0.  0.
        4    1    3    3  502    0  0.16397896713E+04 -0.38787767500E+03 -0.98731126533E+03  0.19529834624E+04  0.12699999809E+01 0.  1.
       -4    1    3    3    0  502 -0.16397896713E+04  0.38787767500E+03 -0.48621756758E+03  0.17537868721E+04  0.12699999809E+01 0. -1.
</event>
<event>
 5   0  0.6341535E-08  0.3401197E+04  0.7818609E-02  0.8137613E-01
       -1   -1    0    0    0  501  0.00000000000E+00  0.00000000000E+00  0.12102433420E+04  0.12102433420E+04  0.50400001928E-02 0.  1.
        1   -1    0    0  501    0  0.00000000000E+00  0.00000000000E+00 -0.23896306660E+04  0.23896306660E+04  0.50400001928E-02 0. -1.
    10030    2    1    2    0    0  0.00000000000E+00  0.00000000000E+00 -0.11793873240E+04  0.35998740080E+04  0.34011966150E+04 0.  0.
        5    1    3    3  502    0  0.16511294988E+04 -0.34593657986E+03 -0.81697379791E+03  0.18743983076E+04  0.46999998093E+01 0. -1.
       -5    1    3    3    0  502 -0.16511294988E+04  0.34593657986E+03 -0.36241352605E+03  0.17254757005E+04  0.46999998093E+01 0.  1.
</event>
<event>
 5   0  0.1897313E-07  0.3398890E+04  0.7818609E-02  0.8138179E-01
        2   -1    0    0  501    0  0.00000000000E+00  0.00000000000E+00  0.13319706622E+04  0.13319706622E+04  0.25500000920E-02 0.  1.
       -2   -1    0    0    0  501  0.00000000000E+00  0.00000000000E+00 -0.21683003916E+04  0.21683003916E+04  0.25500000920E-02 0. -1.
    10030    2    1    2    0    0  0.00000000000E+00  0.00000000000E+00 -0.83632972944E+03  0.35002710538E+04  0.33988895295E+04 0.  0.
        3    1    3    3  502    0 -0.26878398537E+02  0.24203095916E+03  0.13139097557E+04  0.13362860060E+04  0.10100000352E+00 0.  1.
       -3    1    3    3    0  502  0.26878398537E+02 -0.24203095916E+03 -0.21502394851E+04  0.21639850478E+04  0.10100000352E+00 0. -1.
</event>
<event>
 5   0  0.1897313E-07  0.3394639E+04  0.7818609E-02  0.8139223E-01
       -2   -1    0    0    0  501  0.00000000000E+00  0.00000000000E+00  0.13504422771E+04  0.13504422771E+04  0.25500000920E-02 0.  1.
        2   -1    0    0  501    0  0.00000000000E+00  0.00000000000E+00 -0.21332963329E+04  0.21332963329E+04  0.25500000920E-02 0. -1.
    10030    2    1    2    0    0  0.00000000000E+00  0.00000000000E+00 -0.78285405582E+03  0.34837386099E+04  0.33946390426E+04 0.  0.
        3    1    3    3  502    0 -0.77748803044E+03 -0.11372119331E+04 -0.14089938548E+04  0.19705335094E+04  0.10100000352E+00 0. -1.
       -3    1    3    3    0  502  0.77748803044E+03  0.11372119331E+04  0.62613979900E+03  0.15132051006E+04  0.10100000352E+00 0.  1.
</event>
<event>
 5   0  0.6788600E-08  0.3382383E+04  0.7818609E-02  0.8142244E-01
       -1   -1    0    0    0  501  0.00000000000E+00  0.00000000000E+00  0.16025844712E+04  0.16025844712E+04  0.50400001928E-02 0. -1.
        1   -1    0    0  501    0  0.00000000000E+00  0.00000000000E+00 -0.17846970992E+04  0.17846970992E+04  0.50400001928E-02 0.  1.
    10030    2    1    2    0    0  0.00000000000E+00  0.00000000000E+00 -0.18211262805E+03  0.33872815704E+04  0.33823825076E+04 0.  0.
        2    1    3    3  502    0  0.36690920194E+03 -0.64076098211E+03 -0.16147497326E+04  0.17755601081E+04  0.25500000920E-02 0.  1.
       -2    1    3    3    0  502 -0.36690920194E+03  0.64076098211E+03  0.14326371045E+04  0.16117214623E+04  0.25500000920E-02 0. -1.
</event>
<event>
 5   0  0.6341535E-08  0.3400658E+04  0.7818609E-02  0.8137745E-01
       -1   -1    0    0    0  501  0.00000000000E+00  0.00000000000E+00  0.14544907526E+04  0.14544907527E+04  0.50400001928E-02 0. -1.
        1   -1    0    0  501    0  0.00000000000E+00  0.00000000000E+00 -0.19877186687E+04  0.19877186687E+04  0.50400001928E-02 0.  1.
    10030    2    1    2    0    0  0.00000000000E+00  0.00000000000E+00 -0.53322791606E+03  0.34422094214E+04  0.34006578320E+04 0.  0.
        5    1    3    3  502    0 -0.10629067476E+03 -0.10223331282E+04  0.11044225654E+04  0.15087193329E+04  0.46999998093E+01 0. -1.
       -5    1    3    3    0  502  0.10629067476E+03  0.10223331282E+04 -0.16376504815E+04  0.19334900884E+04  0.46999998093E+01 0.  1.
</event>
<event>
 5   0  0.6584420E-08  0.3393853E+04  0.7818609E-02  0.8139417E-01
        1   -1    0    0  501    0  0.00000000000E+00  0.00000000000E+00  0.15263054108E+04  0.15263054108E+04  0.50400001928E-02 0.  1.
       -1   -1    0    0    0  501  0.00000000000E+00  0.00000000000E+00 -0.18866210458E+04  0.18866210458E+04  0.50400001928E-02 0. -1.
    10030    2    1    2    0    0  0.00000000000E+00  0.00000000000E+00 -0.36031563502E+03  0.34129264566E+04  0.33938532145E+04 0.  0.
        1    1    3    3  502    0 -0.13781166121E+04  0.16354507461E+03  0.80185851110E+03  0.16027880271E+04  0.50400001928E-02 0.  1.
       -1    1    3    3    0  502  0.13781166121E+04 -0.16354507461E+03 -0.11621741461E+04  0.18101384295E+04  0.50400001928E-02 0. -1.
</event>
<event>
 5   0  0.1986613E-07  0.3383958E+04  0.7818609E-02  0.8141855E-01
       -2   -1    0    0    0  501  0.00000000000E+00  0.00000000000E+00  0.93009577656E+03  0.93009577657E+03  0.25500000920E-02 0.  1.
        2   -1    0    0  501    0  0.00000000000E+00  0.00000000000E+00 -0.30779542239E+04  0.30779542239E+04  0.25500000920E-02 0. -1.
    10030    2    1    2    0    0  0.00000000000E+00  0.00000000000E+00 -0.21478584473E+04  0.40080500005E+04  0.33839575790E+04 0.  0.
        5    1    3    3  502    0 -0.11193214197E+04 -0.11304643218E+03  0.42291174713E+03  0.12018886688E+04  0.46999998093E+01 0.  1.
       -5    1    3    3    0  502  0.11193214197E+04  0.11304643218E+03 -0.25707701945E+04  0.28061613316E+04  0.46999998093E+01 0. -1.
</event>
<event>
 5   0  0.1897313E-07  0.3400639E+04  0.7818609E-02  0.8137749E-01
       -2   -1    0    0    0  501  0.00000000000E+00  0.00000000000E+00  0.14308649874E+04  0.14308649874E+04  0.25500000920E-02 0.  1.
        2   -1    0    0  501    0  0.00000000000E+00  0.00000000000E+00 -0.20205168708E+04  0.20205168708E+04  0.25500000920E-02 0. -1.
    10030    2    1    2    0    0  0.00000000000E+00  0.00000000000E+00 -0.58965188337E+03  0.34513818583E+04  0.34006392617E+04 0.  0.
        3    1    3    3  502    0  0.84103164879E+03 -0.14594382631E+04 -0.59432939396E+02  0.16854751742E+04  0.10100000352E+00 0. -1.
       -3    1    3    3    0  502 -0.84103164879E+03  0.14594382631E+04 -0.53021894398E+03  0.17659066841E+04  0.10100000352E+00 0.  1.
</event>
<event>
 5   0  0.1963852E-07  0.3370302E+04  0.7818609E-02  0.8145234E-01
        2   -1    0    0  501    0  0.00000000000E+00  0.00000000000E+00  0.16466156087E+04  0.16466156087E+04  0.25500000920E-02 0. -1.
       -2   -1    0    0    0  501  0.00000000000E+00  0.00000000000E+00 -0.17245877340E+04  0.17245877340E+04  0.25500000920E-02 0.  1.
    10030    2    1    2    0    0  0.00000000000E+00  0.00000000000E+00 -0.77972125237E+02  0.33712033427E+04  0.33703015185E+04 0.  0.
        4    1    3    3  502    0 -0.12915662336E+04 -0.10779944873E+04  0.58590118600E+02  0.16833448445E+04  0.12699999809E+01 0. -1.
       -4    1    3    3    0  502  0.12915662336E+04  0.10779944873E+04 -0.13656224384E+03  0.16878584982E+04  0.12699999809E+01 0.  1.
</event>
<event>
 5   0  0.1897313E-07  0.3385213E+04  0.7818609E-02  0.8141545E-01
       -2   -1    0    0    0  501  0.00000000000E+00  0.00000000000E+00  0.12061908506E+04  0.12061908506E+04  0.25500000920E-02 0.  1.
        2   -1    0    0  501    0  0.00000000000E+00  0.00000000000E+00 -0.23751768379E+04  0.23751768379E+04  0.25500000920E-02 0. -1.
    10030    2    1    2    0    0  0.00000000000E+00  0.00000000000E+00 -0.11689859872E+04  0.35813676885E+04  0.33852128858E+04 0.  0.
        3    1    3    3  502    0 -0.75875033879E+03  0.64436485806E+03  0.86377420261E+03  0.13179582809E+04  0.10100000352E+00 0.  1.
       -3    1    3    3    0  502  0.75875033879E+03 -0.64436485806E+03 -0.20327601898E+04  0.22634094076E+04  0.10100000352E+00 0. -1.
</event>
<event>
 5   0  0.6341535E-08  0.3395398E+04  0.7818609E-02  0.8139037E-01
       -1   -1    0    0    0  501  0.00000000000E+00  0.00000000000E+00  0.30404439635E+04  0.30404439635E+04  0.50400001928E-02 0. -1.
        1   -1    0    0  501    0  0.00000000000E+00  0.00000000000E+00 -0.94794765910E+03  0.94794765911E+03  0.50400001928E-02 0.  1.
    10030    2    1    2    0    0  0.00000000000E+00  0.00000000000E+00  0.20924963044E+04  0.39883916226E+04  0.33953979077E+04 0.  0.
        5    1    3    3  502    0 -0.35593677315E+02 -0.98616575827E+02  0.30366299164E+04  0.30384429365E+04  0.46999998093E+01 0. -1.
       -5    1    3    3    0  502  0.35593677315E+02  0.98616575827E+02 -0.94413361204E+03  0.94994868613E+03  0.46999998093E+01 0.  1.
</event>
<event>
 5   0  0.6311750E-08  0.3400951E+04  0.7818609E-02  0.8137673E-01
        1   -1    0    0  501    0  0.00000000000E+00  0.00000000000E+00  0.16421055686E+04  0.16421055686E+04  0.50400001928E-02 0. -1.
       -1   -1    0    0    0  501  0.00000000000E+00  0.00000000000E+00 -0.17609202853E+04  0.17609202853E+04  0.50400001928E-02 0.  1.
    10030    2    1    2    0    0  0.00000000000E+00  0.00000000000E+00 -0.11881471670E+03  0.34030258540E+04  0.34009510473E+04 0.  0.
        4    1    3    3  502    0  0.93923825356E+03 -0.89496225557E+03  0.10405764714E+04  0.16631076158E+04  0.12699999809E+01 0. -1.
       -4    1    3    3    0  502 -0.93923825356E+03  0.89496225557E+03 -0.11593911881E+04  0.17399182382E+04  0.12699999809E+01 0.  1.
</event>
<event>
 5   0  0.6341535E-08  0.3400998E+04  0.7818609E-02  0.8137661E-01
       -1   -1    0    0    0  501  0.00000000000E+00  0.00000000000E+00  0.26405560594E+04  0.26405560594E+04  0.50400001928E-02 0. -1.
        1   -1    0    0  501    0  0.00000000000E+00  0.00000000000E+00 -0.10951090004E+04  0.10951090004E+04  0.50400001928E-02 0.  1.
    10030    2    1    2    0    0  0.00000000000E+00  0.00000000000E+00  0.15454470590E+04  0.37356650598E+04  0.34009979163E+04 0.  0.
        5    1    3    3  502    0  0.15467818268E+04 -0.80305845998E+02  0.17328472561E+01  0.15488731844E+04  0.46999998093E+01 0.  1.
       -5    1    3    3    0  502 -0.15467818268E+04  0.80305845998E+02  0.15437142117E+04  0.21867918753E+04  0.46999998093E+01 0. -1.
</event>
<event>
 5   0  0.6311750E-08  0.3406188E+04  0.7818609E-02  0.8136389E-01
       -1   -1    0    0    0  501  0.00000000000E+00  0.00000000000E+00  0.13078078305E+04  0.13078078305E+04  0.50400001928E-02 0. -1.
        1   -1    0    0  501    0  0.00000000000E+00  0.00000000000E+00 -0.22178559668E+04  0.22178559668E+04  0.50400001928E-02 0.  1.
    10030    2    1    2    0    0  0.00000000000E+00  0.00000000000E+00 -0.91004813633E+03  0.35256637972E+04  0.34061881335E+04 0.  0.
        4    1    3    3  502    0  0.74204462836E+03 -0.11600570012E+04  0.58220545972E+03  0.14951010958E+04  0.12699999809E+01 0. -1.
       -4    1    3    3    0  502 -0.74204462836E+03  0.11600570012E+04 -0.14922535961E+04  0.20305627014E+04  0.12699999809E+01 0.  1.
</event>
<event>
 5   0  0.1897313E-07  0.3374316E+04  0.7818609E-02  0.8144239E-01
       -2   -1    0    0    0  501  0.00000000000E+00  0.00000000000E+00  0.19308026441E+04  0.19308026441E+04  0.25500000920E-02 0.  1.
        2   -1    0    0  501    0  0.00000000000E+00  0.00000000000E+00 -0.14742580232E+04  0.14742580232E+04  0.25500000920E-02 0. -1.
    10030    2    1    2    0    0  0.00000000000E+00  0.00000000000E+00  0.45654462091E+03  0.34050606673E+04  0.33743155095E+04 0.  0.
        3    1    3    3  502    0  0.40393849879E+03  0.87364715530E+03 -0.11700211681E+04  0.15150495724E+04  0.10100000352E+00 0. -1.
       -3    1    3    3    0  502 -0.40393849879E+03 -0.87364715530E+03  0.16265657890E+04  0.18900110949E+04  0.10100000352E+00 0.  1.
</event>
<event>
 5   0  0.6367111E-08  0.3397538E+04  0.7818609E-02  0.8138511E-01
       -1   -1    0    0    0  501  0.00000000000E+00  0.00000000000E+00  0.15921201349E+04  0.15921201349E+04  0.50400001928E-02 0. -1.
        1   -1    0    0  501    0  0.00000000000E+00  0.00000000000E+00 -0.18125614546E+04  0.18125614546E+04  0.50400001928E-02 0.  1.
    10030    2    1    2    0    0  0.00000000000E+00  0.00000000000E+00 -0.22044131973E+03  0.34046815895E+04  0.33975376893E+04 0.  0.
        3    1    3    3  502    0 -0.14797202090E+04 -0.44912570182E+03  0.59448611372E+03  0.16567134763E+04  0.10100000352E+00 0. -1.
       -3    1    3    3    0  502  0.14797202090E+04  0.44912570182E+03 -0.81492743346E+03  0.17479681132E+04  0.10100000352E+00 0.  1.
</event>
<event>
 5   0  0.1986613E-07  0.3389139E+04  0.7818609E-02  0.8140577E-01
        2   -1    0    0  501    0  0.00000000000E+00  0.00000000000E+00  0.16765692261E+04  0.16765692261E+04  0.25500000920E-02 0.  1.
       -2   -1    0    0    0  501  0.00000000000E+00  0.00000000000E+00 -0.17127628363E+04  0.17127628363E+04  0.25500000920E-02 0. -1.
    10030    2    1    2    0    0  0.00000000000E+00  0.00000000000E+00 -0.36193610143E+02  0.33893320624E+04  0.33891388068E+04 0.  0.
        5    1    3    3  502    0 -0.56285992052E+03  0.15969241395E+04 -0.85668220896E+02  0.16953876051E+04  0.46999998093E+01 0.  1.
       -5    1    3    3    0  502  0.56285992052E+03 -0.15969241395E+04  0.49474610753E+02  0.16939444573E+04  0.46999998093E+01 0. -1.
</event>
<event>
 5   0  0.1897313E-07  0.3399269E+04  0.7818609E-02  0.8138086E-01
        2   -1    0    0  501    0  0.00000000000E+00  0.00000000000E+00  0.20129518054E+04  0.20129518054E+04  0.25500000920E-02 0. -1.
       -2   -1    0    0    0  501  0.00000000000E+00  0.00000000000E+00 -0.14350851588E+04  0.14350851588E+04  0.25500000920E-02 0.  1.
    10030    2    1    2    0    0  0.00000000000E+00  0.00000000000E+00  0.57786664656E+03  0.34480369642E+04  0.33992688986E+04 0.  0.
        3    1    3    3  502    0  0.16640836674E+04 -0.38834149167E+02  0.63748311883E+03  0.17824329665E+04  0.10100000352E+00 0. -1.
       -3    1    3    3    0  502 -0.16640836674E+04  0.38834149167E+02 -0.59616472268E+02  0.16656039977E+04  0.10100000352E+00 0.  1.
</event>
<event>
 5   0  0.6367111E-08  0.3399453E+04  0.7818609E-02  0.8138040E-01
        1   -1    0    0  501    0  0.00000000000E+00  0.00000000000E+00  0.21102341433E+04  0.21102341433E+04  0.50400001928E-02 0. -1.
       -1   -1    0    0    0  501  0.00000000000E+00  0.00000000000E+00 -0.13690760481E+04  0.13690760481E+04  0.50400001928E-02 0.  1.
    10030    2    1    2    0    0  0.00000000000E+00  0.00000000000E+00  0.74115809525E+03  0.34793101914E+04  0.33994534981E+04 0.  0.
        3    1    3    3  502    0  0.13330116737E+04  0.48492980221E+03 -0.58789939516E+03  0.15354812745E+04  0.10100000352E+00 0.  1.
       -3    1    3    3    0  502 -0.13330116737E+04 -0.48492980221E+03  0.13290574904E+04  0.19438289169E+04  0.10100000352E+00 0. -1.
</event>
<event>
 5   0  0.1963852E-07  0.3387314E+04  0.7818609E-02  0.8141027E-01
       -2   -1    0    0    0  501  0.00000000000E+00  0.00000000000E+00  0.12576141671E+04  0.12576141671E+04  0.25500000920E-02 0. -1.
        2   -1    0    0  501    0  0.00000000000E+00  0.00000000000E+00 -0.22808850172E+04  0.22808850172E+04  0.25500000920E-02 0.  1.
    10030    2    1    2    0    0  0.00000000000E+00  0.00000000000E+00 -0.10232708501E+04  0.35384991843E+04  0.33873135734E+04 0.  0.
        4    1    3    3  502    0  0.81291033307E+03  0.92317897029E+03 -0.17278093511E+04  0.21209453994E+04  0.12699999809E+01 0.  1.
       -4    1    3    3    0  502 -0.81291033307E+03 -0.92317897029E+03  0.70453850099E+03  0.14175537849E+04  0.12699999809E+01 0. -1.
</event>
<event>
 5   0  0.1986613E-07  0.3398365E+04  0.7818609E-02  0.8138308E-01
       -2   -1    0    0    0  501  0.00000000000E+00  0.00000000000E+00  0.12466655996E+04  0.12466655996E+04  0.25500000920E-02 0. -1.
        2   -1    0    0  501    0  0.00000000000E+00  0.00000000000E+00 -0.23159550919E+04  0.23159550919E+04  0.25500000920E-02 0.  1.
    10030    2    1    2    0    0  0.00000000000E+00  0.00000000000E+00 -0.10692894923E+04  0.35626206915E+04  0.33983652207E+04 0.  0.
        5    1    3    3  502    0 -0.14603072862E+03 -0.15104146234E+04  0.26684878251E+03  0.15407490616E+04  0.46999998093E+01 0. -1.
       -5    1    3    3    0  502  0.14603072862E+03  0.15104146234E+04 -0.13361382748E+04  0.20218716299E+04  0.46999998093E+01 0.  1.
</event>
<event>
 5   0  0.6788600E-08  0.3400344E+04  0.7818609E-02  0.8137822E-01
       -1   -1    0    0    0  501  0.00000000000E+00  0.00000000000E+00  0.14433818288E+04  0.14433818289E+04  0.50400001928E-02 0.  1.
        1   -1    0    0  501    0  0.00000000000E+00  0.00000000000E+00 -0.20026473526E+04  0.20026473526E+04  0.50400001928E-02 0. -1.
    10030    2    1    2    0    0  0.00000000000E+00  0.00000000000E+00 -0.55926552372E+03  0.34460291814E+04  0.34003439816E+04 0.  0.
        2    1    3    3  502    0 -0.10254254795E+04 -0.59799853422E+03 -0.15131486490E+04  0.19232052659E+04  0.25500000920E-02 0. -1.
       -2    1    3    3    0  502  0.10254254795E+04  0.59799853422E+03  0.95388312525E+03  0.15228239155E+04  0.25500000920E-02 0.  1.
</event>
<event>
 5   0  0.6311750E-08  0.3401505E+04  0.7818609E-02  0.8137537E-01
       -1   -1    0    0    0  501  0.00000000000E+00  0.00000000000E+00  0.33055008870E+04  0.33055008870E+04  0.50400001928E-02 0. -1.
        1   -1    0    0  501    0  0.00000000000E+00  0.00000000000E+00 -0.87507448298E+03  0.87507448300E+03  0.50400001928E-02 0.  1.
    10030    2    1    2    0    0  0.00000000000E+00  0.00000000000E+00  0.24304264040E+04  0.41805753700E+04  0.34015052431E+04 0.  0.
        4    1    3    3  502    0  0.11584548694E+04  0.55588174734E+03 -0.15423153991E+03  0.12941449618E+04  0.12699999809E+01 0. -1.
       -4    1    3    3    0  502 -0.11584548694E+04 -0.55588174734E+03  0.25846579439E+04  0.28864304082E+04  0.12699999809E+01 0.  1.
</event>
<event>
 5   0  0.6367111E-08  0.3403436E+04  0.7818609E-02  0.8137063E-01
        1   -1    0    0  501    0  0.00000000000E+00  0.00000000000E+00  0.17393108427E+04  0.17393108427E+04  0.50400001928E-02 0.  1.
       -1   -1    0    0    0  501  0.00000000000E+00  0.00000000000E+00 -0.16649378462E+04  0.16649378462E+04  0.50400001928E-02 0. -1.
    10030    2    1    2    0    0  0.00000000000E+00  0.00000000000E+00  0.74372996527E+02  0.34042486889E+04  0.34034361744E+04 0.  0.
        3    1    3    3  502    0 -0.92168610383E+03 -0.34553824535E+03  0.14256614338E+04  0.17324585095E+04  0.10100000352E+00 0.  1.
       -3    1    3    3    0  502  0.92168610383E+03  0.34553824535E+03 -0.13512884373E+04  0.16717901794E+04  0.10100000352E+00 0. -1.
</event>
<event>
 5   0  0.6341535E-08  0.3414885E+04  0.7818609E-02  0.8134263E-01
        1   -1    0    0  501    0  0.00000000000E+00  0.00000000000E+00  0.25997863552E+04  0.25997863552E+04  0.50400001928E-02 0. -1.
       -1   -1    0    0    0  501  0.00000000000E+00  0.00000000000E+00 -0.11213842300E+04  0.11213842300E+04  0.50400001928E-02 0.  1.
    10030    2    1    2    0    0  0.00000000000E+00  0.00000000000E+00  0.14784021253E+04  0.37211705852E+04  0.34148847243E+04 0.  0.
        5    1    3    3  502    0  0.65302852871E+03  0.75310544046E+03  0.22497992372E+04  0.24607382554E+04  0.46999998093E+01 0. -1.
       -5    1    3    3    0  502 -0.65302852871E+03 -0.75310544046E+03 -0.77139711193E+03  0.12604323298E+04  0.46999998093E+01 0.  1.
</event>
<event>
 5   0  0.1970449E-07  0.3401140E+04  0.7818609E-02  0.8137627E-01
        2   -1    0    0  501    0  0.00000000000E+00  0.00000000000E+00  0.13943704990E+04  0.13943704990E+04  0.25500000920E-02 0. -1.
       -2   -1    0    0    0  501  0.00000000000E+00  0.00000000000E+00 -0.20740098031E+04  0.20740098031E+04  0.25500000920E-02 0.  1.
    10030    2    1    2    0    0  0.00000000000E+00  0.00000000000E+00 -0.67963930407E+03  0.34683803022E+04  0.34011398584E+04 0.  0.
        1    1    3    3  502    0 -0.12229828567E+04  0.77785521460E+03 -0.12468947430E+04  0.19119341785E+04  0.50400001928E-02 0.  1.
       -1    1    3    3    0  502  0.12229828567E+04 -0.77785521460E+03  0.56725543897E+03  0.15564461236E+04  0.50400001928E-02 0. -1.
</event>
<event>
 5   0  0.6584420E-08  0.3384877E+04  0.7818609E-02  0.8141628E-01
        1   -1    0    0  501    0  0.00000000000E+00  0.00000000000E+00  0.13985659233E+04  0.13985659233E+04  0.50400001928E-02 0.  1.
       -1   -1    0    0    0  501  0.00000000000E+00  0.00000000000E+00 -0.20480607864E+04  0.20480607864E+04  0.50400001928E-02 0. -1.
    10030    2    1    2    0    0  0.00000000000E+00  0.00000000000E+00 -0.64949486306E+03  0.34466267097E+04  0.33848769696E+04 0.  0.
        1    1    3    3  502    0 -0.11066095812E+03 -0.92937229267E+03 -0.17605670660E+04  0.19938844249E+04  0.50400001928E-02 0. -1.
       -1    1    3    3    0  502  0.11066095812E+03  0.92937229267E+03  0.11110722029E+04  0.14527422848E+04  0.50400001928E-02 0.  1.
</event>
<event>
 5   0  0.1970449E-07  0.3384040E+04  0.7818609E-02  0.8141834E-01
       -2   -1    0    0    0  501  0.00000000000E+00  0.00000000000E+00  0.11370627014E+04  0.11370627014E+04  0.25500000920E-02 0. -1.
        2   -1    0    0  501    0  0.00000000000E+00  0.00000000000E+00 -0.25178314781E+04  0.25178314781E+04  0.25500000920E-02 0.  1.
    10030    2    1    2    0    0  0.00000000000E+00  0.00000000000E+00 -0.13807687767E+04  0.36548941794E+04  0.33840403438E+04 0.  0.
        1    1    3    3  502    0 -0.12780239389E+04  0.16115474386E+03  0.49451995548E+03  0.13798065176E+04  0.50400001928E-02 0.  1.
       -1    1    3    3    0  502  0.12780239389E+04 -0.16115474386E+03 -0.18752887322E+04  0.22750876618E+04  0.50400001928E-02 0. -1.
</event>
<event>
 5   0  0.6367111E-08  0.3398876E+04  0.7818609E-02  0.8138182E-01
       -1   -1    0    0    0  501  0.00000000000E+00  0.00000000000E+00  0.14422725222E+04  0.14422725222E+04  0.50400001928E-02 0.  1.
        1   -1    0    0  501    0  0.00000000000E+00  0.00000000000E+00 -0.20024578433E+04  0.20024578433E+04  0.50400001928E-02 0. -1.
    10030    2    1    2    0    0  0.00000000000E+00  0.00000000000E+00 -0.56018532116E+03  0.34447303655E+04  0.33988762404E+04 0.  0.
        3    1    3    3  502    0 -0.73163545679E+03  0.87892441813E+03  0.99396317698E+03  0.15151770134E+04  0.10100000352E+00 0.  1.
       -3    1    3    3    0  502  0.73163545679E+03 -0.87892441813E+03 -0.15541484981E+04  0.19295533522E+04  0.10100000352E+00 0. -1.
</event>
<event>
 5   0  0.6788600E-08  0.3401071E+04  0.7818609E-02  0.8137644E-01
        1   -1    0    0  501    0  0.00000000000E+00  0.00000000000E+00  0.22903387635E+04  0.22903387635E+04  0.50400001928E-02 0.  1.
       -1   -1    0    0    0  501  0.00000000000E+00  0.00000000000E+00 -0.12626171529E+04  0.12626171530E+04  0.50400001928E-02 0. -1.
    10030    2    1    2    0    0  0.00000000000E+00  0.00000000000E+00  0.10277216106E+04  0.35529559165E+04  0.34010710130E+04 0.  0.
        2    1    3    3  502    0  0.15785540600E+03  0.16706195047E+04  0.22599516643E+03  0.16932104635E+04  0.25500000920E-02 0.  1.
       -2    1    3    3    0  502 -0.15785540600E+03 -0.16706195047E+04  0.80172644415E+03  0.18597454530E+04  0.25500000920E-02 0. -1.
</event>
<event>
 5   0  0.6341535E-08  0.3393993E+04  0.7818609E-02  0.8139382E-01
        1   -1    0    0  501    0  0.00000000000E+00  0.00000000000E+00  0.14914030918E+04  0.14914030918E+04  0.50400001928E-02 0. -1.
       -1   -1    0    0    0  501  0.00000000000E+00  0.00000000000E+00 -0.19309319337E+04  0.19309319337E+04  0.50400001928E-02 0.  1.
    10030    2    1    2    0    0  0.00000000000E+00  0.00000000000E+00 -0.43952884184E+03  0.34223350255E+04  0.33939934331E+04 0.  0.
        5    1    3    3  502    0  0.60325580837E+03  0.15591711758E+04  0.73946881336E+02  0.16734463114E+04  0.46999998093E+01 0. -1.
       -5    1    3    3    0  502 -0.60325580837E+03 -0.15591711758E+04 -0.51347572318E+03  0.17488887141E+04  0.46999998093E+01 0.  1.
</event>
<event>
 5   0  0.1986613E-07  0.3397166E+04  0.7818609E-02  0.8138602E-01
        2   -1    0    0  501    0  0.00000000000E+00  0.00000000000E+00  0.15660604231E+04  0.15660604231E+04  0.25500000920E-02 0. -1.
       -2   -1    0    0    0  501  0.00000000000E+00  0.00000000000E+00 -0.18423197303E+04  0.18423197303E+04  0.25500000920E-02 0.  1.
    10030    2    1    2    0    0  0.00000000000E+00  0.00000000000E+00 -0.27625930712E+03  0.34083801534E+04  0.33971658872E+04 0.  0.
        5    1    3    3  502    0 -0.13701157052E+04 -0.42183256018E+03 -0.10521816210E+04  0.17782766961E+04  0.46999998093E+01 0.  1.
       -5    1    3    3    0  502  0.13701157052E+04  0.42183256018E+03  0.77592231387E+03  0.16301034573E+04  0.46999998093E+01 0. -1.
</event>
<event>
 5   0  0.1986613E-07  0.3387309E+04  0.7818609E-02  0.8141028E-01
       -2   -1    0    0    0  501  0.00000000000E+00  0.00000000000E+00  0.12788166036E+04  0.12788166036E+04  0.25500000920E-02 0. -1.
        2   -1    0    0  501    0  0.00000000000E+00  0.00000000000E+00 -0.22430621898E+04  0.22430621898E+04  0.25500000920E-02 0.  1.
    10030    2    1    2    0    0  0.00000000000E+00  0.00000000000E+00 -0.96424558616E+03  0.35218787934E+04  0.33873087673E+04 0.  0.
        5    1    3    3  502    0 -0.40123877091E+03  0.11160145151E+04  0.77502888992E+03  0.14167472673E+04  0.46999998093E+01 0. -1.
       -5    1    3    3    0  502  0.40123877091E+03 -0.11160145151E+04 -0.17392744761E+04  0.21051315261E+04  0.46999998093E+01 0.  1.
</event>
<event>
 5   0  0.1986613E-07  0.3396367E+04  0.7818609E-02  0.8138799E-01
        2   -1    0    0  501    0  0.00000000000E+00  0.00000000000E+00  0.17887482253E+04  0.17887482253E+04  0.25500000920E-02 0. -1.
       -2   -1    0    0    0  501  0.00000000000E+00  0.00000000000E+00 -0.16122042533E+04  0.16122042533E+04  0.25500000920E-02 0.  1.
    10030    2    1    2    0    0  0.00000000000E+00  0.00000000000E+00  0.17654397202E+03  0.34009524786E+04  0.33963671750E+04 0.  0.
        5    1    3    3  502    0 -0.15183231804E+03  0.10206163934E+04 -0.12622870187E+04  0.16303685113E+04  0.46999998093E+01 0. -1.
       -5    1    3    3    0  502  0.15183231804E+03 -0.10206163934E+04  0.14388309907E+04  0.17705839672E+04  0.46999998093E+01 0.  1.
</event>
<event>
 5   0  0.6311750E-08  0.3399661E+04  0.7818609E-02  0.8137990E-01
        1   -1    0    0  501    0  0.00000000000E+00  0.00000000000E+00  0.24485621963E+04  0.24485621963E+04  0.50400001928E-02 0. -1.
       -1   -1    0    0    0  501  0.00000000000E+00  0.00000000000E+00 -0.11800490228E+04  0.11800490228E+04  0.50400001928E-02 0.  1.
    10030    2    1    2    0    0  0.00000000000E+00  0.00000000000E+00  0.12685131735E+04  0.36286112191E+04  0.33996608225E+04 0.  0.
        4    1    3    3  502    0 -0.58265523469E+03 -0.15801955467E+04  0.87978475852E+03  0.19001389219E+04  0.12699999809E+01 0.  1.
       -4    1    3    3    0  502  0.58265523469E+03  0.15801955467E+04  0.38872841499E+03  0.17284722971E+04  0.12699999809E+01 0. -1.
</event>
<event>
 5   0  0.1928004E-07  0.3418549E+04  0.7818609E-02  0.8133369E-01
       -2   -1    0    0    0  501  0.00000000000E+00  0.00000000000E+00  0.20056823736E+04  0.20056823736E+04  0.25500000920E-02 0. -1.
        2   -1    0    0  501    0  0.00000000000E+00  0.00000000000E+00 -0.14566713862E+04  0.14566713862E+04  0.25500000920E-02 0.  1.
    10030    2    1    2    0    0  0.00000000000E+00  0.00000000000E+00  0.54901098745E+03  0.34623537598E+04  0.34185494722E+04 0.  0.
        2    1    3    3  502    0 -0.75799074344E+03  0.37308513058E+03  0.17794381650E+04  0.19698077736E+04  0.25500000920E-02 0. -1.
       -2    1    3    3    0  502  0.75799074344E+03 -0.37308513058E+03 -0.12304271775E+04  0.14925459862E+04  0.25500000920E-02 0.  1.
</event>
<event>
 5   0  0.1897313E-07  0.3400223E+04  0.7818609E-02  0.8137852E-01
        2   -1    0    0  501    0  0.00000000000E+00  0.00000000000E+00  0.18034537013E+04  0.18034537013E+04  0.25500000920E-02 0. -1.
       -2   -1    0    0    0  501  0.00000000000E+00  0.00000000000E+00 -0.16026913559E+04  0.16026913559E+04  0.25500000920E-02 0.  1.
    10030    2    1    2    0    0  0.00000000000E+00  0.00000000000E+00  0.20076234535E+03  0.34061450572E+04  0.34002233208E+04 0.  0.
        3    1    3    3  502    0 -0.12125375565E+04  0.21780749973E+03 -0.10732787717E+04  0.16338955796E+04  0.10100000352E+00 0.  1.
       -3    1    3    3    0  502  0.12125375565E+04 -0.21780749973E+03  0.12740411171E+04  0.17722494777E+04  0.10100000352E+00 0. -1.
</event>
<event>
 5   0  0.6367111E-08  0.3400802E+04  0.7818609E-02  0.8137710E-01
        1   -1    0    0  501    0  0.00000000000E+00  0.00000000000E+00  0.28361914754E+04  0.28361914754E+04  0.50400001928E-02 0. -1.
       -1   -1    0    0    0  501  0.00000000000E+00  0.00000000000E+00 -0.10194526917E+04  0.10194526917E+04  0.50400001928E-02 0.  1.
    10030    2    1    2    0    0  0.00000000000E+00  0.00000000000E+00  0.18167387837E+04  0.38556441671E+04  0.34008016900E+04 0.  0.
        3    1    3    3  502    0 -0.53956537127E+03  0.28858865709E+03 -0.89030615793E+03  0.10803051735E+04  0.10100000352E+00 0.  1.
       -3    1    3    3    0  502  0.53956537127E+03 -0.28858865709E+03  0.27070449416E+04  0.27753389935E+04  0.10100000352E+00 0. -1.
</event>
<event>
 5   0  0.1897313E-07  0.3404294E+04  0.7818609E-02  0.8136853E-01
        2   -1    0    0  501    0  0.00000000000E+00  0.00000000000E+00  0.23191628273E+04  0.23191628273E+04  0.25500000920E-02 0. -1.
       -2   -1    0    0    0  501  0.00000000000E+00  0.00000000000E+00 -0.12492886805E+04  0.12492886805E+04  0.25500000920E-02 0.  1.
    10030    2    1    2    0    0  0.00000000000E+00  0.00000000000E+00  0.10698741469E+04  0.35684515078E+04  0.34042936820E+04 0.  0.
        3    1    3    3  502    0 -0.12813112934E+04 -0.31989943481E+03  0.16605962114E+04  0.21217148881E+04  0.10100000352E+00 0. -1.
       -3    1    3    3    0  502  0.12813112934E+04  0.31989943481E+03 -0.59072206450E+03  0.14467366197E+04  0.10100000352E+00 0.  1.
</event>
<event>
 5   0  0.6311750E-08  0.3399138E+04  0.7818609E-02  0.8138118E-01
        1   -1    0    0  501    0  0.00000000000E+00  0.00000000000E+00  0.24544618978E+04  0.24544618978E+04  0.50400001928E-02 0.  1.
       -1   -1    0    0    0  501  0.00000000000E+00  0.00000000000E+00 -0.11768506710E+04  0.11768506710E+04  0.50400001928E-02 0. -1.
    10030    2    1    2    0    0  0.00000000000E+00  0.00000000000E+00  0.12776112268E+04  0.36313125688E+04  0.33991382033E+04 0.  0.
        4    1    3    3  502    0 -0.89746291343E+02  0.71969478025E+03  0.22808406643E+04  0.23933764272E+04  0.12699999809E+01 0.  1.
       -4    1    3    3    0  502  0.89746291343E+02 -0.71969478025E+03 -0.10032294375E+04  0.12379361416E+04  0.12699999809E+01 0. -1.
</event>
<event>
 5   0  0.1986613E-07  0.3402176E+04  0.7818609E-02  0.8137372E-01
        2   -1    0    0  501    0  0.00000000000E+00  0.00000000000E+00  0.19796705899E+04  0.19796705899E+04  0.25500000920E-02 0. -1.
       -2   -1    0    0    0  501  0.00000000000E+00  0.00000000000E+00 -0.14617081073E+04  0.14617081073E+04  0.25500000920E-02 0.  1.
    10030    2    1    2    0    0  0.00000000000E+00  0.00000000000E+00  0.51796248258E+03  0.34413786972E+04  0.34021760984E+04 0.  0.
        5    1    3    3  502    0  0.54978392131E+03 -0.90580786751E+03  0.16050776161E+04  0.19232905388E+04  0.46999998093E+01 0. -1.
       -5    1    3    3    0  502 -0.54978392131E+03  0.90580786751E+03 -0.10871151336E+04  0.15180881584E+04  0.46999998093E+01 0.  1.
</event>
<event>
 5   0  0.6367111E-08  0.3397390E+04  0.7818609E-02  0.8138547E-01
        1   -1    0    0  501    0  0.00000000000E+00  0.00000000000E+00  0.18821065520E+04  0.18821065520E+04  0.50400001928E-02 0.  1.
       -1   -1    0    0    0  501  0.00000000000E+00  0.00000000000E+00 -0.15331565813E+04  0.15331565813E+04  0.50400001928E-02 0. -1.
    10030    2    1    2    0    0  0.00000000000E+00  0.00000000000E+00  0.34894997067E+03  0.34152631334E+04  0.33973896138E+04 0.  0.
        3    1    3    3  502    0 -0.10142845931E+04 -0.12823052212E+04 -0.28891010444E+03  0.16602858111E+04  0.10100000352E+00 0. -1.
       -3    1    3    3    0  502  0.10142845931E+04  0.12823052212E+04  0.63786007511E+03  0.17549773222E+04  0.10100000352E+00 0.  1.
</event>
<event>
 5   0  0.1928004E-07  0.3407361E+04  0.7818609E-02  0.8136102E-01
       -2   -1    0    0    0  501  0.00000000000E+00  0.00000000000E+00  0.13819625816E+04  0.13819625817E+04  0.25500000920E-02 0. -1.
        2   -1    0    0  501    0  0.00000000000E+00  0.00000000000E+00 -0.21002931520E+04  0.21002931520E+04  0.25500000920E-02 0.  1.
    10030    2    1    2    0    0  0.00000000000E+00  0.00000000000E+00 -0.71833057039E+03  0.34822557337E+04  0.34073605894E+04 0.  0.
        2    1    3    3  502    0  0.16201440258E+03  0.75644599393E+03 -0.19104451303E+04  0.20611307102E+04  0.25500000920E-02 0.  1.
       -2    1    3    3    0  502 -0.16201440258E+03 -0.75644599393E+03  0.11921145600E+04  0.14211250235E+04  0.25500000920E-02 0. -1.
</event>
<event>
 5   0  0.6341535E-08  0.3398711E+04  0.7818609E-02  0.8138223E-01
        1   -1    0    0  501    0  0.00000000000E+00  0.00000000000E+00  0.14163691777E+04  0.14163691777E+04  0.50400001928E-02 0.  1.
       -1   -1    0    0    0  501  0.00000000000E+00  0.00000000000E+00 -0.20388817229E+04  0.20388817229E+04  0.50400001928E-02 0. -1.
    10030    2    1    2    0    0  0.00000000000E+00  0.00000000000E+00 -0.62251254521E+03  0.34552509007E+04  0.33987110671E+04 0.  0.
        5    1    3    3  502    0 -0.15382801347E+04 -0.38353614377E+02 -0.10443699871E+04  0.18597063028E+04  0.46999998093E+01 0. -1.
       -5    1    3    3    0  502  0.15382801347E+04  0.38353614377E+02  0.42185744187E+03  0.15955445979E+04  0.46999998093E+01 0.  1.
</event>
<event>
 5   0  0.6788600E-08  0.3409660E+04  0.7818609E-02  0.8135540E-01
        1   -1    0    0  501    0  0.00000000000E+00  0.00000000000E+00  0.19430875105E+04  0.19430875105E+04  0.50400001928E-02 0. -1.
       -1   -1    0    0    0  501  0.00000000000E+00  0.00000000000E+00 -0.14957870651E+04  0.14957870651E+04  0.50400001928E-02 0.  1.
    10030    2    1    2    0    0  0.00000000000E+00  0.00000000000E+00  0.44730044537E+03  0.34388745756E+04  0.34096599036E+04 0.  0.
        2    1    3    3  502    0 -0.33642151411E+03  0.95717355189E+03  0.16054565851E+04  0.18991712641E+04  0.25500000920E-02 0. -1.
       -2    1    3    3    0  502  0.33642151411E+03 -0.95717355189E+03 -0.11581561397E+04  0.15397033115E+04  0.25500000920E-02 0.  1.
</event>
<event>
 5   0  0.6341535E-08  0.3397753E+04  0.7818609E-02  0.8138458E-01
        1   -1    0    0  501    0  0.00000000000E+00  0.00000000000E+00  0.29796815753E+04  0.29796815753E+04  0.50400001928E-02 0. -1.
       -1   -1    0    0    0  501  0.00000000000E+00  0.00000000000E+00 -0.96862064361E+03  0.96862064362E+03  0.50400001928E-02 0.  1.
    10030    2    1    2    0    0  0.00000000000E+00  0.00000000000E+00  0.20110609316E+04  0.39483022189E+04  0.33977528369E+04 0.  0.
        5    1    3    3  502    0 -0.15239369823E+04 -0.33171943593E+03  0.17882764319E+04  0.23728414185E+04  0.46999998093E+01 0. -1.
       -5    1    3    3    0  502  0.15239369823E+04  0.33171943593E+03  0.22278449970E+03  0.15754608004E+04  0.46999998093E+01 0.  1.
</event>
<event>
 5   0  0.1897313E-07  0.3401431E+04  0.7818609E-02  0.8137555E-01
        2   -1    0    0  501    0  0.00000000000E+00  0.00000000000E+00  0.18266125253E+04  0.18266125253E+04  0.25500000920E-02 0. -1.
       -2   -1    0    0    0  501  0.00000000000E+00  0.00000000000E+00 -0.15834961705E+04  0.15834961705E+04  0.25500000920E-02 0.  1.
    10030    2    1    2    0    0  0.00000000000E+00  0.00000000000E+00  0.24311635476E+03  0.34101086958E+04  0.34014314273E+04 0.  0.
        3    1    3    3  502    0  0.18352902744E+03  0.14412677240E+03  0.18104858536E+04  0.18254628089E+04  0.10100000352E+00 0. -1.
       -3    1    3    3    0  502 -0.18352902744E+03 -0.14412677240E+03 -0.15673694989E+04  0.15846458868E+04  0.10100000352E+00 0.  1.
</event>
<event>
 5   0  0.6341535E-08  0.3399005E+04  0.7818609E-02  0.8138150E-01
       -1   -1    0    0    0  501  0.00000000000E+00  0.00000000000E+00  0.15058601777E+04  0.15058601777E+04  0.50400001928E-02 0.  1.
        1   -1    0    0  501    0  0.00000000000E+00  0.00000000000E+00 -0.19180460879E+04  0.19180460879E+04  0.50400001928E-02 0. -1.
    10030    2    1    2    0    0  0.00000000000E+00  0.00000000000E+00 -0.41218591023E+03  0.34239062656E+04  0.33990052796E+04 0.  0.
        5    1    3    3  502    0  0.39435376340E+03  0.16314647733E+04  0.62496748585E+02  0.16796190433E+04  0.46999998093E+01 0. -1.
       -5    1    3    3    0  502 -0.39435376340E+03 -0.16314647733E+04 -0.47468265882E+03  0.17442872222E+04  0.46999998093E+01 0.  1.
</event>
<event>
 5   0  0.1970449E-07  0.3396317E+04  0.7818609E-02  0.8138811E-01
        2   -1    0    0  501    0  0.00000000000E+00  0.00000000000E+00  0.14141962493E+04  0.14141962493E+04  0.25500000920E-02 0. -1.
       -2   -1    0    0    0  501  0.00000000000E+00  0.00000000000E+00 -0.20391385126E+04  0.20391385126E+04  0.25500000920E-02 0.  1.
    10030    2    1    2    0    0  0.00000000000E+00  0.00000000000E+00 -0.62494226330E+03  0.34533347618E+04  0.33963168499E+04 0.  0.
        1    1    3    3  502    0  0.16671220850E+03  0.93273017166E+03  0.11204296251E+04  0.14673585378E+04  0.50400001928E-02 0. -1.
       -1    1    3    3    0  502 -0.16671220850E+03 -0.93273017166E+03 -0.17453718884E+04  0.19859762240E+04  0.50400001928E-02 0.  1.
</event>
<event>
 5   0  0.1986613E-07  0.3399055E+04  0.7818609E-02  0.8138138E-01
        2   -1    0    0  501    0  0.00000000000E+00  0.00000000000E+00  0.24573657468E+04  0.24573657468E+04  0.25500000920E-02 0. -1.
       -2   -1    0    0    0  501  0.00000000000E+00  0.00000000000E+00 -0.11754022744E+04  0.11754022744E+04  0.25500000920E-02 0.  1.
    10030    2    1    2    0    0  0.00000000000E+00  0.00000000000E+00  0.12819634724E+04  0.36327680212E+04  0.33990547438E+04 0.  0.
        5    1    3    3  502    0 -0.14075830443E+04  0.89193987612E+03  0.99789649779E+03  0.19423352644E+04  0.46999998093E+01 0.  1.
       -5    1    3    3    0  502  0.14075830443E+04 -0.89193987612E+03  0.28406697460E+03  0.16904327568E+04  0.46999998093E+01 0. -1.
</event>
<event>
 5   0  0.1986613E-07  0.3378110E+04  0.7818609E-02  0.8143300E-01
        2   -1    0    0  501    0  0.00000000000E+00  0.00000000000E+00  0.16114847638E+04  0.16114847638E+04  0.25500000920E-02 0. -1.
       -2   -1    0    0    0  501  0.00000000000E+00  0.00000000000E+00 -0.17703589996E+04  0.17703589996E+04  0.25500000920E-02 0.  1.
    10030    2    1    2    0    0  0.00000000000E+00  0.00000000000E+00 -0.15887423586E+03  0.33818437634E+04  0.33781098587E+04 0.  0.
        5    1    3    3  502    0 -0.65933851177E+03  0.85534606242E+03 -0.13795412334E+04  0.17519989338E+04  0.46999998093E+01 0.  1.
       -5    1    3    3    0  502  0.65933851177E+03 -0.85534606242E+03  0.12206669975E+04  0.16298448296E+04  0.46999998093E+01 0. -1.
</event>
<event>
 5   0  0.6341535E-08  0.3413325E+04  0.7818609E-02  0.8134644E-01
        1   -1    0    0  501    0  0.00000000000E+00  0.00000000000E+00  0.29309954500E+04  0.29309954500E+04  0.50400001928E-02 0. -1.
       -1   -1    0    0    0  501  0.00000000000E+00  0.00000000000E+00 -0.99375691950E+03  0.99375691951E+03  0.50400001928E-02 0.  1.
    10030    2    1    2    0    0  0.00000000000E+00  0.00000000000E+00  0.19372385305E+04  0.39247523695E+04  0.34133250706E+04 0.  0.
        5    1    3    3  502    0  0.71852612179E+02 -0.10471637082E+04  0.25159710970E+04  0.27261414638E+04  0.46999998093E+01 0. -1.
       -5    1    3    3    0  502 -0.71852612179E+02  0.10471637082E+04 -0.57873256655E+03  0.11986109057E+04  0.46999998093E+01 0.  1.
</event>
<event>
 5   0  0.6341535E-08  0.3397339E+04  0.7818609E-02  0.8138560E-01
        1   -1    0    0  501    0  0.00000000000E+00  0.00000000000E+00  0.18866220940E+04  0.18866220940E+04  0.50400001928E-02 0.  1.
       -1   -1    0    0    0  501  0.00000000000E+00  0.00000000000E+00 -0.15294410224E+04  0.15294410224E+04  0.50400001928E-02 0. -1.
    10030    2    1    2    0    0  0.00000000000E+00  0.00000000000E+00  0.35718107152E+03  0.34160631164E+04  0.33973385020E+04 0.  0.
        5    1    3    3  502    0 -0.57732495009E+03 -0.13150324157E+04 -0.73351474340E+03  0.16126624945E+04  0.46999998093E+01 0. -1.
       -5    1    3    3    0  502  0.57732495009E+03  0.13150324157E+04  0.10906958149E+04  0.18034006219E+04  0.46999998093E+01 0.  1.
</event>
<event>
 5   0  0.1986613E-07  0.3400757E+04  0.7818609E-02  0.8137720E-01
       -2   -1    0    0    0  501  0.00000000000E+00  0.00000000000E+00  0.11033065048E+04  0.11033065048E+04  0.25500000920E-02 0. -1.
        2   -1    0    0  501    0  0.00000000000E+00  0.00000000000E+00 -0.26205660628E+04  0.26205660628E+04  0.25500000920E-02 0.  1.
    10030    2    1    2    0    0  0.00000000000E+00  0.00000000000E+00 -0.15172595580E+04  0.37238725676E+04  0.34007573176E+04 0.  0.
        5    1    3    3  502    0 -0.47621060156E+03  0.20964231979E+01 -0.25460463243E+04  0.25902036421E+04  0.46999998093E+01 0.  1.
       -5    1    3    3    0  502  0.47621060156E+03 -0.20964231979E+01  0.10287867663E+04  0.11336689255E+04  0.46999998093E+01 0. -1.
</event>
<event>
 5   0  0.6311750E-08  0.3398427E+04  0.7818609E-02  0.8138293E-01
        1   -1    0    0  501    0  0.00000000000E+00  0.00000000000E+00  0.13531953281E+04  0.13531953281E+04  0.50400001928E-02 0.  1.
       -1   -1    0    0    0  501  0.00000000000E+00  0.00000000000E+00 -0.21337095296E+04  0.21337095296E+04  0.50400001928E-02 0. -1.
    10030    2    1    2    0    0  0.00000000000E+00  0.00000000000E+00 -0.78051420152E+03  0.34869048577E+04  0.33984265576E+04 0.  0.
        4    1    3    3  502    0 -0.16054633010E+04  0.52270695791E+03 -0.58652015018E+03  0.17873842548E+04  0.12699999809E+01 0. -1.
       -4    1    3    3    0  502  0.16054633010E+04 -0.52270695791E+03 -0.19399405135E+03  0.16995206029E+04  0.12699999809E+01 0.  1.
</event>
<event>
 5   0  0.1970449E-07  0.3396683E+04  0.7818609E-02  0.8138721E-01
        2   -1    0    0  501    0  0.00000000000E+00  0.00000000000E+00  0.20117625922E+04  0.20117625922E+04  0.25500000920E-02 0.  1.
       -2   -1    0    0    0  501  0.00000000000E+00  0.00000000000E+00 -0.14337492047E+04  0.14337492047E+04  0.25500000920E-02 0. -1.
    10030    2    1    2    0    0  0.00000000000E+00  0.00000000000E+00  0.57801338750E+03  0.34455117970E+04  0.33966825090E+04 0.  0.
        1    1    3    3  502    0 -0.10574938692E+04  0.73506028970E+03  0.14120611582E+04  0.19111576668E+04  0.50400001928E-02 0.  1.
       -1    1    3    3    0  502  0.10574938692E+04 -0.73506028970E+03 -0.83404777066E+03  0.15343541302E+04  0.50400001928E-02 0. -1.
</event>
<event>
 5   0  0.6341535E-08  0.3400132E+04  0.7818609E-02  0.8137874E-01
       -1   -1    0    0    0  501  0.00000000000E+00  0.00000000000E+00  0.21725396591E+04  0.21725396591E+04  0.50400001928E-02 0.  1.
        1   -1    0    0  501    0  0.00000000000E+00  0.00000000000E+00 -0.13303435472E+04  0.13303435472E+04  0.50400001928E-02 0. -1.
    10030    2    1    2    0    0  0.00000000000E+00  0.00000000000E+00  0.84219611196E+03  0.35028832063E+04  0.34001318307E+04 0.  0.
        5    1    3    3  502    0  0.15350685928E+04  0.69597366429E+03  0.65004595707E+03  0.18064874099E+04  0.46999998093E+01 0.  1.
       -5    1    3    3    0  502 -0.15350685928E+04 -0.69597366429E+03  0.19215015489E+03  0.16963957964E+04  0.46999998093E+01 0. -1.
</event>
<event>
 5   0  0.6584420E-08  0.3399353E+04  0.7818609E-02  0.8138065E-01
       -1   -1    0    0    0  501  0.00000000000E+00  0.00000000000E+00  0.26275333614E+04  0.26275333614E+04  0.50400001928E-02 0. -1.
        1   -1    0    0  501    0  0.00000000000E+00  0.00000000000E+00 -0.10994726239E+04  0.10994726240E+04  0.50400001928E-02 0.  1.
    10030    2    1    2    0    0  0.00000000000E+00  0.00000000000E+00  0.15280607375E+04  0.37270059854E+04  0.33993534676E+04 0.  0.
        1    1    3    3  502    0  0.30730812659E+03  0.10344252337E+01 -0.10687602006E+04  0.11120646210E+04  0.50400001928E-02 0.  1.
       -1    1    3    3    0  502 -0.30730812659E+03 -0.10344252337E+01  0.25968209381E+04  0.26149413644E+04  0.50400001928E-02 0. -1.
</event>
<event>
 5   0  0.6584420E-08  0.3403793E+04  0.7818609E-02  0.8136976E-01
       -1   -1    0    0    0  501  0.00000000000E+00  0.00000000000E+00  0.10832461605E+04  0.10832461605E+04  0.50400001928E-02 0.  1.
        1   -1    0    0  501    0  0.00000000000E+00  0.00000000000E+00 -0.26738625960E+04  0.26738625960E+04  0.50400001928E-02 0. -1.
    10030    2    1    2    0    0  0.00000000000E+00  0.00000000000E+00 -0.15906164355E+04  0.37571087565E+04  0.34037928202E+04 0.  0.
        1    1    3    3  502    0  0.11053491834E+04  0.80342432480E+03 -0.19150887858E+04  0.23526267278E+04  0.50400001928E-02 0. -1.
       -1    1    3    3    0  502 -0.11053491834E+04 -0.80342432480E+03  0.32447235026E+03  0.14044820287E+04  0.50400001928E-02 0.  1.
</event>
<event>
 5   0  0.6311750E-08  0.3402837E+04  0.7818609E-02  0.8137210E-01
        1   -1    0    0  501    0  0.00000000000E+00  0.00000000000E+00  0.20155869664E+04  0.20155869664E+04  0.50400001928E-02 0. -1.
       -1   -1    0    0    0  501  0.00000000000E+00  0.00000000000E+00 -0.14362194869E+04  0.14362194869E+04  0.50400001928E-02 0.  1.
    10030    2    1    2    0    0  0.00000000000E+00  0.00000000000E+00  0.57936747954E+03  0.34518064533E+04  0.34028372154E+04 0.  0.
        4    1    3    3  502    0  0.37017924643E+03  0.21707020278E+03 -0.13804210008E+04  0.14455849680E+04  0.12699999809E+01 0.  1.
       -4    1    3    3    0  502 -0.37017924643E+03 -0.21707020278E+03  0.19597884803E+04  0.20062214853E+04  0.12699999809E+01 0. -1.
</event>
<event>
 5   0  0.1963852E-07  0.3405264E+04  0.7818609E-02  0.8136616E-01
       -2   -1    0    0    0  501  0.00000000000E+00  0.00000000000E+00  0.13669724796E+04  0.13669724796E+04  0.25500000920E-02 0.  1.
        2   -1    0    0  501    0  0.00000000000E+00  0.00000000000E+00 -0.21207123238E+04  0.21207123238E+04  0.25500000920E-02 0. -1.
    10030    2    1    2    0    0  0.00000000000E+00  0.00000000000E+00 -0.75373984415E+03  0.34876848034E+04  0.34052637982E+04 0.  0.
        4    1    3    3  502    0 -0.47661228145E+03  0.97037997587E+03 -0.17240611635E+04  0.20349901899E+04  0.12699999809E+01 0. -1.
       -4    1    3    3    0  502  0.47661228145E+03 -0.97037997587E+03  0.97032131939E+03  0.14526946135E+04  0.12699999809E+01 0.  1.
</event>
<event>
 5   0  0.1970449E-07  0.3396462E+04  0.7818609E-02  0.8138775E-01
        2   -1    0    0  501    0  0.00000000000E+00  0.00000000000E+00  0.20444262441E+04  0.20444262441E+04  0.25500000920E-02 0.  1.
       -2   -1    0    0    0  501  0.00000000000E+00  0.00000000000E+00 -0.14106594016E+04  0.14106594016E+04  0.25500000920E-02 0. -1.
    10030    2    1    2    0    0  0.00000000000E+00  0.00000000000E+00  0.63376684254E+03  0.34550856457E+04  0.33964623373E+04 0.  0.
        1    1    3    3  502    0 -0.95218918219E+03 -0.14010166117E+04  0.19448493138E+03  0.17050912508E+04  0.50400001928E-02 0. -1.
       -1    1    3    3    0  502  0.95218918219E+03  0.14010166117E+04  0.43928191116E+03  0.17499943949E+04  0.50400001928E-02 0.  1.
</event>
<event>
 5   0  0.6311750E-08  0.3393482E+04  0.7818609E-02  0.8139508E-01
       -1   -1    0    0    0  501  0.00000000000E+00  0.00000000000E+00  0.19927775828E+04  0.19927775828E+04  0.50400001928E-02 0. -1.
        1   -1    0    0  501    0  0.00000000000E+00  0.00000000000E+00 -0.14446821562E+04  0.14446821562E+04  0.50400001928E-02 0.  1.
    10030    2    1    2    0    0  0.00000000000E+00  0.00000000000E+00  0.54809542654E+03  0.34374597390E+04  0.33934821144E+04 0.  0.
        4    1    3    3  502    0 -0.16584515168E+04 -0.28983976054E+03  0.48763587824E+03  0.17527860346E+04  0.12699999809E+01 0. -1.
       -4    1    3    3    0  502  0.16584515168E+04  0.28983976054E+03  0.60459548306E+02  0.16846737044E+04  0.12699999809E+01 0.  1.
</event>
<event>
 5   0  0.1986613E-07  0.3401516E+04  0.7818609E-02  0.8137534E-01
       -2   -1    0    0    0  501  0.00000000000E+00  0.00000000000E+00  0.18012369769E+04  0.18012369769E+04  0.25500000920E-02 0. -1.
        2   -1    0    0  501    0  0.00000000000E+00  0.00000000000E+00 -0.16058843126E+04  0.16058843126E+04  0.25500000920E-02 0.  1.
    10030    2    1    2    0    0  0.00000000000E+00  0.00000000000E+00  0.19535266427E+03  0.34071212895E+04  0.34015162528E+04 0.  0.
        5    1    3    3  502    0  0.84095400074E+03 -0.60421765882E+02  0.15771686967E+04  0.17883896692E+04  0.46999998093E+01 0. -1.
       -5    1    3    3    0  502 -0.84095400074E+03  0.60421765882E+02 -0.13818160324E+04  0.16187316203E+04  0.46999998093E+01 0.  1.
</event>
<event>
 5   0  0.1897313E-07  0.3402627E+04  0.7818609E-02  0.8137262E-01
        2   -1    0    0  501    0  0.00000000000E+00  0.00000000000E+00  0.10931227074E+04  0.10931227074E+04  0.25500000920E-02 0.  1.
       -2   -1    0    0    0  501  0.00000000000E+00  0.00000000000E+00 -0.26478889798E+04  0.26478889798E+04  0.25500000920E-02 0. -1.
    10030    2    1    2    0    0  0.00000000000E+00  0.00000000000E+00 -0.15547662724E+04  0.37410116872E+04  0.34026269677E+04 0.  0.
        3    1    3    3  502    0  0.16024668286E+04  0.43263849572E+03 -0.36690223282E+03  0.16999097810E+04  0.10100000352E+00 0.  1.
       -3    1    3    3    0  502 -0.16024668286E+04 -0.43263849572E+03 -0.11878640396E+04  0.20411019062E+04  0.10100000352E+00 0. -1.
</event>
<event>
 5   0  0.1963852E-07  0.3384342E+04  0.7818609E-02  0.8141760E-01
        2   -1    0    0  501    0  0.00000000000E+00  0.00000000000E+00  0.25177762259E+04  0.25177762259E+04  0.25500000920E-02 0.  1.
       -2   -1    0    0    0  501  0.00000000000E+00  0.00000000000E+00 -0.11372904219E+04  0.11372904219E+04  0.25500000920E-02 0. -1.
    10030    2    1    2    0    0  0.00000000000E+00  0.00000000000E+00  0.13804858040E+04  0.36550666479E+04  0.33843420550E+04 0.  0.
        4    1    3    3  502    0  0.86927914013E+03 -0.12027870709E+04 -0.18787744650E+03  0.14958751650E+04  0.12699999809E+01 0. -1.
       -4    1    3    3    0  502 -0.86927914013E+03  0.12027870709E+04  0.15683632505E+04  0.21591914829E+04  0.12699999809E+01 0.  1.
</event>
<event>
 5   0  0.1928004E-07  0.3402204E+04  0.7818609E-02  0.8137366E-01
       -2   -1    0    0    0  501  0.00000000000E+00  0.00000000000E+00  0.18661828924E+04  0.18661828924E+04  0.25500000920E-02 0.  1.
        2   -1    0    0  501    0  0.00000000000E+00  0.00000000000E+00 -0.15506241677E+04  0.15506241677E+04  0.25500000920E-02 0. -1.
    10030    2    1    2    0    0  0.00000000000E+00  0.00000000000E+00  0.31555872473E+03  0.34168070600E+04  0.34022041645E+04 0.  0.
        2    1    3    3  502    0  0.74662918170E+03 -0.29942515078E+03  0.16630916573E+04  0.18474264306E+04  0.25500000920E-02 0.  1.
       -2    1    3    3    0  502 -0.74662918170E+03  0.29942515078E+03 -0.13475329325E+04  0.15693806295E+04  0.25500000920E-02 0. -1.
</event>
<event>
 5   0  0.1928004E-07  0.3433715E+04  0.7818609E-02  0.8129681E-01
       -2   -1    0    0    0  501  0.00000000000E+00  0.00000000000E+00  0.10883288373E+04  0.10883288373E+04  0.25500000920E-02 0.  1.
        2   -1    0    0  501    0  0.00000000000E+00  0.00000000000E+00 -0.27083724709E+04  0.27083724709E+04  0.25500000920E-02 0. -1.
    10030    2    1    2    0    0  0.00000000000E+00  0.00000000000E+00 -0.16200436336E+04  0.37967013082E+04  0.34337151088E+04 0.  0.
        2    1    3    3  502    0  0.22247784266E+03  0.69308662099E+03 -0.25293012503E+04  0.26319631968E+04  0.25500000920E-02 0. -1.
       -2    1    3    3    0  502 -0.22247784266E+03 -0.69308662099E+03  0.90925761663E+03  0.11647381114E+04  0.25500000920E-02 0.  1.
</event>
<event>
 5   0  0.1928004E-07  0.3403542E+04  0.7818609E-02  0.8137038E-01
       -2   -1    0    0    0  501  0.00000000000E+00  0.00000000000E+00  0.11184743771E+04  0.11184743771E+04  0.25500000920E-02 0.  1.
        2   -1    0    0  501    0  0.00000000000E+00  0.00000000000E+00 -0.25892630896E+04  0.25892630896E+04  0.25500000920E-02 0. -1.
    10030    2    1    2    0    0  0.00000000000E+00  0.00000000000E+00 -0.14707887125E+04  0.37077374666E+04  0.34035419323E+04 0.  0.
        2    1    3    3  502    0  0.86402300579E+03  0.12771421903E+04 -0.15197425434E+04  0.21650046944E+04  0.25500000920E-02 0. -1.
       -2    1    3    3    0  502 -0.86402300579E+03 -0.12771421903E+04  0.48953830865E+02  0.15427327722E+04  0.25500000920E-02 0.  1.
</event>
<event>
 5   0  0.1897313E-07  0.3393041E+04  0.7818609E-02  0.8139616E-01
        2   -1    0    0  501    0  0.00000000000E+00  0.00000000000E+00  0.14800959180E+04  0.14800959180E+04  0.25500000920E-02 0. -1.
       -2   -1    0    0    0  501  0.00000000000E+00  0.00000000000E+00 -0.19445917370E+04  0.19445917370E+04  0.25500000920E-02 0.  1.
    10030    2    1    2    0    0  0.00000000000E+00  0.00000000000E+00 -0.46449581895E+03  0.34246876551E+04  0.33930412860E+04 0.  0.
        3    1    3    3  502    0  0.82101683288E+03 -0.78891766878E+03  0.10371476590E+04  0.15401736930E+04  0.10100000352E+00 0. -1.
       -3    1    3    3    0  502 -0.82101683288E+03  0.78891766878E+03 -0.15016434779E+04  0.18845139620E+04  0.10100000352E+00 0.  1.
</event>
<event>
 5   0  0.1963852E-07  0.3412826E+04  0.7818609E-02  0.8134765E-01
        2   -1    0    0  501    0  0.00000000000E+00  0.00000000000E+00  0.18616026920E+04  0.18616026920E+04  0.25500000920E-02 0.  1.
       -2   -1    0    0    0  501  0.00000000000E+00  0.00000000000E+00 -0.15641607326E+04  0.15641607326E+04  0.25500000920E-02 0. -1.
    10030    2    1    2    0    0  0.00000000000E+00  0.00000000000E+00  0.29744195939E+03  0.34257634245E+04  0.34128262953E+04 0.  0.
        4    1    3    3  502    0  0.50703476948E+03 -0.13704575501E+04 -0.73587217122E+03  0.16360768990E+04  0.12699999809E+01 0. -1.
       -4    1    3    3    0  502 -0.50703476948E+03  0.13704575501E+04  0.10333141306E+04  0.17896865255E+04  0.12699999809E+01 0.  1.
</event>
<event>
 5   0  0.1970449E-07  0.3406517E+04  0.7818609E-02  0.8136309E-01
        2   -1    0    0  501    0  0.00000000000E+00  0.00000000000E+00  0.17700268322E+04  0.17700268322E+04  0.25500000920E-02 0. -1.
       -2   -1    0    0    0  501  0.00000000000E+00  0.00000000000E+00 -0.16390083710E+04  0.16390083710E+04  0.25500000920E-02 0.  1.
    10030    2    1    2    0    0  0.00000000000E+00  0.00000000000E+00  0.13101846116E+03  0.34090352032E+04  0.34065165756E+04 0.  0.
        1    1    3    3  502    0 -0.15630775453E+04  0.17710280093E+03 -0.58805247387E+03  0.16793994542E+04  0.50400001928E-02 0.  1.
       -1    1    3    3    0  502  0.15630775453E+04 -0.17710280093E+03  0.71907093503E+03  0.17296357490E+04  0.50400001928E-02 0. -1.
</event>
<event>
 5   0  0.6584420E-08  0.3401978E+04  0.7818609E-02  0.8137421E-01
       -1   -1    0    0    0  501  0.00000000000E+00  0.00000000000E+00  0.25469221309E+04  0.25469221309E+04  0.50400001928E-02 0. -1.
        1   -1    0    0  501    0  0.00000000000E+00  0.00000000000E+00 -0.11360234919E+04  0.11360234919E+04  0.50400001928E-02 0.  1.
    10030    2    1    2    0    0  0.00000000000E+00  0.00000000000E+00  0.14108986390E+04  0.36829456228E+04  0.34019778792E+04 0.  0.
        1    1    3    3  502    0  0.13144205500E+04 -0.30711276717E+03  0.18259915772E+04  0.22707410408E+04  0.50400001928E-02 0. -1.
       -1    1    3    3    0  502 -0.13144205500E+04  0.30711276717E+03 -0.41509293821E+03  0.14122045820E+04  0.50400001928E-02 0.  1.
</event>
<event>
 5   0  0.6367111E-08  0.3394363E+04  0.7818609E-02  0.8139291E-01
       -1   -1    0    0    0  501  0.00000000000E+00  0.00000000000E+00  0.11628709141E+04  0.11628709141E+04  0.50400001928E-02 0.  1.
        1   -1    0    0  501    0  0.00000000000E+00  0.00000000000E+00 -0.24769952627E+04  0.24769952627E+04  0.50400001928E-02 0. -1.
    10030    2    1    2    0    0  0.00000000000E+00  0.00000000000E+00 -0.13141243486E+04  0.36398661768E+04  0.33943634133E+04 0.  0.
        3    1    3    3  502    0 -0.10233974185E+04 -0.86625473171E+03 -0.17728416781E+04  0.22227701550E+04  0.10100000352E+00 0. -1.
       -3    1    3    3    0  502  0.10233974185E+04  0.86625473171E+03  0.45871732948E+03  0.14170960218E+04  0.10100000352E+00 0.  1.
</event>
<event>
 5   0  0.6584420E-08  0.3396988E+04  0.7818609E-02  0.8138646E-01
        1   -1    0    0  501    0  0.00000000000E+00  0.00000000000E+00  0.17977256527E+04  0.17977256527E+04  0.50400001928E-02 0. -1.
       -1   -1    0    0    0  501  0.00000000000E+00  0.00000000000E+00 -0.16047395679E+04  0.16047395679E+04  0.50400001928E-02 0.  1.
    10030    2    1    2    0    0  0.00000000000E+00  0.00000000000E+00  0.19298608476E+03  0.34024652206E+04  0.33969877758E+04 0.  0.
        1    1    3    3  502    0 -0.12823744454E+04 -0.46146839022E+03  0.11117566795E+04  0.17588178439E+04  0.50400001928E-02 0.  1.
       -1    1    3    3    0  502  0.12823744454E+04  0.46146839022E+03 -0.91877059475E+03  0.16436473768E+04  0.50400001928E-02 0. -1.
</event>
<event>
 5   0  0.1963852E-07  0.3326148E+04  0.7818609E-02  0.8156274E-01
        2   -1    0    0  501    0  0.00000000000E+00  0.00000000000E+00  0.15005604421E+04  0.15005604421E+04  0.25500000920E-02 0.  1.
       -2   -1    0    0    0  501  0.00000000000E+00  0.00000000000E+00 -0.18431882005E+04  0.18431882005E+04  0.25500000920E-02 0. -1.
    10030    2    1    2    0    0  0.00000000000E+00  0.00000000000E+00 -0.34262775836E+03  0.33437486426E+04  0.33261481031E+04 0.  0.
        4    1    3    3  502    0 -0.95414334355E+02 -0.98702803772E+03  0.11708484221E+04  0.15343454249E+04  0.12699999809E+01 0.  1.
       -4    1    3    3    0  502  0.95414334355E+02  0.98702803772E+03 -0.15134761805E+04  0.18094032177E+04  0.12699999809E+01 0. -1.
</event>
<event>
 5   0  0.1928004E-07  0.3399516E+04  0.7818609E-02  0.8138025E-01
       -2   -1    0    0    0  501  0.00000000000E+00  0.00000000000E+00  0.19112536329E+04  0.19112536329E+04  0.25500000920E-02 0. -1.
        2   -1    0    0  501    0  0.00000000000E+00  0.00000000000E+00 -0.15116658363E+04  0.15116658363E+04  0.25500000920E-02 0.  1.
    10030    2    1    2    0    0  0.00000000000E+00  0.00000000000E+00  0.39958779657E+03  0.34229194692E+04  0.33995157428E+04 0.  0.
        2    1    3    3  502    0 -0.33303797063E+03 -0.16663171422E+04  0.24069017957E+03  0.17162339208E+04  0.25500000920E-02 0. -1.
       -2    1    3    3    0  502  0.33303797063E+03  0.16663171422E+04  0.15889761699E+03  0.17066855484E+04  0.25500000920E-02 0.  1.
</event>
<event>
 5   0  0.1928004E-07  0.3398902E+04  0.7818609E-02  0.8138176E-01
        2   -1    0    0  501    0  0.00000000000E+00  0.00000000000E+00  0.23075087631E+04  0.23075087631E+04  0.25500000920E-02 0.  1.
       -2   -1    0    0    0  501  0.00000000000E+00  0.00000000000E+00 -0.12516241928E+04  0.12516241928E+04  0.25500000920E-02 0. -1.
    10030    2    1    2    0    0  0.00000000000E+00  0.00000000000E+00  0.10558845703E+04  0.35591329560E+04  0.33989020540E+04 0.  0.
        2    1    3    3  502    0  0.13004745336E+04 -0.29423482407E+03 -0.57545204597E+03  0.14522235370E+04  0.25500000920E-02 0. -1.
       -2    1    3    3    0  502 -0.13004745336E+04  0.29423482407E+03  0.16313366163E+04  0.21069094190E+04  0.25500000920E-02 0.  1.
</event>
<event>
 5   0  0.1970449E-07  0.3401751E+04  0.7818609E-02  0.8137477E-01
        2   -1    0    0  501    0  0.00000000000E+00  0.00000000000E+00  0.19885914860E+04  0.19885914861E+04  0.25500000920E-02 0. -1.
       -2   -1    0    0    0  501  0.00000000000E+00  0.00000000000E+00 -0.14547873359E+04  0.14547873359E+04  0.25500000920E-02 0.  1.
    10030    2    1    2    0    0  0.00000000000E+00  0.00000000000E+00  0.53380415014E+03  0.34433788220E+04  0.34017511433E+04 0.  0.
        1    1    3    3  502    0 -0.51771158330E+03  0.45943977617E+03 -0.13057729140E+04  0.14778880521E+04  0.50400001928E-02 0.  1.
       -1    1    3    3    0  502  0.51771158330E+03 -0.45943977617E+03  0.18395770642E+04  0.19654907699E+04  0.50400001928E-02 0. -1.
</event>
<event>
 5   0  0.1986613E-07  0.3400452E+04  0.7818609E-02  0.8137795E-01
        2   -1    0    0  501    0  0.00000000000E+00  0.00000000000E+00  0.20374212592E+04  0.20374212592E+04  0.25500000920E-02 0. -1.
       -2   -1    0    0    0  501  0.00000000000E+00  0.00000000000E+00 -0.14188367983E+04  0.14188367983E+04  0.25500000920E-02 0.  1.
    10030    2    1    2    0    0  0.00000000000E+00  0.00000000000E+00  0.61858446084E+03  0.34562580575E+04  0.34004518854E+04 0.  0.
        5    1    3    3  502    0 -0.16885848376E+04 -0.86989102842E+02  0.49071613768E+03  0.17605994080E+04  0.46999998093E+01 0.  1.
       -5    1    3    3    0  502  0.16885848376E+04  0.86989102842E+02  0.12786832316E+03  0.16956586495E+04  0.46999998093E+01 0. -1.
</event>
<event>
 5   0  0.6788600E-08  0.3401487E+04  0.7818609E-02  0.8137541E-01
       -1   -1    0    0    0  501  0.00000000000E+00  0.00000000000E+00  0.15853332175E+04  0.15853332175E+04  0.50400001928E-02 0. -1.
        1   -1    0    0  501    0  0.00000000000E+00  0.00000000000E+00 -0.18245559759E+04  0.18245559759E+04  0.50400001928E-02 0.  1.
    10030    2    1    2    0    0  0.00000000000E+00  0.00000000000E+00 -0.23922275840E+03  0.34098891935E+04  0.34014874369E+04 0.  0.
        2    1    3    3  502    0 -0.10463080831E+04  0.11999037223E+04  0.48019723045E+03  0.16628646751E+04  0.25500000920E-02 0. -1.
       -2    1    3    3    0  502  0.10463080831E+04 -0.11999037223E+04 -0.71941998885E+03  0.17470245184E+04  0.25500000920E-02 0.  1.
</event>
<event>
 5   0  0.6367111E-08  0.3402310E+04  0.7818609E-02  0.8137340E-01
        1   -1    0    0  501    0  0.00000000000E+00  0.00000000000E+00  0.98178517170E+03  0.98178517171E+03  0.50400001928E-02 0. -1.
       -1   -1    0    0    0  501  0.00000000000E+00  0.00000000000E+00 -0.29476178541E+04  0.29476178541E+04  0.50400001928E-02 0.  1.
    10030    2    1    2    0    0  0.00000000000E+00  0.00000000000E+00 -0.19658326824E+04  0.39294030259E+04  0.34023095104E+04 0.  0.
        3    1    3    3  502    0 -0.43068235618E+03 -0.10975490480E+04  0.43337171283E+03  0.12561497746E+04  0.10100000352E+00 0. -1.
       -3    1    3    3    0  502  0.43068235618E+03  0.10975490480E+04 -0.23992043953E+04  0.26732532512E+04  0.10100000352E+00 0.  1.
</event>
<event>
 5   0  0.6584420E-08  0.3399411E+04  0.7818609E-02  0.8138051E-01
       -1   -1    0    0    0  501  0.00000000000E+00  0.00000000000E+00  0.14444109979E+04  0.14444109979E+04  0.50400001928E-02 0. -1.
        1   -1    0    0  501    0  0.00000000000E+00  0.00000000000E+00 -0.20001221972E+04  0.20001221972E+04  0.50400001928E-02 0.  1.
    10030    2    1    2    0    0  0.00000000000E+00  0.00000000000E+00 -0.55571119933E+03  0.34445331951E+04  0.33994108306E+04 0.  0.
        1    1    3    3  502    0 -0.15326458786E+04  0.50338543076E+03  0.26459908399E+03  0.16347516497E+04  0.50400001928E-02 0. -1.
       -1    1    3    3    0  502  0.15326458786E+04 -0.50338543076E+03 -0.82031028331E+03  0.18097815454E+04  0.50400001928E-02 0.  1.
</event>
<event>
 5   0  0.6788600E-08  0.3405577E+04  0.7818609E-02  0.8136539E-01
       -1   -1    0    0    0  501  0.00000000000E+00  0.00000000000E+00  0.28088094001E+04  0.28088094001E+04  0.50400001928E-02 0.  1.
        1   -1    0    0  501    0  0.00000000000E+00  0.00000000000E+00 -0.10322839944E+04  0.10322839944E+04  0.50400001928E-02 0. -1.
    10030    2    1    2    0    0  0.00000000000E+00  0.00000000000E+00  0.17765254056E+04  0.38410933945E+04  0.34055771828E+04 0.  0.
        2    1    3    3  502    0 -0.40479584345E+03 -0.34424555792E+03  0.27128990218E+04  0.27644503580E+04  0.25500000920E-02 0.  1.
       -2    1    3    3    0  502  0.40479584345E+03  0.34424555792E+03 -0.93637361618E+03  0.10766430365E+04  0.25500000920E-02 0. -1.
</event>
<event>
 5   0  0.1897313E-07  0.3394821E+04  0.7818609E-02  0.8139179E-01
        2   -1    0    0  501    0  0.00000000000E+00  0.00000000000E+00  0.16414004088E+04  0.16414004088E+04  0.25500000920E-02 0. -1.
       -2   -1    0    0    0  501  0.00000000000E+00  0.00000000000E+00 -0.17553315102E+04  0.17553315102E+04  0.25500000920E-02 0.  1.
    10030    2    1    2    0    0  0.00000000000E+00  0.00000000000E+00 -0.11393110142E+03  0.33967319190E+04  0.33948206776E+04 0.  0.
        3    1    3    3  502    0  0.30937739456E+03 -0.36816379297E+03  0.15718154371E+04  0.16437343853E+04  0.10100000352E+00 0. -1.
       -3    1    3    3    0  502 -0.30937739456E+03  0.36816379297E+03 -0.16857465385E+04  0.17529975337E+04  0.10100000352E+00 0.  1.
</event>
<event>
 5   0  0.6788600E-08  0.3406067E+04  0.7818609E-02  0.8136419E-01
        1   -1    0    0  501    0  0.00000000000E+00  0.00000000000E+00  0.15893016979E+04  0.15893016979E+04  0.50400001928E-02 0.  1.
       -1   -1    0    0    0  501  0.00000000000E+00  0.00000000000E+00 -0.18249039315E+04  0.18249039315E+04  0.50400001928E-02 0. -1.
    10030    2    1    2    0    0  0.00000000000E+00  0.00000000000E+00 -0.23560223357E+03  0.34142056294E+04  0.34060668912E+04 0.  0.
        2    1    3    3  502    0 -0.27086609081E+03  0.53554032183E+03 -0.17153945691E+04  0.18173470784E+04  0.25500000920E-02 0. -1.
       -2    1    3    3    0  502  0.27086609081E+03 -0.53554032183E+03  0.14797923356E+04  0.15968585510E+04  0.25500000920E-02 0.  1.
</event>
<event>
 5   0  0.1986613E-07  0.3398127E+04  0.7818609E-02  0.8138366E-01
       -2   -1    0    0    0  501  0.00000000000E+00  0.00000000000E+00  0.26388687129E+04  0.26388687129E+04  0.25500000920E-02 0.  1.
        2   -1    0    0  501    0  0.00000000000E+00  0.00000000000E+00 -0.10939601550E+04  0.10939601550E+04  0.25500000920E-02 0. -1.
    10030    2    1    2    0    0  0.00000000000E+00  0.00000000000E+00  0.15449085580E+04  0.37328288679E+04  0.33981272643E+04 0.  0.
        5    1    3    3  502    0  0.97128481047E+03 -0.11865539949E+04  0.15763030536E+04  0.21991039022E+04  0.46999998093E+01 0.  1.
       -5    1    3    3    0  502 -0.97128481047E+03  0.11865539949E+04 -0.31394495640E+02  0.15337249657E+04  0.46999998093E+01 0. -1.
</event>
<event>
 5   0  0.1963852E-07  0.3400403E+04  0.7818609E-02  0.8137807E-01
        2   -1    0    0  501    0  0.00000000000E+00  0.00000000000E+00  0.12542803234E+04  0.12542803234E+04  0.25500000920E-02 0. -1.
       -2   -1    0    0    0  501  0.00000000000E+00  0.00000000000E+00 -0.23046565901E+04  0.23046565901E+04  0.25500000920E-02 0.  1.
    10030    2    1    2    0    0  0.00000000000E+00  0.00000000000E+00 -0.10503762667E+04  0.35589369136E+04  0.34004031604E+04 0.  0.
        4    1    3    3  502    0 -0.10072323032E+03 -0.45658965486E+03  0.11856674389E+04  0.12745305687E+04  0.12699999809E+01 0. -1.
       -4    1    3    3    0  502  0.10072323032E+03  0.45658965486E+03 -0.22360437056E+04  0.22844063448E+04  0.12699999809E+01 0.  1.
</event>
<event>
 5   0  0.6341535E-08  0.3397520E+04  0.7818609E-02  0.8138515E-01
       -1   -1    0    0    0  501  0.00000000000E+00  0.00000000000E+00  0.20011857712E+04  0.20011857712E+04  0.50400001928E-02 0.  1.
        1   -1    0    0  501    0  0.00000000000E+00  0.00000000000E+00 -0.14420381443E+04  0.14420381443E+04  0.50400001928E-02 0. -1.
    10030    2    1    2    0    0  0.00000000000E+00  0.00000000000E+00  0.55914762691E+03  0.34432239156E+04  0.33975203994E+04 0.  0.
        5    1    3    3  502    0  0.15843424150E+03 -0.16909642821E+04  0.24299796743E+03  0.17156723796E+04  0.46999998093E+01 0. -1.
       -5    1    3    3    0  502 -0.15843424150E+03  0.16909642821E+04  0.31614965948E+03  0.17275515359E+04  0.46999998093E+01 0.  1.
</event>
<event>
 5   0  0.6367111E-08  0.3404540E+04  0.7818609E-02  0.8136793E-01
       -1   -1    0    0    0  501  0.00000000000E+00  0.00000000000E+00  0.14655756268E+04  0.14655756268E+04  0.50400001928E-02 0.  1.
        1   -1    0    0  501    0  0.00000000000E+00  0.00000000000E+00 -0.19771913149E+04  0.19771913149E+04  0.50400001928E-02 0. -1.
    10030    2    1    2    0    0  0.00000000000E+00  0.00000000000E+00 -0.51161568804E+03  0.34427669417E+04  0.34045401456E+04 0.  0.
        3    1    3    3  502    0  0.53414718840E+03  0.44659174465E+03 -0.18266218480E+04  0.19548157946E+04  0.10100000352E+00 0. -1.
       -3    1    3    3    0  502 -0.53414718840E+03 -0.44659174465E+03  0.13150061599E+04  0.14879511471E+04  0.10100000352E+00 0.  1.
</event>
<event>
 5   0  0.6584420E-08  0.3398580E+04  0.7818609E-02  0.8138255E-01
        1   -1    0    0  501    0  0.00000000000E+00  0.00000000000E+00  0.19492795896E+04  0.19492795896E+04  0.50400001928E-02 0. -1.
       -1   -1    0    0    0  501  0.00000000000E+00  0.00000000000E+00 -0.14813607010E+04  0.14813607010E+04  0.50400001928E-02 0.  1.
    10030    2    1    2    0    0  0.00000000000E+00  0.00000000000E+00  0.46791888864E+03  0.34306402906E+04  0.33985798088E+04 0.  0.
        1    1    3    3  502    0  0.83447112006E+03 -0.49987503468E+03  0.16404336280E+04  0.19071548412E+04  0.50400001928E-02 0. -1.
       -1    1    3    3    0  502 -0.83447112006E+03  0.49987503468E+03 -0.11725147393E+04  0.15234854494E+04  0.50400001928E-02 0.  1.
</event>
<event>
 5   0  0.6341535E-08  0.3397787E+04  0.7818609E-02  0.8138450E-01
       -1   -1    0    0    0  501  0.00000000000E+00  0.00000000000E+00  0.31056367673E+04  0.31056367673E+04  0.50400001928E-02 0. -1.
        1   -1    0    0  501    0  0.00000000000E+00  0.00000000000E+00 -0.92935526001E+03  0.92935526003E+03  0.50400001928E-02 0.  1.
    10030    2    1    2    0    0  0.00000000000E+00  0.00000000000E+00  0.21762815073E+04  0.40349920274E+04  0.33977874362E+04 0.  0.
        5    1    3    3  502    0  0.31863319337E+03  0.15695424779E+04  0.41508266870E+03  0.16544807081E+04  0.46999998093E+01 0.  1.
       -5    1    3    3    0  502 -0.31863319337E+03 -0.15695424779E+04  0.17611988386E+04  0.23805113192E+04  0.46999998093E+01 0. -1.
</event>
<event>
 5   0  0.1928004E-07  0.3385382E+04  0.7818609E-02  0.8141503E-01
       -2   -1    0    0    0  501  0.00000000000E+00  0.00000000000E+00  0.11516040225E+04  0.11516040226E+04  0.25500000920E-02 0.  1.
        2   -1    0    0  501    0  0.00000000000E+00  0.00000000000E+00 -0.24880100470E+04  0.24880100470E+04  0.25500000920E-02 0. -1.
    10030    2    1    2    0    0  0.00000000000E+00  0.00000000000E+00 -0.13364060244E+04  0.36396140695E+04  0.33853817381E+04 0.  0.
        2    1    3    3  502    0 -0.40394719351E+02  0.64642740854E+03 -0.23495195299E+04  0.24371586221E+04  0.25500000920E-02 0. -1.
       -2    1    3    3    0  502  0.40394719351E+02 -0.64642740854E+03  0.10131135055E+04  0.12024554474E+04  0.25500000920E-02 0.  1.
</event>
<event>
 5   0  0.6788600E-08  0.3368364E+04  0.7818609E-02  0.8145715E-01
        1   -1    0    0  501    0  0.00000000000E+00  0.00000000000E+00  0.23866530046E+04  0.23866530046E+04  0.50400001928E-02 0. -1.
       -1   -1    0    0    0  501  0.00000000000E+00  0.00000000000E+00 -0.11884714434E+04  0.11884714434E+04  0.50400001928E-02 0.  1.
    10030    2    1    2    0    0  0.00000000000E+00  0.00000000000E+00  0.11981815612E+04  0.35751244480E+04  0.33683639597E+04 0.  0.
        2    1    3    3  502    0  0.45320811323E+03 -0.14873908750E+04 -0.87731282189E+02  0.15573779204E+04  0.25500000920E-02 0.  1.
       -2    1    3    3    0  502 -0.45320811323E+03  0.14873908750E+04  0.12859128434E+04  0.20177465276E+04  0.25500000920E-02 0. -1.
</event>
<event>
 5   0  0.1986613E-07  0.3402149E+04  0.7818609E-02  0.8137379E-01
       -2   -1    0    0    0  501  0.00000000000E+00  0.00000000000E+00  0.14342427291E+04  0.14342427291E+04  0.25500000920E-02 0.  1.
        2   -1    0    0  501    0  0.00000000000E+00  0.00000000000E+00 -0.20175490354E+04  0.20175490354E+04  0.25500000920E-02 0. -1.
    10030    2    1    2    0    0  0.00000000000E+00  0.00000000000E+00 -0.58330630631E+03  0.34517917645E+04  0.34021493410E+04 0.  0.
        5    1    3    3  502    0  0.10506832615E+03 -0.10057761059E+03 -0.20112219281E+04  0.20164798395E+04  0.46999998093E+01 0. -1.
       -5    1    3    3    0  502 -0.10506832615E+03  0.10057761059E+03  0.14279156218E+04  0.14353119250E+04  0.46999998093E+01 0.  1.
</event>
<event>
 5   0  0.6584420E-08  0.3395215E+04  0.7818609E-02  0.8139082E-01
        1   -1    0    0  501    0  0.00000000000E+00  0.00000000000E+00  0.34096617882E+04  0.34096617882E+04  0.50400001928E-02 0.  1.
       -1   -1    0    0    0  501  0.00000000000E+00  0.00000000000E+00 -0.84520737399E+03  0.84520737400E+03  0.50400001928E-02 0. -1.
    10030    2    1    2    0    0  0.00000000000E+00  0.00000000000E+00  0.25644544142E+04  0.42548691622E+04  0.33952150366E+04 0.  0.
        1    1    3    3  502    0 -0.34230407997E+03 -0.61081010697E+02 -0.80010317443E+03  0.87239214966E+03  0.50400001928E-02 0. -1.
       -1    1    3    3    0  502  0.34230407997E+03  0.61081010697E+02  0.33645575886E+04  0.33824770125E+04  0.50400001928E-02 0.  1.
</event>
<event>
 5   0  0.1897313E-07  0.3396757E+04  0.7818609E-02  0.8138703E-01
        2   -1    0    0  501    0  0.00000000000E+00  0.00000000000E+00  0.11339830545E+04  0.11339830545E+04  0.25500000920E-02 0.  1.
       -2   -1    0    0    0  501  0.00000000000E+00  0.00000000000E+00 -0.25436793187E+04  0.25436793187E+04  0.25500000920E-02 0. -1.
    10030    2    1    2    0    0  0.00000000000E+00  0.00000000000E+00 -0.14096962642E+04  0.36776623732E+04  0.33967568318E+04 0.  0.
        3    1    3    3  502    0  0.11258307171E+04 -0.76379861125E+03 -0.18055885996E+04  0.22607594572E+04  0.10100000352E+00 0. -1.
       -3    1    3    3    0  502 -0.11258307171E+04  0.76379861125E+03  0.39589233540E+03  0.14169029160E+04  0.10100000352E+00 0.  1.
</event>
<event>
 5   0  0.1986613E-07  0.3417102E+04  0.7818609E-02  0.8133722E-01
        2   -1    0    0  501    0  0.00000000000E+00  0.00000000000E+00  0.29086828778E+04  0.29086828778E+04  0.25500000920E-02 0.  1.
       -2   -1    0    0    0  501  0.00000000000E+00  0.00000000000E+00 -0.10035973731E+04  0.10035973731E+04  0.25500000920E-02 0. -1.
    10030    2    1    2    0    0  0.00000000000E+00  0.00000000000E+00  0.19050855047E+04  0.39122802508E+04  0.34171019857E+04 0.  0.
        5    1    3    3  502    0 -0.30059696964E+02 -0.16506674145E+04  0.44888839541E+03  0.17108855544E+04  0.46999998093E+01 0. -1.
       -5    1    3    3    0  502  0.30059696964E+02  0.16506674145E+04  0.14561971093E+04  0.22013946965E+04  0.46999998093E+01 0.  1.
</event>
<event>
 5   0  0.1986613E-07  0.3416237E+04  0.7818609E-02  0.8133933E-01
       -2   -1    0    0    0  501  0.00000000000E+00  0.00000000000E+00  0.16656404656E+04  0.16656404656E+04  0.25500000920E-02 0.  1.
        2   -1    0    0  501    0  0.00000000000E+00  0.00000000000E+00 -0.17516798160E+04  0.17516798160E+04  0.25500000920E-02 0. -1.
    10030    2    1    2    0    0  0.00000000000E+00  0.00000000000E+00 -0.86039350419E+02  0.34173202817E+04  0.34162369850E+04 0.  0.
        5    1    3    3  502    0  0.60425413553E+03  0.26608883165E+02  0.15549272048E+04  0.16684279413E+04  0.46999998093E+01 0.  1.
       -5    1    3    3    0  502 -0.60425413553E+03 -0.26608883165E+02 -0.16409665552E+04  0.17488923404E+04  0.46999998093E+01 0. -1.
</event>
<event>
 5   0  0.1897313E-07  0.3398796E+04  0.7818609E-02  0.8138202E-01
        2   -1    0    0  501    0  0.00000000000E+00  0.00000000000E+00  0.18528769636E+04  0.18528769636E+04  0.25500000920E-02 0.  1.
       -2   -1    0    0    0  501  0.00000000000E+00  0.00000000000E+00 -0.15586320246E+04  0.15586320246E+04  0.25500000920E-02 0. -1.
    10030    2    1    2    0    0  0.00000000000E+00  0.00000000000E+00  0.29424493903E+03  0.34115089882E+04  0.33987958886E+04 0.  0.
        3    1    3    3  502    0 -0.13524873890E+04 -0.93965478321E+03  0.56795209589E+03  0.17420513317E+04  0.10100000352E+00 0.  1.
       -3    1    3    3    0  502  0.13524873890E+04  0.93965478321E+03 -0.27370715686E+03  0.16694576565E+04  0.10100000352E+00 0. -1.
</event>
<event>
 5   0  0.6584420E-08  0.3400483E+04  0.7818609E-02  0.8137788E-01
       -1   -1    0    0    0  501  0.00000000000E+00  0.00000000000E+00  0.11459928324E+04  0.11459928324E+04  0.50400001928E-02 0.  1.
        1   -1    0    0  501    0  0.00000000000E+00  0.00000000000E+00 -0.25225475909E+04  0.25225475909E+04  0.50400001928E-02 0. -1.
    10030    2    1    2    0    0  0.00000000000E+00  0.00000000000E+00 -0.13765547585E+04  0.36685404232E+04  0.34004831765E+04 0.  0.
        1    1    3    3  502    0  0.37360107307E+03 -0.16150186197E+04 -0.10961811807E+04  0.19873288818E+04  0.50400001928E-02 0. -1.
       -1    1    3    3    0  502 -0.37360107307E+03  0.16150186197E+04 -0.28037357784E+03  0.16812115414E+04  0.50400001928E-02 0.  1.
</event>
<event>
 5   0  0.6311750E-08  0.3396341E+04  0.7818609E-02  0.8138805E-01
       -1   -1    0    0    0  501  0.00000000000E+00  0.00000000000E+00  0.14746982959E+04  0.14746982959E+04  0.50400001928E-02 0. -1.
        1   -1    0    0  501    0  0.00000000000E+00  0.00000000000E+00 -0.19555065983E+04  0.19555065983E+04  0.50400001928E-02 0.  1.
    10030    2    1    2    0    0  0.00000000000E+00  0.00000000000E+00 -0.48080830240E+03  0.34302048943E+04  0.33963405296E+04 0.  0.
        4    1    3    3  502    0 -0.36208039000E+03  0.86001688524E+03  0.11925623868E+04  0.15142449970E+04  0.12699999809E+01 0. -1.
       -4    1    3    3    0  502  0.36208039000E+03 -0.86001688524E+03 -0.16733706892E+04  0.19159598973E+04  0.12699999809E+01 0.  1.
</event>
<event>
 5   0  0.6341535E-08  0.3400830E+04  0.7818609E-02  0.8137703E-01
        1   -1    0    0  501    0  0.00000000000E+00  0.00000000000E+00  0.22713542093E+04  0.22713542093E+04  0.50400001928E-02 0. -1.
       -1   -1    0    0    0  501  0.00000000000E+00  0.00000000000E+00 -0.12729897591E+04  0.12729897591E+04  0.50400001928E-02 0.  1.
    10030    2    1    2    0    0  0.00000000000E+00  0.00000000000E+00  0.99836445027E+03  0.35443439684E+04  0.34008296915E+04 0.  0.
        5    1    3    3  502    0 -0.14121394783E+04  0.92857651348E+03  0.30421477763E+03  0.17172539034E+04  0.46999998093E+01 0.  1.
       -5    1    3    3    0  502  0.14121394783E+04 -0.92857651348E+03  0.69414967264E+03  0.18270900650E+04  0.46999998093E+01 0. -1.
</event>
<event>
 5   0  0.1928004E-07  0.3394902E+04  0.7818609E-02  0.8139159E-01
        2   -1    0    0  501    0  0.00000000000E+00  0.00000000000E+00  0.19963554618E+04  0.19963554618E+04  0.25500000920E-02 0.  1.
       -2   -1    0    0    0  501  0.00000000000E+00  0.00000000000E+00 -0.14433001442E+04  0.14433001442E+04  0.25500000920E-02 0. -1.
    10030    2    1    2    0    0  0.00000000000E+00  0.00000000000E+00  0.55305531764E+03  0.34396556060E+04  0.33949021346E+04 0.  0.
        2    1    3    3  502    0 -0.14009388422E+03 -0.14083668806E+04 -0.67295822574E+03  0.15671618743E+04  0.25500000920E-02 0. -1.
       -2    1    3    3    0  502  0.14009388422E+03  0.14083668806E+04  0.12260135434E+04  0.18724937317E+04  0.25500000920E-02 0.  1.
</event>
<event>
 5   0  0.6367111E-08  0.3403559E+04  0.7818609E-02  0.8137033E-01
        1   -1    0    0  501    0  0.00000000000E+00  0.00000000000E+00  0.19112311037E+04  0.19112311037E+04  0.50400001928E-02 0. -1.
       -1   -1    0    0    0  501  0.00000000000E+00  0.00000000000E+00 -0.15152818684E+04  0.15152818684E+04  0.50400001928E-02 0.  1.
    10030    2    1    2    0    0  0.00000000000E+00  0.00000000000E+00  0.39594923531E+03  0.34265129721E+04  0.34035592181E+04 0.  0.
        3    1    3    3  502    0  0.74049014020E+03 -0.11257159812E+04 -0.84850262545E+03  0.15923312575E+04  0.10100000352E+00 0.  1.
       -3    1    3    3    0  502 -0.74049014020E+03  0.11257159812E+04  0.12444518608E+04  0.18341817146E+04  0.10100000352E+00 0. -1.
</event>
<event>
 5   0  0.6311750E-08  0.3400366E+04  0.7818609E-02  0.8137817E-01
        1   -1    0    0  501    0  0.00000000000E+00  0.00000000000E+00  0.20329393041E+04  0.20329393041E+04  0.50400001928E-02 0. -1.
       -1   -1    0    0    0  501  0.00000000000E+00  0.00000000000E+00 -0.14218927687E+04  0.14218927687E+04  0.50400001928E-02 0.  1.
    10030    2    1    2    0    0  0.00000000000E+00  0.00000000000E+00  0.61104653537E+03  0.34548320727E+04  0.34003656836E+04 0.  0.
        4    1    3    3  502    0  0.11402529586E+04 -0.84466906883E+03 -0.64594767128E+03  0.15591320189E+04  0.12699999809E+01 0.  1.
       -4    1    3    3    0  502 -0.11402529586E+04  0.84466906883E+03  0.12569942067E+04  0.18957000538E+04  0.12699999809E+01 0. -1.
</event>
<event>
 5   0  0.1963852E-07  0.3398263E+04  0.7818609E-02  0.8138333E-01
       -2   -1    0    0    0  501  0.00000000000E+00  0.00000000000E+00  0.16414841236E+04  0.16414841236E+04  0.25500000920E-02 0. -1.
        2   -1    0    0  501    0  0.00000000000E+00  0.00000000000E+00 -0.17588036115E+04  0.17588036115E+04  0.25500000920E-02 0.  1.
    10030    2    1    2    0    0  0.00000000000E+00  0.00000000000E+00 -0.11731948792E+03  0.34002877351E+04  0.33982632062E+04 0.  0.
        4    1    3    3  502    0 -0.12225322549E+04 -0.11774322651E+04 -0.13690312413E+03  0.17028434842E+04  0.12699999809E+01 0.  1.
       -4    1    3    3    0  502  0.12225322549E+04  0.11774322651E+04  0.19583636216E+02  0.16974442509E+04  0.12699999809E+01 0. -1.
</event>
<event>
 5   0  0.6311750E-08  0.3360553E+04  0.7818609E-02  0.8147656E-01
       -1   -1    0    0    0  501  0.00000000000E+00  0.00000000000E+00  0.27370088870E+04  0.27370088870E+04  0.50400001928E-02 0. -1.
        1   -1    0    0  501    0  0.00000000000E+00  0.00000000000E+00 -0.10315384052E+04  0.10315384052E+04  0.50400001928E-02 0.  1.
    10030    2    1    2    0    0  0.00000000000E+00  0.00000000000E+00  0.17054704818E+04  0.37685472922E+04  0.33605533963E+04 0.  0.
        4    1    3    3  502    0 -0.23724789308E+03  0.12173181125E+04  0.21240258758E+04  0.24596010822E+04  0.12699999809E+01 0. -1.
       -4    1    3    3    0  502  0.23724789308E+03 -0.12173181125E+04 -0.41855539403E+03  0.13089462099E+04  0.12699999809E+01 0.  1.
</event>
<event>
 5   0  0.6311750E-08  0.3410931E+04  0.7818609E-02  0.8135229E-01
        1   -1    0    0  501    0  0.00000000000E+00  0.00000000000E+00  0.11179952949E+04  0.11179952949E+04  0.50400001928E-02 0. -1.
       -1   -1    0    0    0  501  0.00000000000E+00  0.00000000000E+00 -0.26016320011E+04  0.26016320011E+04  0.50400001928E-02 0.  1.
    10030    2    1    2    0    0  0.00000000000E+00  0.00000000000E+00 -0.14836367062E+04  0.37196272959E+04  0.34109308619E+04 0.  0.
        4    1    3    3  502    0  0.12595955251E+04  0.11027159384E+04 -0.10969394824E+04  0.20014597595E+04  0.12699999809E+01 0. -1.
       -4    1    3    3    0  502 -0.12595955251E+04 -0.11027159384E+04 -0.38669722375E+03  0.17181675365E+04  0.12699999809E+01 0.  1.
</event>
<event>
 5   0  0.6584420E-08  0.3399243E+04  0.7818609E-02  0.8138092E-01
       -1   -1    0    0    0  501  0.00000000000E+00  0.00000000000E+00  0.11126880373E+04  0.11126880373E+04  0.50400001928E-02 0.  1.
        1   -1    0    0  501    0  0.00000000000E+00  0.00000000000E+00 -0.25961566872E+04  0.25961566872E+04  0.50400001928E-02 0. -1.
    10030    2    1    2    0    0  0.00000000000E+00  0.00000000000E+00 -0.14834686499E+04  0.37088447245E+04  0.33992425561E+04 0.  0.
        1    1    3    3  502    0  0.16099836221E+04 -0.34021891036E+03 -0.12058170118E+04  0.20400467731E+04  0.50400001928E-02 0. -1.
       -1    1    3    3    0  502 -0.16099836221E+04  0.34021891036E+03 -0.27765163808E+03  0.16687979514E+04  0.50400001928E-02 0.  1.
</event>
<event>
 5   0  0.1970449E-07  0.3401057E+04  0.7818609E-02  0.8137647E-01
        2   -1    0    0  501    0  0.00000000000E+00  0.00000000000E+00  0.15287340074E+04  0.15287340074E+04  0.25500000920E-02 0. -1.
       -2   -1    0    0    0  501  0.00000000000E+00  0.00000000000E+00 -0.18916287938E+04  0.18916287938E+04  0.25500000920E-02 0.  1.
    10030    2    1    2    0    0  0.00000000000E+00  0.00000000000E+00 -0.36289478646E+03  0.34203628012E+04  0.34010570513E+04 0.  0.
        1    1    3    3  502    0  0.83740110495E+03 -0.92297008524E+03  0.98213492137E+03  0.15867272584E+04  0.50400001928E-02 0. -1.
       -1    1    3    3    0  502 -0.83740110495E+03  0.92297008524E+03 -0.13450297078E+04  0.18336355428E+04  0.50400001928E-02 0.  1.
</event>
<event>
 5   0  0.6367111E-08  0.3392196E+04  0.7818609E-02  0.8139824E-01
       -1   -1    0    0    0  501  0.00000000000E+00  0.00000000000E+00  0.16927845910E+04  0.16927845910E+04  0.50400001928E-02 0. -1.
        1   -1    0    0  501    0  0.00000000000E+00  0.00000000000E+00 -0.16994175556E+04  0.16994175557E+04  0.50400001928E-02 0.  1.
    10030    2    1    2    0    0  0.00000000000E+00  0.00000000000E+00 -0.66329646625E+01  0.33922021466E+04  0.33921956617E+04 0.  0.
        3    1    3    3  502    0 -0.10413073303E+03 -0.10555147899E+04 -0.13268722455E+04  0.16986890967E+04  0.10100000352E+00 0.  1.
       -3    1    3    3    0  502  0.10413073303E+03  0.10555147899E+04  0.13202392809E+04  0.16935130499E+04  0.10100000352E+00 0. -1.
</event>
<event>
 5   0  0.1928004E-07  0.3394881E+04  0.7818609E-02  0.8139164E-01
       -2   -1    0    0    0  501  0.00000000000E+00  0.00000000000E+00  0.96799882444E+03  0.96799882444E+03  0.25500000920E-02 0. -1.
        2   -1    0    0  501    0  0.00000000000E+00  0.00000000000E+00 -0.29765568516E+04  0.29765568516E+04  0.25500000920E-02 0.  1.
    10030    2    1    2    0    0  0.00000000000E+00  0.00000000000E+00 -0.20085580272E+04  0.39445556761E+04  0.33948805771E+04 0.  0.
        2    1    3    3  502    0  0.13708540519E+04  0.48125995093E+03 -0.20241523990E+04  0.24915948519E+04  0.25500000920E-02 0. -1.
       -2    1    3    3    0  502 -0.13708540519E+04 -0.48125995093E+03  0.15594371795E+02  0.14529608241E+04  0.25500000920E-02 0.  1.
</event>
<event>
 5   0  0.1897313E-07  0.3405785E+04  0.7818609E-02  0.8136488E-01
       -2   -1    0    0    0  501  0.00000000000E+00  0.00000000000E+00  0.16359551219E+04  0.16359551219E+04  0.25500000920E-02 0. -1.
        2   -1    0    0  501    0  0.00000000000E+00  0.00000000000E+00 -0.17725689405E+04  0.17725689405E+04  0.25500000920E-02 0.  1.
    10030    2    1    2    0    0  0.00000000000E+00  0.00000000000E+00 -0.13661381858E+03  0.34085240624E+04  0.34057852176E+04 0.  0.
        3    1    3    3  502    0 -0.94596885108E+03  0.14148247218E+04 -0.11189425089E+02  0.17019727595E+04  0.10100000352E+00 0.  1.
       -3    1    3    3    0  502  0.94596885108E+03 -0.14148247218E+04 -0.12542439349E+03  0.17065513029E+04  0.10100000352E+00 0. -1.
</event>
<event>
 5   0  0.6341535E-08  0.3428408E+04  0.7818609E-02  0.8130969E-01
       -1   -1    0    0    0  501  0.00000000000E+00  0.00000000000E+00  0.17294785471E+04  0.17294785471E+04  0.50400001928E-02 0. -1.
        1   -1    0    0  501    0  0.00000000000E+00  0.00000000000E+00 -0.16990639248E+04  0.16990639248E+04  0.50400001928E-02 0.  1.
    10030    2    1    2    0    0  0.00000000000E+00  0.00000000000E+00  0.30414622341E+02  0.34285424719E+04  0.34284075651E+04 0.  0.
        5    1    3    3  502    0  0.18038773233E+03 -0.14119437253E+04 -0.93999921274E+03  0.17057975927E+04  0.46999998093E+01 0.  1.
       -5    1    3    3    0  502 -0.18038773233E+03  0.14119437253E+04  0.97041383509E+03  0.17227448792E+04  0.46999998093E+01 0. -1.
</event>
<event>
 5   0  0.1963852E-07  0.3397364E+04  0.7818609E-02  0.8138554E-01
       -2   -1    0    0    0  501  0.00000000000E+00  0.00000000000E+00  0.16433624623E+04  0.16433624623E+04  0.25500000920E-02 0. -1.
        2   -1    0    0  501    0  0.00000000000E+00  0.00000000000E+00 -0.17558640284E+04  0.17558640284E+04  0.25500000920E-02 0.  1.
    10030    2    1    2    0    0  0.00000000000E+00  0.00000000000E+00 -0.11250156605E+03  0.33992264907E+04  0.33973642920E+04 0.  0.
        4    1    3    3  502    0 -0.49456890904E+03  0.16118474055E+04  0.15091090307E+03  0.16927569755E+04  0.12699999809E+01 0. -1.
       -4    1    3    3    0  502  0.49456890904E+03 -0.16118474055E+04 -0.26341246912E+03  0.17064695152E+04  0.12699999809E+01 0.  1.
</event>
<event>
 5   0  0.1963852E-07  0.3404122E+04  0.7818609E-02  0.8136896E-01
       -2   -1    0    0    0  501  0.00000000000E+00  0.00000000000E+00  0.13730277796E+04  0.13730277796E+04  0.25500000920E-02 0. -1.
        2   -1    0    0  501    0  0.00000000000E+00  0.00000000000E+00 -0.21099433590E+04  0.21099433590E+04  0.25500000920E-02 0.  1.
    10030    2    1    2    0    0  0.00000000000E+00  0.00000000000E+00 -0.73691557942E+03  0.34829711386E+04  0.34041215286E+04 0.  0.
        4    1    3    3  502    0  0.78782121171E+02  0.12043747932E+04  0.85945884463E+03  0.14816870059E+04  0.12699999809E+01 0. -1.
       -4    1    3    3    0  502 -0.78782121171E+02 -0.12043747932E+04 -0.15963744240E+04  0.20012841327E+04  0.12699999809E+01 0.  1.
</event>
<event>
 5   0  0.1928004E-07  0.3403717E+04  0.7818609E-02  0.8136995E-01
        2   -1    0    0  501    0  0.00000000000E+00  0.00000000000E+00  0.11065432503E+04  0.11065432503E+04  0.25500000920E-02 0.  1.
       -2   -1    0    0    0  501  0.00000000000E+00  0.00000000000E+00 -0.26174504675E+04  0.26174504675E+04  0.25500000920E-02 0. -1.
    10030    2    1    2    0    0  0.00000000000E+00  0.00000000000E+00 -0.15109072172E+04  0.37239937178E+04  0.34037168789E+04 0.  0.
        2    1    3    3  502    0 -0.22250522042E+03 -0.12744714184E+04  0.45427059917E+03  0.13711847967E+04  0.25500000920E-02 0.  1.
       -2    1    3    3    0  502  0.22250522042E+03  0.12744714184E+04 -0.19651778164E+04  0.23528089212E+04  0.25500000920E-02 0. -1.
</event>
<event>
 5   0  0.6341535E-08  0.3399413E+04  0.7818609E-02  0.8138050E-01
       -1   -1    0    0    0  501  0.00000000000E+00  0.00000000000E+00  0.13127584087E+04  0.13127584087E+04  0.50400001928E-02 0. -1.
        1   -1    0    0  501    0  0.00000000000E+00  0.00000000000E+00 -0.22007112513E+04  0.22007112513E+04  0.50400001928E-02 0.  1.
    10030    2    1    2    0    0  0.00000000000E+00  0.00000000000E+00 -0.88795284259E+03  0.35134696601E+04  0.33994130084E+04 0.  0.
        5    1    3    3  502    0 -0.35513760331E+03  0.42373417927E+03 -0.21051700778E+04  0.21765653031E+04  0.46999998093E+01 0.  1.
       -5    1    3    3    0  502  0.35513760331E+03 -0.42373417927E+03  0.12172172352E+04  0.13369043570E+04  0.46999998093E+01 0. -1.
</event>
<event>
 5   0  0.1897313E-07  0.3411606E+04  0.7818609E-02  0.8135064E-01
        2   -1    0    0  501    0  0.00000000000E+00  0.00000000000E+00  0.13834916999E+04  0.13834916999E+04  0.25500000920E-02 0.  1.
       -2   -1    0    0    0  501  0.00000000000E+00  0.00000000000E+00 -0.21032024226E+04  0.21032024226E+04  0.25500000920E-02 0. -1.
    10030    2    1    2    0    0  0.00000000000E+00  0.00000000000E+00 -0.71971072270E+03  0.34866941225E+04  0.34116055428E+04 0.  0.
        3    1    3    3  502    0  0.36479550386E+03  0.71362548304E+03  0.11790843234E+04  0.14256847273E+04  0.10100000352E+00 0.  1.
       -3    1    3    3    0  502 -0.36479550386E+03 -0.71362548304E+03 -0.18987950461E+04  0.20610093952E+04  0.10100000352E+00 0. -1.
</event>
<event>
 5   0  0.6311750E-08  0.3407815E+04  0.7818609E-02  0.8135991E-01
        3   -1    0    0  501    0  0.00000000000E+00  0.00000000000E+00  0.16027437311E+04  0.16027437343E+04  0.10100000352E+00 0. -1.
       -3   -1    0    0    0  501  0.00000000000E+00  0.00000000000E+00 -0.18114569143E+04  0.18114569171E+04  0.10100000352E+00 0.  1.
    10030    2    1    2    0    0  0.00000000000E+00  0.00000000000E+00 -0.20871318315E+03  0.34142006514E+04  0.34078152672E+04 0.  0.
        4    1    3    3  502    0  0.42214361519E+03  0.29026118167E+03 -0.17324685782E+04  0.18066282885E+04  0.12699999809E+01 0.  1.
       -4    1    3    3    0  502 -0.42214361519E+03 -0.29026118167E+03  0.15237553950E+04  0.16075723630E+04  0.12699999809E+01 0. -1.
</event>
<event>
 5   0  0.6367111E-08  0.3359862E+04  0.7818609E-02  0.8147828E-01
       -1   -1    0    0    0  501  0.00000000000E+00  0.00000000000E+00  0.91866668846E+03  0.91866668847E+03  0.50400001928E-02 0. -1.
        1   -1    0    0  501    0  0.00000000000E+00  0.00000000000E+00 -0.30720268710E+04  0.30720268710E+04  0.50400001928E-02 0.  1.
    10030    2    1    2    0    0  0.00000000000E+00  0.00000000000E+00 -0.21533601825E+04  0.39906935594E+04  0.33598623498E+04 0.  0.
        3    1    3    3  502    0  0.28090524135E+03  0.36773387472E+03 -0.29948338546E+04  0.30303738687E+04  0.10100000352E+00 0.  1.
       -3    1    3    3    0  502 -0.28090524135E+03 -0.36773387472E+03  0.84147367214E+03  0.96031969070E+03  0.10100000352E+00 0. -1.
</event>
<event>
 5   0  0.6311750E-08  0.3396132E+04  0.7818609E-02  0.8138856E-01
        3   -1    0    0  501    0  0.00000000000E+00  0.00000000000E+00  0.14781436880E+04  0.14781436914E+04  0.10100000352E+00 0. -1.
       -3   -1    0    0    0  501  0.00000000000E+00  0.00000000000E+00 -0.19507089718E+04  0.19507089744E+04  0.10100000352E+00 0.  1.
    10030    2    1    2    0    0  0.00000000000E+00  0.00000000000E+00 -0.47256528385E+03  0.34288526658E+04  0.33961320140E+04 0.  0.
        3    1    3    3  502    0  0.10128539237E+04 -0.13437128093E+04 -0.46649477979E+03  0.17461542241E+04  0.10100000352E+00 0.  1.
       -3    1    3    3    0  502 -0.10128539237E+04  0.13437128093E+04 -0.60705040658E+01  0.16826984417E+04  0.10100000352E+00 0. -1.
</event>
<event>
 5   0  0.1963852E-07  0.3399912E+04  0.7818609E-02  0.8137928E-01
       -2   -1    0    0    0  501  0.00000000000E+00  0.00000000000E+00  0.10637266962E+04  0.10637266962E+04  0.25500000920E-02 0.  1.
        2   -1    0    0  501    0  0.00000000000E+00  0.00000000000E+00 -0.27167219313E+04  0.27167219313E+04  0.25500000920E-02 0. -1.
    10030    2    1    2    0    0  0.00000000000E+00  0.00000000000E+00 -0.16529952352E+04  0.37804486275E+04  0.33999115544E+04 0.  0.
        4    1    3    3  502    0 -0.17258464233E+03 -0.11810972343E+04 -0.21723740557E+04  0.24787066762E+04  0.12699999809E+01 0. -1.
       -4    1    3    3    0  502  0.17258464233E+03  0.11810972343E+04  0.51937882057E+03  0.13017419513E+04  0.12699999809E+01 0.  1.
</event>
<event>
 5   0  0.6311750E-08  0.3403812E+04  0.7818609E-02  0.8136971E-01
       -1   -1    0    0    0  501  0.00000000000E+00  0.00000000000E+00  0.18014759138E+04  0.18014759138E+04  0.50400001928E-02 0. -1.
        1   -1    0    0  501    0  0.00000000000E+00  0.00000000000E+00 -0.16078395056E+04  0.16078395056E+04  0.50400001928E-02 0.  1.
    10030    2    1    2    0    0  0.00000000000E+00  0.00000000000E+00  0.19363640825E+03  0.34093154194E+04  0.34038120645E+04 0.  0.
        4    1    3    3  502    0  0.10886370742E+04  0.29530437491E+03  0.13732990434E+04  0.17771570635E+04  0.12699999809E+01 0. -1.
       -4    1    3    3    0  502 -0.10886370742E+04 -0.29530437491E+03 -0.11796626351E+04  0.16321583559E+04  0.12699999809E+01 0.  1.
</event>
<event>
 5   0  0.6367111E-08  0.3397015E+04  0.7818609E-02  0.8138639E-01
        1   -1    0    0  501    0  0.00000000000E+00  0.00000000000E+00  0.19510366164E+04  0.19510366164E+04  0.50400001928E-02 0. -1.
       -1   -1    0    0    0  501  0.00000000000E+00  0.00000000000E+00 -0.14786637678E+04  0.14786637678E+04  0.50400001928E-02 0.  1.
    10030    2    1    2    0    0  0.00000000000E+00  0.00000000000E+00  0.47237284864E+03  0.34297003842E+04  0.33970146625E+04 0.  0.
        3    1    3    3  502    0 -0.15164069171E+03  0.43313907673E+03  0.18872571337E+04  0.19422522643E+04  0.10100000352E+00 0. -1.
       -3    1    3    3    0  502  0.15164069171E+03 -0.43313907673E+03 -0.14148842850E+04  0.14874481199E+04  0.10100000352E+00 0.  1.
</event>
<event>
 5   0  0.1928004E-07  0.3400698E+04  0.7818609E-02  0.8137735E-01
       -2   -1    0    0    0  501  0.00000000000E+00  0.00000000000E+00  0.12820923029E+04  0.12820923029E+04  0.25500000920E-02 0. -1.
        2   -1    0    0  501    0  0.00000000000E+00  0.00000000000E+00 -0.22550529952E+04  0.22550529952E+04  0.25500000920E-02 0.  1.
    10030    2    1    2    0    0  0.00000000000E+00  0.00000000000E+00 -0.97296069231E+03  0.35371452980E+04  0.34006976270E+04 0.  0.
        2    1    3    3  502    0 -0.22639018889E+03  0.16537549699E+04 -0.82356390715E+03  0.18612940464E+04  0.25500000920E-02 0. -1.
       -2    1    3    3    0  502  0.22639018889E+03 -0.16537549699E+04 -0.14939678516E+03  0.16758512516E+04  0.25500000920E-02 0.  1.
</event>
<event>
 5   0  0.6367111E-08  0.3396850E+04  0.7818609E-02  0.8138680E-01
       -1   -1    0    0    0  501  0.00000000000E+00  0.00000000000E+00  0.91237406857E+03  0.91237406858E+03  0.50400001928E-02 0. -1.
        1   -1    0    0  501    0  0.00000000000E+00  0.00000000000E+00 -0.31616940710E+04  0.31616940710E+04  0.50400001928E-02 0.  1.
    10030    2    1    2    0    0  0.00000000000E+00  0.00000000000E+00 -0.22493200024E+04  0.40740681396E+04  0.33968501192E+04 0.  0.
        3    1    3    3  502    0  0.10457394457E+04 -0.49407371019E+03  0.36707798246E+03  0.12134356492E+04  0.10100000352E+00 0. -1.
       -3    1    3    3    0  502 -0.10457394457E+04  0.49407371019E+03 -0.26163979849E+04  0.28606324904E+04  0.10100000352E+00 0.  1.
</event>
<event>
 5   0  0.1963852E-07  0.3402396E+04  0.7818609E-02  0.8137319E-01
       -2   -1    0    0    0  501  0.00000000000E+00  0.00000000000E+00  0.16506217910E+04  0.16506217910E+04  0.25500000920E-02 0.  1.
        2   -1    0    0  501    0  0.00000000000E+00  0.00000000000E+00 -0.17533234686E+04  0.17533234686E+04  0.25500000920E-02 0. -1.
    10030    2    1    2    0    0  0.00000000000E+00  0.00000000000E+00 -0.10270167765E+03  0.34039452596E+04  0.34023955819E+04 0.  0.
        4    1    3    3  502    0  0.11529240691E+03  0.30479064528E+03 -0.17218067012E+04  0.17523725647E+04  0.12699999809E+01 0. -1.
       -4    1    3    3    0  502 -0.11529240691E+03 -0.30479064528E+03  0.16191050235E+04  0.16515726949E+04  0.12699999809E+01 0.  1.
</event>
<event>
 5   0  0.1970449E-07  0.3397391E+04  0.7818609E-02  0.8138547E-01
       -2   -1    0    0    0  501  0.00000000000E+00  0.00000000000E+00  0.12650874933E+04  0.12650874933E+04  0.25500000920E-02 0.  1.
        2   -1    0    0  501    0  0.00000000000E+00  0.00000000000E+00 -0.22809219003E+04  0.22809219003E+04  0.25500000920E-02 0. -1.
    10030    2    1    2    0    0  0.00000000000E+00  0.00000000000E+00 -0.10158344069E+04  0.35460093936E+04  0.33973906277E+04 0.  0.
        1    1    3    3  502    0  0.14715387979E+04 -0.53286578419E+03 -0.11972579311E+04  0.19704819033E+04  0.50400001928E-02 0. -1.
       -1    1    3    3    0  502 -0.14715387979E+04  0.53286578419E+03  0.18142352414E+03  0.15755274903E+04  0.50400001928E-02 0.  1.
</event>
<event>
 5   0  0.1970449E-07  0.3394094E+04  0.7818609E-02  0.8139357E-01
        2   -1    0    0  501    0  0.00000000000E+00  0.00000000000E+00  0.17893800026E+04  0.17893800026E+04  0.25500000920E-02 0. -1.
       -2   -1    0    0    0  501  0.00000000000E+00  0.00000000000E+00 -0.16094784370E+04  0.16094784370E+04  0.25500000920E-02 0.  1.
    10030    2    1    2    0    0  0.00000000000E+00  0.00000000000E+00  0.17990156561E+03  0.33988584396E+04  0.33940940056E+04 0.  0.
        1    1    3    3  502    0 -0.16342969828E+04  0.43875082496E+03  0.21873774908E+03  0.17062459135E+04  0.50400001928E-02 0. -1.
       -1    1    3    3    0  502  0.16342969828E+04 -0.43875082496E+03 -0.38836183470E+02  0.16926125261E+04  0.50400001928E-02 0.  1.
</event>
<event>
 5   0  0.1897313E-07  0.3395236E+04  0.7818609E-02  0.8139076E-01
        2   -1    0    0  501    0  0.00000000000E+00  0.00000000000E+00  0.85807083489E+03  0.85807083489E+03  0.25500000920E-02 0.  1.
       -2   -1    0    0    0  501  0.00000000000E+00  0.00000000000E+00 -0.33585891664E+04  0.33585891664E+04  0.25500000920E-02 0. -1.
    10030    2    1    2    0    0  0.00000000000E+00  0.00000000000E+00 -0.25005183315E+04  0.42166600013E+04  0.33952363158E+04 0.  0.
        3    1    3    3  502    0 -0.10855934587E+04  0.91689442753E+01 -0.28711189497E+04  0.30695148250E+04  0.10100000352E+00 0. -1.
       -3    1    3    3    0  502  0.10855934587E+04 -0.91689442753E+01  0.37060061820E+03  0.11471451763E+04  0.10100000352E+00 0.  1.
</event>
<event>
 5   0  0.1986613E-07  0.3353039E+04  0.7818609E-02  0.8149529E-01
       -2   -1    0    0    0  501  0.00000000000E+00  0.00000000000E+00  0.10918228463E+04  0.10918228463E+04  0.25500000920E-02 0. -1.
        2   -1    0    0  501    0  0.00000000000E+00  0.00000000000E+00 -0.25743346745E+04  0.25743346745E+04  0.25500000920E-02 0.  1.
    10030    2    1    2    0    0  0.00000000000E+00  0.00000000000E+00 -0.14825118282E+04  0.36661575208E+04  0.33530388675E+04 0.  0.
        5    1    3    3  502    0  0.12630600173E+03 -0.12428172721E+04  0.48125609662E+03  0.13387223380E+04  0.46999998093E+01 0. -1.
       -5    1    3    3    0  502 -0.12630600173E+03  0.12428172721E+04 -0.19637679248E+04  0.23274351828E+04  0.46999998093E+01 0.  1.
</event>
<event>
 5   0  0.6367111E-08  0.3395976E+04  0.7818609E-02  0.8138895E-01
       -1   -1    0    0    0  501  0.00000000000E+00  0.00000000000E+00  0.10087272857E+04  0.10087272857E+04  0.50400001928E-02 0.  1.
        1   -1    0    0  501    0  0.00000000000E+00  0.00000000000E+00 -0.28582191962E+04  0.28582191962E+04  0.50400001928E-02 0. -1.
    10030    2    1    2    0    0  0.00000000000E+00  0.00000000000E+00 -0.18494919105E+04  0.38669464820E+04  0.33959762613E+04 0.  0.
        3    1    3    3  502    0  0.60726581335E+03  0.14989609612E+04 -0.15136870547E+04  0.22151533222E+04  0.10100000352E+00 0. -1.
       -3    1    3    3    0  502 -0.60726581335E+03 -0.14989609612E+04 -0.33580485577E+03  0.16517931597E+04  0.10100000352E+00 0.  1.
</event>
<event>
 5   0  0.6311750E-08  0.3369083E+04  0.7818609E-02  0.8145536E-01
        1   -1    0    0  501    0  0.00000000000E+00  0.00000000000E+00  0.15857764367E+04  0.15857764367E+04  0.50400001928E-02 0.  1.
       -1   -1    0    0    0  501  0.00000000000E+00  0.00000000000E+00 -0.17894576501E+04  0.17894576502E+04  0.50400001928E-02 0. -1.
    10030    2    1    2    0    0  0.00000000000E+00  0.00000000000E+00 -0.20368121344E+03  0.33752340869E+04  0.33690828284E+04 0.  0.
        4    1    3    3  502    0 -0.23729381457E+02 -0.12406764776E+04 -0.12431470754E+04  0.17564900995E+04  0.12699999809E+01 0. -1.
       -4    1    3    3    0  502  0.23729381457E+02  0.12406764776E+04  0.10394658620E+04  0.16187439874E+04  0.12699999809E+01 0.  1.
</event>
<event>
 5   0  0.1963852E-07  0.3401489E+04  0.7818609E-02  0.8137541E-01
       -2   -1    0    0    0  501  0.00000000000E+00  0.00000000000E+00  0.18385707818E+04  0.18385707818E+04  0.25500000920E-02 0. -1.
        2   -1    0    0  501    0  0.00000000000E+00  0.00000000000E+00 -0.15732505656E+04  0.15732505656E+04  0.25500000920E-02 0.  1.
    10030    2    1    2    0    0  0.00000000000E+00  0.00000000000E+00  0.26532021626E+03  0.34118213474E+04  0.34014893928E+04 0.  0.
        4    1    3    3  502    0  0.14283986295E+04 -0.91924067462E+03  0.21779930208E+03  0.17125315214E+04  0.12699999809E+01 0. -1.
       -4    1    3    3    0  502 -0.14283986295E+04  0.91924067462E+03  0.47520914177E+02  0.16992898261E+04  0.12699999809E+01 0.  1.
</event>
<event>
 5   0  0.6367111E-08  0.3371515E+04  0.7818609E-02  0.8144933E-01
        1   -1    0    0  501    0  0.00000000000E+00  0.00000000000E+00  0.26695140108E+04  0.26695140108E+04  0.50400001928E-02 0.  1.
       -1   -1    0    0    0  501  0.00000000000E+00  0.00000000000E+00 -0.10645302367E+04  0.10645302367E+04  0.50400001928E-02 0. -1.
    10030    2    1    2    0    0  0.00000000000E+00  0.00000000000E+00  0.16049837741E+04  0.37340442476E+04  0.33715150196E+04 0.  0.
        3    1    3    3  502    0  0.13627880876E+04 -0.42912645577E+03  0.17933650603E+04  0.22929237092E+04  0.10100000352E+00 0.  1.
       -3    1    3    3    0  502 -0.13627880876E+04  0.42912645577E+03 -0.18838128616E+03  0.14411205383E+04  0.10100000352E+00 0. -1.
</event>
<event>
 5   0  0.6788600E-08  0.3394017E+04  0.7818609E-02  0.8139376E-01
        1   -1    0    0  501    0  0.00000000000E+00  0.00000000000E+00  0.17314957606E+04  0.17314957607E+04  0.50400001928E-02 0. -1.
       -1   -1    0    0    0  501  0.00000000000E+00  0.00000000000E+00 -0.16632079451E+04  0.16632079451E+04  0.50400001928E-02 0.  1.
    10030    2    1    2    0    0  0.00000000000E+00  0.00000000000E+00  0.68287815587E+02  0.33947037057E+04  0.33940167978E+04 0.  0.
        2    1    3    3  502    0  0.47595540069E+03  0.13569850000E+04 -0.86709099020E+03  0.16792226234E+04  0.25500000920E-02 0.  1.
       -2    1    3    3    0  502 -0.47595540069E+03 -0.13569850000E+04  0.93537880579E+03  0.17154810823E+04  0.25500000920E-02 0. -1.
</event>
<event>
 5   0  0.6367111E-08  0.3399984E+04  0.7818609E-02  0.8137910E-01
        1   -1    0    0  501    0  0.00000000000E+00  0.00000000000E+00  0.12303010115E+04  0.12303010115E+04  0.50400001928E-02 0.  1.
       -1   -1    0    0    0  501  0.00000000000E+00  0.00000000000E+00 -0.23489967693E+04  0.23489967693E+04  0.50400001928E-02 0. -1.
    10030    2    1    2    0    0  0.00000000000E+00  0.00000000000E+00 -0.11186957578E+04  0.35792977808E+04  0.33999841772E+04 0.  0.
        3    1    3    3  502    0  0.36264824629E+03  0.10797273256E+04  0.76921119107E+03  0.13744128618E+04  0.10100000352E+00 0.  1.
       -3    1    3    3    0  502 -0.36264824629E+03 -0.10797273256E+04 -0.18879069489E+04  0.22048849190E+04  0.10100000352E+00 0. -1.
</event>
<event>
 5   0  0.6367111E-08  0.3399678E+04  0.7818609E-02  0.8137985E-01
        1   -1    0    0  501    0  0.00000000000E+00  0.00000000000E+00  0.20258750594E+04  0.20258750594E+04  0.50400001928E-02 0.  1.
       -1   -1    0    0    0  501  0.00000000000E+00  0.00000000000E+00 -0.14262735091E+04  0.14262735092E+04  0.50400001928E-02 0. -1.
    10030    2    1    2    0    0  0.00000000000E+00  0.00000000000E+00  0.59960155021E+03  0.34521485685E+04  0.33996775906E+04 0.  0.
        3    1    3    3  502    0 -0.15863596182E+04 -0.57019250068E+03  0.77804505573E+02  0.16875158895E+04  0.10100000352E+00 0. -1.
       -3    1    3    3    0  502  0.15863596182E+04  0.57019250068E+03  0.52179704463E+03  0.17646326790E+04  0.10100000352E+00 0.  1.
</event>
<event>
 5   0  0.6341535E-08  0.3387859E+04  0.7818609E-02  0.8140892E-01
       -1   -1    0    0    0  501  0.00000000000E+00  0.00000000000E+00  0.14901311879E+04  0.14901311879E+04  0.50400001928E-02 0. -1.
        1   -1    0    0  501    0  0.00000000000E+00  0.00000000000E+00 -0.19256009160E+04  0.19256009160E+04  0.50400001928E-02 0.  1.
    10030    2    1    2    0    0  0.00000000000E+00  0.00000000000E+00 -0.43546972813E+03  0.34157321040E+04  0.33878594897E+04 0.  0.
        5    1    3    3  502    0 -0.91098410035E+03  0.56810547815E+03 -0.15387587737E+04  0.18762826331E+04  0.46999998093E+01 0.  1.
       -5    1    3    3    0  502  0.91098410035E+03 -0.56810547815E+03  0.11032890456E+04  0.15394494709E+04  0.46999998093E+01 0. -1.
</event>
<event>
 5   0  0.6788600E-08  0.3447373E+04  0.7818609E-02  0.8126376E-01
       -1   -1    0    0    0  501  0.00000000000E+00  0.00000000000E+00  0.94005417972E+03  0.94005417973E+03  0.50400001928E-02 0.  1.
        1   -1    0    0  501    0  0.00000000000E+00  0.00000000000E+00 -0.31605574588E+04  0.31605574588E+04  0.50400001928E-02 0. -1.
    10030    2    1    2    0    0  0.00000000000E+00  0.00000000000E+00 -0.22205032791E+04  0.41006116385E+04  0.34473730575E+04 0.  0.
        2    1    3    3  502    0 -0.53128635834E+03 -0.28886277298E+03 -0.30302311346E+04  0.30899850526E+04  0.25500000920E-02 0. -1.
       -2    1    3    3    0  502  0.53128635834E+03  0.28886277298E+03  0.80972785553E+03  0.10106265859E+04  0.25500000920E-02 0.  1.
</event>
<event>
 5   0  0.6788600E-08  0.3398109E+04  0.7818609E-02  0.8138371E-01
        1   -1    0    0  501    0  0.00000000000E+00  0.00000000000E+00  0.19256013141E+04  0.19256013141E+04  0.50400001928E-02 0. -1.
       -1   -1    0    0    0  501  0.00000000000E+00  0.00000000000E+00 -0.14991607019E+04  0.14991607019E+04  0.50400001928E-02 0.  1.
    10030    2    1    2    0    0  0.00000000000E+00  0.00000000000E+00  0.42644061218E+03  0.34247620160E+04  0.33981087785E+04 0.  0.
        2    1    3    3  502    0 -0.68128569545E+03 -0.10084046085E+04 -0.98172508211E+03  0.15635901605E+04  0.25500000920E-02 0.  1.
       -2    1    3    3    0  502  0.68128569545E+03  0.10084046085E+04  0.14081656943E+04  0.18611718555E+04  0.25500000920E-02 0. -1.
</event>
<event>
 5   0  0.1986613E-07  0.3396368E+04  0.7818609E-02  0.8138798E-01
       -2   -1    0    0    0  501  0.00000000000E+00  0.00000000000E+00  0.17668427958E+04  0.17668427958E+04  0.25500000920E-02 0.  1.
        2   -1    0    0  501    0  0.00000000000E+00  0.00000000000E+00 -0.16321928595E+04  0.16321928595E+04  0.25500000920E-02 0. -1.
    10030    2    1    2    0    0  0.00000000000E+00  0.00000000000E+00  0.13464993632E+03  0.33990356553E+04  0.33963675862E+04 0.  0.
        5    1    3    3  502    0 -0.12677985083E+04 -0.51407301447E+03 -0.93955781616E+03  0.16596310137E+04  0.46999998093E+01 0. -1.
       -5    1    3    3    0  502  0.12677985083E+04  0.51407301447E+03  0.10742077525E+04  0.17394046416E+04  0.46999998093E+01 0.  1.
</event>
<event>
 5   0  0.6367111E-08  0.3391049E+04  0.7818609E-02  0.8140107E-01
        1   -1    0    0  501    0  0.00000000000E+00  0.00000000000E+00  0.16753623998E+04  0.16753623998E+04  0.50400001928E-02 0. -1.
       -1   -1    0    0    0  501  0.00000000000E+00  0.00000000000E+00 -0.17159293474E+04  0.17159293474E+04  0.50400001928E-02 0.  1.
    10030    2    1    2    0    0  0.00000000000E+00  0.00000000000E+00 -0.40566947614E+02  0.33912917472E+04  0.33910491057E+04 0.  0.
        3    1    3    3  502    0  0.41158277608E+03 -0.14896488345E+04  0.67715402879E+03  0.16873030613E+04  0.10100000352E+00 0.  1.
       -3    1    3    3    0  502 -0.41158277608E+03  0.14896488345E+04 -0.71772097640E+03  0.17039886859E+04  0.10100000352E+00 0. -1.
</event>
<event>
 5   0  0.1986613E-07  0.3396923E+04  0.7818609E-02  0.8138662E-01
        2   -1    0    0  501    0  0.00000000000E+00  0.00000000000E+00  0.24004037202E+04  0.24004037202E+04  0.25500000920E-02 0. -1.
       -2   -1    0    0    0  501  0.00000000000E+00  0.00000000000E+00 -0.12017862184E+04  0.12017862184E+04  0.25500000920E-02 0.  1.
    10030    2    1    2    0    0  0.00000000000E+00  0.00000000000E+00  0.11986175018E+04  0.36021899385E+04  0.33969233782E+04 0.  0.
        5    1    3    3  502    0  0.62602776245E+03 -0.10579390611E+04  0.18421385664E+04  0.22146427260E+04  0.46999998093E+01 0. -1.
       -5    1    3    3    0  502 -0.62602776245E+03  0.10579390611E+04 -0.64352106457E+03  0.13875472125E+04  0.46999998093E+01 0.  1.
</event>
<event>
 5   0  0.6367111E-08  0.3403216E+04  0.7818609E-02  0.8137118E-01
       -1   -1    0    0    0  501  0.00000000000E+00  0.00000000000E+00  0.18854269031E+04  0.18854269031E+04  0.50400001928E-02 0. -1.
        1   -1    0    0  501    0  0.00000000000E+00  0.00000000000E+00 -0.15357101727E+04  0.15357101727E+04  0.50400001928E-02 0.  1.
    10030    2    1    2    0    0  0.00000000000E+00  0.00000000000E+00  0.34971673035E+03  0.34211370758E+04  0.34032156999E+04 0.  0.
        3    1    3    3  502    0 -0.44730147292E+03 -0.10898738718E+03 -0.14719110910E+04  0.15422318659E+04  0.10100000352E+00 0.  1.
       -3    1    3    3    0  502  0.44730147292E+03  0.10898738718E+03  0.18216278213E+04  0.18789052099E+04  0.10100000352E+00 0. -1.
</event>
<event>
 5   0  0.1963852E-07  0.3401523E+04  0.7818609E-02  0.8137533E-01
        2   -1    0    0  501    0  0.00000000000E+00  0.00000000000E+00  0.21777831409E+04  0.21777831409E+04  0.25500000920E-02 0. -1.
       -2   -1    0    0    0  501  0.00000000000E+00  0.00000000000E+00 -0.13282270291E+04  0.13282270291E+04  0.25500000920E-02 0.  1.
    10030    2    1    2    0    0  0.00000000000E+00  0.00000000000E+00  0.84955611189E+03  0.35060101700E+04  0.34015234418E+04 0.  0.
        4    1    3    3  502    0  0.13032798971E+04 -0.40001699020E+03 -0.62333392947E+03  0.14990326491E+04  0.12699999809E+01 0.  1.
       -4    1    3    3    0  502 -0.13032798971E+04  0.40001699020E+03  0.14728900414E+04  0.20069775209E+04  0.12699999809E+01 0. -1.
</event>
<event>
 5   0  0.6311750E-08  0.3397474E+04  0.7818609E-02  0.8138527E-01
        1   -1    0    0  501    0  0.00000000000E+00  0.00000000000E+00  0.17525603156E+04  0.17525603156E+04  0.50400001928E-02 0. -1.
       -1   -1    0    0    0  501  0.00000000000E+00  0.00000000000E+00 -0.16465664158E+04  0.16465664158E+04  0.50400001928E-02 0.  1.
    10030    2    1    2    0    0  0.00000000000E+00  0.00000000000E+00  0.10599389983E+03  0.33991267314E+04  0.33974737423E+04 0.  0.
        4    1    3    3  502    0  0.11316431075E+04 -0.10777650701E+04  0.71928768835E+03  0.17203401003E+04  0.12699999809E+01 0.  1.
       -4    1    3    3    0  502 -0.11316431075E+04  0.10777650701E+04 -0.61329378852E+03  0.16787866312E+04  0.12699999809E+01 0. -1.
</event>
<event>
 5   0  0.1963852E-07  0.3404059E+04  0.7818609E-02  0.8136911E-01
        2   -1    0    0  501    0  0.00000000000E+00  0.00000000000E+00  0.23604204246E+04  0.23604204246E+04  0.25500000920E-02 0. -1.
       -2   -1    0    0    0  501  0.00000000000E+00  0.00000000000E+00 -0.12272833565E+04  0.12272833565E+04  0.25500000920E-02 0.  1.
    10030    2    1    2    0    0  0.00000000000E+00  0.00000000000E+00  0.11331370681E+04  0.35877037811E+04  0.34040591661E+04 0.  0.
        4    1    3    3  502    0 -0.81736458036E+03 -0.56461407179E+03 -0.89002869543E+03  0.13338015590E+04  0.12699999809E+01 0.  1.
       -4    1    3    3    0  502  0.81736458036E+03  0.56461407179E+03  0.20231657635E+04  0.22539022221E+04  0.12699999809E+01 0. -1.
</event>
<event>
 5   0  0.1928004E-07  0.3392917E+04  0.7818609E-02  0.8139647E-01
        2   -1    0    0  501    0  0.00000000000E+00  0.00000000000E+00  0.21158956126E+04  0.21158956127E+04  0.25500000920E-02 0.  1.
       -2   -1    0    0    0  501  0.00000000000E+00  0.00000000000E+00 -0.13601673877E+04  0.13601673877E+04  0.25500000920E-02 0. -1.
    10030    2    1    2    0    0  0.00000000000E+00  0.00000000000E+00  0.75572822494E+03  0.34760630004E+04  0.33929174515E+04 0.  0.
        2    1    3    3  502    0 -0.98711715192E+03  0.57210361972E+03  0.16641264865E+04  0.20176768290E+04  0.25500000920E-02 0.  1.
       -2    1    3    3    0  502  0.98711715192E+03 -0.57210361972E+03 -0.90839826152E+03  0.14583861714E+04  0.25500000920E-02 0. -1.
</event>
<event>
 5   0  0.6584420E-08  0.3398563E+04  0.7818609E-02  0.8138259E-01
       -1   -1    0    0    0  501  0.00000000000E+00  0.00000000000E+00  0.15102268665E+04  0.15102268665E+04  0.50400001928E-02 0. -1.
        1   -1    0    0  501    0  0.00000000000E+00  0.00000000000E+00 -0.19120023587E+04  0.19120023587E+04  0.50400001928E-02 0.  1.
    10030    2    1    2    0    0  0.00000000000E+00  0.00000000000E+00 -0.40177549220E+03  0.34222292251E+04  0.33985628320E+04 0.  0.
        1    1    3    3  502    0  0.68486525058E+03  0.53965644110E+03 -0.16695668693E+04  0.18835400227E+04  0.50400001928E-02 0.  1.
       -1    1    3    3    0  502 -0.68486525058E+03 -0.53965644110E+03  0.12677913771E+04  0.15386892025E+04  0.50400001928E-02 0. -1.
</event>
<event>
 5   0  0.6311750E-08  0.3399693E+04  0.7818609E-02  0.8137982E-01
       -3   -1    0    0    0  501  0.00000000000E+00  0.00000000000E+00  0.18188866112E+04  0.18188866140E+04  0.10100000352E+00 0.  1.
        3   -1    0    0  501    0  0.00000000000E+00  0.00000000000E+00 -0.15885967082E+04  0.15885967114E+04  0.10100000352E+00 0. -1.
    10030    2    1    2    0    0  0.00000000000E+00  0.00000000000E+00  0.23028990299E+03  0.34074833255E+04  0.33996925117E+04 0.  0.
        3    1    3    3  502    0  0.45370238975E+03  0.16367997162E+04  0.47773999335E+02  0.16991884930E+04  0.10100000352E+00 0. -1.
       -3    1    3    3    0  502 -0.45370238975E+03 -0.16367997162E+04  0.18251590365E+03  0.17082948325E+04  0.10100000352E+00 0.  1.
</event>
<event>
 5   0  0.6584420E-08  0.3404051E+04  0.7818609E-02  0.8136913E-01
        1   -1    0    0  501    0  0.00000000000E+00  0.00000000000E+00  0.20616768151E+04  0.20616768151E+04  0.50400001928E-02 0. -1.
       -1   -1    0    0    0  501  0.00000000000E+00  0.00000000000E+00 -0.14051143005E+04  0.14051143005E+04  0.50400001928E-02 0.  1.
    10030    2    1    2    0    0  0.00000000000E+00  0.00000000000E+00  0.65656251467E+03  0.34667911156E+04  0.34040514543E+04 0.  0.
        1    1    3    3  502    0 -0.45687049495E+03  0.12999877845E+04 -0.68922889391E+03  0.15406931418E+04  0.50400001928E-02 0.  1.
       -1    1    3    3    0  502  0.45687049495E+03 -0.12999877845E+04  0.13457914086E+04  0.19260979738E+04  0.50400001928E-02 0. -1.
</event>
<event>
 5   0  0.1986613E-07  0.3400817E+04  0.7818609E-02  0.8137706E-01
        2   -1    0    0  501    0  0.00000000000E+00  0.00000000000E+00  0.21563750694E+04  0.21563750694E+04  0.25500000920E-02 0. -1.
       -2   -1    0    0    0  501  0.00000000000E+00  0.00000000000E+00 -0.13408564041E+04  0.13408564041E+04  0.25500000920E-02 0.  1.
    10030    2    1    2    0    0  0.00000000000E+00  0.00000000000E+00  0.81551866538E+03  0.34972314735E+04  0.34008171497E+04 0.  0.
        5    1    3    3  502    0  0.16011281188E+04 -0.10952500566E+03 -0.17009693202E+03  0.16138655570E+04  0.46999998093E+01 0. -1.
       -5    1    3    3    0  502 -0.16011281188E+04  0.10952500566E+03  0.98561559740E+03  0.18833659165E+04  0.46999998093E+01 0.  1.
</event>
<event>
 5   0  0.1897313E-07  0.3400200E+04  0.7818609E-02  0.8137857E-01
        2   -1    0    0  501    0  0.00000000000E+00  0.00000000000E+00  0.13341959335E+04  0.13341959335E+04  0.25500000920E-02 0.  1.
       -2   -1    0    0    0  501  0.00000000000E+00  0.00000000000E+00 -0.21663532910E+04  0.21663532910E+04  0.25500000920E-02 0. -1.
    10030    2    1    2    0    0  0.00000000000E+00  0.00000000000E+00 -0.83215735751E+03  0.35005492246E+04  0.34001998480E+04 0.  0.
        3    1    3    3  502    0  0.10024471661E+03 -0.46813791181E+02  0.13304858082E+04  0.13350779117E+04  0.10100000352E+00 0.  1.
       -3    1    3    3    0  502 -0.10024471661E+03  0.46813791181E+02 -0.21626431657E+04  0.21654713129E+04  0.10100000352E+00 0. -1.
</event>
<event>
 5   0  0.1897313E-07  0.3405212E+04  0.7818609E-02  0.8136628E-01
       -2   -1    0    0    0  501  0.00000000000E+00  0.00000000000E+00  0.13927318935E+04  0.13927318935E+04  0.25500000920E-02 0.  1.
        2   -1    0    0  501    0  0.00000000000E+00  0.00000000000E+00 -0.20814249583E+04  0.20814249583E+04  0.25500000920E-02 0. -1.
    10030    2    1    2    0    0  0.00000000000E+00  0.00000000000E+00 -0.68869306481E+03  0.34741568518E+04  0.34052118426E+04 0.  0.
        3    1    3    3  502    0 -0.13320055136E+04 -0.45570886578E+03 -0.13213136062E+04  0.19307456887E+04  0.10100000352E+00 0. -1.
       -3    1    3    3    0  502  0.13320055136E+04  0.45570886578E+03  0.63262054138E+03  0.15434111630E+04  0.10100000352E+00 0.  1.
</event>
<event>
 5   0  0.6788600E-08  0.3394000E+04  0.7818609E-02  0.8139381E-01
        1   -1    0    0  501    0  0.00000000000E+00  0.00000000000E+00  0.15202656663E+04  0.15202656663E+04  0.50400001928E-02 0.  1.
       -1   -1    0    0    0  501  0.00000000000E+00  0.00000000000E+00 -0.18942796545E+04  0.18942796545E+04  0.50400001928E-02 0. -1.
    10030    2    1    2    0    0  0.00000000000E+00  0.00000000000E+00 -0.37401398821E+03  0.34145453208E+04  0.33939995999E+04 0.  0.
        2    1    3    3  502    0 -0.49239140842E+03 -0.14393666250E+04 -0.94361192739E+03  0.17901477732E+04  0.25500000920E-02 0. -1.
       -2    1    3    3    0  502  0.49239140842E+03  0.14393666250E+04  0.56959793917E+03  0.16243975476E+04  0.25500000920E-02 0.  1.
</event>
<event>
 5   0  0.1963852E-07  0.3398224E+04  0.7818609E-02  0.8138342E-01
       -2   -1    0    0    0  501  0.00000000000E+00  0.00000000000E+00  0.16853161707E+04  0.16853161707E+04  0.25500000920E-02 0.  1.
        2   -1    0    0  501    0  0.00000000000E+00  0.00000000000E+00 -0.17130212052E+04  0.17130212052E+04  0.25500000920E-02 0. -1.
    10030    2    1    2    0    0  0.00000000000E+00  0.00000000000E+00 -0.27705034525E+02  0.33983373759E+04  0.33982244410E+04 0.  0.
        4    1    3    3  502    0 -0.17594685475E+03  0.84392808592E+01  0.16761599198E+04  0.16853908173E+04  0.12699999809E+01 0.  1.
       -4    1    3    3    0  502  0.17594685475E+03 -0.84392808592E+01 -0.17038649543E+04  0.17129465586E+04  0.12699999809E+01 0. -1.
</event>
<event>
 5   0  0.6584420E-08  0.3393470E+04  0.7818609E-02  0.8139511E-01
        1   -1    0    0  501    0  0.00000000000E+00  0.00000000000E+00  0.24976645283E+04  0.24976645283E+04  0.50400001928E-02 0.  1.
       -1   -1    0    0    0  501  0.00000000000E+00  0.00000000000E+00 -0.11526409249E+04  0.11526409249E+04  0.50400001928E-02 0. -1.
    10030    2    1    2    0    0  0.00000000000E+00  0.00000000000E+00  0.13450236034E+04  0.36503054532E+04  0.33934704076E+04 0.  0.
        1    1    3    3  502    0  0.45498748253E+03 -0.11322429644E+04  0.19406904914E+04  0.22924369834E+04  0.50400001928E-02 0.  1.
       -1    1    3    3    0  502 -0.45498748253E+03  0.11322429644E+04 -0.59566688796E+03  0.13578684697E+04  0.50400001928E-02 0. -1.
</event>
<event>
 5   0  0.1897313E-07  0.3405141E+04  0.7818609E-02  0.8136646E-01
        2   -1    0    0  501    0  0.00000000000E+00  0.00000000000E+00  0.17506442666E+04  0.17506442666E+04  0.25500000920E-02 0. -1.
       -2   -1    0    0    0  501  0.00000000000E+00  0.00000000000E+00 -0.16558169073E+04  0.16558169073E+04  0.25500000920E-02 0.  1.
    10030    2    1    2    0    0  0.00000000000E+00  0.00000000000E+00  0.94827359364E+02  0.34064611739E+04  0.34051410398E+04 0.  0.
        3    1    3    3  502    0  0.26391516269E+03 -0.27565299429E+03  0.17073069567E+04  0.17494378643E+04  0.10100000352E+00 0. -1.
       -3    1    3    3    0  502 -0.26391516269E+03  0.27565299429E+03 -0.16124795974E+04  0.16570233096E+04  0.10100000352E+00 0.  1.
</event>
<event>
 5   0  0.6584420E-08  0.3399333E+04  0.7818609E-02  0.8138070E-01
       -1   -1    0    0    0  501  0.00000000000E+00  0.00000000000E+00  0.29804006939E+04  0.29804006939E+04  0.50400001928E-02 0. -1.
        1   -1    0    0  501    0  0.00000000000E+00  0.00000000000E+00 -0.96928803103E+03  0.96928803104E+03  0.50400001928E-02 0.  1.
    10030    2    1    2    0    0  0.00000000000E+00  0.00000000000E+00  0.20111126628E+04  0.39496887249E+04  0.33993332995E+04 0.  0.
        1    1    3    3  502    0  0.13561137602E+04  0.29844917238E+03 -0.13331426858E+03  0.13949513014E+04  0.50400001928E-02 0. -1.
       -1    1    3    3    0  502 -0.13561137602E+04 -0.29844917238E+03  0.21444269314E+04  0.25547374235E+04  0.50400001928E-02 0.  1.
</event>
<event>
 5   0  0.1986613E-07  0.3401168E+04  0.7818609E-02  0.8137620E-01
       -2   -1    0    0    0  501  0.00000000000E+00  0.00000000000E+00  0.17460310184E+04  0.17460310184E+04  0.25500000920E-02 0.  1.
        2   -1    0    0  501    0  0.00000000000E+00  0.00000000000E+00 -0.16563197762E+04  0.16563197762E+04  0.25500000920E-02 0. -1.
    10030    2    1    2    0    0  0.00000000000E+00  0.00000000000E+00  0.89711242178E+02  0.34023507946E+04  0.34011678615E+04 0.  0.
        5    1    3    3  502    0 -0.53081569437E+03 -0.75105200875E+03 -0.13860681122E+04  0.16634456177E+04  0.46999998093E+01 0. -1.
       -5    1    3    3    0  502  0.53081569437E+03  0.75105200875E+03  0.14757793544E+04  0.17389051769E+04  0.46999998093E+01 0.  1.
</event>
<event>
 5   0  0.6311750E-08  0.3429111E+04  0.7818609E-02  0.8130798E-01
        1   -1    0    0  501    0  0.00000000000E+00  0.00000000000E+00  0.15893526802E+04  0.15893526802E+04  0.50400001928E-02 0. -1.
       -1   -1    0    0    0  501  0.00000000000E+00  0.00000000000E+00 -0.18496215004E+04  0.18496215004E+04  0.50400001928E-02 0.  1.
    10030    2    1    2    0    0  0.00000000000E+00  0.00000000000E+00 -0.26026882024E+03  0.34389741806E+04  0.34291111904E+04 0.  0.
        4    1    3    3  502    0 -0.13845258292E+04  0.51091169219E+03 -0.10054315362E+04  0.17857314232E+04  0.12699999809E+01 0.  1.
       -4    1    3    3    0  502  0.13845258292E+04 -0.51091169219E+03  0.74516271593E+03  0.16532427574E+04  0.12699999809E+01 0. -1.
</event>
<event>
 5   0  0.1928004E-07  0.3395130E+04  0.7818609E-02  0.8139103E-01
       -2   -1    0    0    0  501  0.00000000000E+00  0.00000000000E+00  0.99821646590E+03  0.99821646590E+03  0.25500000920E-02 0. -1.
        2   -1    0    0  501    0  0.00000000000E+00  0.00000000000E+00 -0.28868755455E+04  0.28868755455E+04  0.25500000920E-02 0.  1.
    10030    2    1    2    0    0  0.00000000000E+00  0.00000000000E+00 -0.18886590796E+04  0.38850920114E+04  0.33951298676E+04 0.  0.
        2    1    3    3  502    0  0.88692517745E+03 -0.88211847800E+03  0.36887019126E+03  0.13041604570E+04  0.25500000920E-02 0. -1.
       -2    1    3    3    0  502 -0.88692517745E+03  0.88211847800E+03 -0.22575292708E+04  0.25809315544E+04  0.25500000920E-02 0.  1.
</event>
<event>
 5   0  0.1897313E-07  0.3396922E+04  0.7818609E-02  0.8138662E-01
       -2   -1    0    0    0  501  0.00000000000E+00  0.00000000000E+00  0.11674682847E+04  0.11674682847E+04  0.25500000920E-02 0.  1.
        2   -1    0    0  501    0  0.00000000000E+00  0.00000000000E+00 -0.24709624827E+04  0.24709624827E+04  0.25500000920E-02 0. -1.
    10030    2    1    2    0    0  0.00000000000E+00  0.00000000000E+00 -0.13034941980E+04  0.36384307674E+04  0.33969223313E+04 0.  0.
        3    1    3    3  502    0  0.38950181570E+03 -0.47356732653E+03 -0.23482745148E+04  0.24270086288E+04  0.10100000352E+00 0. -1.
       -3    1    3    3    0  502 -0.38950181570E+03  0.47356732653E+03  0.10447803168E+04  0.12114221386E+04  0.10100000352E+00 0.  1.
</event>
<event>
 5   0  0.6341535E-08  0.3416332E+04  0.7818609E-02  0.8133909E-01
       -1   -1    0    0    0  501  0.00000000000E+00  0.00000000000E+00  0.10902306015E+04  0.10902306015E+04  0.50400001928E-02 0. -1.
        1   -1    0    0  501    0  0.00000000000E+00  0.00000000000E+00 -0.26763433146E+04  0.26763433146E+04  0.50400001928E-02 0.  1.
    10030    2    1    2    0    0  0.00000000000E+00  0.00000000000E+00 -0.15861127132E+04  0.37665739161E+04  0.34163321746E+04 0.  0.
        5    1    3    3  502    0  0.12767778368E+03  0.68477262504E+03  0.92651907067E+03  0.11591698938E+04  0.46999998093E+01 0. -1.
       -5    1    3    3    0  502 -0.12767778368E+03 -0.68477262504E+03 -0.25126317838E+04  0.26074040223E+04  0.46999998093E+01 0.  1.
</event>
<event>
 5   0  0.1986613E-07  0.3396340E+04  0.7818609E-02  0.8138805E-01
        2   -1    0    0  501    0  0.00000000000E+00  0.00000000000E+00  0.21683325901E+04  0.21683325901E+04  0.25500000920E-02 0.  1.
       -2   -1    0    0    0  501  0.00000000000E+00  0.00000000000E+00 -0.13299533502E+04  0.13299533502E+04  0.25500000920E-02 0. -1.
    10030    2    1    2    0    0  0.00000000000E+00  0.00000000000E+00  0.83837923985E+03  0.34982859403E+04  0.33963399080E+04 0.  0.
        5    1    3    3  502    0 -0.10865512073E+04  0.80060757981E+03  0.14807529062E+04  0.20035511678E+04  0.46999998093E+01 0.  1.
       -5    1    3    3    0  502  0.10865512073E+04 -0.80060757981E+03 -0.64237366633E+03  0.14947347725E+04  0.46999998093E+01 0. -1.
</event>
<event>
 5   0  0.1963852E-07  0.3404952E+04  0.7818609E-02  0.8136692E-01
        2   -1    0    0  501    0  0.00000000000E+00  0.00000000000E+00  0.27263034741E+04  0.27263034741E+04  0.25500000920E-02 0.  1.
       -2   -1    0    0    0  501  0.00000000000E+00  0.00000000000E+00 -0.10631334730E+04  0.10631334731E+04  0.25500000920E-02 0. -1.
    10030    2    1    2    0    0  0.00000000000E+00  0.00000000000E+00  0.16631700011E+04  0.37894369472E+04  0.34049519709E+04 0.  0.
        4    1    3    3  502    0 -0.60852639579E+03  0.34212064762E+03 -0.89651464357E+03  0.11362618672E+04  0.12699999809E+01 0. -1.
       -4    1    3    3    0  502  0.60852639579E+03 -0.34212064762E+03  0.25596846447E+04  0.26531750800E+04  0.12699999809E+01 0.  1.
</event>
<event>
 5   0  0.1928004E-07  0.3390287E+04  0.7818609E-02  0.8140294E-01
        2   -1    0    0  501    0  0.00000000000E+00  0.00000000000E+00  0.26682741713E+04  0.26682741713E+04  0.25500000920E-02 0.  1.
       -2   -1    0    0    0  501  0.00000000000E+00  0.00000000000E+00 -0.10769176450E+04  0.10769176450E+04  0.25500000920E-02 0. -1.
    10030    2    1    2    0    0  0.00000000000E+00  0.00000000000E+00  0.15913565262E+04  0.37451918163E+04  0.33902870302E+04 0.  0.
        2    1    3    3  502    0  0.54964590935E+02  0.16916001579E+04  0.69099922572E+03  0.18281170997E+04  0.25500000920E-02 0.  1.
       -2    1    3    3    0  502 -0.54964590935E+02 -0.16916001579E+04  0.90035730052E+03  0.19170747166E+04  0.25500000920E-02 0. -1.
</event>
<event>
 5   0  0.6788600E-08  0.3398699E+04  0.7818609E-02  0.8138226E-01
       -1   -1    0    0    0  501  0.00000000000E+00  0.00000000000E+00  0.10866465939E+04  0.10866465939E+04  0.50400001928E-02 0. -1.
        1   -1    0    0  501    0  0.00000000000E+00  0.00000000000E+00 -0.26575237341E+04  0.26575237341E+04  0.50400001928E-02 0.  1.
    10030    2    1    2    0    0  0.00000000000E+00  0.00000000000E+00 -0.15708771402E+04  0.37441703280E+04  0.33986992299E+04 0.  0.
        2    1    3    3  502    0  0.93556961127E+03  0.13991344374E+04 -0.10436133590E+04  0.19804031192E+04  0.25500000920E-02 0. -1.
       -2    1    3    3    0  502 -0.93556961127E+03 -0.13991344374E+04 -0.52726378121E+03  0.17637672087E+04  0.25500000920E-02 0.  1.
</event>
<event>
 5   0  0.1928004E-07  0.3399316E+04  0.7818609E-02  0.8138074E-01
        2   -1    0    0  501    0  0.00000000000E+00  0.00000000000E+00  0.22602577100E+04  0.22602577100E+04  0.25500000920E-02 0. -1.
       -2   -1    0    0    0  501  0.00000000000E+00  0.00000000000E+00 -0.12781005774E+04  0.12781005774E+04  0.25500000920E-02 0.  1.
    10030    2    1    2    0    0  0.00000000000E+00  0.00000000000E+00  0.98215713265E+03  0.35383582874E+04  0.33993156277E+04 0.  0.
        2    1    3    3  502    0  0.14358807496E+04  0.28546636875E+03 -0.40771709513E+03  0.15196966159E+04  0.25500000920E-02 0.  1.
       -2    1    3    3    0  502 -0.14358807496E+04 -0.28546636875E+03  0.13898742278E+04  0.20186616715E+04  0.25500000920E-02 0. -1.
</event>
<event>
 5   0  0.1986613E-07  0.3394234E+04  0.7818609E-02  0.8139323E-01
        2   -1    0    0  501    0  0.00000000000E+00  0.00000000000E+00  0.23067866897E+04  0.23067866897E+04  0.25500000920E-02 0. -1.
       -2   -1    0    0    0  501  0.00000000000E+00  0.00000000000E+00 -0.12485793712E+04  0.12485793712E+04  0.25500000920E-02 0.  1.
    10030    2    1    2    0    0  0.00000000000E+00  0.00000000000E+00  0.10582073186E+04  0.35553660609E+04  0.33942340959E+04 0.  0.
        5    1    3    3  502    0 -0.36121857318E+02  0.41081559896E+03 -0.11952882843E+04  0.12644407529E+04  0.46999998093E+01 0.  1.
       -5    1    3    3    0  502  0.36121857318E+02 -0.41081559896E+03  0.22534956029E+04  0.22909253080E+04  0.46999998093E+01 0. -1.
</event>
<event>
 5   0  0.1963852E-07  0.3400136E+04  0.7818609E-02  0.8137873E-01
        2   -1    0    0  501    0  0.00000000000E+00  0.00000000000E+00  0.11272926775E+04  0.11272926776E+04  0.25500000920E-02 0.  1.
       -2   -1    0    0    0  501  0.00000000000E+00  0.00000000000E+00 -0.25638698608E+04  0.25638698608E+04  0.25500000920E-02 0. -1.
    10030    2    1    2    0    0  0.00000000000E+00  0.00000000000E+00 -0.14365771833E+04  0.36911625384E+04  0.34001363033E+04 0.  0.
        4    1    3    3  502    0  0.73281703972E+02 -0.10576122865E+04 -0.21610717440E+04  0.24071033738E+04  0.12699999809E+01 0. -1.
       -4    1    3    3    0  502 -0.73281703972E+02  0.10576122865E+04  0.72449456071E+03  0.12840591646E+04  0.12699999809E+01 0.  1.
</event>
<event>
 5   0  0.1928004E-07  0.3402756E+04  0.7818609E-02  0.8137230E-01
        2   -1    0    0  501    0  0.00000000000E+00  0.00000000000E+00  0.20402289452E+04  0.20402289452E+04  0.25500000920E-02 0.  1.
       -2   -1    0    0    0  501  0.00000000000E+00  0.00000000000E+00 -0.14188051631E+04  0.14188051631E+04  0.25500000920E-02 0. -1.
    10030    2    1    2    0    0  0.00000000000E+00  0.00000000000E+00  0.62142378213E+03  0.34590341083E+04  0.34027561542E+04 0.  0.
        2    1    3    3  502    0 -0.11312724399E+04  0.11850384742E+03  0.15968915127E+04  0.19605823111E+04  0.25500000920E-02 0.  1.
       -2    1    3    3    0  502  0.11312724399E+04 -0.11850384742E+03 -0.97546773060E+03  0.14984517972E+04  0.25500000920E-02 0. -1.
</event>
<event>
 5   0  0.1986613E-07  0.3399887E+04  0.7818609E-02  0.8137934E-01
       -2   -1    0    0    0  501  0.00000000000E+00  0.00000000000E+00  0.10791152796E+04  0.10791152796E+04  0.25500000920E-02 0. -1.
        2   -1    0    0  501    0  0.00000000000E+00  0.00000000000E+00 -0.26779424601E+04  0.26779424601E+04  0.25500000920E-02 0.  1.
    10030    2    1    2    0    0  0.00000000000E+00  0.00000000000E+00 -0.15988271805E+04  0.37570577397E+04  0.33998874255E+04 0.  0.
        5    1    3    3  502    0 -0.13638429089E+04 -0.12566327034E+03  0.31330885213E+03  0.14050064998E+04  0.46999998093E+01 0. -1.
       -5    1    3    3    0  502  0.13638429089E+04  0.12566327034E+03 -0.19121360326E+04  0.23520512399E+04  0.46999998093E+01 0.  1.
</event>
<event>
 5   0  0.6584420E-08  0.3367375E+04  0.7818609E-02  0.8145960E-01
       -1   -1    0    0    0  501  0.00000000000E+00  0.00000000000E+00  0.12444051674E+04  0.12444051674E+04  0.50400001928E-02 0.  1.
        1   -1    0    0  501    0  0.00000000000E+00  0.00000000000E+00 -0.22780396653E+04  0.22780396653E+04  0.50400001928E-02 0. -1.
    10030    2    1    2    0    0  0.00000000000E+00  0.00000000000E+00 -0.10336344980E+04  0.35224448327E+04  0.33673754356E+04 0.  0.
        1    1    3    3  502    0  0.81624319554E+02  0.16464667151E+04 -0.87506345035E+03  0.18663470244E+04  0.50400001928E-02 0.  1.
       -1    1    3    3    0  502 -0.81624319554E+02 -0.16464667151E+04 -0.15857104761E+03  0.16560978083E+04  0.50400001928E-02 0. -1.
</event>
<event>
 5   0  0.1897313E-07  0.3402678E+04  0.7818609E-02  0.8137249E-01
       -2   -1    0    0    0  501  0.00000000000E+00  0.00000000000E+00  0.12946288027E+04  0.12946288027E+04  0.25500000920E-02 0.  1.
        2   -1    0    0  501    0  0.00000000000E+00  0.00000000000E+00 -0.22358181118E+04  0.22358181118E+04  0.25500000920E-02 0. -1.
    10030    2    1    2    0    0  0.00000000000E+00  0.00000000000E+00 -0.94118930907E+03  0.35304469145E+04  0.34026780777E+04 0.  0.
        3    1    3    3  502    0  0.60296446055E+03 -0.90497872501E+03  0.88697131025E+03  0.14033070757E+04  0.10100000352E+00 0.  1.
       -3    1    3    3    0  502 -0.60296446055E+03  0.90497872501E+03 -0.18281606193E+04  0.21271398388E+04  0.10100000352E+00 0. -1.
</event>
<event>
 5   0  0.6584420E-08  0.3400522E+04  0.7818609E-02  0.8137778E-01
       -1   -1    0    0    0  501  0.00000000000E+00  0.00000000000E+00  0.14047446586E+04  0.14047446586E+04  0.50400001928E-02 0.  1.
        1   -1    0    0  501    0  0.00000000000E+00  0.00000000000E+00 -0.20579446067E+04  0.20579446067E+04  0.50400001928E-02 0. -1.
    10030    2    1    2    0    0  0.00000000000E+00  0.00000000000E+00 -0.65319994806E+03  0.34626892653E+04  0.34005215447E+04 0.  0.
        1    1    3    3  502    0 -0.15405547846E+04  0.26454351863E+03  0.35465596376E+03  0.16028328578E+04  0.50400001928E-02 0.  1.
       -1    1    3    3    0  502  0.15405547846E+04 -0.26454351863E+03 -0.10078559118E+04  0.18598564075E+04  0.50400001928E-02 0. -1.
</event>
<event>
 5   0  0.1928004E-07  0.3402440E+04  0.7818609E-02  0.8137308E-01
        2   -1    0    0  501    0  0.00000000000E+00  0.00000000000E+00  0.21901493288E+04  0.21901493288E+04  0.25500000920E-02 0. -1.
       -2   -1    0    0    0  501  0.00000000000E+00  0.00000000000E+00 -0.13214395502E+04  0.13214395502E+04  0.25500000920E-02 0.  1.
    10030    2    1    2    0    0  0.00000000000E+00  0.00000000000E+00  0.86870977861E+03  0.35115888791E+04  0.34024402678E+04 0.  0.
        2    1    3    3  502    0  0.91963497568E+03  0.13693721051E+04  0.47797747832E+01  0.16495245670E+04  0.25500000920E-02 0.  1.
       -2    1    3    3    0  502 -0.91963497568E+03 -0.13693721051E+04  0.86393000382E+03  0.18620643121E+04  0.25500000920E-02 0. -1.
</event>
<event>
 5   0  0.1986613E-07  0.3403680E+04  0.7818609E-02  0.8137004E-01
        2   -1    0    0  501    0  0.00000000000E+00  0.00000000000E+00  0.17364957777E+04  0.17364957777E+04  0.25500000920E-02 0. -1.
       -2   -1    0    0    0  501  0.00000000000E+00  0.00000000000E+00 -0.16678759103E+04  0.16678759104E+04  0.25500000920E-02 0.  1.
    10030    2    1    2    0    0  0.00000000000E+00  0.00000000000E+00  0.68619867342E+02  0.34043716880E+04  0.34036800531E+04 0.  0.
        5    1    3    3  502    0 -0.14233503214E+04  0.40571533911E+03 -0.80592404769E+03  0.16852497543E+04  0.46999998093E+01 0. -1.
       -5    1    3    3    0  502  0.14233503214E+04 -0.40571533911E+03  0.87454391503E+03  0.17191219337E+04  0.46999998093E+01 0.  1.
</event>
<event>
 5   0  0.6367111E-08  0.3397093E+04  0.7818609E-02  0.8138620E-01
       -1   -1    0    0    0  501  0.00000000000E+00  0.00000000000E+00  0.12793258219E+04  0.12793258220E+04  0.50400001928E-02 0. -1.
        1   -1    0    0  501    0  0.00000000000E+00  0.00000000000E+00 -0.22551404148E+04  0.22551404148E+04  0.50400001928E-02 0.  1.
    10030    2    1    2    0    0  0.00000000000E+00  0.00000000000E+00 -0.97581459285E+03  0.35344662368E+04  0.33970925008E+04 0.  0.
        3    1    3    3  502    0  0.43070624254E+02 -0.16968943583E+04 -0.42416132065E+03  0.17496337839E+04  0.10100000352E+00 0. -1.
       -3    1    3    3    0  502 -0.43070624254E+02  0.16968943583E+04 -0.55165327219E+03  0.17848324528E+04  0.10100000352E+00 0.  1.
</event>
<event>
 5   0  0.6584420E-08  0.3499493E+04  0.7818609E-02  0.8113910E-01
       -1   -1    0    0    0  501  0.00000000000E+00  0.00000000000E+00  0.17678829941E+04  0.17678829941E+04  0.50400001928E-02 0.  1.
        1   -1    0    0  501    0  0.00000000000E+00  0.00000000000E+00 -0.17317961156E+04  0.17317961156E+04  0.50400001928E-02 0. -1.
    10030    2    1    2    0    0  0.00000000000E+00  0.00000000000E+00  0.36086878520E+02  0.34996791096E+04  0.34994930501E+04 0.  0.
        1    1    3    3  502    0 -0.29921297152E+03  0.86036482400E+03 -0.14759760386E+04  0.17344339997E+04  0.50400001928E-02 0. -1.
       -1    1    3    3    0  502  0.29921297152E+03 -0.86036482400E+03  0.15120629171E+04  0.17652451099E+04  0.50400001928E-02 0.  1.
</event>
<event>
 5   0  0.6341535E-08  0.3393488E+04  0.7818609E-02  0.8139506E-01
       -1   -1    0    0    0  501  0.00000000000E+00  0.00000000000E+00  0.15725688016E+04  0.15725688016E+04  0.50400001928E-02 0.  1.
        1   -1    0    0  501    0  0.00000000000E+00  0.00000000000E+00 -0.18307243108E+04  0.18307243108E+04  0.50400001928E-02 0. -1.
    10030    2    1    2    0    0  0.00000000000E+00  0.00000000000E+00 -0.25815550915E+03  0.34032931124E+04  0.33934878432E+04 0.  0.
        5    1    3    3  502    0 -0.56771085604E+03 -0.49962982062E+03  0.13941895726E+04  0.15860996904E+04  0.46999998093E+01 0.  1.
       -5    1    3    3    0  502  0.56771085604E+03  0.49962982062E+03 -0.16523450817E+04  0.18171934220E+04  0.46999998093E+01 0. -1.
</event>
<event>
 5   0  0.6311750E-08  0.3399227E+04  0.7818609E-02  0.8138096E-01
        3   -1    0    0  501    0  0.00000000000E+00  0.00000000000E+00  0.16908360749E+04  0.16908360779E+04  0.10100000352E+00 0.  1.
       -3   -1    0    0    0  501  0.00000000000E+00  0.00000000000E+00 -0.17084361480E+04  0.17084361510E+04  0.10100000352E+00 0. -1.
    10030    2    1    2    0    0  0.00000000000E+00  0.00000000000E+00 -0.17600073082E+02  0.33992722289E+04  0.33992266655E+04 0.  0.
        4    1    3    3  502    0 -0.71929651514E+03 -0.15398750394E+04  0.21421050169E+00  0.16995894423E+04  0.12699999809E+01 0. -1.
       -4    1    3    3    0  502  0.71929651514E+03  0.15398750394E+04 -0.17814283584E+02  0.16996827866E+04  0.12699999809E+01 0.  1.
</event>
<event>
 5   0  0.6367111E-08  0.3399245E+04  0.7818609E-02  0.8138092E-01
        1   -1    0    0  501    0  0.00000000000E+00  0.00000000000E+00  0.17238448025E+04  0.17238448025E+04  0.50400001928E-02 0.  1.
       -1   -1    0    0    0  501  0.00000000000E+00  0.00000000000E+00 -0.16757406500E+04  0.16757406500E+04  0.50400001928E-02 0. -1.
    10030    2    1    2    0    0  0.00000000000E+00  0.00000000000E+00  0.48104152460E+02  0.33995854525E+04  0.33992450984E+04 0.  0.
        3    1    3    3  502    0  0.13654468303E+04  0.65114778080E+03 -0.75080180302E+03  0.16888285397E+04  0.10100000352E+00 0. -1.
       -3    1    3    3    0  502 -0.13654468303E+04 -0.65114778080E+03  0.79890595548E+03  0.17107569128E+04  0.10100000352E+00 0.  1.
</event>
<event>
 5   0  0.1986613E-07  0.3395466E+04  0.7818609E-02  0.8139020E-01
        2   -1    0    0  501    0  0.00000000000E+00  0.00000000000E+00  0.24663334650E+04  0.24663334650E+04  0.25500000920E-02 0. -1.
       -2   -1    0    0    0  501  0.00000000000E+00  0.00000000000E+00 -0.11686570458E+04  0.11686570458E+04  0.25500000920E-02 0.  1.
    10030    2    1    2    0    0  0.00000000000E+00  0.00000000000E+00  0.12976764192E+04  0.36349905108E+04  0.33954663780E+04 0.  0.
        5    1    3    3  502    0 -0.10591374045E+04 -0.25524876462E+03 -0.74506872266E+03  0.13198763067E+04  0.46999998093E+01 0.  1.
       -5    1    3    3    0  502  0.10591374045E+04  0.25524876462E+03  0.20427451418E+04  0.23151142041E+04  0.46999998093E+01 0. -1.
</event>
<event>
 5   0  0.6311750E-08  0.3397756E+04  0.7818609E-02  0.8138457E-01
        3   -1    0    0  501    0  0.00000000000E+00  0.00000000000E+00  0.15842299771E+04  0.15842299803E+04  0.10100000352E+00 0. -1.
       -3   -1    0    0    0  501  0.00000000000E+00  0.00000000000E+00 -0.18218230120E+04  0.18218230148E+04  0.10100000352E+00 0.  1.
    10030    2    1    2    0    0  0.00000000000E+00  0.00000000000E+00 -0.23759303485E+03  0.34060529951E+04  0.33977561059E+04 0.  0.
        4    1    3    3  502    0 -0.97925187720E+02 -0.16122105827E+03 -0.18112923298E+04  0.18210884353E+04  0.12699999809E+01 0.  1.
       -4    1    3    3    0  502  0.97925187720E+02  0.16122105827E+03  0.15736992950E+04  0.15849645598E+04  0.12699999809E+01 0. -1.
</event>
<event>
 5   0  0.1986613E-07  0.3399059E+04  0.7818609E-02  0.8138137E-01
        2   -1    0    0  501    0  0.00000000000E+00  0.00000000000E+00  0.17281227948E+04  0.17281227948E+04  0.25500000920E-02 0.  1.
       -2   -1    0    0    0  501  0.00000000000E+00  0.00000000000E+00 -0.16714095884E+04  0.16714095884E+04  0.25500000920E-02 0. -1.
    10030    2    1    2    0    0  0.00000000000E+00  0.00000000000E+00  0.56713206322E+02  0.33995323832E+04  0.33990592870E+04 0.  0.
        5    1    3    3  502    0  0.12897953711E+04  0.33391160007E+03 -0.10269252529E+04  0.16821612946E+04  0.46999998093E+01 0. -1.
       -5    1    3    3    0  502 -0.12897953711E+04 -0.33391160007E+03  0.10836384592E+04  0.17173710887E+04  0.46999998093E+01 0.  1.
</event>
<event>
 5   0  0.6584420E-08  0.3399988E+04  0.7818609E-02  0.8137909E-01
        1   -1    0    0  501    0  0.00000000000E+00  0.00000000000E+00  0.16889323986E+04  0.16889323986E+04  0.50400001928E-02 0. -1.
       -1   -1    0    0    0  501  0.00000000000E+00  0.00000000000E+00 -0.17111283497E+04  0.17111283497E+04  0.50400001928E-02 0.  1.
    10030    2    1    2    0    0  0.00000000000E+00  0.00000000000E+00 -0.22195951169E+02  0.34000607483E+04  0.33999882988E+04 0.  0.
        1    1    3    3  502    0  0.16467658088E+04  0.24970431057E+03  0.32918891941E+03  0.16978089458E+04  0.50400001928E-02 0.  1.
       -1    1    3    3    0  502 -0.16467658088E+04 -0.24970431057E+03 -0.35138487058E+03  0.17022518025E+04  0.50400001928E-02 0. -1.
</event>
<event>
 5   0  0.6341535E-08  0.3397348E+04  0.7818609E-02  0.8138558E-01
        1   -1    0    0  501    0  0.00000000000E+00  0.00000000000E+00  0.12447622847E+04  0.12447622848E+04  0.50400001928E-02 0.  1.
       -1   -1    0    0    0  501  0.00000000000E+00  0.00000000000E+00 -0.23181078562E+04  0.23181078562E+04  0.50400001928E-02 0. -1.
    10030    2    1    2    0    0  0.00000000000E+00  0.00000000000E+00 -0.10733455715E+04  0.35628701410E+04  0.33973479253E+04 0.  0.
        5    1    3    3  502    0  0.61879016176E+03  0.13709002846E+04  0.29122074133E+03  0.15320249557E+04  0.46999998093E+01 0.  1.
       -5    1    3    3    0  502 -0.61879016176E+03 -0.13709002846E+04 -0.13645663128E+04  0.20308451853E+04  0.46999998093E+01 0. -1.
</event>
<event>
 5   0  0.1897313E-07  0.3404136E+04  0.7818609E-02  0.8136892E-01
        2   -1    0    0  501    0  0.00000000000E+00  0.00000000000E+00  0.23046508445E+04  0.23046508445E+04  0.25500000920E-02 0.  1.
       -2   -1    0    0    0  501  0.00000000000E+00  0.00000000000E+00 -0.12570387037E+04  0.12570387037E+04  0.25500000920E-02 0. -1.
    10030    2    1    2    0    0  0.00000000000E+00  0.00000000000E+00  0.10476121408E+04  0.35616895481E+04  0.34041359021E+04 0.  0.
        3    1    3    3  502    0  0.23671691532E+03 -0.16194734712E+04  0.34948792326E+02  0.16370554817E+04  0.10100000352E+00 0. -1.
       -3    1    3    3    0  502 -0.23671691532E+03  0.16194734712E+04  0.10126633485E+04  0.19246340664E+04  0.10100000352E+00 0.  1.
</event>
<event>
 5   0  0.1986613E-07  0.3401365E+04  0.7818609E-02  0.8137571E-01
       -2   -1    0    0    0  501  0.00000000000E+00  0.00000000000E+00  0.13492732258E+04  0.13492732258E+04  0.25500000920E-02 0. -1.
        2   -1    0    0  501    0  0.00000000000E+00  0.00000000000E+00 -0.21436134737E+04  0.21436134737E+04  0.25500000920E-02 0.  1.
    10030    2    1    2    0    0  0.00000000000E+00  0.00000000000E+00 -0.79434024790E+03  0.34928866995E+04  0.34013645889E+04 0.  0.
        5    1    3    3  502    0  0.28452692858E+02 -0.56359663295E+03 -0.20446598481E+04  0.21211097814E+04  0.46999998093E+01 0.  1.
       -5    1    3    3    0  502 -0.28452692858E+02  0.56359663295E+03  0.12503196002E+04  0.13717769181E+04  0.46999998093E+01 0. -1.
</event>
<event>
 5   0  0.6311750E-08  0.3398466E+04  0.7818609E-02  0.8138283E-01
       -3   -1    0    0    0  501  0.00000000000E+00  0.00000000000E+00  0.24277588877E+04  0.24277588898E+04  0.10100000352E+00 0. -1.
        3   -1    0    0  501    0  0.00000000000E+00  0.00000000000E+00 -0.11893243408E+04  0.11893243450E+04  0.10100000352E+00 0.  1.
    10030    2    1    2    0    0  0.00000000000E+00  0.00000000000E+00  0.12384345469E+04  0.36170832348E+04  0.33984659775E+04 0.  0.
        3    1    3    3  502    0 -0.38517429534E+03 -0.49154663723E+03  0.23011978232E+04  0.23844262971E+04  0.10100000352E+00 0. -1.
       -3    1    3    3    0  502  0.38517429534E+03  0.49154663723E+03 -0.10627632763E+04  0.12326569377E+04  0.10100000352E+00 0.  1.
</event>
<event>
 5   0  0.1963852E-07  0.3385029E+04  0.7818609E-02  0.8141591E-01
       -2   -1    0    0    0  501  0.00000000000E+00  0.00000000000E+00  0.13869425768E+04  0.13869425768E+04  0.25500000920E-02 0. -1.
        2   -1    0    0  501    0  0.00000000000E+00  0.00000000000E+00 -0.20654100157E+04  0.20654100157E+04  0.25500000920E-02 0.  1.
    10030    2    1    2    0    0  0.00000000000E+00  0.00000000000E+00 -0.67846743889E+03  0.34523525925E+04  0.33850288562E+04 0.  0.
        4    1    3    3  502    0 -0.13045270159E+04  0.42624086513E+03 -0.13494546706E+04  0.19247081678E+04  0.12699999809E+01 0.  1.
       -4    1    3    3    0  502  0.13045270159E+04 -0.42624086513E+03  0.67098723172E+03  0.15276444247E+04  0.12699999809E+01 0. -1.
</event>
<event>
 5   0  0.6367111E-08  0.3401302E+04  0.7818609E-02  0.8137587E-01
        1   -1    0    0  501    0  0.00000000000E+00  0.00000000000E+00  0.20245767328E+04  0.20245767328E+04  0.50400001928E-02 0.  1.
       -1   -1    0    0    0  501  0.00000000000E+00  0.00000000000E+00 -0.14285523619E+04  0.14285523619E+04  0.50400001928E-02 0. -1.
    10030    2    1    2    0    0  0.00000000000E+00  0.00000000000E+00  0.59602437094E+03  0.34531290947E+04  0.34013020293E+04 0.  0.
        3    1    3    3  502    0 -0.71349197091E+02 -0.16362006281E+04  0.76321991640E+03  0.18068613268E+04  0.10100000352E+00 0.  1.
       -3    1    3    3    0  502  0.71349197091E+02  0.16362006281E+04 -0.16719554546E+03  0.16462677680E+04  0.10100000352E+00 0. -1.
</event>
<event>
 5   0  0.6311750E-08  0.3392977E+04  0.7818609E-02  0.8139632E-01
       -1   -1    0    0    0  501  0.00000000000E+00  0.00000000000E+00  0.20290110497E+04  0.20290110498E+04  0.50400001928E-02 0.  1.
        1   -1    0    0  501    0  0.00000000000E+00  0.00000000000E+00 -0.14184609296E+04  0.14184609296E+04  0.50400001928E-02 0. -1.
    10030    2    1    2    0    0  0.00000000000E+00  0.00000000000E+00  0.61055012016E+03  0.34474719793E+04  0.33929768050E+04 0.  0.
        4    1    3    3  502    0  0.33529910001E+03 -0.29902422107E+02  0.19947350720E+04  0.20229407459E+04  0.12699999809E+01 0.  1.
       -4    1    3    3    0  502 -0.33529910001E+03  0.29902422107E+02 -0.13841849518E+04  0.14245312334E+04  0.12699999809E+01 0. -1.
</event>
<event>
 5   0  0.6311750E-08  0.3398115E+04  0.7818609E-02  0.8138369E-01
        1   -1    0    0  501    0  0.00000000000E+00  0.00000000000E+00  0.20701874184E+04  0.20701874184E+04  0.50400001928E-02 0. -1.
       -1   -1    0    0    0  501  0.00000000000E+00  0.00000000000E+00 -0.13944613432E+04  0.13944613432E+04  0.50400001928E-02 0.  1.
    10030    2    1    2    0    0  0.00000000000E+00  0.00000000000E+00  0.67572607524E+03  0.34646487616E+04  0.33981149646E+04 0.  0.
        4    1    3    3  502    0  0.63017775922E+03  0.32879618146E+03 -0.12355844517E+04  0.14254478199E+04  0.12699999809E+01 0.  1.
       -4    1    3    3    0  502 -0.63017775922E+03 -0.32879618146E+03  0.19113105270E+04  0.20392009417E+04  0.12699999809E+01 0. -1.
</event>
<event>
 5   0  0.6311750E-08  0.3407196E+04  0.7818609E-02  0.8136143E-01
       -1   -1    0    0    0  501  0.00000000000E+00  0.00000000000E+00  0.15986005696E+04  0.15986005696E+04  0.50400001928E-02 0. -1.
        1   -1    0    0  501    0  0.00000000000E+00  0.00000000000E+00 -0.18154913477E+04  0.18154913477E+04  0.50400001928E-02 0.  1.
    10030    2    1    2    0    0  0.00000000000E+00  0.00000000000E+00 -0.21689077815E+03  0.34140919173E+04  0.34071956225E+04 0.  0.
        4    1    3    3  502    0  0.68056181914E+03  0.38682416649E+03  0.14077088903E+04  0.16107275556E+04  0.12699999809E+01 0. -1.
       -4    1    3    3    0  502 -0.68056181914E+03 -0.38682416649E+03 -0.16245996685E+04  0.18033643617E+04  0.12699999809E+01 0.  1.
</event>
<event>
 5   0  0.6584420E-08  0.3402555E+04  0.7818609E-02  0.8137280E-01
       -1   -1    0    0    0  501  0.00000000000E+00  0.00000000000E+00  0.12391510245E+04  0.12391510245E+04  0.50400001928E-02 0. -1.
        1   -1    0    0  501    0  0.00000000000E+00  0.00000000000E+00 -0.23357484330E+04  0.23357484330E+04  0.50400001928E-02 0.  1.
    10030    2    1    2    0    0  0.00000000000E+00  0.00000000000E+00 -0.10965974086E+04  0.35748994575E+04  0.34025549599E+04 0.  0.
        1    1    3    3  502    0  0.63896208623E+02  0.38131385825E+03  0.11923813254E+04  0.12534975904E+04  0.50400001928E-02 0. -1.
       -1    1    3    3    0  502 -0.63896208623E+02 -0.38131385825E+03 -0.22889787340E+04  0.23214018671E+04  0.50400001928E-02 0.  1.
</event>
<event>
 5   0  0.6341535E-08  0.3403164E+04  0.7818609E-02  0.8137130E-01
        1   -1    0    0  501    0  0.00000000000E+00  0.00000000000E+00  0.19735825930E+04  0.19735825930E+04  0.50400001928E-02 0.  1.
       -1   -1    0    0    0  501  0.00000000000E+00  0.00000000000E+00 -0.14670683403E+04  0.14670683403E+04  0.50400001928E-02 0. -1.
    10030    2    1    2    0    0  0.00000000000E+00  0.00000000000E+00  0.50651425263E+03  0.34406509333E+04  0.34031635513E+04 0.  0.
        5    1    3    3  502    0  0.16272585270E+04 -0.49650797223E+03  0.28304296846E+03  0.17247103792E+04  0.46999998093E+01 0.  1.
       -5    1    3    3    0  502 -0.16272585270E+04  0.49650797223E+03  0.22347128417E+03  0.17159405541E+04  0.46999998093E+01 0. -1.
</event>
<event>
 5   0  0.1963852E-07  0.3398429E+04  0.7818609E-02  0.8138292E-01
       -2   -1    0    0    0  501  0.00000000000E+00  0.00000000000E+00  0.11061100138E+04  0.11061100138E+04  0.25500000920E-02 0.  1.
        2   -1    0    0  501    0  0.00000000000E+00  0.00000000000E+00 -0.26103459577E+04  0.26103459577E+04  0.25500000920E-02 0. -1.
    10030    2    1    2    0    0  0.00000000000E+00  0.00000000000E+00 -0.15042359440E+04  0.37164559715E+04  0.33984289331E+04 0.  0.
        4    1    3    3  502    0  0.30610676047E+03 -0.10698086943E+04 -0.21564799474E+04  0.24266436425E+04  0.12699999809E+01 0. -1.
       -4    1    3    3    0  502 -0.30610676047E+03  0.10698086943E+04  0.65224400344E+03  0.12898123290E+04  0.12699999809E+01 0.  1.
</event>
<event>
 5   0  0.6341535E-08  0.3399830E+04  0.7818609E-02  0.8137948E-01
       -1   -1    0    0    0  501  0.00000000000E+00  0.00000000000E+00  0.19914411225E+04  0.19914411226E+04  0.50400001928E-02 0. -1.
        1   -1    0    0  501    0  0.00000000000E+00  0.00000000000E+00 -0.14510651395E+04  0.14510651395E+04  0.50400001928E-02 0.  1.
    10030    2    1    2    0    0  0.00000000000E+00  0.00000000000E+00  0.54037598305E+03  0.34425062621E+04  0.33998298724E+04 0.  0.
        5    1    3    3  502    0 -0.11047016419E+04  0.67004435057E+03  0.13887554160E+04  0.18968365361E+04  0.46999998093E+01 0. -1.
       -5    1    3    3    0  502  0.11047016419E+04 -0.67004435057E+03 -0.84837943291E+03  0.15456697259E+04  0.46999998093E+01 0.  1.
</event>
<event>
 5   0  0.1963852E-07  0.3392745E+04  0.7818609E-02  0.8139689E-01
       -2   -1    0    0    0  501  0.00000000000E+00  0.00000000000E+00  0.23774956888E+04  0.23774956888E+04  0.25500000920E-02 0. -1.
        2   -1    0    0  501    0  0.00000000000E+00  0.00000000000E+00 -0.12103823925E+04  0.12103823925E+04  0.25500000920E-02 0.  1.
    10030    2    1    2    0    0  0.00000000000E+00  0.00000000000E+00  0.11671132963E+04  0.35878780813E+04  0.33927445645E+04 0.  0.
        4    1    3    3  502    0 -0.38178213971E+03 -0.60002206847E+03  0.22122303378E+04  0.23237359499E+04  0.12699999809E+01 0. -1.
       -4    1    3    3    0  502  0.38178213971E+03  0.60002206847E+03 -0.10451170415E+04  0.12641421313E+04  0.12699999809E+01 0.  1.
</event>
<event>
 5   0  0.6584420E-08  0.3404775E+04  0.7818609E-02  0.8136735E-01
       -1   -1    0    0    0  501  0.00000000000E+00  0.00000000000E+00  0.13262808928E+04  0.13262808928E+04  0.50400001928E-02 0. -1.
        1   -1    0    0  501    0  0.00000000000E+00  0.00000000000E+00 -0.21851510072E+04  0.21851510072E+04  0.50400001928E-02 0.  1.
    10030    2    1    2    0    0  0.00000000000E+00  0.00000000000E+00 -0.85887011437E+03  0.35114319001E+04  0.34047754868E+04 0.  0.
        1    1    3    3  502    0 -0.14792000621E+04  0.78780651801E+03 -0.73788949979E+03  0.18311616115E+04  0.50400001928E-02 0.  1.
       -1    1    3    3    0  502  0.14792000621E+04 -0.78780651801E+03 -0.12098061458E+03  0.16802702886E+04  0.50400001928E-02 0. -1.
</event>
<event>
 5   0  0.1970449E-07  0.3402355E+04  0.7818609E-02  0.8137329E-01
        2   -1    0    0  501    0  0.00000000000E+00  0.00000000000E+00  0.17052752157E+04  0.17052752157E+04  0.25500000920E-02 0.  1.
       -2   -1    0    0    0  501  0.00000000000E+00  0.00000000000E+00 -0.16970894041E+04  0.16970894041E+04  0.25500000920E-02 0. -1.
    10030    2    1    2    0    0  0.00000000000E+00  0.00000000000E+00  0.81858115582E+01  0.34023646198E+04  0.34023547726E+04 0.  0.
        1    1    3    3  502    0 -0.55692167332E+03  0.23454406567E+03 -0.15861418155E+04  0.16973563349E+04  0.50400001928E-02 0. -1.
       -1    1    3    3    0  502  0.55692167332E+03 -0.23454406567E+03  0.15943276270E+04  0.17050082848E+04  0.50400001928E-02 0.  1.
</event>
<event>
 5   0  0.6367111E-08  0.3406062E+04  0.7818609E-02  0.8136420E-01
        1   -1    0    0  501    0  0.00000000000E+00  0.00000000000E+00  0.20199564460E+04  0.20199564460E+04  0.50400001928E-02 0. -1.
       -1   -1    0    0    0  501  0.00000000000E+00  0.00000000000E+00 -0.14358299627E+04  0.14358299627E+04  0.50400001928E-02 0.  1.
    10030    2    1    2    0    0  0.00000000000E+00  0.00000000000E+00  0.58412648338E+03  0.34557864087E+04  0.34060616486E+04 0.  0.
        3    1    3    3  502    0 -0.11799079469E+04  0.11059125524E+04  0.83379506115E+03  0.18194613354E+04  0.10100000352E+00 0.  1.
       -3    1    3    3    0  502  0.11799079469E+04 -0.11059125524E+04 -0.24966857777E+03  0.16363250733E+04  0.10100000352E+00 0. -1.
</event>
<event>
 5   0  0.1928004E-07  0.3392926E+04  0.7818609E-02  0.8139645E-01
        2   -1    0    0  501    0  0.00000000000E+00  0.00000000000E+00  0.19649294353E+04  0.19649294353E+04  0.25500000920E-02 0.  1.
       -2   -1    0    0    0  501  0.00000000000E+00  0.00000000000E+00 -0.14646771821E+04  0.14646771821E+04  0.25500000920E-02 0. -1.
    10030    2    1    2    0    0  0.00000000000E+00  0.00000000000E+00  0.50025225315E+03  0.34296066174E+04  0.33929263525E+04 0.  0.
        2    1    3    3  502    0  0.41512074291E+03 -0.83246350990E+03 -0.11838958052E+04  0.15056327587E+04  0.25500000920E-02 0. -1.
       -2    1    3    3    0  502 -0.41512074291E+03  0.83246350990E+03  0.16841480584E+04  0.19239738587E+04  0.25500000920E-02 0.  1.
</event>
<event>
 5   0  0.6584420E-08  0.3404671E+04  0.7818609E-02  0.8136761E-01
       -1   -1    0    0    0  501  0.00000000000E+00  0.00000000000E+00  0.17510575793E+04  0.17510575793E+04  0.50400001928E-02 0.  1.
        1   -1    0    0  501    0  0.00000000000E+00  0.00000000000E+00 -0.16549686141E+04  0.16549686141E+04  0.50400001928E-02 0. -1.
    10030    2    1    2    0    0  0.00000000000E+00  0.00000000000E+00  0.96088965175E+02  0.34060261934E+04  0.34046705187E+04 0.  0.
        1    1    3    3  502    0  0.13443060677E+04  0.79444527330E+03  0.72628437712E+03  0.17221472331E+04  0.50400001928E-02 0.  1.
       -1    1    3    3    0  502 -0.13443060677E+04 -0.79444527330E+03 -0.63019541195E+03  0.16838789604E+04  0.50400001928E-02 0. -1.
</event>
<event>
 5   0  0.6367111E-08  0.3402661E+04  0.7818609E-02  0.8137253E-01
       -1   -1    0    0    0  501  0.00000000000E+00  0.00000000000E+00  0.20000734461E+04  0.20000734461E+04  0.50400001928E-02 0.  1.
        1   -1    0    0  501    0  0.00000000000E+00  0.00000000000E+00 -0.14472098256E+04  0.14472098256E+04  0.50400001928E-02 0. -1.
    10030    2    1    2    0    0  0.00000000000E+00  0.00000000000E+00  0.55286362046E+03  0.34472832717E+04  0.34026612779E+04 0.  0.
        3    1    3    3  502    0 -0.69291649550E+03  0.12706390299E+04  0.11825142590E+04  0.18689560715E+04  0.10100000352E+00 0.  1.
       -3    1    3    3    0  502  0.69291649550E+03 -0.12706390299E+04 -0.62965063852E+03  0.15783272002E+04  0.10100000352E+00 0. -1.
</event>
<event>
 5   0  0.6584420E-08  0.3400683E+04  0.7818609E-02  0.8137739E-01
        1   -1    0    0  501    0  0.00000000000E+00  0.00000000000E+00  0.10541639010E+04  0.10541639010E+04  0.50400001928E-02 0.  1.
       -1   -1    0    0    0  501  0.00000000000E+00  0.00000000000E+00 -0.27426101855E+04  0.27426101855E+04  0.50400001928E-02 0. -1.
    10030    2    1    2    0    0  0.00000000000E+00  0.00000000000E+00 -0.16884462845E+04  0.37967740866E+04  0.34006826680E+04 0.  0.
        1    1    3    3  502    0 -0.14557405561E+03 -0.10383440297E+04 -0.23387189122E+04  0.25629975185E+04  0.50400001928E-02 0. -1.
       -1    1    3    3    0  502  0.14557405561E+03  0.10383440297E+04  0.65027262765E+03  0.12337765681E+04  0.50400001928E-02 0.  1.
</event>
<event>
 5   0  0.1986613E-07  0.3391806E+04  0.7818609E-02  0.8139920E-01
        2   -1    0    0  501    0  0.00000000000E+00  0.00000000000E+00  0.23091165780E+04  0.23091165780E+04  0.25500000920E-02 0.  1.
       -2   -1    0    0    0  501  0.00000000000E+00  0.00000000000E+00 -0.12455356371E+04  0.12455356371E+04  0.25500000920E-02 0. -1.
    10030    2    1    2    0    0  0.00000000000E+00  0.00000000000E+00  0.10635809409E+04  0.35546522152E+04  0.33918060017E+04 0.  0.
        5    1    3    3  502    0 -0.13165930557E+04  0.40441619176E+03  0.15687900142E+04  0.20876048307E+04  0.46999998093E+01 0.  1.
       -5    1    3    3    0  502  0.13165930557E+04 -0.40441619176E+03 -0.50520907331E+03  0.14670473845E+04  0.46999998093E+01 0. -1.
</event>
<event>
 5   0  0.1897313E-07  0.3407892E+04  0.7818609E-02  0.8135972E-01
       -2   -1    0    0    0  501  0.00000000000E+00  0.00000000000E+00  0.13581794272E+04  0.13581794272E+04  0.25500000920E-02 0.  1.
        2   -1    0    0  501    0  0.00000000000E+00  0.00000000000E+00 -0.21377384789E+04  0.21377384789E+04  0.25500000920E-02 0. -1.
    10030    2    1    2    0    0  0.00000000000E+00  0.00000000000E+00 -0.77955905175E+03  0.34959179061E+04  0.34078922652E+04 0.  0.
        3    1    3    3  502    0 -0.12993441713E+04 -0.29617481377E+03  0.69944591659E+03  0.15050712263E+04  0.10100000352E+00 0.  1.
       -3    1    3    3    0  502  0.12993441713E+04  0.29617481377E+03 -0.14790049683E+04  0.19908466798E+04  0.10100000352E+00 0. -1.
</event>
<event>
 5   0  0.1970449E-07  0.3399485E+04  0.7818609E-02  0.8138033E-01
       -2   -1    0    0    0  501  0.00000000000E+00  0.00000000000E+00  0.17041598149E+04  0.17041598149E+04  0.25500000920E-02 0.  1.
        2   -1    0    0  501    0  0.00000000000E+00  0.00000000000E+00 -0.16953371147E+04  0.16953371147E+04  0.25500000920E-02 0. -1.
    10030    2    1    2    0    0  0.00000000000E+00  0.00000000000E+00  0.88227002132E+01  0.33994969296E+04  0.33994854808E+04 0.  0.
        1    1    3    3  502    0 -0.14036845864E+04  0.66608849092E+03 -0.68488124946E+03  0.16979595466E+04  0.50400001928E-02 0. -1.
       -1    1    3    3    0  502  0.14036845864E+04 -0.66608849092E+03  0.69370394967E+03  0.17015373830E+04  0.50400001928E-02 0.  1.
</event>
<event>
 5   0  0.6788600E-08  0.3393678E+04  0.7818609E-02  0.8139460E-01
       -1   -1    0    0    0  501  0.00000000000E+00  0.00000000000E+00  0.25213208860E+04  0.25213208860E+04  0.50400001928E-02 0.  1.
        1   -1    0    0  501    0  0.00000000000E+00  0.00000000000E+00 -0.11419659487E+04  0.11419659487E+04  0.50400001928E-02 0. -1.
    10030    2    1    2    0    0  0.00000000000E+00  0.00000000000E+00  0.13793549373E+04  0.36632868347E+04  0.33936780033E+04 0.  0.
        2    1    3    3  502    0 -0.30611106934E+03 -0.57510919601E+02 -0.11108446193E+04  0.11536842119E+04  0.25500000920E-02 0. -1.
       -2    1    3    3    0  502  0.30611106934E+03  0.57510919601E+02  0.24901995566E+04  0.25096026228E+04  0.25500000920E-02 0.  1.
</event>
<event>
 5   0  0.6584420E-08  0.3441001E+04  0.7818609E-02  0.8127916E-01
        1   -1    0    0  501    0  0.00000000000E+00  0.00000000000E+00  0.99628325589E+03  0.99628325590E+03  0.50400001928E-02 0.  1.
       -1   -1    0    0    0  501  0.00000000000E+00  0.00000000000E+00 -0.29711649043E+04  0.29711649043E+04  0.50400001928E-02 0. -1.
    10030    2    1    2    0    0  0.00000000000E+00  0.00000000000E+00 -0.19748816484E+04  0.39674481602E+04  0.34410009269E+04 0.  0.
        1    1    3    3  502    0  0.67360828820E+03  0.34865501075E+03  0.79310712338E+03  0.10974184943E+04  0.50400001928E-02 0.  1.
       -1    1    3    3    0  502 -0.67360828820E+03 -0.34865501075E+03 -0.27679887718E+04  0.28700296659E+04  0.50400001928E-02 0. -1.
</event>
<event>
 5   0  0.1986613E-07  0.3401216E+04  0.7818609E-02  0.8137608E-01
        2   -1    0    0  501    0  0.00000000000E+00  0.00000000000E+00  0.21381907244E+04  0.21381907244E+04  0.25500000920E-02 0. -1.
       -2   -1    0    0    0  501  0.00000000000E+00  0.00000000000E+00 -0.13525770971E+04  0.13525770971E+04  0.25500000920E-02 0.  1.
    10030    2    1    2    0    0  0.00000000000E+00  0.00000000000E+00  0.78561362727E+03  0.34907678216E+04  0.34012161373E+04 0.  0.
        5    1    3    3  502    0  0.19584277866E+03  0.15710709711E+04  0.10299807201E+04  0.18887828790E+04  0.46999998093E+01 0. -1.
       -5    1    3    3    0  502 -0.19584277866E+03 -0.15710709711E+04 -0.24436709281E+03  0.16019849426E+04  0.46999998093E+01 0.  1.
</event>
<event>
 5   0  0.6341535E-08  0.3403867E+04  0.7818609E-02  0.8136958E-01
        1   -1    0    0  501    0  0.00000000000E+00  0.00000000000E+00  0.25108371788E+04  0.25108371788E+04  0.50400001928E-02 0. -1.
       -1   -1    0    0    0  501  0.00000000000E+00  0.00000000000E+00 -0.11536300963E+04  0.11536300963E+04  0.50400001928E-02 0.  1.
    10030    2    1    2    0    0  0.00000000000E+00  0.00000000000E+00  0.13572070826E+04  0.36644672751E+04  0.34038668225E+04 0.  0.
        5    1    3    3  502    0 -0.89998640177E+03 -0.13556754903E+04  0.14169926600E+03  0.16333806446E+04  0.46999998093E+01 0.  1.
       -5    1    3    3    0  502  0.89998640177E+03  0.13556754903E+04  0.12155078166E+04  0.20310866305E+04  0.46999998093E+01 0. -1.
</event>
<event>
 5   0  0.6311750E-08  0.3376508E+04  0.7818609E-02  0.8143696E-01
        1   -1    0    0  501    0  0.00000000000E+00  0.00000000000E+00  0.20382626631E+04  0.20382626631E+04  0.50400001928E-02 0. -1.
       -1   -1    0    0    0  501  0.00000000000E+00  0.00000000000E+00 -0.13983486580E+04  0.13983486580E+04  0.50400001928E-02 0.  1.
    10030    2    1    2    0    0  0.00000000000E+00  0.00000000000E+00  0.63991400509E+03  0.34366113210E+04  0.33765081724E+04 0.  0.
        4    1    3    3  502    0  0.11918418568E+04 -0.10077235560E+04  0.97500187333E+03  0.18402782514E+04  0.12699999809E+01 0. -1.
       -4    1    3    3    0  502 -0.11918418568E+04  0.10077235560E+04 -0.33508786824E+03  0.15963330696E+04  0.12699999809E+01 0.  1.
</event>
<event>
 5   0  0.1897313E-07  0.3400591E+04  0.7818609E-02  0.8137761E-01
       -2   -1    0    0    0  501  0.00000000000E+00  0.00000000000E+00  0.13935280902E+04  0.13935280902E+04  0.25500000920E-02 0. -1.
        2   -1    0    0  501    0  0.00000000000E+00  0.00000000000E+00 -0.20745940881E+04  0.20745940881E+04  0.25500000920E-02 0.  1.
    10030    2    1    2    0    0  0.00000000000E+00  0.00000000000E+00 -0.68106599791E+03  0.34681221784E+04  0.34005912061E+04 0.  0.
        3    1    3    3  502    0  0.67322018161E+02  0.14141585486E+04  0.61977555733E+03  0.15454767569E+04  0.10100000352E+00 0. -1.
       -3    1    3    3    0  502 -0.67322018161E+02 -0.14141585486E+04 -0.13008415552E+04  0.19226454214E+04  0.10100000352E+00 0.  1.
</event>
<event>
 5   0  0.6311750E-08  0.3413109E+04  0.7818609E-02  0.8134696E-01
       -3   -1    0    0    0  501  0.00000000000E+00  0.00000000000E+00  0.25024456088E+04  0.25024456108E+04  0.10100000352E+00 0.  1.
        3   -1    0    0  501    0  0.00000000000E+00  0.00000000000E+00 -0.11637927151E+04  0.11637927195E+04  0.10100000352E+00 0. -1.
    10030    2    1    2    0    0  0.00000000000E+00  0.00000000000E+00  0.13386528937E+04  0.36662383303E+04  0.34131088358E+04 0.  0.
        2    1    3    3  502    0 -0.71554923639E+03  0.10541694700E+04 -0.55023707955E+03  0.13878201702E+04  0.25500000920E-02 0. -1.
       -2    1    3    3    0  502  0.71554923639E+03 -0.10541694700E+04  0.18888899733E+04  0.22784181601E+04  0.25500000920E-02 0.  1.
</event>
<event>
 5   0  0.1986613E-07  0.3411853E+04  0.7818609E-02  0.8135003E-01
        2   -1    0    0  501    0  0.00000000000E+00  0.00000000000E+00  0.15618994626E+04  0.15618994626E+04  0.25500000920E-02 0. -1.
       -2   -1    0    0    0  501  0.00000000000E+00  0.00000000000E+00 -0.18632343974E+04  0.18632343974E+04  0.25500000920E-02 0.  1.
    10030    2    1    2    0    0  0.00000000000E+00  0.00000000000E+00 -0.30133493482E+03  0.34251338600E+04  0.34118527541E+04 0.  0.
        5    1    3    3  502    0 -0.68465456623E+03 -0.55658862271E+03  0.13150226400E+04  0.15836190841E+04  0.46999998093E+01 0. -1.
       -5    1    3    3    0  502  0.68465456623E+03  0.55658862271E+03 -0.16163575748E+04  0.18415147758E+04  0.46999998093E+01 0.  1.
</event>
<event>
 5   0  0.1963852E-07  0.3395611E+04  0.7818609E-02  0.8138984E-01
       -2   -1    0    0    0  501  0.00000000000E+00  0.00000000000E+00  0.17488507778E+04  0.17488507778E+04  0.25500000920E-02 0. -1.
        2   -1    0    0  501    0  0.00000000000E+00  0.00000000000E+00 -0.16482505411E+04  0.16482505411E+04  0.25500000920E-02 0.  1.
    10030    2    1    2    0    0  0.00000000000E+00  0.00000000000E+00  0.10060023670E+03  0.33971013190E+04  0.33956114271E+04 0.  0.
        4    1    3    3  502    0  0.12441558141E+04  0.20097125473E+03  0.11884413573E+04  0.17322550643E+04  0.12699999809E+01 0. -1.
       -4    1    3    3    0  502 -0.12441558141E+04 -0.20097125473E+03 -0.10878411206E+04  0.16648462547E+04  0.12699999809E+01 0.  1.
</event>
<event>
 5   0  0.1970449E-07  0.3394254E+04  0.7818609E-02  0.8139318E-01
       -2   -1    0    0    0  501  0.00000000000E+00  0.00000000000E+00  0.11528591743E+04  0.11528591743E+04  0.25500000920E-02 0.  1.
        2   -1    0    0  501    0  0.00000000000E+00  0.00000000000E+00 -0.24983450815E+04  0.24983450815E+04  0.25500000920E-02 0. -1.
    10030    2    1    2    0    0  0.00000000000E+00  0.00000000000E+00 -0.13454859072E+04  0.36512042558E+04  0.33942539962E+04 0.  0.
        1    1    3    3  502    0 -0.16105708554E+04 -0.15611461460E+03 -0.12220883087E+03  0.16227277194E+04  0.50400001928E-02 0.  1.
       -1    1    3    3    0  502  0.16105708554E+04  0.15611461460E+03 -0.12232770763E+04  0.20284765363E+04  0.50400001928E-02 0. -1.
</event>
<event>
 5   0  0.1970449E-07  0.3403387E+04  0.7818609E-02  0.8137076E-01
       -2   -1    0    0    0  501  0.00000000000E+00  0.00000000000E+00  0.18721368509E+04  0.18721368509E+04  0.25500000920E-02 0. -1.
        2   -1    0    0  501    0  0.00000000000E+00  0.00000000000E+00 -0.15467675921E+04  0.15467675921E+04  0.25500000920E-02 0.  1.
    10030    2    1    2    0    0  0.00000000000E+00  0.00000000000E+00  0.32536925883E+03  0.34189044430E+04  0.34033869066E+04 0.  0.
        1    1    3    3  502    0 -0.16959886927E+04 -0.12584680942E+03  0.22250058574E+03  0.17151447682E+04  0.50400001928E-02 0. -1.
       -1    1    3    3    0  502  0.16959886927E+04  0.12584680942E+03  0.10286867309E+03  0.17037596747E+04  0.50400001928E-02 0.  1.
</event>
<event>
 5   0  0.6788600E-08  0.3401540E+04  0.7818609E-02  0.8137528E-01
        1   -1    0    0  501    0  0.00000000000E+00  0.00000000000E+00  0.17679171663E+04  0.17679171663E+04  0.50400001928E-02 0. -1.
       -1   -1    0    0    0  501  0.00000000000E+00  0.00000000000E+00 -0.16361735437E+04  0.16361735437E+04  0.50400001928E-02 0.  1.
    10030    2    1    2    0    0  0.00000000000E+00  0.00000000000E+00  0.13174362268E+03  0.34040907100E+04  0.34015404128E+04 0.  0.
        2    1    3    3  502    0  0.44826237731E+03  0.90208087914E+03 -0.13055315673E+04  0.16489699041E+04  0.25500000920E-02 0.  1.
       -2    1    3    3    0  502 -0.44826237731E+03 -0.90208087914E+03  0.14372751900E+04  0.17551208059E+04  0.25500000920E-02 0. -1.
</event>
<event>
 5   0  0.1970449E-07  0.3391833E+04  0.7818609E-02  0.8139914E-01
        2   -1    0    0  501    0  0.00000000000E+00  0.00000000000E+00  0.23620017176E+04  0.23620017176E+04  0.25500000920E-02 0.  1.
       -2   -1    0    0    0  501  0.00000000000E+00  0.00000000000E+00 -0.12176673193E+04  0.12176673193E+04  0.25500000920E-02 0. -1.
    10030    2    1    2    0    0  0.00000000000E+00  0.00000000000E+00  0.11443343982E+04  0.35796690369E+04  0.33918327198E+04 0.  0.
        1    1    3    3  502    0  0.77287034819E+03  0.77201100186E+03 -0.79690091197E+03  0.13521762554E+04  0.50400001928E-02 0. -1.
       -1    1    3    3    0  502 -0.77287034819E+03 -0.77201100186E+03  0.19412353102E+04  0.22274927815E+04  0.50400001928E-02 0.  1.
</event>
<event>
 5   0  0.6341535E-08  0.3405914E+04  0.7818609E-02  0.8136456E-01
       -1   -1    0    0    0  501  0.00000000000E+00  0.00000000000E+00  0.13526372733E+04  0.13526372733E+04  0.50400001928E-02 0.  1.
        1   -1    0    0  501    0  0.00000000000E+00  0.00000000000E+00 -0.21440060630E+04  0.21440060630E+04  0.50400001928E-02 0. -1.
    10030    2    1    2    0    0  0.00000000000E+00  0.00000000000E+00 -0.79136878974E+03  0.34966433364E+04  0.34059139831E+04 0.  0.
        5    1    3    3  502    0  0.10241455587E+04  0.98770748255E+03  0.56497756366E+03  0.15309023267E+04  0.46999998093E+01 0.  1.
       -5    1    3    3    0  502 -0.10241455587E+04 -0.98770748255E+03 -0.13563463534E+04  0.19657410096E+04  0.46999998093E+01 0. -1.
</event>
<event>
 5   0  0.6367111E-08  0.3401458E+04  0.7818609E-02  0.8137549E-01
        1   -1    0    0  501    0  0.00000000000E+00  0.00000000000E+00  0.18759532059E+04  0.18759532059E+04  0.50400001928E-02 0.  1.
       -1   -1    0    0    0  501  0.00000000000E+00  0.00000000000E+00 -0.15418717040E+04  0.15418717040E+04  0.50400001928E-02 0. -1.
    10030    2    1    2    0    0  0.00000000000E+00  0.00000000000E+00  0.33408150192E+03  0.34178249099E+04  0.34014580204E+04 0.  0.
        3    1    3    3  502    0  0.14300144348E+04  0.85444000614E+03 -0.17734760051E+03  0.16752495902E+04  0.10100000352E+00 0. -1.
       -3    1    3    3    0  502 -0.14300144348E+04 -0.85444000614E+03  0.51142910243E+03  0.17425753197E+04  0.10100000352E+00 0.  1.
</event>
<event>
 5   0  0.1963852E-07  0.3410004E+04  0.7818609E-02  0.8135455E-01
       -2   -1    0    0    0  501  0.00000000000E+00  0.00000000000E+00  0.13310511259E+04  0.13310511259E+04  0.25500000920E-02 0.  1.
        2   -1    0    0  501    0  0.00000000000E+00  0.00000000000E+00 -0.21840118712E+04  0.21840118712E+04  0.25500000920E-02 0. -1.
    10030    2    1    2    0    0  0.00000000000E+00  0.00000000000E+00 -0.85296074534E+03  0.35150629971E+04  0.34100037889E+04 0.  0.
        4    1    3    3  502    0  0.15576811672E+04 -0.69056683076E+03 -0.36313230283E+03  0.17421595360E+04  0.12699999809E+01 0.  1.
       -4    1    3    3    0  502 -0.15576811672E+04  0.69056683076E+03 -0.48982844252E+03  0.17729034611E+04  0.12699999809E+01 0. -1.
</event>
<event>
 5   0  0.6311750E-08  0.3406742E+04  0.7818609E-02  0.8136254E-01
       -1   -1    0    0    0  501  0.00000000000E+00  0.00000000000E+00  0.13659154438E+04  0.13659154438E+04  0.50400001928E-02 0. -1.
        1   -1    0    0  501    0  0.00000000000E+00  0.00000000000E+00 -0.21241966412E+04  0.21241966412E+04  0.50400001928E-02 0.  1.
    10030    2    1    2    0    0  0.00000000000E+00  0.00000000000E+00 -0.75828119743E+03  0.34901120850E+04  0.34067421375E+04 0.  0.
        4    1    3    3  502    0 -0.13010584113E+04 -0.94803417080E+02 -0.15012675663E+04  0.19888555996E+04  0.12699999809E+01 0.  1.
       -4    1    3    3    0  502  0.13010584113E+04  0.94803417080E+02  0.74298636891E+03  0.15012564853E+04  0.12699999809E+01 0. -1.
</event>
<event>
 5   0  0.1897313E-07  0.3409427E+04  0.7818609E-02  0.8135597E-01
       -2   -1    0    0    0  501  0.00000000000E+00  0.00000000000E+00  0.14205272503E+04  0.14205272503E+04  0.25500000920E-02 0.  1.
        2   -1    0    0  501    0  0.00000000000E+00  0.00000000000E+00 -0.20457529444E+04  0.20457529444E+04  0.25500000920E-02 0. -1.
    10030    2    1    2    0    0  0.00000000000E+00  0.00000000000E+00 -0.62522569409E+03  0.34662801947E+04  0.34094268169E+04 0.  0.
        3    1    3    3  502    0 -0.61620914206E+03 -0.15134529058E+04 -0.80629681846E+03  0.18221876891E+04  0.10100000352E+00 0.  1.
       -3    1    3    3    0  502  0.61620914206E+03  0.15134529058E+04  0.18107112437E+03  0.16440925056E+04  0.10100000352E+00 0. -1.
</event>
<event>
 5   0  0.1897313E-07  0.3400460E+04  0.7818609E-02  0.8137793E-01
        2   -1    0    0  501    0  0.00000000000E+00  0.00000000000E+00  0.19032466857E+04  0.19032466857E+04  0.25500000920E-02 0.  1.
       -2   -1    0    0    0  501  0.00000000000E+00  0.00000000000E+00 -0.15188691410E+04  0.15188691410E+04  0.25500000920E-02 0. -1.
    10030    2    1    2    0    0  0.00000000000E+00  0.00000000000E+00  0.38437754471E+03  0.34221158267E+04  0.34004603562E+04 0.  0.
        3    1    3    3  502    0 -0.37318370622E+02 -0.16560963049E+04  0.57768831858E+03  0.17543578414E+04  0.10100000352E+00 0.  1.
       -3    1    3    3    0  502  0.37318370622E+02  0.16560963049E+04 -0.19331077388E+03  0.16677579853E+04  0.10100000352E+00 0. -1.
</event>
<event>
 5   0  0.1897313E-07  0.3408596E+04  0.7818609E-02  0.8135800E-01
        2   -1    0    0  501    0  0.00000000000E+00  0.00000000000E+00  0.13512731931E+04  0.13512731931E+04  0.25500000920E-02 0. -1.
       -2   -1    0    0    0  501  0.00000000000E+00  0.00000000000E+00 -0.21495519906E+04  0.21495519906E+04  0.25500000920E-02 0.  1.
    10030    2    1    2    0    0  0.00000000000E+00  0.00000000000E+00 -0.79827879750E+03  0.35008251836E+04  0.34085961814E+04 0.  0.
        3    1    3    3  502    0 -0.49585496063E+03  0.16196653762E+04 -0.59249894399E+03  0.17945035753E+04  0.10100000352E+00 0. -1.
       -3    1    3    3    0  502  0.49585496063E+03 -0.16196653762E+04 -0.20577985351E+03  0.17063216084E+04  0.10100000352E+00 0.  1.
</event>
<event>
 5   0  0.6788600E-08  0.3392789E+04  0.7818609E-02  0.8139678E-01
       -1   -1    0    0    0  501  0.00000000000E+00  0.00000000000E+00  0.90504668692E+03  0.90504668693E+03  0.50400001928E-02 0. -1.
        1   -1    0    0  501    0  0.00000000000E+00  0.00000000000E+00 -0.31796749111E+04  0.31796749111E+04  0.50400001928E-02 0.  1.
    10030    2    1    2    0    0  0.00000000000E+00  0.00000000000E+00 -0.22746282242E+04  0.40847215980E+04  0.33927889671E+04 0.  0.
        2    1    3    3  502    0  0.94653325520E+03  0.11752088496E+04 -0.20704377739E+04  0.25619823612E+04  0.25500000920E-02 0.  1.
       -2    1    3    3    0  502 -0.94653325520E+03 -0.11752088496E+04 -0.20419045026E+03  0.15227392368E+04  0.25500000920E-02 0. -1.
</event>
<event>
 5   0  0.1986613E-07  0.3399587E+04  0.7818609E-02  0.8138008E-01
       -2   -1    0    0    0  501  0.00000000000E+00  0.00000000000E+00  0.14586557755E+04  0.14586557755E+04  0.25500000920E-02 0.  1.
        2   -1    0    0  501    0  0.00000000000E+00  0.00000000000E+00 -0.19807950282E+04  0.19807950282E+04  0.25500000920E-02 0. -1.
    10030    2    1    2    0    0  0.00000000000E+00  0.00000000000E+00 -0.52213925272E+03  0.34394508037E+04  0.33995870973E+04 0.  0.
        5    1    3    3  502    0 -0.62965908093E+03  0.11534016373E+04 -0.13518914786E+04  0.18853218704E+04  0.46999998093E+01 0. -1.
       -5    1    3    3    0  502  0.62965908093E+03 -0.11534016373E+04  0.82975222583E+03  0.15541289333E+04  0.46999998093E+01 0.  1.
</event>
<event>
 5   0  0.1986613E-07  0.3435412E+04  0.7818609E-02  0.8129269E-01
       -2   -1    0    0    0  501  0.00000000000E+00  0.00000000000E+00  0.17359972369E+04  0.17359972369E+04  0.25500000920E-02 0.  1.
        2   -1    0    0  501    0  0.00000000000E+00  0.00000000000E+00 -0.16996079823E+04  0.16996079823E+04  0.25500000920E-02 0. -1.
    10030    2    1    2    0    0  0.00000000000E+00  0.00000000000E+00  0.36389254539E+02  0.34356052192E+04  0.34354124999E+04 0.  0.
        5    1    3    3  502    0 -0.15401424458E+04 -0.26655654748E+03  0.73055580992E+03  0.17253477991E+04  0.46999998093E+01 0.  1.
       -5    1    3    3    0  502  0.15401424458E+04  0.26655654748E+03 -0.69416655538E+03  0.17102574201E+04  0.46999998093E+01 0. -1.
</event>
<event>
 5   0  0.1963852E-07  0.3401446E+04  0.7818609E-02  0.8137552E-01
        2   -1    0    0  501    0  0.00000000000E+00  0.00000000000E+00  0.21236371315E+04  0.21236371315E+04  0.25500000920E-02 0. -1.
       -2   -1    0    0    0  501  0.00000000000E+00  0.00000000000E+00 -0.13620303972E+04  0.13620303972E+04  0.25500000920E-02 0.  1.
    10030    2    1    2    0    0  0.00000000000E+00  0.00000000000E+00  0.76160673430E+03  0.34856675288E+04  0.34014457667E+04 0.  0.
        4    1    3    3  502    0 -0.82034592711E+03  0.13425620256E+04 -0.28095435671E+03  0.15982419079E+04  0.12699999809E+01 0.  1.
       -4    1    3    3    0  502  0.82034592711E+03 -0.13425620256E+04  0.10425610910E+04  0.18874256208E+04  0.12699999809E+01 0. -1.
</event>
<event>
 5   0  0.1963852E-07  0.3400486E+04  0.7818609E-02  0.8137787E-01
       -2   -1    0    0    0  501  0.00000000000E+00  0.00000000000E+00  0.12867343431E+04  0.12867343431E+04  0.25500000920E-02 0.  1.
        2   -1    0    0  501    0  0.00000000000E+00  0.00000000000E+00 -0.22466376685E+04  0.22466376685E+04  0.25500000920E-02 0. -1.
    10030    2    1    2    0    0  0.00000000000E+00  0.00000000000E+00 -0.95990332546E+03  0.35333720116E+04  0.34004857562E+04 0.  0.
        4    1    3    3  502    0  0.70430479978E+03  0.67904082228E+03 -0.19248623148E+04  0.21592216730E+04  0.12699999809E+01 0. -1.
       -4    1    3    3    0  502 -0.70430479978E+03 -0.67904082228E+03  0.96495898930E+03  0.13741503387E+04  0.12699999809E+01 0.  1.
</event>
<event>
 5   0  0.6311750E-08  0.3413986E+04  0.7818609E-02  0.8134482E-01
        1   -1    0    0  501    0  0.00000000000E+00  0.00000000000E+00  0.15415082983E+04  0.15415082983E+04  0.50400001928E-02 0. -1.
       -1   -1    0    0    0  501  0.00000000000E+00  0.00000000000E+00 -0.18902427703E+04  0.18902427703E+04  0.50400001928E-02 0.  1.
    10030    2    1    2    0    0  0.00000000000E+00  0.00000000000E+00 -0.34873447194E+03  0.34317510686E+04  0.34139858912E+04 0.  0.
        4    1    3    3  502    0  0.88904558336E+03  0.20382159904E+03 -0.16247468757E+04  0.18632630830E+04  0.12699999809E+01 0.  1.
       -4    1    3    3    0  502 -0.88904558336E+03 -0.20382159904E+03  0.12760124038E+04  0.15684879856E+04  0.12699999809E+01 0. -1.
</event>
<event>
 5   0  0.1897313E-07  0.3404999E+04  0.7818609E-02  0.8136681E-01
        2   -1    0    0  501    0  0.00000000000E+00  0.00000000000E+00  0.15731936251E+04  0.15731936251E+04  0.25500000920E-02 0. -1.
       -2   -1    0    0    0  501  0.00000000000E+00  0.00000000000E+00 -0.18424330832E+04  0.18424330832E+04  0.25500000920E-02 0.  1.
    10030    2    1    2    0    0  0.00000000000E+00  0.00000000000E+00 -0.26923945807E+03  0.34156267083E+04  0.34049986674E+04 0.  0.
        3    1    3    3  502    0 -0.93146463081E+03 -0.10865630993E+04  0.79035289701E+03  0.16349016604E+04  0.10100000352E+00 0. -1.
       -3    1    3    3    0  502  0.93146463081E+03  0.10865630993E+04 -0.10595923551E+04  0.17807250479E+04  0.10100000352E+00 0.  1.
</event>
<event>
 5   0  0.6311750E-08  0.3399312E+04  0.7818609E-02  0.8138075E-01
        1   -1    0    0  501    0  0.00000000000E+00  0.00000000000E+00  0.10582379768E+04  0.10582379768E+04  0.50400001928E-02 0.  1.
       -1   -1    0    0    0  501  0.00000000000E+00  0.00000000000E+00 -0.27298494881E+04  0.27298494881E+04  0.50400001928E-02 0. -1.
    10030    2    1    2    0    0  0.00000000000E+00  0.00000000000E+00 -0.16716115114E+04  0.37880874649E+04  0.33993119299E+04 0.  0.
        4    1    3    3  502    0  0.11974597331E+04 -0.79625666959E+03  0.17384830677E+03  0.14485024484E+04  0.12699999809E+01 0.  1.
       -4    1    3    3    0  502 -0.11974597331E+04  0.79625666959E+03 -0.18454598181E+04  0.23395850165E+04  0.12699999809E+01 0. -1.
</event>
<event>
 5   0  0.1970449E-07  0.3455136E+04  0.7818609E-02  0.8124505E-01
       -2   -1    0    0    0  501  0.00000000000E+00  0.00000000000E+00  0.12819342877E+04  0.12819342877E+04  0.25500000920E-02 0. -1.
        2   -1    0    0  501    0  0.00000000000E+00  0.00000000000E+00 -0.23281154299E+04  0.23281154299E+04  0.25500000920E-02 0.  1.
    10030    2    1    2    0    0  0.00000000000E+00  0.00000000000E+00 -0.10461811422E+04  0.36100497176E+04  0.34551358847E+04 0.  0.
        1    1    3    3  502    0 -0.39427260305E+03  0.10697310907E+04 -0.18792518403E+04  0.21980361624E+04  0.50400001928E-02 0.  1.
       -1    1    3    3    0  502  0.39427260305E+03 -0.10697310907E+04  0.83307069812E+03  0.14120135552E+04  0.50400001928E-02 0. -1.
</event>
<event>
 5   0  0.1928004E-07  0.3392657E+04  0.7818609E-02  0.8139711E-01
       -2   -1    0    0    0  501  0.00000000000E+00  0.00000000000E+00  0.12574168964E+04  0.12574168964E+04  0.25500000920E-02 0.  1.
        2   -1    0    0  501    0  0.00000000000E+00  0.00000000000E+00 -0.22884460708E+04  0.22884460708E+04  0.25500000920E-02 0. -1.
    10030    2    1    2    0    0  0.00000000000E+00  0.00000000000E+00 -0.10310291744E+04  0.35458629672E+04  0.33926572217E+04 0.  0.
        2    1    3    3  502    0  0.47963365886E+02  0.12520681972E+04  0.67960683548E+03  0.14254264996E+04  0.25500000920E-02 0.  1.
       -2    1    3    3    0  502 -0.47963365886E+02 -0.12520681972E+04 -0.17106360099E+04  0.21204364676E+04  0.25500000920E-02 0. -1.
</event>
<event>
 5   0  0.6311750E-08  0.3408121E+04  0.7818609E-02  0.8135916E-01
        1   -1    0    0  501    0  0.00000000000E+00  0.00000000000E+00  0.22998613398E+04  0.22998613398E+04  0.50400001928E-02 0.  1.
       -1   -1    0    0    0  501  0.00000000000E+00  0.00000000000E+00 -0.12626074680E+04  0.12626074680E+04  0.50400001928E-02 0. -1.
    10030    2    1    2    0    0  0.00000000000E+00  0.00000000000E+00  0.10372538719E+04  0.35624688078E+04  0.34081209503E+04 0.  0.
        4    1    3    3  502    0  0.66240339205E+02 -0.15408145100E+04 -0.23898956569E+03  0.15606456235E+04  0.12699999809E+01 0. -1.
       -4    1    3    3    0  502 -0.66240339205E+02  0.15408145100E+04  0.12762434375E+04  0.20018231844E+04  0.12699999809E+01 0.  1.
</event>
<event>
 5   0  0.6788600E-08  0.3352508E+04  0.7818609E-02  0.8149662E-01
       -1   -1    0    0    0  501  0.00000000000E+00  0.00000000000E+00  0.93280839370E+03  0.93280839371E+03  0.50400001928E-02 0. -1.
        1   -1    0    0  501    0  0.00000000000E+00  0.00000000000E+00 -0.30122234955E+04  0.30122234955E+04  0.50400001928E-02 0.  1.
    10030    2    1    2    0    0  0.00000000000E+00  0.00000000000E+00 -0.20794151018E+04  0.39450318892E+04  0.33525079331E+04 0.  0.
        2    1    3    3  502    0  0.14474202139E+04 -0.34302675465E+01 -0.44829076040E+02  0.14481183267E+04  0.25500000920E-02 0. -1.
       -2    1    3    3    0  502 -0.14474202139E+04  0.34302675465E+01 -0.20345860257E+04  0.24969135624E+04  0.25500000920E-02 0.  1.
</event>
<event>
 5   0  0.1963852E-07  0.3398256E+04  0.7818609E-02  0.8138334E-01
        2   -1    0    0  501    0  0.00000000000E+00  0.00000000000E+00  0.21696614201E+04  0.21696614201E+04  0.25500000920E-02 0. -1.
       -2   -1    0    0    0  501  0.00000000000E+00  0.00000000000E+00 -0.13306390616E+04  0.13306390616E+04  0.25500000920E-02 0.  1.
    10030    2    1    2    0    0  0.00000000000E+00  0.00000000000E+00  0.83902235847E+03  0.35003004818E+04  0.33982561623E+04 0.  0.
        4    1    3    3  502    0  0.69979230303E+03 -0.11438981406E+04 -0.65528901950E+03  0.14925205310E+04  0.12699999809E+01 0.  1.
       -4    1    3    3    0  502 -0.69979230303E+03  0.11438981406E+04  0.14943113780E+04  0.20077799508E+04  0.12699999809E+01 0. -1.
</event>
<event>
 5   0  0.1963852E-07  0.3401593E+04  0.7818609E-02  0.8137515E-01
       -2   -1    0    0    0  501  0.00000000000E+00  0.00000000000E+00  0.12354921448E+04  0.12354921448E+04  0.25500000920E-02 0.  1.
        2   -1    0    0  501    0  0.00000000000E+00  0.00000000000E+00 -0.23413410645E+04  0.23413410645E+04  0.25500000920E-02 0. -1.
    10030    2    1    2    0    0  0.00000000000E+00  0.00000000000E+00 -0.11058489197E+04  0.35768332093E+04  0.34015928583E+04 0.  0.
        4    1    3    3  502    0  0.13279553770E+04 -0.10565289167E+04 -0.67276072350E+03  0.18254663621E+04  0.12699999809E+01 0.  1.
       -4    1    3    3    0  502 -0.13279553770E+04  0.10565289167E+04 -0.43308819620E+03  0.17513668472E+04  0.12699999809E+01 0. -1.
</event>
<event>
 5   0  0.6311750E-08  0.3399487E+04  0.7818609E-02  0.8138032E-01
        1   -1    0    0  501    0  0.00000000000E+00  0.00000000000E+00  0.23404089422E+04  0.23404089422E+04  0.50400001928E-02 0. -1.
       -1   -1    0    0    0  501  0.00000000000E+00  0.00000000000E+00 -0.12344542449E+04  0.12344542449E+04  0.50400001928E-02 0.  1.
    10030    2    1    2    0    0  0.00000000000E+00  0.00000000000E+00  0.11059546974E+04  0.35748631871E+04  0.33994868751E+04 0.  0.
        4    1    3    3  502    0  0.54384634859E+03  0.61489901159E+02  0.22452113279E+04  0.23109576756E+04  0.12699999809E+01 0. -1.
       -4    1    3    3    0  502 -0.54384634859E+03 -0.61489901159E+02 -0.11392566305E+04  0.12639055115E+04  0.12699999809E+01 0.  1.
</event>
<event>
 5   0  0.6788600E-08  0.3396750E+04  0.7818609E-02  0.8138704E-01
        1   -1    0    0  501    0  0.00000000000E+00  0.00000000000E+00  0.24306358274E+04  0.24306358274E+04  0.50400001928E-02 0.  1.
       -1   -1    0    0    0  501  0.00000000000E+00  0.00000000000E+00 -0.11867175192E+04  0.11867175192E+04  0.50400001928E-02 0. -1.
    10030    2    1    2    0    0  0.00000000000E+00  0.00000000000E+00  0.12439183082E+04  0.36173533466E+04  0.33967502818E+04 0.  0.
        2    1    3    3  502    0  0.16308365197E+04  0.27532892716E+03  0.21082356956E+03  0.16672973189E+04  0.25500000920E-02 0. -1.
       -2    1    3    3    0  502 -0.16308365197E+04 -0.27532892716E+03  0.10330947386E+04  0.19500560277E+04  0.25500000920E-02 0.  1.
</event>
<event>
 5   0  0.1986613E-07  0.3387812E+04  0.7818609E-02  0.8140904E-01
       -2   -1    0    0    0  501  0.00000000000E+00  0.00000000000E+00  0.14688092038E+04  0.14688092038E+04  0.25500000920E-02 0. -1.
        2   -1    0    0  501    0  0.00000000000E+00  0.00000000000E+00 -0.19534990576E+04  0.19534990576E+04  0.25500000920E-02 0.  1.
    10030    2    1    2    0    0  0.00000000000E+00  0.00000000000E+00 -0.48468985379E+03  0.34223082614E+04  0.33878119165E+04 0.  0.
        5    1    3    3  502    0 -0.24134199741E+03  0.16612346988E+04 -0.13435210556E+02  0.16787344278E+04  0.46999998093E+01 0. -1.
       -5    1    3    3    0  502  0.24134199741E+03 -0.16612346988E+04 -0.47125464323E+03  0.17435738335E+04  0.46999998093E+01 0.  1.
</event>
<event>
 5   0  0.1986613E-07  0.3393818E+04  0.7818609E-02  0.8139425E-01
       -2   -1    0    0    0  501  0.00000000000E+00  0.00000000000E+00  0.13242306649E+04  0.13242306649E+04  0.25500000920E-02 0.  1.
        2   -1    0    0  501    0  0.00000000000E+00  0.00000000000E+00 -0.21744704278E+04  0.21744704278E+04  0.25500000920E-02 0. -1.
    10030    2    1    2    0    0  0.00000000000E+00  0.00000000000E+00 -0.85023976291E+03  0.34987010926E+04  0.33938181568E+04 0.  0.
        5    1    3    3  502    0 -0.83123683326E+03  0.13351319457E+03 -0.19439806454E+04  0.21184577611E+04  0.46999998093E+01 0. -1.
       -5    1    3    3    0  502  0.83123683326E+03 -0.13351319457E+03  0.10937408825E+04  0.13802433315E+04  0.46999998093E+01 0.  1.
</event>
<event>
 5   0  0.6341535E-08  0.3349548E+04  0.7818609E-02  0.8150401E-01
        1   -1    0    0  501    0  0.00000000000E+00  0.00000000000E+00  0.20661165555E+04  0.20661165555E+04  0.50400001928E-02 0. -1.
       -1   -1    0    0    0  501  0.00000000000E+00  0.00000000000E+00 -0.13575553131E+04  0.13575553132E+04  0.50400001928E-02 0.  1.
    10030    2    1    2    0    0  0.00000000000E+00  0.00000000000E+00  0.70856124234E+03  0.34236718686E+04  0.33495477351E+04 0.  0.
        5    1    3    3  502    0 -0.38881622697E+03  0.48195442227E+03  0.19447968052E+04  0.20410082869E+04  0.46999998093E+01 0. -1.
       -5    1    3    3    0  502  0.38881622697E+03 -0.48195442227E+03 -0.12362355629E+04  0.13826635818E+04  0.46999998093E+01 0.  1.
</event>
<event>
 5   0  0.1928004E-07  0.3364644E+04  0.7818609E-02  0.8146639E-01
       -2   -1    0    0    0  501  0.00000000000E+00  0.00000000000E+00  0.13805413278E+04  0.13805413278E+04  0.25500000920E-02 0. -1.
        2   -1    0    0  501    0  0.00000000000E+00  0.00000000000E+00 -0.20500701795E+04  0.20500701795E+04  0.25500000920E-02 0.  1.
    10030    2    1    2    0    0  0.00000000000E+00  0.00000000000E+00 -0.66952885168E+03  0.34306115073E+04  0.33646435815E+04 0.  0.
        2    1    3    3  502    0  0.15678994616E+04 -0.47570702553E+03 -0.72382231237E+03  0.17912355054E+04  0.25500000920E-02 0.  1.
       -2    1    3    3    0  502 -0.15678994616E+04  0.47570702553E+03  0.54293460698E+02  0.16393760019E+04  0.25500000920E-02 0. -1.
</event>
<event>
 5   0  0.6311750E-08  0.3405628E+04  0.7818609E-02  0.8136526E-01
        1   -1    0    0  501    0  0.00000000000E+00  0.00000000000E+00  0.21326275179E+04  0.21326275179E+04  0.50400001928E-02 0.  1.
       -1   -1    0    0    0  501  0.00000000000E+00  0.00000000000E+00 -0.13596256862E+04  0.13596256862E+04  0.50400001928E-02 0. -1.
    10030    2    1    2    0    0  0.00000000000E+00  0.00000000000E+00  0.77300183171E+03  0.34922532042E+04  0.34056277850E+04 0.  0.
        4    1    3    3  502    0 -0.16326037475E+04  0.47740756898E+03  0.30536465052E+03  0.17281672853E+04  0.12699999809E+01 0. -1.
       -4    1    3    3    0  502  0.16326037475E+04 -0.47740756898E+03  0.46763718119E+03  0.17640859189E+04  0.12699999809E+01 0.  1.
</event>
<event>
 5   0  0.1897313E-07  0.3399325E+04  0.7818609E-02  0.8138072E-01
       -2   -1    0    0    0  501  0.00000000000E+00  0.00000000000E+00  0.18226992834E+04  0.18226992834E+04  0.25500000920E-02 0.  1.
        2   -1    0    0  501    0  0.00000000000E+00  0.00000000000E+00 -0.15849313082E+04  0.15849313082E+04  0.25500000920E-02 0. -1.
    10030    2    1    2    0    0  0.00000000000E+00  0.00000000000E+00  0.23776797514E+03  0.34076305916E+04  0.33993253211E+04 0.  0.
        3    1    3    3  502    0 -0.11937812391E+04 -0.10820863516E+04 -0.42357454803E+03  0.16659651638E+04  0.10100000352E+00 0. -1.
       -3    1    3    3    0  502  0.11937812391E+04  0.10820863516E+04  0.66134252317E+03  0.17416654278E+04  0.10100000352E+00 0.  1.
</event>
<event>
 5   0  0.1986613E-07  0.3397781E+04  0.7818609E-02  0.8138451E-01
        2   -1    0    0  501    0  0.00000000000E+00  0.00000000000E+00  0.10792064392E+04  0.10792064392E+04  0.25500000920E-02 0. -1.
       -2   -1    0    0    0  501  0.00000000000E+00  0.00000000000E+00 -0.26743990179E+04  0.26743990179E+04  0.25500000920E-02 0.  1.
    10030    2    1    2    0    0  0.00000000000E+00  0.00000000000E+00 -0.15951925787E+04  0.37536054571E+04  0.33977808294E+04 0.  0.
        5    1    3    3  502    0  0.21594870642E+03 -0.66789626808E+03  0.91150901583E+03  0.11504738348E+04  0.46999998093E+01 0. -1.
       -5    1    3    3    0  502 -0.21594870642E+03  0.66789626808E+03 -0.25067015946E+04  0.26031316223E+04  0.46999998093E+01 0.  1.
</event>
<event>
 5   0  0.1928004E-07  0.3405190E+04  0.7818609E-02  0.8136634E-01
        2   -1    0    0  501    0  0.00000000000E+00  0.00000000000E+00  0.14058821522E+04  0.14058821522E+04  0.25500000920E-02 0.  1.
       -2   -1    0    0    0  501  0.00000000000E+00  0.00000000000E+00 -0.20619290386E+04  0.20619290386E+04  0.25500000920E-02 0. -1.
    10030    2    1    2    0    0  0.00000000000E+00  0.00000000000E+00 -0.65604688637E+03  0.34678111907E+04  0.34051897065E+04 0.  0.
        2    1    3    3  502    0  0.15988696022E+04 -0.39566469054E+03  0.11106055986E+03  0.16508388777E+04  0.25500000920E-02 0.  1.
       -2    1    3    3    0  502 -0.15988696022E+04  0.39566469054E+03 -0.76710744623E+03  0.18169723130E+04  0.25500000920E-02 0. -1.
</event>
<event>
 5   0  0.6367111E-08  0.3383216E+04  0.7818609E-02  0.8142038E-01
       -1   -1    0    0    0  501  0.00000000000E+00  0.00000000000E+00  0.91767499548E+03  0.91767499549E+03  0.50400001928E-02 0.  1.
        1   -1    0    0  501    0  0.00000000000E+00  0.00000000000E+00 -0.31182482088E+04  0.31182482088E+04  0.50400001928E-02 0. -1.
    10030    2    1    2    0    0  0.00000000000E+00  0.00000000000E+00 -0.22005732133E+04  0.40359232043E+04  0.33832164642E+04 0.  0.
        3    1    3    3  502    0  0.18390569862E+03 -0.51291229894E+03  0.81012149182E+03  0.97631817257E+03  0.10100000352E+00 0.  1.
       -3    1    3    3    0  502 -0.18390569862E+03  0.51291229894E+03 -0.30106947051E+04  0.30596050317E+04  0.10100000352E+00 0. -1.
</event>
<event>
 5   0  0.1928004E-07  0.3382776E+04  0.7818609E-02  0.8142147E-01
       -2   -1    0    0    0  501  0.00000000000E+00  0.00000000000E+00  0.19025507968E+04  0.19025507968E+04  0.25500000920E-02 0.  1.
        2   -1    0    0  501    0  0.00000000000E+00  0.00000000000E+00 -0.15036620469E+04  0.15036620469E+04  0.25500000920E-02 0. -1.
    10030    2    1    2    0    0  0.00000000000E+00  0.00000000000E+00  0.39888874993E+03  0.34062128437E+04  0.33827760349E+04 0.  0.
        2    1    3    3  502    0  0.44696221957E+03 -0.15048611120E+04  0.83341847157E+03  0.17773487392E+04  0.25500000920E-02 0.  1.
       -2    1    3    3    0  502 -0.44696221957E+03  0.15048611120E+04 -0.43452972165E+03  0.16288641045E+04  0.25500000920E-02 0. -1.
</event>
<event>
 5   0  0.6341535E-08  0.3400454E+04  0.7818609E-02  0.8137795E-01
       -1   -1    0    0    0  501  0.00000000000E+00  0.00000000000E+00  0.31580711449E+04  0.31580711449E+04  0.50400001928E-02 0.  1.
        1   -1    0    0  501    0  0.00000000000E+00  0.00000000000E+00 -0.91535995468E+03  0.91535995470E+03  0.50400001928E-02 0. -1.
    10030    2    1    2    0    0  0.00000000000E+00  0.00000000000E+00  0.22427111902E+04  0.40734310996E+04  0.34004540051E+04 0.  0.
        5    1    3    3  502    0 -0.33099131871E+03  0.12833197240E+04  0.23971613738E+04  0.27391366357E+04  0.46999998093E+01 0. -1.
       -5    1    3    3    0  502  0.33099131871E+03 -0.12833197240E+04 -0.15445018357E+03  0.13342944639E+04  0.46999998093E+01 0.  1.
</event>
<event>
 5   0  0.6311750E-08  0.3403006E+04  0.7818609E-02  0.8137169E-01
       -1   -1    0    0    0  501  0.00000000000E+00  0.00000000000E+00  0.14541066803E+04  0.14541066803E+04  0.50400001928E-02 0.  1.
        1   -1    0    0  501    0  0.00000000000E+00  0.00000000000E+00 -0.19909907428E+04  0.19909907428E+04  0.50400001928E-02 0. -1.
    10030    2    1    2    0    0  0.00000000000E+00  0.00000000000E+00 -0.53688406249E+03  0.34450974232E+04  0.34030062825E+04 0.  0.
        4    1    3    3  502    0  0.27264441138E+03 -0.11505944910E+04  0.97017317829E+03  0.15295228885E+04  0.12699999809E+01 0.  1.
       -4    1    3    3    0  502 -0.27264441138E+03  0.11505944910E+04 -0.15070572408E+04  0.19155745346E+04  0.12699999809E+01 0. -1.
</event>
<event>
 5   0  0.1897313E-07  0.3376508E+04  0.7818609E-02  0.8143696E-01
       -2   -1    0    0    0  501  0.00000000000E+00  0.00000000000E+00  0.15371634345E+04  0.15371634345E+04  0.25500000920E-02 0. -1.
        2   -1    0    0  501    0  0.00000000000E+00  0.00000000000E+00 -0.18541952670E+04  0.18541952670E+04  0.25500000920E-02 0.  1.
    10030    2    1    2    0    0  0.00000000000E+00  0.00000000000E+00 -0.31703183243E+03  0.33913587015E+04  0.33765077609E+04 0.  0.
        3    1    3    3  502    0  0.97176179505E+03  0.12181800157E+04  0.49389287586E+03  0.16346907108E+04  0.10100000352E+00 0. -1.
       -3    1    3    3    0  502 -0.97176179505E+03 -0.12181800157E+04 -0.81092470830E+03  0.17566679907E+04  0.10100000352E+00 0.  1.
</event>
<event>
 5   0  0.6367111E-08  0.3397551E+04  0.7818609E-02  0.8138508E-01
       -1   -1    0    0    0  501  0.00000000000E+00  0.00000000000E+00  0.17735258882E+04  0.17735258882E+04  0.50400001928E-02 0. -1.
        1   -1    0    0  501    0  0.00000000000E+00  0.00000000000E+00 -0.16271753573E+04  0.16271753573E+04  0.50400001928E-02 0.  1.
    10030    2    1    2    0    0  0.00000000000E+00  0.00000000000E+00  0.14635053087E+03  0.34007012455E+04  0.33975506594E+04 0.  0.
        3    1    3    3  502    0  0.16195531352E+04 -0.51082649816E+03  0.11727905289E+03  0.17022486468E+04  0.10100000352E+00 0.  1.
       -3    1    3    3    0  502 -0.16195531352E+04  0.51082649816E+03  0.29071477984E+02  0.16984525987E+04  0.10100000352E+00 0. -1.
</event>
<event>
 5   0  0.6788600E-08  0.3444720E+04  0.7818609E-02  0.8127017E-01
       -1   -1    0    0    0  501  0.00000000000E+00  0.00000000000E+00  0.15541301697E+04  0.15541301697E+04  0.50400001928E-02 0. -1.
        1   -1    0    0  501    0  0.00000000000E+00  0.00000000000E+00 -0.19088007047E+04  0.19088007047E+04  0.50400001928E-02 0.  1.
    10030    2    1    2    0    0  0.00000000000E+00  0.00000000000E+00 -0.35467053499E+03  0.34629308745E+04  0.34447204608E+04 0.  0.
        2    1    3    3  502    0 -0.77089635112E+02  0.92366143054E+03 -0.16367091602E+04  0.18809333123E+04  0.25500000920E-02 0.  1.
       -2    1    3    3    0  502  0.77089635112E+02 -0.92366143054E+03  0.12820386252E+04  0.15819975622E+04  0.25500000920E-02 0. -1.
</event>
<event>
 5   0  0.6788600E-08  0.3399950E+04  0.7818609E-02  0.8137918E-01
       -1   -1    0    0    0  501  0.00000000000E+00  0.00000000000E+00  0.14215000531E+04  0.14215000531E+04  0.50400001928E-02 0. -1.
        1   -1    0    0  501    0  0.00000000000E+00  0.00000000000E+00 -0.20330043536E+04  0.20330043536E+04  0.50400001928E-02 0.  1.
    10030    2    1    2    0    0  0.00000000000E+00  0.00000000000E+00 -0.61150430051E+03  0.34545044068E+04  0.33999504683E+04 0.  0.
        2    1    3    3  502    0 -0.12607806745E+04 -0.14808913871E+03  0.84306130480E+03  0.15238932594E+04  0.25500000920E-02 0. -1.
       -2    1    3    3    0  502  0.12607806745E+04  0.14808913871E+03 -0.14545656053E+04  0.19306111474E+04  0.25500000920E-02 0.  1.
</event>
<event>
 5   0  0.1963852E-07  0.3406601E+04  0.7818609E-02  0.8136288E-01
       -2   -1    0    0    0  501  0.00000000000E+00  0.00000000000E+00  0.11745731205E+04  0.11745731205E+04  0.25500000920E-02 0. -1.
        2   -1    0    0  501    0  0.00000000000E+00  0.00000000000E+00 -0.24700307839E+04  0.24700307839E+04  0.25500000920E-02 0.  1.
    10030    2    1    2    0    0  0.00000000000E+00  0.00000000000E+00 -0.12954576634E+04  0.36446039044E+04  0.34066005140E+04 0.  0.
        4    1    3    3  502    0 -0.22823574940E+03 -0.16785944578E+04 -0.45796945127E+03  0.17548528548E+04  0.12699999809E+01 0.  1.
       -4    1    3    3    0  502  0.22823574940E+03  0.16785944578E+04 -0.83748821215E+03  0.18897510496E+04  0.12699999809E+01 0. -1.
</event>
<event>
 5   0  0.6584420E-08  0.3396865E+04  0.7818609E-02  0.8138676E-01
       -1   -1    0    0    0  501  0.00000000000E+00  0.00000000000E+00  0.16351754962E+04  0.16351754962E+04  0.50400001928E-02 0. -1.
        1   -1    0    0  501    0  0.00000000000E+00  0.00000000000E+00 -0.17641362274E+04  0.17641362274E+04  0.50400001928E-02 0.  1.
    10030    2    1    2    0    0  0.00000000000E+00  0.00000000000E+00 -0.12896073120E+03  0.33993117235E+04  0.33968646313E+04 0.  0.
        1    1    3    3  502    0  0.11810646463E+04  0.32624659396E+03 -0.12414746700E+04  0.17443078556E+04  0.50400001928E-02 0.  1.
       -1    1    3    3    0  502 -0.11810646463E+04 -0.32624659396E+03  0.11125139388E+04  0.16550038679E+04  0.50400001928E-02 0. -1.
</event>
<event>
 5   0  0.6584420E-08  0.3403850E+04  0.7818609E-02  0.8136962E-01
        1   -1    0    0  501    0  0.00000000000E+00  0.00000000000E+00  0.13757677110E+04  0.13757677110E+04  0.50400001928E-02 0. -1.
       -1   -1    0    0    0  501  0.00000000000E+00  0.00000000000E+00 -0.21054058975E+04  0.21054058975E+04  0.50400001928E-02 0.  1.
    10030    2    1    2    0    0  0.00000000000E+00  0.00000000000E+00 -0.72963818651E+03  0.34811736085E+04  0.34038504388E+04 0.  0.
        1    1    3    3  502    0  0.16670121297E+04 -0.59635634566E+02 -0.71022420109E+03  0.18129821470E+04  0.50400001928E-02 0.  1.
       -1    1    3    3    0  502 -0.16670121297E+04  0.59635634566E+02 -0.19413985427E+02  0.16681914615E+04  0.50400001928E-02 0. -1.
</event>
<event>
 5   0  0.1986613E-07  0.3396334E+04  0.7818609E-02  0.8138807E-01
        2   -1    0    0  501    0  0.00000000000E+00  0.00000000000E+00  0.25765984200E+04  0.25765984200E+04  0.25500000920E-02 0. -1.
       -2   -1    0    0    0  501  0.00000000000E+00  0.00000000000E+00 -0.11192164105E+04  0.11192164105E+04  0.25500000920E-02 0.  1.
    10030    2    1    2    0    0  0.00000000000E+00  0.00000000000E+00  0.14573820094E+04  0.36958148305E+04  0.33963340442E+04 0.  0.
        5    1    3    3  502    0 -0.89103948788E+03  0.14348275029E+04  0.92049389415E+03  0.19235416375E+04  0.46999998093E+01 0. -1.
       -5    1    3    3    0  502  0.89103948788E+03 -0.14348275029E+04  0.53688811530E+03  0.17722731929E+04  0.46999998093E+01 0.  1.
</event>
<event>
 5   0  0.1970449E-07  0.3425957E+04  0.7818609E-02  0.8131565E-01
       -2   -1    0    0    0  501  0.00000000000E+00  0.00000000000E+00  0.15000983587E+04  0.15000983587E+04  0.25500000920E-02 0. -1.
        2   -1    0    0  501    0  0.00000000000E+00  0.00000000000E+00 -0.19560690270E+04  0.19560690270E+04  0.25500000920E-02 0.  1.
    10030    2    1    2    0    0  0.00000000000E+00  0.00000000000E+00 -0.45597066830E+03  0.34561673856E+04  0.34259573475E+04 0.  0.
        1    1    3    3  502    0  0.16976955373E+04  0.21621957261E+03 -0.15402517500E+03  0.17183261610E+04  0.50400001928E-02 0. -1.
       -1    1    3    3    0  502 -0.16976955373E+04 -0.21621957261E+03 -0.30194549329E+03  0.17378412246E+04  0.50400001928E-02 0.  1.
</event>
<event>
 5   0  0.1970449E-07  0.3400304E+04  0.7818609E-02  0.8137832E-01
       -2   -1    0    0    0  501  0.00000000000E+00  0.00000000000E+00  0.15850943099E+04  0.15850943099E+04  0.25500000920E-02 0. -1.
        2   -1    0    0  501    0  0.00000000000E+00  0.00000000000E+00 -0.18235618201E+04  0.18235618201E+04  0.25500000920E-02 0.  1.
    10030    2    1    2    0    0  0.00000000000E+00  0.00000000000E+00 -0.23846751013E+03  0.34086561300E+04  0.34003043775E+04 0.  0.
        1    1    3    3  502    0  0.10949332155E+04  0.90455473175E+03 -0.10560983515E+04  0.17698705425E+04  0.50400001928E-02 0.  1.
       -1    1    3    3    0  502 -0.10949332155E+04 -0.90455473175E+03  0.81763084137E+03  0.16387855875E+04  0.50400001928E-02 0. -1.
</event>
<event>
 5   0  0.6367111E-08  0.3395771E+04  0.7818609E-02  0.8138945E-01
       -1   -1    0    0    0  501  0.00000000000E+00  0.00000000000E+00  0.13536870801E+04  0.13536870801E+04  0.50400001928E-02 0.  1.
        1   -1    0    0  501    0  0.00000000000E+00  0.00000000000E+00 -0.21296018128E+04  0.21296018128E+04  0.50400001928E-02 0. -1.
    10030    2    1    2    0    0  0.00000000000E+00  0.00000000000E+00 -0.77591473264E+03  0.34832888929E+04  0.33957705811E+04 0.  0.
        3    1    3    3  502    0 -0.13402766746E+04  0.18669991038E+03 -0.14398701957E+04  0.19759616928E+04  0.10100000352E+00 0. -1.
       -3    1    3    3    0  502  0.13402766746E+04 -0.18669991038E+03  0.66395546305E+03  0.15073272001E+04  0.10100000352E+00 0.  1.
</event>
<event>
 5   0  0.1986613E-07  0.3394074E+04  0.7818609E-02  0.8139362E-01
        2   -1    0    0  501    0  0.00000000000E+00  0.00000000000E+00  0.25325658244E+04  0.25325658244E+04  0.25500000920E-02 0. -1.
       -2   -1    0    0    0  501  0.00000000000E+00  0.00000000000E+00 -0.11371608444E+04  0.11371608444E+04  0.25500000920E-02 0.  1.
    10030    2    1    2    0    0  0.00000000000E+00  0.00000000000E+00  0.13954049800E+04  0.36697266687E+04  0.33940740659E+04 0.  0.
        5    1    3    3  502    0 -0.47318554560E+03  0.95225516980E+03 -0.73229207878E+03  0.12911112453E+04  0.46999998093E+01 0.  1.
       -5    1    3    3    0  502  0.47318554560E+03 -0.95225516980E+03  0.21276970588E+04  0.23786154235E+04  0.46999998093E+01 0. -1.
</event>
<event>
 5   0  0.1928004E-07  0.3404949E+04  0.7818609E-02  0.8136693E-01
        2   -1    0    0  501    0  0.00000000000E+00  0.00000000000E+00  0.22079544173E+04  0.22079544173E+04  0.25500000920E-02 0.  1.
       -2   -1    0    0    0  501  0.00000000000E+00  0.00000000000E+00 -0.13127172707E+04  0.13127172707E+04  0.25500000920E-02 0. -1.
    10030    2    1    2    0    0  0.00000000000E+00  0.00000000000E+00  0.89523714659E+03  0.35206716880E+04  0.34049492781E+04 0.  0.
        2    1    3    3  502    0 -0.27408623966E+03  0.11432827776E+04 -0.82557162818E+03  0.14365887684E+04  0.25500000920E-02 0. -1.
       -2    1    3    3    0  502  0.27408623966E+03 -0.11432827776E+04  0.17208087748E+04  0.20840829196E+04  0.25500000920E-02 0.  1.
</event>
<event>
 5   0  0.6341535E-08  0.3399264E+04  0.7818609E-02  0.8138087E-01
       -1   -1    0    0    0  501  0.00000000000E+00  0.00000000000E+00  0.18731307624E+04  0.18731307624E+04  0.50400001928E-02 0.  1.
        1   -1    0    0  501    0  0.00000000000E+00  0.00000000000E+00 -0.15422038461E+04  0.15422038461E+04  0.50400001928E-02 0. -1.
    10030    2    1    2    0    0  0.00000000000E+00  0.00000000000E+00  0.33092691631E+03  0.34153346084E+04  0.33992643121E+04 0.  0.
        5    1    3    3  502    0  0.68481041241E+03 -0.13792032515E+04  0.88828131304E+03  0.17777043317E+04  0.46999998093E+01 0.  1.
       -5    1    3    3    0  502 -0.68481041241E+03  0.13792032515E+04 -0.55735439673E+03  0.16376302768E+04  0.46999998093E+01 0. -1.
</event>
<event>
 5   0  0.1970449E-07  0.3401540E+04  0.7818609E-02  0.8137528E-01
       -2   -1    0    0    0  501  0.00000000000E+00  0.00000000000E+00  0.11808466621E+04  0.11808466621E+04  0.25500000920E-02 0.  1.
        2   -1    0    0  501    0  0.00000000000E+00  0.00000000000E+00 -0.24496142203E+04  0.24496142203E+04  0.25500000920E-02 0. -1.
    10030    2    1    2    0    0  0.00000000000E+00  0.00000000000E+00 -0.12687675582E+04  0.36304608824E+04  0.34015401073E+04 0.  0.
        1    1    3    3  502    0  0.53511521933E+03 -0.75574109617E+03  0.88820212001E+03  0.12831196002E+04  0.50400001928E-02 0.  1.
       -1    1    3    3    0  502 -0.53511521933E+03  0.75574109617E+03 -0.21569696782E+04  0.23473412822E+04  0.50400001928E-02 0. -1.
</event>
<event>
 5   0  0.1963852E-07  0.3399976E+04  0.7818609E-02  0.8137912E-01
        2   -1    0    0  501    0  0.00000000000E+00  0.00000000000E+00  0.14294181388E+04  0.14294181388E+04  0.25500000920E-02 0.  1.
       -2   -1    0    0    0  501  0.00000000000E+00  0.00000000000E+00 -0.20217729639E+04  0.20217729639E+04  0.25500000920E-02 0. -1.
    10030    2    1    2    0    0  0.00000000000E+00  0.00000000000E+00 -0.59235482510E+03  0.34511911027E+04  0.33999758512E+04 0.  0.
        4    1    3    3  502    0  0.77981399193E+03  0.10185990889E+04 -0.14284638728E+04  0.19199387008E+04  0.12699999809E+01 0. -1.
       -4    1    3    3    0  502 -0.77981399193E+03 -0.10185990889E+04  0.83610904771E+03  0.15312524019E+04  0.12699999809E+01 0.  1.
</event>
<event>
 5   0  0.1970449E-07  0.3401931E+04  0.7818609E-02  0.8137432E-01
       -2   -1    0    0    0  501  0.00000000000E+00  0.00000000000E+00  0.10942779300E+04  0.10942779300E+04  0.25500000920E-02 0. -1.
        2   -1    0    0  501    0  0.00000000000E+00  0.00000000000E+00 -0.26440121654E+04  0.26440121654E+04  0.25500000920E-02 0.  1.
    10030    2    1    2    0    0  0.00000000000E+00  0.00000000000E+00 -0.15497342354E+04  0.37382900954E+04  0.34019313099E+04 0.  0.
        1    1    3    3  502    0  0.24752664644E+03 -0.67032988992E+03 -0.24710772033E+04  0.25723207706E+04  0.50400001928E-02 0.  1.
       -1    1    3    3    0  502 -0.24752664644E+03  0.67032988992E+03  0.92134296790E+03  0.11659693249E+04  0.50400001928E-02 0. -1.
</event>
<event>
 5   0  0.1928004E-07  0.3397458E+04  0.7818609E-02  0.8138530E-01
        2   -1    0    0  501    0  0.00000000000E+00  0.00000000000E+00  0.15731180376E+04  0.15731180376E+04  0.25500000920E-02 0.  1.
       -2   -1    0    0    0  501  0.00000000000E+00  0.00000000000E+00 -0.18343702033E+04  0.18343702033E+04  0.25500000920E-02 0. -1.
    10030    2    1    2    0    0  0.00000000000E+00  0.00000000000E+00 -0.26125216568E+03  0.34074882409E+04  0.33974583762E+04 0.  0.
        2    1    3    3  502    0 -0.10211412869E+04 -0.98624417631E+03  0.80501258834E+03  0.16320086919E+04  0.25500000920E-02 0.  1.
       -2    1    3    3    0  502  0.10211412869E+04  0.98624417631E+03 -0.10662647540E+04  0.17754795490E+04  0.25500000920E-02 0. -1.
</event>
<event>
 5   0  0.6788600E-08  0.3397994E+04  0.7818609E-02  0.8138399E-01
        1   -1    0    0  501    0  0.00000000000E+00  0.00000000000E+00  0.21126735461E+04  0.21126735461E+04  0.50400001928E-02 0. -1.
       -1   -1    0    0    0  501  0.00000000000E+00  0.00000000000E+00 -0.13663216430E+04  0.13663216430E+04  0.50400001928E-02 0.  1.
    10030    2    1    2    0    0  0.00000000000E+00  0.00000000000E+00  0.74635190302E+03  0.34789951891E+04  0.33979944618E+04 0.  0.
        2    1    3    3  502    0 -0.90497249530E+03 -0.34798683746E+03  0.18016118887E+04  0.20459412147E+04  0.25500000920E-02 0. -1.
       -2    1    3    3    0  502  0.90497249530E+03  0.34798683746E+03 -0.10552599857E+04  0.14330539745E+04  0.25500000920E-02 0.  1.
</event>
<event>
 5   0  0.6788600E-08  0.3407106E+04  0.7818609E-02  0.8136164E-01
       -1   -1    0    0    0  501  0.00000000000E+00  0.00000000000E+00  0.32607749498E+04  0.32607749498E+04  0.50400001928E-02 0.  1.
        1   -1    0    0  501    0  0.00000000000E+00  0.00000000000E+00 -0.89000121419E+03  0.89000121421E+03  0.50400001928E-02 0. -1.
    10030    2    1    2    0    0  0.00000000000E+00  0.00000000000E+00  0.23707737357E+04  0.41507761641E+04  0.34071064936E+04 0.  0.
        2    1    3    3  502    0 -0.92777307986E+03 -0.84288817647E+03 -0.22005042233E+03  0.12726529590E+04  0.25500000920E-02 0. -1.
       -2    1    3    3    0  502  0.92777307986E+03  0.84288817647E+03  0.25908241580E+04  0.28781232050E+04  0.25500000920E-02 0.  1.
</event>
<event>
 5   0  0.1970449E-07  0.3399801E+04  0.7818609E-02  0.8137955E-01
       -2   -1    0    0    0  501  0.00000000000E+00  0.00000000000E+00  0.13101537806E+04  0.13101537806E+04  0.25500000920E-02 0. -1.
        2   -1    0    0  501    0  0.00000000000E+00  0.00000000000E+00 -0.22055901761E+04  0.22055901761E+04  0.25500000920E-02 0.  1.
    10030    2    1    2    0    0  0.00000000000E+00  0.00000000000E+00 -0.89543639555E+03  0.35157439567E+04  0.33998013516E+04 0.  0.
        1    1    3    3  502    0  0.69404440940E+03 -0.11208848290E+04  0.66199590503E+03  0.14752352424E+04  0.50400001928E-02 0. -1.
       -1    1    3    3    0  502 -0.69404440940E+03  0.11208848290E+04 -0.15574323006E+04  0.20405087143E+04  0.50400001928E-02 0.  1.
</event>
<event>
 5   0  0.6584420E-08  0.3394061E+04  0.7818609E-02  0.8139366E-01
        1   -1    0    0  501    0  0.00000000000E+00  0.00000000000E+00  0.17783888754E+04  0.17783888754E+04  0.50400001928E-02 0. -1.
       -1   -1    0    0    0  501  0.00000000000E+00  0.00000000000E+00 -0.16193936604E+04  0.16193936604E+04  0.50400001928E-02 0.  1.
    10030    2    1    2    0    0  0.00000000000E+00  0.00000000000E+00  0.15899521496E+03  0.33977825358E+04  0.33940605007E+04 0.  0.
        1    1    3    3  502    0  0.10912396930E+04 -0.10607547816E+04 -0.67226323947E+03  0.16637135082E+04  0.50400001928E-02 0.  1.
       -1    1    3    3    0  502 -0.10912396930E+04  0.10607547816E+04  0.83125845442E+03  0.17340690276E+04  0.50400001928E-02 0. -1.
</event>
<event>
 5   0  0.6341535E-08  0.3394738E+04  0.7818609E-02  0.8139199E-01
        1   -1    0    0  501    0  0.00000000000E+00  0.00000000000E+00  0.18780975617E+04  0.18780975618E+04  0.50400001928E-02 0. -1.
       -1   -1    0    0    0  501  0.00000000000E+00  0.00000000000E+00 -0.15340319570E+04  0.15340319570E+04  0.50400001928E-02 0.  1.
    10030    2    1    2    0    0  0.00000000000E+00  0.00000000000E+00  0.34406560472E+03  0.34121295188E+04  0.33947380919E+04 0.  0.
        5    1    3    3  502    0  0.44209905989E+03  0.15984126468E+04  0.53536083235E+03  0.17427013166E+04  0.46999998093E+01 0. -1.
       -5    1    3    3    0  502 -0.44209905989E+03 -0.15984126468E+04 -0.19129522762E+03  0.16694282022E+04  0.46999998093E+01 0.  1.
</event>
<event>
 5   0  0.1970449E-07  0.3400220E+04  0.7818609E-02  0.8137852E-01
       -2   -1    0    0    0  501  0.00000000000E+00  0.00000000000E+00  0.21925828228E+04  0.21925828228E+04  0.25500000920E-02 0.  1.
        2   -1    0    0  501    0  0.00000000000E+00  0.00000000000E+00 -0.13182510856E+04  0.13182510856E+04  0.25500000920E-02 0. -1.
    10030    2    1    2    0    0  0.00000000000E+00  0.00000000000E+00  0.87433173727E+03  0.35108339084E+04  0.34002203966E+04 0.  0.
        1    1    3    3  502    0 -0.12540266790E+04  0.75015947443E+03 -0.46003937220E+03  0.15319785810E+04  0.50400001928E-02 0.  1.
       -1    1    3    3    0  502  0.12540266790E+04 -0.75015947443E+03  0.13343711095E+04  0.19788553274E+04  0.50400001928E-02 0. -1.
</event>
<event>
 5   0  0.6311750E-08  0.3317757E+04  0.7818609E-02  0.8158392E-01
       -1   -1    0    0    0  501  0.00000000000E+00  0.00000000000E+00  0.10930571388E+04  0.10930571388E+04  0.50400001928E-02 0. -1.
        1   -1    0    0  501    0  0.00000000000E+00  0.00000000000E+00 -0.25175979508E+04  0.25175979508E+04  0.50400001928E-02 0.  1.
    10030    2    1    2    0    0  0.00000000000E+00  0.00000000000E+00 -0.14245408120E+04  0.36106550896E+04  0.33177573225E+04 0.  0.
        4    1    3    3  502    0  0.72501003493E+03  0.31355896368E+03 -0.22997890503E+04  0.24316640523E+04  0.12699999809E+01 0.  1.
       -4    1    3    3    0  502 -0.72501003493E+03 -0.31355896368E+03  0.87524823834E+03  0.11789910373E+04  0.12699999809E+01 0. -1.
</event>
<event>
 5   0  0.1928004E-07  0.3397266E+04  0.7818609E-02  0.8138578E-01
       -2   -1    0    0    0  501  0.00000000000E+00  0.00000000000E+00  0.11137091292E+04  0.11137091292E+04  0.25500000920E-02 0.  1.
        2   -1    0    0  501    0  0.00000000000E+00  0.00000000000E+00 -0.25907610877E+04  0.25907610877E+04  0.25500000920E-02 0. -1.
    10030    2    1    2    0    0  0.00000000000E+00  0.00000000000E+00 -0.14770519585E+04  0.37044702169E+04  0.33972661214E+04 0.  0.
        2    1    3    3  502    0  0.22480298886E+03  0.90524418792E+03  0.80947728043E+03  0.12350129113E+04  0.25500000920E-02 0.  1.
       -2    1    3    3    0  502 -0.22480298886E+03 -0.90524418792E+03 -0.22865292390E+04  0.24694573056E+04  0.25500000920E-02 0. -1.
</event>
<event>
 5   0  0.6311750E-08  0.3401810E+04  0.7818609E-02  0.8137462E-01
        1   -1    0    0  501    0  0.00000000000E+00  0.00000000000E+00  0.18036526103E+04  0.18036526103E+04  0.50400001928E-02 0. -1.
       -1   -1    0    0    0  501  0.00000000000E+00  0.00000000000E+00 -0.16040108331E+04  0.16040108331E+04  0.50400001928E-02 0.  1.
    10030    2    1    2    0    0  0.00000000000E+00  0.00000000000E+00  0.19964177723E+03  0.34076634434E+04  0.34018102981E+04 0.  0.
        4    1    3    3  502    0 -0.80011195985E+03  0.69144777413E+03 -0.12346865928E+04  0.16256481071E+04  0.12699999809E+01 0.  1.
       -4    1    3    3    0  502  0.80011195985E+03 -0.69144777413E+03  0.14343283701E+04  0.17820153363E+04  0.12699999809E+01 0. -1.
</event>
<event>
 5   0  0.6584420E-08  0.3404630E+04  0.7818609E-02  0.8136771E-01
        1   -1    0    0  501    0  0.00000000000E+00  0.00000000000E+00  0.15807450643E+04  0.15807450643E+04  0.50400001928E-02 0. -1.
       -1   -1    0    0    0  501  0.00000000000E+00  0.00000000000E+00 -0.18332349930E+04  0.18332349930E+04  0.50400001928E-02 0.  1.
    10030    2    1    2    0    0  0.00000000000E+00  0.00000000000E+00 -0.25248992869E+03  0.34139800573E+04  0.34046304745E+04 0.  0.
        1    1    3    3  502    0 -0.13864023584E+04 -0.79703204371E+03  0.45888605241E+03  0.16637151160E+04  0.50400001928E-02 0.  1.
       -1    1    3    3    0  502  0.13864023584E+04  0.79703204371E+03 -0.71137598110E+03  0.17502649413E+04  0.50400001928E-02 0. -1.
</event>
<event>
 5   0  0.1986613E-07  0.3390568E+04  0.7818609E-02  0.8140225E-01
        2   -1    0    0  501    0  0.00000000000E+00  0.00000000000E+00  0.18599521107E+04  0.18599521107E+04  0.25500000920E-02 0.  1.
       -2   -1    0    0    0  501  0.00000000000E+00  0.00000000000E+00 -0.15451945943E+04  0.15451945943E+04  0.25500000920E-02 0. -1.
    10030    2    1    2    0    0  0.00000000000E+00  0.00000000000E+00  0.31475751634E+03  0.34051467050E+04  0.33905680628E+04 0.  0.
        5    1    3    3  502    0 -0.94509069946E+03 -0.10938366815E+04  0.10467885463E+04  0.17847866725E+04  0.46999998093E+01 0.  1.
       -5    1    3    3    0  502  0.94509069946E+03  0.10938366815E+04 -0.73203102992E+03  0.16203600324E+04  0.46999998093E+01 0. -1.
</event>
<event>
 5   0  0.6367111E-08  0.3399573E+04  0.7818609E-02  0.8138011E-01
        1   -1    0    0  501    0  0.00000000000E+00  0.00000000000E+00  0.24526894663E+04  0.24526894663E+04  0.50400001928E-02 0. -1.
       -1   -1    0    0    0  501  0.00000000000E+00  0.00000000000E+00 -0.11780021849E+04  0.11780021849E+04  0.50400001928E-02 0.  1.
    10030    2    1    2    0    0  0.00000000000E+00  0.00000000000E+00  0.12746872814E+04  0.36306916512E+04  0.33995726497E+04 0.  0.
        3    1    3    3  502    0 -0.16918980256E+04  0.16191680535E+03  0.61258207032E+03  0.18066523694E+04  0.10100000352E+00 0.  1.
       -3    1    3    3    0  502  0.16918980256E+04 -0.16191680535E+03  0.66210521111E+03  0.18240392818E+04  0.10100000352E+00 0. -1.
</event>
<event>
 5   0  0.6367111E-08  0.3403984E+04  0.7818609E-02  0.8136929E-01
        1   -1    0    0  501    0  0.00000000000E+00  0.00000000000E+00  0.14181184904E+04  0.14181184904E+04  0.50400001928E-02 0.  1.
       -1   -1    0    0    0  501  0.00000000000E+00  0.00000000000E+00 -0.20426900008E+04  0.20426900008E+04  0.50400001928E-02 0. -1.
    10030    2    1    2    0    0  0.00000000000E+00  0.00000000000E+00 -0.62457151045E+03  0.34608084912E+04  0.34039838191E+04 0.  0.
        3    1    3    3  502    0 -0.15405629105E+04 -0.41105761573E+03  0.29303041667E+03  0.16211629406E+04  0.10100000352E+00 0.  1.
       -3    1    3    3    0  502  0.15405629105E+04  0.41105761573E+03 -0.91760192713E+03  0.18396455505E+04  0.10100000352E+00 0. -1.
</event>
<event>
 5   0  0.1928004E-07  0.3406194E+04  0.7818609E-02  0.8136388E-01
       -2   -1    0    0    0  501  0.00000000000E+00  0.00000000000E+00  0.14496932830E+04  0.14496932830E+04  0.25500000920E-02 0. -1.
        2   -1    0    0  501    0  0.00000000000E+00  0.00000000000E+00 -0.20007954508E+04  0.20007954508E+04  0.25500000920E-02 0.  1.
    10030    2    1    2    0    0  0.00000000000E+00  0.00000000000E+00 -0.55110216788E+03  0.34504887338E+04  0.34061941963E+04 0.  0.
        2    1    3    3  502    0  0.72177196203E+03 -0.61763171037E+01 -0.18381889203E+04  0.19748244020E+04  0.25500000920E-02 0.  1.
       -2    1    3    3    0  502 -0.72177196203E+03  0.61763171037E+01  0.12870867524E+04  0.14756643318E+04  0.25500000920E-02 0. -1.
</event>
<event>
 5   0  0.1963852E-07  0.3393704E+04  0.7818609E-02  0.8139453E-01
       -2   -1    0    0    0  501  0.00000000000E+00  0.00000000000E+00  0.30607343784E+04  0.30607343784E+04  0.25500000920E-02 0.  1.
        2   -1    0    0  501    0  0.00000000000E+00  0.00000000000E+00 -0.94072434095E+03  0.94072434096E+03  0.25500000920E-02 0. -1.
    10030    2    1    2    0    0  0.00000000000E+00  0.00000000000E+00  0.21200100374E+04  0.40014587194E+04  0.33937043660E+04 0.  0.
        4    1    3    3  502    0 -0.66591544816E+03  0.94130706771E+03 -0.40784820083E+03  0.12230470750E+04  0.12699999809E+01 0. -1.
       -4    1    3    3    0  502  0.66591544816E+03 -0.94130706771E+03  0.25278582383E+04  0.27784116444E+04  0.12699999809E+01 0.  1.
</event>
<event>
 5   0  0.6367111E-08  0.3396267E+04  0.7818609E-02  0.8138823E-01
       -1   -1    0    0    0  501  0.00000000000E+00  0.00000000000E+00  0.14871513740E+04  0.14871513741E+04  0.50400001928E-02 0. -1.
        1   -1    0    0  501    0  0.00000000000E+00  0.00000000000E+00 -0.19390475151E+04  0.19390475151E+04  0.50400001928E-02 0.  1.
    10030    2    1    2    0    0  0.00000000000E+00  0.00000000000E+00 -0.45189614103E+03  0.34261988891E+04  0.33962668779E+04 0.  0.
        3    1    3    3  502    0 -0.42005436547E+02  0.70473389124E+03  0.13320863995E+04  0.15076035620E+04  0.10100000352E+00 0. -1.
       -3    1    3    3    0  502  0.42005436547E+02 -0.70473389124E+03 -0.17839825405E+04  0.19185953271E+04  0.10100000352E+00 0.  1.
</event>
<event>
 5   0  0.1928004E-07  0.3404682E+04  0.7818609E-02  0.8136758E-01
        2   -1    0    0  501    0  0.00000000000E+00  0.00000000000E+00  0.28322594306E+04  0.28322594306E+04  0.25500000920E-02 0. -1.
       -2   -1    0    0    0  501  0.00000000000E+00  0.00000000000E+00 -0.10231986644E+04  0.10231986644E+04  0.25500000920E-02 0.  1.
    10030    2    1    2    0    0  0.00000000000E+00  0.00000000000E+00  0.18090607662E+04  0.38554580950E+04  0.34046815221E+04 0.  0.
        2    1    3    3  502    0  0.13837806423E+04  0.28564406280E+03  0.19797268273E+04  0.24322334813E+04  0.25500000920E-02 0. -1.
       -2    1    3    3    0  502 -0.13837806423E+04 -0.28564406280E+03 -0.17066606116E+03  0.14232246137E+04  0.25500000920E-02 0.  1.
</event>
<event>
 5   0  0.1963852E-07  0.3397695E+04  0.7818609E-02  0.8138472E-01
        2   -1    0    0  501    0  0.00000000000E+00  0.00000000000E+00  0.12258288685E+04  0.12258288685E+04  0.25500000920E-02 0.  1.
       -2   -1    0    0    0  501  0.00000000000E+00  0.00000000000E+00 -0.23543936246E+04  0.23543936247E+04  0.25500000920E-02 0. -1.
    10030    2    1    2    0    0  0.00000000000E+00  0.00000000000E+00 -0.11285647561E+04  0.35802224932E+04  0.33976954972E+04 0.  0.
        4    1    3    3  502    0 -0.64344153235E+03  0.97951057964E+03  0.73167603938E+03  0.13815966925E+04  0.12699999809E+01 0.  1.
       -4    1    3    3    0  502  0.64344153235E+03 -0.97951057964E+03 -0.18602407955E+04  0.21986258007E+04  0.12699999809E+01 0. -1.
</event>
<event>
 5   0  0.1897313E-07  0.3401857E+04  0.7818609E-02  0.8137451E-01
       -2   -1    0    0    0  501  0.00000000000E+00  0.00000000000E+00  0.13221970336E+04  0.13221970336E+04  0.25500000920E-02 0.  1.
        2   -1    0    0  501    0  0.00000000000E+00  0.00000000000E+00 -0.21881446052E+04  0.21881446052E+04  0.25500000920E-02 0. -1.
    10030    2    1    2    0    0  0.00000000000E+00  0.00000000000E+00 -0.86594757156E+03  0.35103416388E+04  0.34018573198E+04 0.  0.
        3    1    3    3  502    0 -0.14676937692E+04 -0.84294497414E+03 -0.25884085357E+03  0.17122148894E+04  0.10100000352E+00 0.  1.
       -3    1    3    3    0  502  0.14676937692E+04  0.84294497414E+03 -0.60710671799E+03  0.17981267494E+04  0.10100000352E+00 0. -1.
</event>
<event>
 5   0  0.6367111E-08  0.3428080E+04  0.7818609E-02  0.8131049E-01
       -1   -1    0    0    0  501  0.00000000000E+00  0.00000000000E+00  0.10596586685E+04  0.10596586685E+04  0.50400001928E-02 0. -1.
        1   -1    0    0  501    0  0.00000000000E+00  0.00000000000E+00 -0.27725271087E+04  0.27725271087E+04  0.50400001928E-02 0.  1.
    10030    2    1    2    0    0  0.00000000000E+00  0.00000000000E+00 -0.17128684402E+04  0.38321857772E+04  0.34280795699E+04 0.  0.
        3    1    3    3  502    0 -0.90640676998E+03  0.84040931557E+03 -0.21838781965E+04  0.25094192630E+04  0.10100000352E+00 0.  1.
       -3    1    3    3    0  502  0.90640676998E+03 -0.84040931557E+03  0.47100975624E+03  0.13227665142E+04  0.10100000352E+00 0. -1.
</event>
<event>
 5   0  0.1928004E-07  0.3400898E+04  0.7818609E-02  0.8137686E-01
       -2   -1    0    0    0  501  0.00000000000E+00  0.00000000000E+00  0.12428867348E+04  0.12428867348E+04  0.25500000920E-02 0.  1.
        2   -1    0    0  501    0  0.00000000000E+00  0.00000000000E+00 -0.23264598886E+04  0.23264598886E+04  0.25500000920E-02 0. -1.
    10030    2    1    2    0    0  0.00000000000E+00  0.00000000000E+00 -0.10835731538E+04  0.35693466234E+04  0.34008976077E+04 0.  0.
        2    1    3    3  502    0 -0.14699286670E+04  0.65101749889E+03  0.39744447898E+02  0.16081336048E+04  0.25500000920E-02 0.  1.
       -2    1    3    3    0  502  0.14699286670E+04 -0.65101749889E+03 -0.11233176017E+04  0.19612130185E+04  0.25500000920E-02 0. -1.
</event>
<event>
 5   0  0.6311750E-08  0.3402111E+04  0.7818609E-02  0.8137388E-01
       -3   -1    0    0    0  501  0.00000000000E+00  0.00000000000E+00  0.10437244740E+04  0.10437244789E+04  0.10100000352E+00 0.  1.
        3   -1    0    0  501    0  0.00000000000E+00  0.00000000000E+00 -0.27723692346E+04  0.27723692364E+04  0.10100000352E+00 0. -1.
    10030    2    1    2    0    0  0.00000000000E+00  0.00000000000E+00 -0.17286447606E+04  0.38160937153E+04  0.34021108941E+04 0.  0.
        4    1    3    3  502    0 -0.90463393818E+03  0.13202474744E+04 -0.15107979527E+04  0.22008925513E+04  0.12699999809E+01 0. -1.
       -4    1    3    3    0  502  0.90463393818E+03 -0.13202474744E+04 -0.21784680788E+03  0.16152011640E+04  0.12699999809E+01 0.  1.
</event>
<event>
 5   0  0.6311750E-08  0.3398345E+04  0.7818609E-02  0.8138313E-01
       -1   -1    0    0    0  501  0.00000000000E+00  0.00000000000E+00  0.12788285441E+04  0.12788285441E+04  0.50400001928E-02 0.  1.
        1   -1    0    0  501    0  0.00000000000E+00  0.00000000000E+00 -0.22576810055E+04  0.22576810055E+04  0.50400001928E-02 0. -1.
    10030    2    1    2    0    0  0.00000000000E+00  0.00000000000E+00 -0.97885246136E+03  0.35365095496E+04  0.33983448403E+04 0.  0.
        4    1    3    3  502    0 -0.52983473268E+03 -0.12268863263E+04  0.60262381447E+03  0.14659918063E+04  0.12699999809E+01 0.  1.
       -4    1    3    3    0  502  0.52983473268E+03  0.12268863263E+04 -0.15814762758E+04  0.20705177433E+04  0.12699999809E+01 0. -1.
</event>
<event>
 5   0  0.1928004E-07  0.3403137E+04  0.7818609E-02  0.8137137E-01
        2   -1    0    0  501    0  0.00000000000E+00  0.00000000000E+00  0.22399976186E+04  0.22399976186E+04  0.25500000920E-02 0. -1.
       -2   -1    0    0    0  501  0.00000000000E+00  0.00000000000E+00 -0.12925621095E+04  0.12925621095E+04  0.25500000920E-02 0.  1.
    10030    2    1    2    0    0  0.00000000000E+00  0.00000000000E+00  0.94743550911E+03  0.35325597281E+04  0.34031374037E+04 0.  0.
        2    1    3    3  502    0  0.46156616711E+03 -0.76814472198E+03  0.19751870123E+04  0.21689751898E+04  0.25500000920E-02 0. -1.
       -2    1    3    3    0  502 -0.46156616711E+03  0.76814472198E+03 -0.10277515032E+04  0.13635845382E+04  0.25500000920E-02 0.  1.
</event>
<event>
 5   0  0.6341535E-08  0.3383504E+04  0.7818609E-02  0.8141967E-01
        1   -1    0    0  501    0  0.00000000000E+00  0.00000000000E+00  0.80162368961E+03  0.80162368963E+03  0.50400001928E-02 0. -1.
       -1   -1    0    0    0  501  0.00000000000E+00  0.00000000000E+00 -0.35702850440E+04  0.35702850440E+04  0.50400001928E-02 0.  1.
    10030    2    1    2    0    0  0.00000000000E+00  0.00000000000E+00 -0.27686613544E+04  0.43719087336E+04  0.33835041422E+04 0.  0.
        5    1    3    3  502    0  0.16248493322E+04 -0.46333134304E+03 -0.14939078226E+04  0.22553478575E+04  0.46999998093E+01 0. -1.
       -5    1    3    3    0  502 -0.16248493322E+04  0.46333134304E+03 -0.12747535318E+04  0.21165608762E+04  0.46999998093E+01 0.  1.
</event>
<event>
 5   0  0.6341535E-08  0.3398384E+04  0.7818609E-02  0.8138303E-01
        1   -1    0    0  501    0  0.00000000000E+00  0.00000000000E+00  0.22817205474E+04  0.22817205474E+04  0.50400001928E-02 0.  1.
       -1   -1    0    0    0  501  0.00000000000E+00  0.00000000000E+00 -0.12653840874E+04  0.12653840874E+04  0.50400001928E-02 0. -1.
    10030    2    1    2    0    0  0.00000000000E+00  0.00000000000E+00  0.10163364600E+04  0.35471046348E+04  0.33983836585E+04 0.  0.
        5    1    3    3  502    0  0.41416365486E+03  0.16277320419E+04  0.23963992388E+03  0.16966120700E+04  0.46999998093E+01 0. -1.
       -5    1    3    3    0  502 -0.41416365486E+03 -0.16277320419E+04  0.77669653612E+03  0.18504925648E+04  0.46999998093E+01 0.  1.
</event>
<event>
 5   0  0.6367111E-08  0.3399834E+04  0.7818609E-02  0.8137947E-01
       -1   -1    0    0    0  501  0.00000000000E+00  0.00000000000E+00  0.21687888757E+04  0.21687888757E+04  0.50400001928E-02 0.  1.
        1   -1    0    0  501    0  0.00000000000E+00  0.00000000000E+00 -0.13324108200E+04  0.13324108200E+04  0.50400001928E-02 0. -1.
    10030    2    1    2    0    0  0.00000000000E+00  0.00000000000E+00  0.83637805575E+03  0.35011996957E+04  0.33998339749E+04 0.  0.
        3    1    3    3  502    0 -0.14838532443E+04  0.17089330704E+02 -0.43575374452E+03  0.15466072003E+04  0.10100000352E+00 0. -1.
       -3    1    3    3    0  502  0.14838532443E+04 -0.17089330704E+02  0.12721318003E+04  0.19545924954E+04  0.10100000352E+00 0.  1.
</event>
<event>
 5   0  0.6788600E-08  0.3401444E+04  0.7818609E-02  0.8137552E-01
       -1   -1    0    0    0  501  0.00000000000E+00  0.00000000000E+00  0.12567259877E+04  0.12567259877E+04  0.50400001928E-02 0.  1.
        1   -1    0    0  501    0  0.00000000000E+00  0.00000000000E+00 -0.23015794707E+04  0.23015794707E+04  0.50400001928E-02 0. -1.
    10030    2    1    2    0    0  0.00000000000E+00  0.00000000000E+00 -0.10448534830E+04  0.35583054584E+04  0.34014436545E+04 0.  0.
        2    1    3    3  502    0 -0.12365541369E+03 -0.16884326303E+04 -0.35258396199E+03  0.17292804454E+04  0.25500000920E-02 0.  1.
       -2    1    3    3    0  502  0.12365541369E+03  0.16884326303E+04 -0.69226952098E+03  0.18290250130E+04  0.25500000920E-02 0. -1.
</event>
<event>
 5   0  0.1986613E-07  0.3398631E+04  0.7818609E-02  0.8138242E-01
        2   -1    0    0  501    0  0.00000000000E+00  0.00000000000E+00  0.31905353442E+04  0.31905353442E+04  0.25500000920E-02 0. -1.
       -2   -1    0    0    0  501  0.00000000000E+00  0.00000000000E+00 -0.90507468217E+03  0.90507468218E+03  0.25500000920E-02 0.  1.
    10030    2    1    2    0    0  0.00000000000E+00  0.00000000000E+00  0.22854606620E+04  0.40956100264E+04  0.33986307611E+04 0.  0.
        5    1    3    3  502    0 -0.25756363544E+02  0.16576740394E+04  0.69327708736E+03  0.17969980025E+04  0.46999998093E+01 0.  1.
       -5    1    3    3    0  502  0.25756363544E+02 -0.16576740394E+04  0.15921835746E+04  0.22986120239E+04  0.46999998093E+01 0. -1.
</event>
<event>
 5   0  0.6311750E-08  0.3391169E+04  0.7818609E-02  0.8140077E-01
       -1   -1    0    0    0  501  0.00000000000E+00  0.00000000000E+00  0.12625840682E+04  0.12625840682E+04  0.50400001928E-02 0.  1.
        1   -1    0    0  501    0  0.00000000000E+00  0.00000000000E+00 -0.22770815955E+04  0.22770815956E+04  0.50400001928E-02 0. -1.
    10030    2    1    2    0    0  0.00000000000E+00  0.00000000000E+00 -0.10144975274E+04  0.35396656637E+04  0.33911690872E+04 0.  0.
        4    1    3    3  502    0 -0.14722077559E+04 -0.27000661622E+02  0.37032945527E+03  0.15183116381E+04  0.12699999809E+01 0.  1.
       -4    1    3    3    0  502  0.14722077559E+04  0.27000661622E+02 -0.13848269826E+04  0.20213540256E+04  0.12699999809E+01 0. -1.
</event>
<event>
 5   0  0.6341535E-08  0.3342306E+04  0.7818609E-02  0.8152213E-01
       -1   -1    0    0    0  501  0.00000000000E+00  0.00000000000E+00  0.12587056140E+04  0.12587056140E+04  0.50400001928E-02 0.  1.
        1   -1    0    0  501    0  0.00000000000E+00  0.00000000000E+00 -0.22187498804E+04  0.22187498804E+04  0.50400001928E-02 0. -1.
    10030    2    1    2    0    0  0.00000000000E+00  0.00000000000E+00 -0.96004426641E+03  0.34774554943E+04  0.33423063477E+04 0.  0.
        5    1    3    3  502    0  0.39092641394E+03 -0.22733124936E+03 -0.21538723096E+04  0.22008386979E+04  0.46999998093E+01 0. -1.
       -5    1    3    3    0  502 -0.39092641394E+03  0.22733124936E+03  0.11938280432E+04  0.12766167964E+04  0.46999998093E+01 0.  1.
</event>
<event>
 5   0  0.1928004E-07  0.3400171E+04  0.7818609E-02  0.8137864E-01
       -2   -1    0    0    0  501  0.00000000000E+00  0.00000000000E+00  0.22940833866E+04  0.22940833866E+04  0.25500000920E-02 0.  1.
        2   -1    0    0  501    0  0.00000000000E+00  0.00000000000E+00 -0.12598890395E+04  0.12598890395E+04  0.25500000920E-02 0. -1.
    10030    2    1    2    0    0  0.00000000000E+00  0.00000000000E+00  0.10341943472E+04  0.35539724261E+04  0.34001708866E+04 0.  0.
        2    1    3    3  502    0  0.14799887233E+04  0.31577394308E+03  0.13268736934E+04  0.20126285307E+04  0.25500000920E-02 0.  1.
       -2    1    3    3    0  502 -0.14799887233E+04 -0.31577394308E+03 -0.29267934621E+03  0.15413438954E+04  0.25500000920E-02 0. -1.
</event>
<event>
 5   0  0.6788600E-08  0.3398620E+04  0.7818609E-02  0.8138245E-01
       -1   -1    0    0    0  501  0.00000000000E+00  0.00000000000E+00  0.15324426686E+04  0.15324426686E+04  0.50400001928E-02 0.  1.
        1   -1    0    0  501    0  0.00000000000E+00  0.00000000000E+00 -0.18843476465E+04  0.18843476465E+04  0.50400001928E-02 0. -1.
    10030    2    1    2    0    0  0.00000000000E+00  0.00000000000E+00 -0.35190497791E+03  0.34167903151E+04  0.33986201529E+04 0.  0.
        2    1    3    3  502    0 -0.34050645331E+03  0.10191411461E+04 -0.14994486190E+04  0.18447057981E+04  0.25500000920E-02 0. -1.
       -2    1    3    3    0  502  0.34050645331E+03 -0.10191411461E+04  0.11475436411E+04  0.15720845170E+04  0.25500000920E-02 0.  1.
</event>
<event>
 5   0  0.1986613E-07  0.3400277E+04  0.7818609E-02  0.8137838E-01
       -2   -1    0    0    0  501  0.00000000000E+00  0.00000000000E+00  0.98612759040E+03  0.98612759040E+03  0.25500000920E-02 0.  1.
        2   -1    0    0  501    0  0.00000000000E+00  0.00000000000E+00 -0.29311321720E+04  0.29311321720E+04  0.25500000920E-02 0. -1.
    10030    2    1    2    0    0  0.00000000000E+00  0.00000000000E+00 -0.19450045816E+04  0.39172597624E+04  0.34002766393E+04 0.  0.
        5    1    3    3  502    0 -0.53134715626E+03 -0.55830461352E+03 -0.27182973020E+04  0.28254550348E+04  0.46999998093E+01 0. -1.
       -5    1    3    3    0  502  0.53134715626E+03  0.55830461352E+03  0.77329272032E+03  0.10918047276E+04  0.46999998093E+01 0.  1.
</event>
<event>
 5   0  0.6584420E-08  0.3404345E+04  0.7818609E-02  0.8136841E-01
       -1   -1    0    0    0  501  0.00000000000E+00  0.00000000000E+00  0.12346230204E+04  0.12346230205E+04  0.50400001928E-02 0. -1.
        1   -1    0    0  501    0  0.00000000000E+00  0.00000000000E+00 -0.23467824122E+04  0.23467824123E+04  0.50400001928E-02 0.  1.
    10030    2    1    2    0    0  0.00000000000E+00  0.00000000000E+00 -0.11121593918E+04  0.35814054327E+04  0.34043452176E+04 0.  0.
        1    1    3    3  502    0  0.75622528323E+03 -0.60336304129E+03  0.91728582712E+03  0.13331680041E+04  0.50400001928E-02 0. -1.
       -1    1    3    3    0  502 -0.75622528323E+03  0.60336304129E+03 -0.20294452189E+04  0.22482374286E+04  0.50400001928E-02 0.  1.
</event>
<event>
 5   0  0.1897313E-07  0.3400427E+04  0.7818609E-02  0.8137801E-01
        2   -1    0    0  501    0  0.00000000000E+00  0.00000000000E+00  0.27998736114E+04  0.27998736114E+04  0.25500000920E-02 0. -1.
       -2   -1    0    0    0  501  0.00000000000E+00  0.00000000000E+00 -0.10324490210E+04  0.10324490210E+04  0.25500000920E-02 0.  1.
    10030    2    1    2    0    0  0.00000000000E+00  0.00000000000E+00  0.17674245905E+04  0.38323226324E+04  0.34004274843E+04 0.  0.
        3    1    3    3  502    0 -0.37839574164E+03  0.16424527339E+04  0.11354486340E+04  0.20322593169E+04  0.10100000352E+00 0. -1.
       -3    1    3    3    0  502  0.37839574164E+03 -0.16424527339E+04  0.63197595644E+03  0.18000633156E+04  0.10100000352E+00 0.  1.
</event>
<event>
 5   0  0.1986613E-07  0.3399350E+04  0.7818609E-02  0.8138066E-01
        2   -1    0    0  501    0  0.00000000000E+00  0.00000000000E+00  0.16292281849E+04  0.16292281849E+04  0.25500000920E-02 0. -1.
       -2   -1    0    0    0  501  0.00000000000E+00  0.00000000000E+00 -0.17731683283E+04  0.17731683283E+04  0.25500000920E-02 0.  1.
    10030    2    1    2    0    0  0.00000000000E+00  0.00000000000E+00 -0.14394014341E+03  0.34023965132E+04  0.33993504186E+04 0.  0.
        5    1    3    3  502    0  0.76527688788E+03  0.15102368109E+04  0.77863058439E+02  0.16948594886E+04  0.46999998093E+01 0. -1.
       -5    1    3    3    0  502 -0.76527688788E+03 -0.15102368109E+04 -0.22180320185E+03  0.17075370246E+04  0.46999998093E+01 0.  1.
</event>
<event>
 5   0  0.6584420E-08  0.3401528E+04  0.7818609E-02  0.8137531E-01
        1   -1    0    0  501    0  0.00000000000E+00  0.00000000000E+00  0.16780781286E+04  0.16780781286E+04  0.50400001928E-02 0. -1.
       -1   -1    0    0    0  501  0.00000000000E+00  0.00000000000E+00 -0.17237569864E+04  0.17237569864E+04  0.50400001928E-02 0.  1.
    10030    2    1    2    0    0  0.00000000000E+00  0.00000000000E+00 -0.45678857784E+02  0.34018351150E+04  0.34015284200E+04 0.  0.
        1    1    3    3  502    0 -0.32067001815E+03  0.52187358913E+03 -0.16096196831E+04  0.17222243837E+04  0.50400001928E-02 0.  1.
       -1    1    3    3    0  502  0.32067001815E+03 -0.52187358913E+03  0.15639408253E+04  0.16796107313E+04  0.50400001928E-02 0. -1.
</event>
<event>
 5   0  0.1928004E-07  0.3317935E+04  0.7818609E-02  0.8158347E-01
        2   -1    0    0  501    0  0.00000000000E+00  0.00000000000E+00  0.26764488036E+04  0.26764488036E+04  0.25500000920E-02 0.  1.
       -2   -1    0    0    0  501  0.00000000000E+00  0.00000000000E+00 -0.10282925923E+04  0.10282925923E+04  0.25500000920E-02 0. -1.
    10030    2    1    2    0    0  0.00000000000E+00  0.00000000000E+00  0.16481562112E+04  0.37047413959E+04  0.33179345856E+04 0.  0.
        2    1    3    3  502    0 -0.18674048338E+03 -0.65202392829E+01 -0.10165053466E+04  0.10335364732E+04  0.25500000920E-02 0. -1.
       -2    1    3    3    0  502  0.18674048338E+03  0.65202392829E+01  0.26646615578E+04  0.26712049228E+04  0.25500000920E-02 0.  1.
</event>
<event>
 5   0  0.1986613E-07  0.3407761E+04  0.7818609E-02  0.8136004E-01
       -2   -1    0    0    0  501  0.00000000000E+00  0.00000000000E+00  0.12538119501E+04  0.12538119501E+04  0.25500000920E-02 0.  1.
        2   -1    0    0  501    0  0.00000000000E+00  0.00000000000E+00 -0.23155059678E+04  0.23155059678E+04  0.25500000920E-02 0. -1.
    10030    2    1    2    0    0  0.00000000000E+00  0.00000000000E+00 -0.10616940177E+04  0.35693179179E+04  0.34077611730E+04 0.  0.
        5    1    3    3  502    0 -0.17978878065E+02  0.16743716525E+04 -0.20071673193E+03  0.16864616708E+04  0.46999998093E+01 0.  1.
       -5    1    3    3    0  502  0.17978878065E+02 -0.16743716525E+04 -0.86097728577E+03  0.18828562471E+04  0.46999998093E+01 0. -1.
</event>
<event>
 5   0  0.6788600E-08  0.3401724E+04  0.7818609E-02  0.8137483E-01
        1   -1    0    0  501    0  0.00000000000E+00  0.00000000000E+00  0.15134754061E+04  0.15134754061E+04  0.50400001928E-02 0. -1.
       -1   -1    0    0    0  501  0.00000000000E+00  0.00000000000E+00 -0.19114494788E+04  0.19114494788E+04  0.50400001928E-02 0.  1.
    10030    2    1    2    0    0  0.00000000000E+00  0.00000000000E+00 -0.39797407269E+03  0.34249248849E+04  0.34017241371E+04 0.  0.
        2    1    3    3  502    0  0.10530085798E+04  0.80028669111E+03 -0.12756945699E+04  0.18375751666E+04  0.25500000920E-02 0.  1.
       -2    1    3    3    0  502 -0.10530085798E+04 -0.80028669111E+03  0.87772049723E+03  0.15873497183E+04  0.25500000920E-02 0. -1.
</event>
<event>
 5   0  0.1986613E-07  0.3396460E+04  0.7818609E-02  0.8138776E-01
        2   -1    0    0  501    0  0.00000000000E+00  0.00000000000E+00  0.14271825386E+04  0.14271825386E+04  0.25500000920E-02 0.  1.
       -2   -1    0    0    0  501  0.00000000000E+00  0.00000000000E+00 -0.20207544123E+04  0.20207544123E+04  0.25500000920E-02 0. -1.
    10030    2    1    2    0    0  0.00000000000E+00  0.00000000000E+00 -0.59357187368E+03  0.34479369508E+04  0.33964601643E+04 0.  0.
        5    1    3    3  502    0  0.71570943339E+03  0.15261065300E+04 -0.50661204895E+03  0.17600906204E+04  0.46999998093E+01 0. -1.
       -5    1    3    3    0  502 -0.71570943339E+03 -0.15261065300E+04 -0.86959824734E+02  0.16878463304E+04  0.46999998093E+01 0.  1.
</event>
<event>
 5   0  0.6311750E-08  0.3396324E+04  0.7818609E-02  0.8138809E-01
        1   -1    0    0  501    0  0.00000000000E+00  0.00000000000E+00  0.14643188799E+04  0.14643188799E+04  0.50400001928E-02 0.  1.
       -1   -1    0    0    0  501  0.00000000000E+00  0.00000000000E+00 -0.19693488902E+04  0.19693488902E+04  0.50400001928E-02 0. -1.
    10030    2    1    2    0    0  0.00000000000E+00  0.00000000000E+00 -0.50503001030E+03  0.34336677701E+04  0.33963243432E+04 0.  0.
        4    1    3    3  502    0 -0.17073320968E+03 -0.16439972934E+04 -0.64651299110E+03  0.17747838151E+04  0.12699999809E+01 0.  1.
       -4    1    3    3    0  502  0.17073320968E+03  0.16439972934E+04  0.14148298080E+03  0.16588839551E+04  0.12699999809E+01 0. -1.
</event>
<event>
 5   0  0.6341535E-08  0.3401525E+04  0.7818609E-02  0.8137532E-01
        1   -1    0    0  501    0  0.00000000000E+00  0.00000000000E+00  0.19217454220E+04  0.19217454220E+04  0.50400001928E-02 0.  1.
       -1   -1    0    0    0  501  0.00000000000E+00  0.00000000000E+00 -0.15051903433E+04  0.15051903433E+04  0.50400001928E-02 0. -1.
    10030    2    1    2    0    0  0.00000000000E+00  0.00000000000E+00  0.41655507871E+03  0.34269357653E+04  0.34015247472E+04 0.  0.
        5    1    3    3  502    0  0.15434818635E+04 -0.27417369833E+03  0.87279813391E+03  0.17942425010E+04  0.46999998093E+01 0.  1.
       -5    1    3    3    0  502 -0.15434818635E+04  0.27417369833E+03 -0.45624305520E+03  0.16326932643E+04  0.46999998093E+01 0. -1.
</event>
<event>
 5   0  0.6341535E-08  0.3388514E+04  0.7818609E-02  0.8140731E-01
       -1   -1    0    0    0  501  0.00000000000E+00  0.00000000000E+00  0.11723033371E+04  0.11723033371E+04  0.50400001928E-02 0.  1.
        1   -1    0    0  501    0  0.00000000000E+00  0.00000000000E+00 -0.24486043586E+04  0.24486043586E+04  0.50400001928E-02 0. -1.
    10030    2    1    2    0    0  0.00000000000E+00  0.00000000000E+00 -0.12763010215E+04  0.36209076956E+04  0.33885141645E+04 0.  0.
        5    1    3    3  502    0 -0.49755617968E+02 -0.16922979321E+04 -0.70688171710E+03  0.18346802894E+04  0.46999998093E+01 0.  1.
       -5    1    3    3    0  502  0.49755617968E+02  0.16922979321E+04 -0.56941930440E+03  0.17862274062E+04  0.46999998093E+01 0. -1.
</event>
<event>
 5   0  0.6311750E-08  0.3403209E+04  0.7818609E-02  0.8137119E-01
       -3   -1    0    0    0  501  0.00000000000E+00  0.00000000000E+00  0.26279462947E+04  0.26279462966E+04  0.10100000352E+00 0.  1.
        3   -1    0    0  501    0  0.00000000000E+00  0.00000000000E+00 -0.11017951587E+04  0.11017951633E+04  0.10100000352E+00 0. -1.
    10030    2    1    2    0    0  0.00000000000E+00  0.00000000000E+00  0.15261511360E+04  0.37297414600E+04  0.34032093777E+04 0.  0.
        4    1    3    3  502    0 -0.16014765435E+03  0.10336812420E+04 -0.70782940812E+03  0.12629997091E+04  0.12699999809E+01 0. -1.
       -4    1    3    3    0  502  0.16014765435E+03 -0.10336812420E+04  0.22339805441E+04  0.24667417509E+04  0.12699999809E+01 0.  1.
</event>
<event>
 5   0  0.1897313E-07  0.3396349E+04  0.7818609E-02  0.8138803E-01
        2   -1    0    0  501    0  0.00000000000E+00  0.00000000000E+00  0.19922593063E+04  0.19922593063E+04  0.25500000920E-02 0. -1.
       -2   -1    0    0    0  501  0.00000000000E+00  0.00000000000E+00 -0.14475004051E+04  0.14475004051E+04  0.25500000920E-02 0.  1.
    10030    2    1    2    0    0  0.00000000000E+00  0.00000000000E+00  0.54475890121E+03  0.34397597114E+04  0.33963487177E+04 0.  0.
        3    1    3    3  502    0 -0.48719627766E+03  0.10910763214E+04  0.14944458033E+04  0.19134199804E+04  0.10100000352E+00 0. -1.
       -3    1    3    3    0  502  0.48719627766E+03 -0.10910763214E+04 -0.94968690213E+03  0.15263397310E+04  0.10100000352E+00 0.  1.
</event>
<event>
 5   0  0.6341535E-08  0.3388244E+04  0.7818609E-02  0.8140798E-01
       -1   -1    0    0    0  501  0.00000000000E+00  0.00000000000E+00  0.16094727803E+04  0.16094727803E+04  0.50400001928E-02 0.  1.
        1   -1    0    0  501    0  0.00000000000E+00  0.00000000000E+00 -0.17832228124E+04  0.17832228124E+04  0.50400001928E-02 0. -1.
    10030    2    1    2    0    0  0.00000000000E+00  0.00000000000E+00 -0.17375003211E+03  0.33926955926E+04  0.33882435436E+04 0.  0.
        5    1    3    3  502    0 -0.11922444342E+04 -0.10117459588E+03  0.11140103908E+04  0.16348468829E+04  0.46999998093E+01 0.  1.
       -5    1    3    3    0  502  0.11922444342E+04  0.10117459588E+03 -0.12877604229E+04  0.17578487098E+04  0.46999998093E+01 0. -1.
</event>
<event>
 5   0  0.6341535E-08  0.3390496E+04  0.7818609E-02  0.8140243E-01
       -1   -1    0    0    0  501  0.00000000000E+00  0.00000000000E+00  0.19363301779E+04  0.19363301779E+04  0.50400001928E-02 0. -1.
        1   -1    0    0  501    0  0.00000000000E+00  0.00000000000E+00 -0.14841818995E+04  0.14841818995E+04  0.50400001928E-02 0.  1.
    10030    2    1    2    0    0  0.00000000000E+00  0.00000000000E+00  0.45214827842E+03  0.34205120773E+04  0.33904962477E+04 0.  0.
        5    1    3    3  502    0 -0.95915581859E+03  0.71713539273E+03 -0.98437325974E+03  0.15502502573E+04  0.46999998093E+01 0.  1.
       -5    1    3    3    0  502  0.95915581859E+03 -0.71713539273E+03  0.14365215382E+04  0.18702618200E+04  0.46999998093E+01 0. -1.
</event>
<event>
 5   0  0.1897313E-07  0.3411871E+04  0.7818609E-02  0.8134999E-01
       -2   -1    0    0    0  501  0.00000000000E+00  0.00000000000E+00  0.15063442027E+04  0.15063442027E+04  0.25500000920E-02 0. -1.
        2   -1    0    0  501    0  0.00000000000E+00  0.00000000000E+00 -0.19319728649E+04  0.19319728649E+04  0.25500000920E-02 0.  1.
    10030    2    1    2    0    0  0.00000000000E+00  0.00000000000E+00 -0.42562866220E+03  0.34383170675E+04  0.34118711140E+04 0.  0.
        3    1    3    3  502    0  0.83138090423E+03  0.13832688087E+04  0.34427184865E+03  0.16501969340E+04  0.10100000352E+00 0. -1.
       -3    1    3    3    0  502 -0.83138090423E+03 -0.13832688087E+04 -0.76990051086E+03  0.17881201335E+04  0.10100000352E+00 0.  1.
</event>
<event>
 5   0  0.1970449E-07  0.3402574E+04  0.7818609E-02  0.8137275E-01
       -2   -1    0    0    0  501  0.00000000000E+00  0.00000000000E+00  0.12006248034E+04  0.12006248034E+04  0.25500000920E-02 0.  1.
        2   -1    0    0  501    0  0.00000000000E+00  0.00000000000E+00 -0.24107255640E+04  0.24107255640E+04  0.25500000920E-02 0. -1.
    10030    2    1    2    0    0  0.00000000000E+00  0.00000000000E+00 -0.12101007606E+04  0.36113503674E+04  0.34025736767E+04 0.  0.
        1    1    3    3  502    0  0.15219046090E+04  0.64473933607E+03 -0.17721040420E+03  0.16623134415E+04  0.50400001928E-02 0.  1.
       -1    1    3    3    0  502 -0.15219046090E+04 -0.64473933607E+03 -0.10328903564E+04  0.19490369259E+04  0.50400001928E-02 0. -1.
</event>
<event>
 5   0  0.1963852E-07  0.3389626E+04  0.7818609E-02  0.8140457E-01
       -2   -1    0    0    0  501  0.00000000000E+00  0.00000000000E+00  0.14741866256E+04  0.14741866256E+04  0.25500000920E-02 0.  1.
        2   -1    0    0  501    0  0.00000000000E+00  0.00000000000E+00 -0.19484585457E+04  0.19484585457E+04  0.25500000920E-02 0. -1.
    10030    2    1    2    0    0  0.00000000000E+00  0.00000000000E+00 -0.47427192017E+03  0.34226451713E+04  0.33896262500E+04 0.  0.
        4    1    3    3  502    0 -0.25560955521E+03 -0.16481006566E+04 -0.54143163789E+03  0.17534884802E+04  0.12699999809E+01 0. -1.
       -4    1    3    3    0  502  0.25560955521E+03  0.16481006566E+04  0.67159717717E+02  0.16691566911E+04  0.12699999809E+01 0.  1.
</event>
<event>
 5   0  0.6788600E-08  0.3400551E+04  0.7818609E-02  0.8137771E-01
       -1   -1    0    0    0  501  0.00000000000E+00  0.00000000000E+00  0.15655418479E+04  0.15655418479E+04  0.50400001928E-02 0. -1.
        1   -1    0    0  501    0  0.00000000000E+00  0.00000000000E+00 -0.18466045999E+04  0.18466045999E+04  0.50400001928E-02 0.  1.
    10030    2    1    2    0    0  0.00000000000E+00  0.00000000000E+00 -0.28106275199E+03  0.34121464479E+04  0.34005510011E+04 0.  0.
        2    1    3    3  502    0 -0.93108412160E+03 -0.18403668966E+03  0.12750056556E+04  0.15894736759E+04  0.25500000920E-02 0. -1.
       -2    1    3    3    0  502  0.93108412160E+03  0.18403668966E+03 -0.15560684076E+04  0.18226727720E+04  0.25500000920E-02 0.  1.
</event>
<event>
 5   0  0.1986613E-07  0.3400575E+04  0.7818609E-02  0.8137765E-01
       -2   -1    0    0    0  501  0.00000000000E+00  0.00000000000E+00  0.25657524103E+04  0.25657524103E+04  0.25500000920E-02 0. -1.
        2   -1    0    0  501    0  0.00000000000E+00  0.00000000000E+00 -0.11267562496E+04  0.11267562496E+04  0.25500000920E-02 0.  1.
    10030    2    1    2    0    0  0.00000000000E+00  0.00000000000E+00  0.14389961607E+04  0.36925086598E+04  0.34005749885E+04 0.  0.
        5    1    3    3  502    0 -0.14054409149E+04  0.10607736236E+03  0.17521614760E+04  0.22486903967E+04  0.46999998093E+01 0. -1.
       -5    1    3    3    0  502  0.14054409149E+04 -0.10607736236E+03 -0.31316531535E+03  0.14438182631E+04  0.46999998093E+01 0.  1.
</event>
<event>
 5   0  0.6311750E-08  0.3412456E+04  0.7818609E-02  0.8134856E-01
        1   -1    0    0  501    0  0.00000000000E+00  0.00000000000E+00  0.20149612158E+04  0.20149612158E+04  0.50400001928E-02 0. -1.
       -1   -1    0    0    0  501  0.00000000000E+00  0.00000000000E+00 -0.14447987054E+04  0.14447987054E+04  0.50400001928E-02 0.  1.
    10030    2    1    2    0    0  0.00000000000E+00  0.00000000000E+00  0.57016251042E+03  0.34597599212E+04  0.34124556297E+04 0.  0.
        4    1    3    3  502    0 -0.16518848492E+04 -0.10434947316E+03  0.70506917805E+03  0.17990932511E+04  0.12699999809E+01 0. -1.
       -4    1    3    3    0  502  0.16518848492E+04  0.10434947316E+03 -0.13490666762E+03  0.16606666701E+04  0.12699999809E+01 0.  1.
</event>
<event>
 5   0  0.1970449E-07  0.3414350E+04  0.7818609E-02  0.8134393E-01
       -2   -1    0    0    0  501  0.00000000000E+00  0.00000000000E+00  0.11040980689E+04  0.11040980689E+04  0.25500000920E-02 0.  1.
        2   -1    0    0  501    0  0.00000000000E+00  0.00000000000E+00 -0.26396627171E+04  0.26396627171E+04  0.25500000920E-02 0. -1.
    10030    2    1    2    0    0  0.00000000000E+00  0.00000000000E+00 -0.15355646482E+04  0.37437607860E+04  0.34143500164E+04 0.  0.
        1    1    3    3  502    0 -0.97084038851E+03  0.61916899053E+03  0.61419157453E+03  0.13050412212E+04  0.50400001928E-02 0.  1.
       -1    1    3    3    0  502  0.97084038851E+03 -0.61916899053E+03 -0.21497562227E+04  0.24387195648E+04  0.50400001928E-02 0. -1.
</event>
<event>
 5   0  0.1986613E-07  0.3396983E+04  0.7818609E-02  0.8138647E-01
        2   -1    0    0  501    0  0.00000000000E+00  0.00000000000E+00  0.15860382357E+04  0.15860382357E+04  0.25500000920E-02 0.  1.
       -2   -1    0    0    0  501  0.00000000000E+00  0.00000000000E+00 -0.18189183979E+04  0.18189183980E+04  0.25500000920E-02 0. -1.
    10030    2    1    2    0    0  0.00000000000E+00  0.00000000000E+00 -0.23288016229E+03  0.34049566336E+04  0.33969834422E+04 0.  0.
        5    1    3    3  502    0  0.99943856281E+03  0.27666210944E+03  0.12318687189E+04  0.16102614677E+04  0.46999998093E+01 0.  1.
       -5    1    3    3    0  502 -0.99943856281E+03 -0.27666210944E+03 -0.14647488812E+04  0.17946951659E+04  0.46999998093E+01 0. -1.
</event>
<event>
 5   0  0.1928004E-07  0.3357966E+04  0.7818609E-02  0.8148301E-01
        2   -1    0    0  501    0  0.00000000000E+00  0.00000000000E+00  0.18204879373E+04  0.18204879373E+04  0.25500000920E-02 0.  1.
       -2   -1    0    0    0  501  0.00000000000E+00  0.00000000000E+00 -0.15484769240E+04  0.15484769240E+04  0.25500000920E-02 0. -1.
    10030    2    1    2    0    0  0.00000000000E+00  0.00000000000E+00  0.27201101327E+03  0.33689648614E+04  0.33579657899E+04 0.  0.
        2    1    3    3  502    0 -0.12262876516E+03 -0.14564354614E+04  0.96499373393E+03  0.17514151346E+04  0.25500000920E-02 0.  1.
       -2    1    3    3    0  502  0.12262876516E+03  0.14564354614E+04 -0.69298272066E+03  0.16175497267E+04  0.25500000920E-02 0. -1.
</event>
<event>
 5   0  0.6584420E-08  0.3396360E+04  0.7818609E-02  0.8138800E-01
        1   -1    0    0  501    0  0.00000000000E+00  0.00000000000E+00  0.21529799244E+04  0.21529799244E+04  0.50400001928E-02 0.  1.
       -1   -1    0    0    0  501  0.00000000000E+00  0.00000000000E+00 -0.13394527470E+04  0.13394527470E+04  0.50400001928E-02 0. -1.
    10030    2    1    2    0    0  0.00000000000E+00  0.00000000000E+00  0.81352717742E+03  0.34924326714E+04  0.33963597418E+04 0.  0.
        1    1    3    3  502    0  0.25155717226E+03 -0.15556844345E+04  0.10574180905E+04  0.18977797788E+04  0.50400001928E-02 0.  1.
       -1    1    3    3    0  502 -0.25155717226E+03  0.15556844345E+04 -0.24389091311E+03  0.15946528927E+04  0.50400001928E-02 0. -1.
</event>
<event>
 5   0  0.6311750E-08  0.3403737E+04  0.7818609E-02  0.8136990E-01
        1   -1    0    0  501    0  0.00000000000E+00  0.00000000000E+00  0.13674350115E+04  0.13674350115E+04  0.50400001928E-02 0.  1.
       -1   -1    0    0    0  501  0.00000000000E+00  0.00000000000E+00 -0.21180948681E+04  0.21180948681E+04  0.50400001928E-02 0. -1.
    10030    2    1    2    0    0  0.00000000000E+00  0.00000000000E+00 -0.75065985659E+03  0.34855298797E+04  0.34037374050E+04 0.  0.
        4    1    3    3  502    0  0.84698449185E+03 -0.64658562437E+03  0.98354686207E+03  0.14501109412E+04  0.12699999809E+01 0.  1.
       -4    1    3    3    0  502 -0.84698449185E+03  0.64658562437E+03 -0.17342067187E+04  0.20354189385E+04  0.12699999809E+01 0. -1.
</event>
<event>
 5   0  0.1928004E-07  0.3398027E+04  0.7818609E-02  0.8138391E-01
       -2   -1    0    0    0  501  0.00000000000E+00  0.00000000000E+00  0.21069155099E+04  0.21069155099E+04  0.25500000920E-02 0.  1.
        2   -1    0    0  501    0  0.00000000000E+00  0.00000000000E+00 -0.13700820137E+04  0.13700820137E+04  0.25500000920E-02 0. -1.
    10030    2    1    2    0    0  0.00000000000E+00  0.00000000000E+00  0.73683349629E+03  0.34769975236E+04  0.33980271008E+04 0.  0.
        2    1    3    3  502    0  0.74662522363E+03 -0.13339542527E+04  0.11271089867E+04  0.18992782421E+04  0.25500000920E-02 0.  1.
       -2    1    3    3    0  502 -0.74662522363E+03  0.13339542527E+04 -0.39027549039E+03  0.15777192815E+04  0.25500000920E-02 0. -1.
</event>
<event>
 5   0  0.1986613E-07  0.3399275E+04  0.7818609E-02  0.8138084E-01
        2   -1    0    0  501    0  0.00000000000E+00  0.00000000000E+00  0.16487642096E+04  0.16487642096E+04  0.25500000920E-02 0.  1.
       -2   -1    0    0    0  501  0.00000000000E+00  0.00000000000E+00 -0.17520805384E+04  0.17520805384E+04  0.25500000920E-02 0. -1.
    10030    2    1    2    0    0  0.00000000000E+00  0.00000000000E+00 -0.10331632880E+03  0.34008447480E+04  0.33992750310E+04 0.  0.
        5    1    3    3  502    0 -0.93359388919E+03  0.25398169683E+03  0.13463565492E+04  0.16579512356E+04  0.46999998093E+01 0.  1.
       -5    1    3    3    0  502  0.93359388919E+03 -0.25398169683E+03 -0.14496728780E+04  0.17428935124E+04  0.46999998093E+01 0. -1.
</event>
<event>
 5   0  0.6311750E-08  0.3403025E+04  0.7818609E-02  0.8137164E-01
       -1   -1    0    0    0  501  0.00000000000E+00  0.00000000000E+00  0.20043932158E+04  0.20043932158E+04  0.50400001928E-02 0.  1.
        1   -1    0    0  501    0  0.00000000000E+00  0.00000000000E+00 -0.14443997596E+04  0.14443997596E+04  0.50400001928E-02 0. -1.
    10030    2    1    2    0    0  0.00000000000E+00  0.00000000000E+00  0.55999345623E+03  0.34487929755E+04  0.34030251713E+04 0.  0.
        4    1    3    3  502    0  0.12439371141E+04  0.67318301198E+03  0.12385442143E+04  0.18800394398E+04  0.12699999809E+01 0.  1.
       -4    1    3    3    0  502 -0.12439371141E+04 -0.67318301198E+03 -0.67855075806E+03  0.15687535357E+04  0.12699999809E+01 0. -1.
</event>
<event>
 5   0  0.6788600E-08  0.3412826E+04  0.7818609E-02  0.8134766E-01
       -1   -1    0    0    0  501  0.00000000000E+00  0.00000000000E+00  0.24952588234E+04  0.24952588234E+04  0.50400001928E-02 0. -1.
        1   -1    0    0  501    0  0.00000000000E+00  0.00000000000E+00 -0.11669511434E+04  0.11669511435E+04  0.50400001928E-02 0.  1.
    10030    2    1    2    0    0  0.00000000000E+00  0.00000000000E+00  0.13283076800E+04  0.36622099669E+04  0.34128258890E+04 0.  0.
        2    1    3    3  502    0  0.13633413648E+04 -0.96747704303E+03  0.10314106955E+04  0.19643114643E+04  0.25500000920E-02 0. -1.
       -2    1    3    3    0  502 -0.13633413648E+04  0.96747704303E+03  0.29689698445E+03  0.16978985026E+04  0.25500000920E-02 0.  1.
</event>
<event>
 5   0  0.1963852E-07  0.3407441E+04  0.7818609E-02  0.8136083E-01
        2   -1    0    0  501    0  0.00000000000E+00  0.00000000000E+00  0.20401776443E+04  0.20401776443E+04  0.25500000920E-02 0.  1.
       -2   -1    0    0    0  501  0.00000000000E+00  0.00000000000E+00 -0.14227502075E+04  0.14227502075E+04  0.25500000920E-02 0. -1.
    10030    2    1    2    0    0  0.00000000000E+00  0.00000000000E+00  0.61742743683E+03  0.34629278518E+04  0.34074407797E+04 0.  0.
        4    1    3    3  502    0 -0.21664791744E+03 -0.16590150055E+04 -0.18072498313E+02  0.16731991324E+04  0.12699999809E+01 0.  1.
       -4    1    3    3    0  502  0.21664791744E+03  0.16590150055E+04  0.63549993514E+03  0.17897287194E+04  0.12699999809E+01 0. -1.
</event>
<event>
 5   0  0.6341535E-08  0.3393957E+04  0.7818609E-02  0.8139391E-01
       -1   -1    0    0    0  501  0.00000000000E+00  0.00000000000E+00  0.24151715791E+04  0.24151715791E+04  0.50400001928E-02 0.  1.
        1   -1    0    0  501    0  0.00000000000E+00  0.00000000000E+00 -0.11923522655E+04  0.11923522656E+04  0.50400001928E-02 0. -1.
    10030    2    1    2    0    0  0.00000000000E+00  0.00000000000E+00  0.12228193136E+04  0.36075238447E+04  0.33939565725E+04 0.  0.
        5    1    3    3  502    0  0.14269856462E+04  0.85305201773E+03  0.24981575937E+03  0.16811947487E+04  0.46999998093E+01 0. -1.
       -5    1    3    3    0  502 -0.14269856462E+04 -0.85305201773E+03  0.97300355419E+03  0.19263290960E+04  0.46999998093E+01 0.  1.
</event>
<event>
 5   0  0.1963852E-07  0.3404040E+04  0.7818609E-02  0.8136915E-01
       -2   -1    0    0    0  501  0.00000000000E+00  0.00000000000E+00  0.13257575727E+04  0.13257575727E+04  0.25500000920E-02 0. -1.
        2   -1    0    0  501    0  0.00000000000E+00  0.00000000000E+00 -0.21850692959E+04  0.21850692960E+04  0.25500000920E-02 0.  1.
    10030    2    1    2    0    0  0.00000000000E+00  0.00000000000E+00 -0.85931172326E+03  0.35108268686E+04  0.34040400503E+04 0.  0.
        4    1    3    3  502    0  0.61826205374E+03  0.41348726852E+03  0.11492680787E+04  0.13689552286E+04  0.12699999809E+01 0. -1.
       -4    1    3    3    0  502 -0.61826205374E+03 -0.41348726852E+03 -0.20085798020E+04  0.21418716400E+04  0.12699999809E+01 0.  1.
</event>
<event>
 5   0  0.1963852E-07  0.3400672E+04  0.7818609E-02  0.8137742E-01
       -2   -1    0    0    0  501  0.00000000000E+00  0.00000000000E+00  0.13200306746E+04  0.13200306746E+04  0.25500000920E-02 0. -1.
        2   -1    0    0  501    0  0.00000000000E+00  0.00000000000E+00 -0.21902080443E+04  0.21902080443E+04  0.25500000920E-02 0.  1.
    10030    2    1    2    0    0  0.00000000000E+00  0.00000000000E+00 -0.87017736962E+03  0.35102387189E+04  0.34006715821E+04 0.  0.
        4    1    3    3  502    0  0.12768596304E+04 -0.11156326344E+04 -0.30397855811E+03  0.17226175628E+04  0.12699999809E+01 0.  1.
       -4    1    3    3    0  502 -0.12768596304E+04  0.11156326344E+04 -0.56619881151E+03  0.17876211561E+04  0.12699999809E+01 0. -1.
</event>
<event>
 5   0  0.1897313E-07  0.3399433E+04  0.7818609E-02  0.8138046E-01
       -2   -1    0    0    0  501  0.00000000000E+00  0.00000000000E+00  0.15826960430E+04  0.15826960430E+04  0.25500000920E-02 0.  1.
        2   -1    0    0  501    0  0.00000000000E+00  0.00000000000E+00 -0.18253886874E+04  0.18253886874E+04  0.25500000920E-02 0. -1.
    10030    2    1    2    0    0  0.00000000000E+00  0.00000000000E+00 -0.24269264446E+03  0.34080847304E+04  0.33994325718E+04 0.  0.
        3    1    3    3  502    0  0.13170329753E+04 -0.10383788087E+04  0.15545245066E+03  0.16843312866E+04  0.10100000352E+00 0.  1.
       -3    1    3    3    0  502 -0.13170329753E+04  0.10383788087E+04 -0.39814509512E+03  0.17237534439E+04  0.10100000352E+00 0. -1.
</event>
<event>
 5   0  0.6788600E-08  0.3397378E+04  0.7818609E-02  0.8138550E-01
        1   -1    0    0  501    0  0.00000000000E+00  0.00000000000E+00  0.20851268195E+04  0.20851268195E+04  0.50400001928E-02 0. -1.
       -1   -1    0    0    0  501  0.00000000000E+00  0.00000000000E+00 -0.13838696497E+04  0.13838696497E+04  0.50400001928E-02 0.  1.
    10030    2    1    2    0    0  0.00000000000E+00  0.00000000000E+00  0.70125716984E+03  0.34689964692E+04  0.33973776483E+04 0.  0.
        2    1    3    3  502    0  0.15852470805E+04  0.31113173652E+03 -0.18554322738E+03  0.16261111748E+04  0.25500000920E-02 0.  1.
       -2    1    3    3    0  502 -0.15852470805E+04 -0.31113173652E+03  0.88680039722E+03  0.18428852944E+04  0.25500000920E-02 0. -1.
</event>
<event>
 5   0  0.6584420E-08  0.3398809E+04  0.7818609E-02  0.8138199E-01
        1   -1    0    0  501    0  0.00000000000E+00  0.00000000000E+00  0.15866450671E+04  0.15866450671E+04  0.50400001928E-02 0. -1.
       -1   -1    0    0    0  501  0.00000000000E+00  0.00000000000E+00 -0.18201774032E+04  0.18201774032E+04  0.50400001928E-02 0.  1.
    10030    2    1    2    0    0  0.00000000000E+00  0.00000000000E+00 -0.23353233608E+03  0.34068224703E+04  0.33988089079E+04 0.  0.
        1    1    3    3  502    0  0.14074491088E+04 -0.33247476113E+03  0.77781947863E+03  0.16420887924E+04  0.50400001928E-02 0. -1.
       -1    1    3    3    0  502 -0.14074491088E+04  0.33247476113E+03 -0.10113518147E+04  0.17647336779E+04  0.50400001928E-02 0.  1.
</event>
<event>
 5   0  0.6341535E-08  0.3403151E+04  0.7818609E-02  0.8137133E-01
        1   -1    0    0  501    0  0.00000000000E+00  0.00000000000E+00  0.21510078350E+04  0.21510078351E+04  0.50400001928E-02 0. -1.
       -1   -1    0    0    0  501  0.00000000000E+00  0.00000000000E+00 -0.13460476428E+04  0.13460476428E+04  0.50400001928E-02 0.  1.
    10030    2    1    2    0    0  0.00000000000E+00  0.00000000000E+00  0.80496019227E+03  0.34970554778E+04  0.34031509082E+04 0.  0.
        5    1    3    3  502    0  0.16039643897E+04  0.56423147397E+03  0.33526875801E+03  0.17330568801E+04  0.46999998093E+01 0. -1.
       -5    1    3    3    0  502 -0.16039643897E+04 -0.56423147397E+03  0.46969143426E+03  0.17639985978E+04  0.46999998093E+01 0.  1.
</event>
<event>
 5   0  0.1970449E-07  0.3409189E+04  0.7818609E-02  0.8135655E-01
       -2   -1    0    0    0  501  0.00000000000E+00  0.00000000000E+00  0.26434159963E+04  0.26434159963E+04  0.25500000920E-02 0.  1.
        2   -1    0    0  501    0  0.00000000000E+00  0.00000000000E+00 -0.10991996142E+04  0.10991996142E+04  0.25500000920E-02 0. -1.
    10030    2    1    2    0    0  0.00000000000E+00  0.00000000000E+00  0.15442163821E+04  0.37426156105E+04  0.34091886679E+04 0.  0.
        1    1    3    3  502    0  0.15848178472E+04  0.52067625930E+03  0.38726546105E+03  0.17125203395E+04  0.50400001928E-02 0. -1.
       -1    1    3    3    0  502 -0.15848178472E+04 -0.52067625930E+03  0.11569509211E+04  0.20300952710E+04  0.50400001928E-02 0.  1.
</event>
<event>
 5   0  0.1986613E-07  0.3398703E+04  0.7818609E-02  0.8138225E-01
       -2   -1    0    0    0  501  0.00000000000E+00  0.00000000000E+00  0.12545752835E+04  0.12545752835E+04  0.25500000920E-02 0.  1.
        2   -1    0    0  501    0  0.00000000000E+00  0.00000000000E+00 -0.23018106909E+04  0.23018106909E+04  0.25500000920E-02 0. -1.
    10030    2    1    2    0    0  0.00000000000E+00  0.00000000000E+00 -0.10472354074E+04  0.35563859744E+04  0.33987025761E+04 0.  0.
        5    1    3    3  502    0 -0.16834762651E+04  0.47963561011E+02 -0.28642996364E+03  0.17083492185E+04  0.46999998093E+01 0. -1.
       -5    1    3    3    0  502  0.16834762651E+04 -0.47963561011E+02 -0.76080544372E+03  0.18480367560E+04  0.46999998093E+01 0.  1.
</event>
<event>
 5   0  0.1963852E-07  0.3406860E+04  0.7818609E-02  0.8136225E-01
        2   -1    0    0  501    0  0.00000000000E+00  0.00000000000E+00  0.17581956933E+04  0.17581956933E+04  0.25500000920E-02 0. -1.
       -2   -1    0    0    0  501  0.00000000000E+00  0.00000000000E+00 -0.16503704574E+04  0.16503704574E+04  0.25500000920E-02 0.  1.
    10030    2    1    2    0    0  0.00000000000E+00  0.00000000000E+00  0.10782523588E+03  0.34085661508E+04  0.34068602734E+04 0.  0.
        4    1    3    3  502    0 -0.10467639004E+04 -0.42515258387E+03  0.13293855422E+04  0.17446308823E+04  0.12699999809E+01 0. -1.
       -4    1    3    3    0  502  0.10467639004E+04  0.42515258387E+03 -0.12215603063E+04  0.16639352685E+04  0.12699999809E+01 0.  1.
</event>
<event>
 5   0  0.6341535E-08  0.3400978E+04  0.7818609E-02  0.8137666E-01
        1   -1    0    0  501    0  0.00000000000E+00  0.00000000000E+00  0.22784073561E+04  0.22784073561E+04  0.50400001928E-02 0. -1.
       -1   -1    0    0    0  501  0.00000000000E+00  0.00000000000E+00 -0.12691600769E+04  0.12691600769E+04  0.50400001928E-02 0.  1.
    10030    2    1    2    0    0  0.00000000000E+00  0.00000000000E+00  0.10092472792E+04  0.35475674330E+04  0.34009784800E+04 0.  0.
        5    1    3    3  502    0  0.42657987158E+03 -0.46410795104E+03 -0.11427759042E+04  0.13051151038E+04  0.46999998093E+01 0.  1.
       -5    1    3    3    0  502 -0.42657987158E+03  0.46410795104E+03  0.21520231834E+04  0.22424523292E+04  0.46999998093E+01 0. -1.
</event>
<event>
 5   0  0.6584420E-08  0.3404676E+04  0.7818609E-02  0.8136760E-01
        1   -1    0    0  501    0  0.00000000000E+00  0.00000000000E+00  0.23316332491E+04  0.23316332491E+04  0.50400001928E-02 0.  1.
       -1   -1    0    0    0  501  0.00000000000E+00  0.00000000000E+00 -0.12428861725E+04  0.12428861725E+04  0.50400001928E-02 0. -1.
    10030    2    1    2    0    0  0.00000000000E+00  0.00000000000E+00  0.10887470766E+04  0.35745194216E+04  0.34046760343E+04 0.  0.
        1    1    3    3  502    0 -0.82146000432E+03 -0.12717649516E+03  0.21040750449E+04  0.22623223012E+04  0.50400001928E-02 0.  1.
       -1    1    3    3    0  502  0.82146000432E+03  0.12717649516E+03 -0.10153279683E+04  0.13121971204E+04  0.50400001928E-02 0. -1.
</event>
<event>
 5   0  0.6788600E-08  0.3404738E+04  0.7818609E-02  0.8136744E-01
        1   -1    0    0  501    0  0.00000000000E+00  0.00000000000E+00  0.18599220873E+04  0.18599220873E+04  0.50400001928E-02 0.  1.
       -1   -1    0    0    0  501  0.00000000000E+00  0.00000000000E+00 -0.15581624157E+04  0.15581624157E+04  0.50400001928E-02 0. -1.
    10030    2    1    2    0    0  0.00000000000E+00  0.00000000000E+00  0.30175967168E+03  0.34180845030E+04  0.34047382822E+04 0.  0.
        2    1    3    3  502    0  0.23165570486E+02  0.75548393807E+03  0.16822338769E+04  0.18442351914E+04  0.25500000920E-02 0.  1.
       -2    1    3    3    0  502 -0.23165570486E+02 -0.75548393807E+03 -0.13804742053E+04  0.15738493116E+04  0.25500000920E-02 0. -1.
</event>
<event>
 5   0  0.6788600E-08  0.3409729E+04  0.7818609E-02  0.8135523E-01
       -1   -1    0    0    0  501  0.00000000000E+00  0.00000000000E+00  0.22839235974E+04  0.22839235974E+04  0.50400001928E-02 0.  1.
        1   -1    0    0  501    0  0.00000000000E+00  0.00000000000E+00 -0.12726184864E+04  0.12726184864E+04  0.50400001928E-02 0. -1.
    10030    2    1    2    0    0  0.00000000000E+00  0.00000000000E+00  0.10113051110E+04  0.35565420838E+04  0.34097292512E+04 0.  0.
        2    1    3    3  502    0 -0.14534164436E+04  0.78514525764E+03  0.65968496113E+02  0.16532465867E+04  0.25500000920E-02 0. -1.
       -2    1    3    3    0  502  0.14534164436E+04 -0.78514525764E+03  0.94533661487E+03  0.19032954971E+04  0.25500000920E-02 0.  1.
</event>
<event>
 5   0  0.6341535E-08  0.3399951E+04  0.7818609E-02  0.8137918E-01
        1   -1    0    0  501    0  0.00000000000E+00  0.00000000000E+00  0.27610762964E+04  0.27610762964E+04  0.50400001928E-02 0.  1.
       -1   -1    0    0    0  501  0.00000000000E+00  0.00000000000E+00 -0.10466634049E+04  0.10466634049E+04  0.50400001928E-02 0. -1.
    10030    2    1    2    0    0  0.00000000000E+00  0.00000000000E+00  0.17144128915E+04  0.38077397012E+04  0.33999514805E+04 0.  0.
        5    1    3    3  502    0 -0.37849721885E+03 -0.15565380217E+04  0.14945146340E+04  0.21908141954E+04  0.46999998093E+01 0. -1.
       -5    1    3    3    0  502  0.37849721885E+03  0.15565380217E+04  0.21989825748E+03  0.16169255058E+04  0.46999998093E+01 0.  1.
</event>
<event>
 5   0  0.1970449E-07  0.3410467E+04  0.7818609E-02  0.8135342E-01
       -2   -1    0    0    0  501  0.00000000000E+00  0.00000000000E+00  0.12284303056E+04  0.12284303056E+04  0.25500000920E-02 0. -1.
        2   -1    0    0  501    0  0.00000000000E+00  0.00000000000E+00 -0.23671038154E+04  0.23671038154E+04  0.25500000920E-02 0.  1.
    10030    2    1    2    0    0  0.00000000000E+00  0.00000000000E+00 -0.11386735098E+04  0.35955341210E+04  0.34104674538E+04 0.  0.
        1    1    3    3  502    0  0.28757326628E+03 -0.30235913225E+02  0.12023949526E+04  0.12366754692E+04  0.50400001928E-02 0. -1.
       -1    1    3    3    0  502 -0.28757326628E+03  0.30235913225E+02 -0.23410684624E+04  0.23588586519E+04  0.50400001928E-02 0.  1.
</event>
<event>
 5   0  0.6311750E-08  0.3402564E+04  0.7818609E-02  0.8137277E-01
       -1   -1    0    0    0  501  0.00000000000E+00  0.00000000000E+00  0.15048940168E+04  0.15048940168E+04  0.50400001928E-02 0.  1.
        1   -1    0    0  501    0  0.00000000000E+00  0.00000000000E+00 -0.19232983708E+04  0.19232983708E+04  0.50400001928E-02 0. -1.
    10030    2    1    2    0    0  0.00000000000E+00  0.00000000000E+00 -0.41840435393E+03  0.34281923876E+04  0.34025638632E+04 0.  0.
        4    1    3    3  502    0  0.27478498371E+03  0.97517898339E+03 -0.15861995972E+04  0.18821561073E+04  0.12699999809E+01 0. -1.
       -4    1    3    3    0  502 -0.27478498371E+03 -0.97517898339E+03  0.11677952433E+04  0.15460362803E+04  0.12699999809E+01 0.  1.
</event>
<event>
 5   0  0.6584420E-08  0.3398316E+04  0.7818609E-02  0.8138320E-01
        1   -1    0    0  501    0  0.00000000000E+00  0.00000000000E+00  0.18767259132E+04  0.18767259133E+04  0.50400001928E-02 0. -1.
       -1   -1    0    0    0  501  0.00000000000E+00  0.00000000000E+00 -0.15383908719E+04  0.15383908719E+04  0.50400001928E-02 0.  1.
    10030    2    1    2    0    0  0.00000000000E+00  0.00000000000E+00  0.33833504135E+03  0.34151167852E+04  0.33983160618E+04 0.  0.
        1    1    3    3  502    0 -0.12770567571E+04  0.90742877336E+03  0.83032363397E+03  0.17730590167E+04  0.50400001928E-02 0. -1.
       -1    1    3    3    0  502  0.12770567571E+04 -0.90742877336E+03 -0.49198859261E+03  0.16420577684E+04  0.50400001928E-02 0.  1.
</event>
<event>
 5   0  0.1963852E-07  0.3397256E+04  0.7818609E-02  0.8138580E-01
        2   -1    0    0  501    0  0.00000000000E+00  0.00000000000E+00  0.18342569322E+04  0.18342569323E+04  0.25500000920E-02 0. -1.
       -2   -1    0    0    0  501  0.00000000000E+00  0.00000000000E+00 -0.15730281488E+04  0.15730281488E+04  0.25500000920E-02 0.  1.
    10030    2    1    2    0    0  0.00000000000E+00  0.00000000000E+00  0.26122878345E+03  0.34072850810E+04  0.33972564146E+04 0.  0.
        4    1    3    3  502    0  0.56127429882E+03 -0.74763272593E+03  0.15530226154E+04  0.18126953380E+04  0.12699999809E+01 0. -1.
       -4    1    3    3    0  502 -0.56127429882E+03  0.74763272593E+03 -0.12917938320E+04  0.15945897431E+04  0.12699999809E+01 0.  1.
</event>
<event>
 5   0  0.6341535E-08  0.3408422E+04  0.7818609E-02  0.8135842E-01
       -1   -1    0    0    0  501  0.00000000000E+00  0.00000000000E+00  0.15860881482E+04  0.15860881483E+04  0.50400001928E-02 0.  1.
        1   -1    0    0  501    0  0.00000000000E+00  0.00000000000E+00 -0.18311313620E+04  0.18311313620E+04  0.50400001928E-02 0. -1.
    10030    2    1    2    0    0  0.00000000000E+00  0.00000000000E+00 -0.24504321376E+03  0.34172195103E+04  0.34084223630E+04 0.  0.
        5    1    3    3  502    0  0.10588425861E+04  0.63472531994E+03  0.10553680592E+04  0.16241452165E+04  0.46999998093E+01 0.  1.
       -5    1    3    3    0  502 -0.10588425861E+04 -0.63472531994E+03 -0.13004112730E+04  0.17930742937E+04  0.46999998093E+01 0. -1.
</event>
<event>
 5   0  0.6341535E-08  0.3402246E+04  0.7818609E-02  0.8137355E-01
       -1   -1    0    0    0  501  0.00000000000E+00  0.00000000000E+00  0.14493317170E+04  0.14493317170E+04  0.50400001928E-02 0.  1.
        1   -1    0    0  501    0  0.00000000000E+00  0.00000000000E+00 -0.19966581728E+04  0.19966581728E+04  0.50400001928E-02 0. -1.
    10030    2    1    2    0    0  0.00000000000E+00  0.00000000000E+00 -0.54732645581E+03  0.34459898898E+04  0.34022463272E+04 0.  0.
        5    1    3    3  502    0  0.11360433934E+04 -0.12405607834E+04 -0.53032269411E+03  0.17637601591E+04  0.46999998093E+01 0.  1.
       -5    1    3    3    0  502 -0.11360433934E+04  0.12405607834E+04 -0.17003761699E+02  0.16822297307E+04  0.46999998093E+01 0. -1.
</event>
<event>
 5   0  0.6788600E-08  0.3401931E+04  0.7818609E-02  0.8137432E-01
        1   -1    0    0  501    0  0.00000000000E+00  0.00000000000E+00  0.22559417232E+04  0.22559417232E+04  0.50400001928E-02 0.  1.
       -1   -1    0    0    0  501  0.00000000000E+00  0.00000000000E+00 -0.12825171757E+04  0.12825171758E+04  0.50400001928E-02 0. -1.
    10030    2    1    2    0    0  0.00000000000E+00  0.00000000000E+00  0.97342454750E+03  0.35384588990E+04  0.34019312207E+04 0.  0.
        2    1    3    3  502    0 -0.52882544269E+03  0.10966867290E+04 -0.74877321205E+03  0.14293493112E+04  0.25500000920E-02 0. -1.
       -2    1    3    3    0  502  0.52882544269E+03 -0.10966867290E+04  0.17221977595E+04  0.21091095878E+04  0.25500000920E-02 0.  1.
</event>
<event>
 5   0  0.1970449E-07  0.3404381E+04  0.7818609E-02  0.8136832E-01
        2   -1    0    0  501    0  0.00000000000E+00  0.00000000000E+00  0.17025634300E+04  0.17025634300E+04  0.25500000920E-02 0.  1.
       -2   -1    0    0    0  501  0.00000000000E+00  0.00000000000E+00 -0.17018180072E+04  0.17018180072E+04  0.25500000920E-02 0. -1.
    10030    2    1    2    0    0  0.00000000000E+00  0.00000000000E+00  0.74542273149E+00  0.34043814372E+04  0.34043813556E+04 0.  0.
        1    1    3    3  502    0 -0.10658579023E+03  0.16461446737E+04 -0.41950857514E+03  0.17020987815E+04  0.50400001928E-02 0.  1.
       -1    1    3    3    0  502  0.10658579023E+03 -0.16461446737E+04  0.42025399787E+03  0.17022826557E+04  0.50400001928E-02 0. -1.
</event>
<event>
 5   0  0.6311750E-08  0.3396136E+04  0.7818609E-02  0.8138855E-01
       -1   -1    0    0    0  501  0.00000000000E+00  0.00000000000E+00  0.26731035881E+04  0.26731035881E+04  0.50400001928E-02 0.  1.
        1   -1    0    0  501    0  0.00000000000E+00  0.00000000000E+00 -0.10786845311E+04  0.10786845311E+04  0.50400001928E-02 0. -1.
    10030    2    1    2    0    0  0.00000000000E+00  0.00000000000E+00  0.15944190570E+04  0.37517881192E+04  0.33961363286E+04 0.  0.
        4    1    3    3  502    0  0.42302018504E+03  0.15275695466E+04  0.12430831594E+03  0.15899273465E+04  0.12699999809E+01 0. -1.
       -4    1    3    3    0  502 -0.42302018504E+03 -0.15275695466E+04  0.14701107411E+04  0.21618607728E+04  0.12699999809E+01 0.  1.
</event>
<event>
 5   0  0.1970449E-07  0.3357149E+04  0.7818609E-02  0.8148504E-01
        2   -1    0    0  501    0  0.00000000000E+00  0.00000000000E+00  0.31158891606E+04  0.31158891606E+04  0.25500000920E-02 0.  1.
       -2   -1    0    0    0  501  0.00000000000E+00  0.00000000000E+00 -0.90427218125E+03  0.90427218125E+03  0.25500000920E-02 0. -1.
    10030    2    1    2    0    0  0.00000000000E+00  0.00000000000E+00  0.22116169793E+04  0.40201613418E+04  0.33571487234E+04 0.  0.
        1    1    3    3  502    0 -0.10832469995E+04  0.62921298831E+03  0.24437240553E+04  0.27461100315E+04  0.50400001928E-02 0.  1.
       -1    1    3    3    0  502  0.10832469995E+04 -0.62921298831E+03 -0.23210707600E+03  0.12740513103E+04  0.50400001928E-02 0. -1.
</event>
<event>
 5   0  0.1897313E-07  0.3405215E+04  0.7818609E-02  0.8136628E-01
        2   -1    0    0  501    0  0.00000000000E+00  0.00000000000E+00  0.21917505553E+04  0.21917505553E+04  0.25500000920E-02 0. -1.
       -2   -1    0    0    0  501  0.00000000000E+00  0.00000000000E+00 -0.13226289086E+04  0.13226289086E+04  0.25500000920E-02 0.  1.
    10030    2    1    2    0    0  0.00000000000E+00  0.00000000000E+00  0.86912164668E+03  0.35143794639E+04  0.34052152031E+04 0.  0.
        3    1    3    3  502    0  0.13312881969E+04 -0.76182711247E+03 -0.32815991219E+03  0.15685655073E+04  0.10100000352E+00 0.  1.
       -3    1    3    3    0  502 -0.13312881969E+04  0.76182711247E+03  0.11972815589E+04  0.19458139566E+04  0.10100000352E+00 0. -1.
</event>
<event>
 5   0  0.1897313E-07  0.3415584E+04  0.7818609E-02  0.8134092E-01
       -2   -1    0    0    0  501  0.00000000000E+00  0.00000000000E+00  0.18589500890E+04  0.18589500890E+04  0.25500000920E-02 0.  1.
        2   -1    0    0  501    0  0.00000000000E+00  0.00000000000E+00 -0.15689255890E+04  0.15689255890E+04  0.25500000920E-02 0. -1.
    10030    2    1    2    0    0  0.00000000000E+00  0.00000000000E+00  0.29002449996E+03  0.34278756780E+04  0.34155844966E+04 0.  0.
        3    1    3    3  502    0  0.47116807442E+03  0.16249633397E+04  0.37833357654E+03  0.17336786078E+04  0.10100000352E+00 0.  1.
       -3    1    3    3    0  502 -0.47116807442E+03 -0.16249633397E+04 -0.88309076584E+02  0.16941970703E+04  0.10100000352E+00 0. -1.
</event>
<event>
 5   0  0.6584420E-08  0.3399951E+04  0.7818609E-02  0.8137918E-01
       -1   -1    0    0    0  501  0.00000000000E+00  0.00000000000E+00  0.35591517280E+04  0.35591517280E+04  0.50400001928E-02 0. -1.
        1   -1    0    0  501    0  0.00000000000E+00  0.00000000000E+00 -0.81196767808E+03  0.81196767809E+03  0.50400001928E-02 0.  1.
    10030    2    1    2    0    0  0.00000000000E+00  0.00000000000E+00  0.27471840499E+04  0.43711194061E+04  0.33999506847E+04 0.  0.
        1    1    3    3  502    0 -0.57161370715E+03  0.11211880286E+04 -0.95706871476E+02  0.12621270265E+04  0.50400001928E-02 0.  1.
       -1    1    3    3    0  502  0.57161370715E+03 -0.11211880286E+04  0.28428909214E+04  0.31089923796E+04  0.50400001928E-02 0. -1.
</event>
<event>
 5   0  0.6341535E-08  0.3379738E+04  0.7818609E-02  0.8142897E-01
       -1   -1    0    0    0  501  0.00000000000E+00  0.00000000000E+00  0.15106181294E+04  0.15106181294E+04  0.50400001928E-02 0.  1.
        1   -1    0    0  501    0  0.00000000000E+00  0.00000000000E+00 -0.18903901677E+04  0.18903901677E+04  0.50400001928E-02 0. -1.
    10030    2    1    2    0    0  0.00000000000E+00  0.00000000000E+00 -0.37977203824E+03  0.34010082971E+04  0.33797382496E+04 0.  0.
        5    1    3    3  502    0 -0.78566873348E+03  0.14877898217E+03  0.13081820659E+04  0.15332230600E+04  0.46999998093E+01 0.  1.
       -5    1    3    3    0  502  0.78566873348E+03 -0.14877898217E+03 -0.16879541041E+04  0.18677852371E+04  0.46999998093E+01 0. -1.
</event>
<event>
 5   0  0.1897313E-07  0.3399163E+04  0.7818609E-02  0.8138112E-01
        2   -1    0    0  501    0  0.00000000000E+00  0.00000000000E+00  0.24171834843E+04  0.24171834843E+04  0.25500000920E-02 0. -1.
       -2   -1    0    0    0  501  0.00000000000E+00  0.00000000000E+00 -0.11950176474E+04  0.11950176474E+04  0.25500000920E-02 0.  1.
    10030    2    1    2    0    0  0.00000000000E+00  0.00000000000E+00  0.12221658370E+04  0.36122011317E+04  0.33991627915E+04 0.  0.
        3    1    3    3  502    0  0.50591711172E+03 -0.14998896879E+04  0.12687017411E+04  0.20286018135E+04  0.10100000352E+00 0. -1.
       -3    1    3    3    0  502 -0.50591711172E+03  0.14998896879E+04 -0.46535904105E+02  0.15835993182E+04  0.10100000352E+00 0.  1.
</event>
<event>
 5   0  0.6341535E-08  0.3399734E+04  0.7818609E-02  0.8137972E-01
       -1   -1    0    0    0  501  0.00000000000E+00  0.00000000000E+00  0.15790299032E+04  0.15790299032E+04  0.50400001928E-02 0. -1.
        1   -1    0    0  501    0  0.00000000000E+00  0.00000000000E+00 -0.18299508854E+04  0.18299508854E+04  0.50400001928E-02 0.  1.
    10030    2    1    2    0    0  0.00000000000E+00  0.00000000000E+00 -0.25092098217E+03  0.34089807886E+04  0.33997336186E+04 0.  0.
        5    1    3    3  502    0 -0.50116841381E+03  0.11135692080E+04  0.10602612438E+04  0.16172143195E+04  0.46999998093E+01 0. -1.
       -5    1    3    3    0  502  0.50116841381E+03 -0.11135692080E+04 -0.13111822260E+04  0.17917664691E+04  0.46999998093E+01 0.  1.
</event>
<event>
 5   0  0.1928004E-07  0.3387646E+04  0.7818609E-02  0.8140945E-01
        2   -1    0    0  501    0  0.00000000000E+00  0.00000000000E+00  0.20082223890E+04  0.20082223890E+04  0.25500000920E-02 0. -1.
       -2   -1    0    0    0  501  0.00000000000E+00  0.00000000000E+00 -0.14286445047E+04  0.14286445047E+04  0.25500000920E-02 0.  1.
    10030    2    1    2    0    0  0.00000000000E+00  0.00000000000E+00  0.57957788434E+03  0.34368668937E+04  0.33876457195E+04 0.  0.
        2    1    3    3  502    0 -0.60951836514E+03 -0.59621834972E+03  0.17746274336E+04  0.19688299789E+04  0.25500000920E-02 0. -1.
       -2    1    3    3    0  502  0.60951836514E+03  0.59621834972E+03 -0.11950495492E+04  0.14680369148E+04  0.25500000920E-02 0.  1.
</event>
<event>
 5   0  0.6367111E-08  0.3404418E+04  0.7818609E-02  0.8136823E-01
       -1   -1    0    0    0  501  0.00000000000E+00  0.00000000000E+00  0.16760888908E+04  0.16760888908E+04  0.50400001928E-02 0. -1.
        1   -1    0    0  501    0  0.00000000000E+00  0.00000000000E+00 -0.17287357899E+04  0.17287357899E+04  0.50400001928E-02 0.  1.
    10030    2    1    2    0    0  0.00000000000E+00  0.00000000000E+00 -0.52646899114E+02  0.34048246808E+04  0.34044176317E+04 0.  0.
        3    1    3    3  502    0  0.16377230149E+04  0.26958396707E+03 -0.40412866411E+03  0.17082541310E+04  0.10100000352E+00 0.  1.
       -3    1    3    3    0  502 -0.16377230149E+04 -0.26958396707E+03  0.35148176500E+03  0.16965705497E+04  0.10100000352E+00 0. -1.
</event>
<event>
 5   0  0.6584420E-08  0.3308774E+04  0.7818609E-02  0.8160666E-01
       -1   -1    0    0    0  501  0.00000000000E+00  0.00000000000E+00  0.13662118819E+04  0.13662118819E+04  0.50400001928E-02 0. -1.
        1   -1    0    0  501    0  0.00000000000E+00  0.00000000000E+00 -0.20033468814E+04  0.20033468814E+04  0.50400001928E-02 0.  1.
    10030    2    1    2    0    0  0.00000000000E+00  0.00000000000E+00 -0.63713499950E+03  0.33695587633E+04  0.33087739802E+04 0.  0.
        1    1    3    3  502    0  0.90772475238E+03 -0.55042654980E+03 -0.16107603307E+04  0.19291144227E+04  0.50400001928E-02 0.  1.
       -1    1    3    3    0  502 -0.90772475238E+03  0.55042654980E+03  0.97362533123E+03  0.14404443406E+04  0.50400001928E-02 0. -1.
</event>
<event>
 5   0  0.6311750E-08  0.3407646E+04  0.7818609E-02  0.8136032E-01
       -1   -1    0    0    0  501  0.00000000000E+00  0.00000000000E+00  0.16844043096E+04  0.16844043096E+04  0.50400001928E-02 0.  1.
        1   -1    0    0  501    0  0.00000000000E+00  0.00000000000E+00 -0.17234652861E+04  0.17234652861E+04  0.50400001928E-02 0. -1.
    10030    2    1    2    0    0  0.00000000000E+00  0.00000000000E+00 -0.39060976543E+02  0.34078695957E+04  0.34076457300E+04 0.  0.
        4    1    3    3  502    0 -0.10658190794E+04  0.90550187690E+03  0.95372755968E+03  0.16927793212E+04  0.12699999809E+01 0.  1.
       -4    1    3    3    0  502  0.10658190794E+04 -0.90550187690E+03 -0.99278853622E+03  0.17150902745E+04  0.12699999809E+01 0. -1.
</event>
<event>
 5   0  0.1963852E-07  0.3389309E+04  0.7818609E-02  0.8140535E-01
       -2   -1    0    0    0  501  0.00000000000E+00  0.00000000000E+00  0.26670142289E+04  0.26670142289E+04  0.25500000920E-02 0.  1.
        2   -1    0    0  501    0  0.00000000000E+00  0.00000000000E+00 -0.10768047698E+04  0.10768047698E+04  0.25500000920E-02 0. -1.
    10030    2    1    2    0    0  0.00000000000E+00  0.00000000000E+00  0.15902094591E+04  0.37438189987E+04  0.33893088633E+04 0.  0.
        4    1    3    3  502    0 -0.97365184351E+03  0.90668192745E+03  0.19545534163E+04  0.23643922475E+04  0.12699999809E+01 0.  1.
       -4    1    3    3    0  502  0.97365184351E+03 -0.90668192745E+03 -0.36434395715E+03  0.13794267512E+04  0.12699999809E+01 0. -1.
</event>
<event>
 5   0  0.6367111E-08  0.3484919E+04  0.7818609E-02  0.8117373E-01
       -1   -1    0    0    0  501  0.00000000000E+00  0.00000000000E+00  0.14100347064E+04  0.14100347064E+04  0.50400001928E-02 0.  1.
        1   -1    0    0  501    0  0.00000000000E+00  0.00000000000E+00 -0.21532553365E+04  0.21532553365E+04  0.50400001928E-02 0. -1.
    10030    2    1    2    0    0  0.00000000000E+00  0.00000000000E+00 -0.74322063009E+03  0.35632900428E+04  0.34849187974E+04 0.  0.
        3    1    3    3  502    0  0.39078385223E+03 -0.16794901568E+04 -0.62777493421E+03  0.18350750895E+04  0.10100000352E+00 0. -1.
       -3    1    3    3    0  502 -0.39078385223E+03  0.16794901568E+04 -0.11544569589E+03  0.17282149533E+04  0.10100000352E+00 0.  1.
</event>
<event>
 5   0  0.6341535E-08  0.3402725E+04  0.7818609E-02  0.8137238E-01
        1   -1    0    0  501    0  0.00000000000E+00  0.00000000000E+00  0.23822778818E+04  0.23822778818E+04  0.50400001928E-02 0. -1.
       -1   -1    0    0    0  501  0.00000000000E+00  0.00000000000E+00 -0.12150699025E+04  0.12150699025E+04  0.50400001928E-02 0.  1.
    10030    2    1    2    0    0  0.00000000000E+00  0.00000000000E+00  0.11672079793E+04  0.35973477843E+04  0.34027248808E+04 0.  0.
        5    1    3    3  502    0 -0.57250314843E+03 -0.83031139440E+02 -0.11078960536E+04  0.12498439025E+04  0.46999998093E+01 0.  1.
       -5    1    3    3    0  502  0.57250314843E+03  0.83031139440E+02  0.22751040328E+04  0.23475038818E+04  0.46999998093E+01 0. -1.
</event>
<event>
 5   0  0.6311750E-08  0.3411678E+04  0.7818609E-02  0.8135046E-01
        1   -1    0    0  501    0  0.00000000000E+00  0.00000000000E+00  0.26423175163E+04  0.26423175164E+04  0.50400001928E-02 0.  1.
       -1   -1    0    0    0  501  0.00000000000E+00  0.00000000000E+00 -0.11012631777E+04  0.11012631777E+04  0.50400001928E-02 0. -1.
    10030    2    1    2    0    0  0.00000000000E+00  0.00000000000E+00  0.15410543387E+04  0.37435806940E+04  0.34116781704E+04 0.  0.
        4    1    3    3  502    0  0.11540657866E+04 -0.18303318085E+03 -0.59316203498E+03  0.13104242816E+04  0.12699999809E+01 0. -1.
       -4    1    3    3    0  502 -0.11540657866E+04  0.18303318085E+03  0.21342163736E+04  0.24331564125E+04  0.12699999809E+01 0.  1.
</event>
<event>
 5   0  0.1928004E-07  0.3400764E+04  0.7818609E-02  0.8137719E-01
        2   -1    0    0  501    0  0.00000000000E+00  0.00000000000E+00  0.10191463416E+04  0.10191463416E+04  0.25500000920E-02 0.  1.
       -2   -1    0    0    0  501  0.00000000000E+00  0.00000000000E+00 -0.28369811969E+04  0.28369811969E+04  0.25500000920E-02 0. -1.
    10030    2    1    2    0    0  0.00000000000E+00  0.00000000000E+00 -0.18178348552E+04  0.38561275385E+04  0.34007640365E+04 0.  0.
        2    1    3    3  502    0 -0.14209083901E+04 -0.28125834122E+03 -0.19187969257E+04  0.24041357178E+04  0.25500000920E-02 0. -1.
       -2    1    3    3    0  502  0.14209083901E+04  0.28125834122E+03  0.10096207044E+03  0.14519918207E+04  0.25500000920E-02 0.  1.
</event>
<event>
 5   0  0.1963852E-07  0.3396240E+04  0.7818609E-02  0.8138830E-01
       -2   -1    0    0    0  501  0.00000000000E+00  0.00000000000E+00  0.20000629254E+04  0.20000629254E+04  0.25500000920E-02 0.  1.
        2   -1    0    0  501    0  0.00000000000E+00  0.00000000000E+00 -0.14417602713E+04  0.14417602713E+04  0.25500000920E-02 0. -1.
    10030    2    1    2    0    0  0.00000000000E+00  0.00000000000E+00  0.55830265407E+03  0.34418231966E+04  0.33962398419E+04 0.  0.
        4    1    3    3  502    0 -0.42589043929E+03  0.99166432404E+02 -0.13837230125E+04  0.14511745711E+04  0.12699999809E+01 0. -1.
       -4    1    3    3    0  502  0.42589043929E+03 -0.99166432404E+02  0.19420256666E+04  0.19906486255E+04  0.12699999809E+01 0.  1.
</event>
<event>
 5   0  0.1963852E-07  0.3399441E+04  0.7818609E-02  0.8138044E-01
        2   -1    0    0  501    0  0.00000000000E+00  0.00000000000E+00  0.21114790517E+04  0.21114790517E+04  0.25500000920E-02 0.  1.
       -2   -1    0    0    0  501  0.00000000000E+00  0.00000000000E+00 -0.13682585515E+04  0.13682585515E+04  0.25500000920E-02 0. -1.
    10030    2    1    2    0    0  0.00000000000E+00  0.00000000000E+00  0.74322050021E+03  0.34797376032E+04  0.33994407004E+04 0.  0.
        4    1    3    3  502    0 -0.90730360129E+03  0.90745412196E+03  0.15125569373E+04  0.19835581438E+04  0.12699999809E+01 0.  1.
       -4    1    3    3    0  502  0.90730360129E+03 -0.90745412196E+03 -0.76933643713E+03  0.14961794594E+04  0.12699999809E+01 0. -1.
</event>
<event>
 5   0  0.6311750E-08  0.3406775E+04  0.7818609E-02  0.8136245E-01
        1   -1    0    0  501    0  0.00000000000E+00  0.00000000000E+00  0.17969701980E+04  0.17969701980E+04  0.50400001928E-02 0.  1.
       -1   -1    0    0    0  501  0.00000000000E+00  0.00000000000E+00 -0.16146787173E+04  0.16146787173E+04  0.50400001928E-02 0. -1.
    10030    2    1    2    0    0  0.00000000000E+00  0.00000000000E+00  0.18229148073E+03  0.34116489154E+04  0.34067753283E+04 0.  0.
        4    1    3    3  502    0  0.80401036453E+03 -0.79927925773E+03 -0.11819903487E+04  0.16377981547E+04  0.12699999809E+01 0. -1.
       -4    1    3    3    0  502 -0.80401036453E+03  0.79927925773E+03  0.13642818294E+04  0.17738507607E+04  0.12699999809E+01 0.  1.
</event>
<event>
 5   0  0.1928004E-07  0.3404991E+04  0.7818609E-02  0.8136682E-01
       -2   -1    0    0    0  501  0.00000000000E+00  0.00000000000E+00  0.18664967814E+04  0.18664967814E+04  0.25500000920E-02 0.  1.
        2   -1    0    0  501    0  0.00000000000E+00  0.00000000000E+00 -0.15529047440E+04  0.15529047440E+04  0.25500000920E-02 0. -1.
    10030    2    1    2    0    0  0.00000000000E+00  0.00000000000E+00  0.31359203743E+03  0.34194015254E+04  0.34049914576E+04 0.  0.
        2    1    3    3  502    0 -0.61681780369E+03  0.96925315075E+03 -0.11049350562E+04  0.15939878769E+04  0.25500000920E-02 0. -1.
       -2    1    3    3    0  502  0.61681780369E+03 -0.96925315075E+03  0.14185270936E+04  0.18254136486E+04  0.25500000920E-02 0.  1.
</event>
<event>
 5   0  0.1963852E-07  0.3399405E+04  0.7818609E-02  0.8138052E-01
        2   -1    0    0  501    0  0.00000000000E+00  0.00000000000E+00  0.29749169321E+04  0.29749169321E+04  0.25500000920E-02 0.  1.
       -2   -1    0    0    0  501  0.00000000000E+00  0.00000000000E+00 -0.97111565181E+03  0.97111565181E+03  0.25500000920E-02 0. -1.
    10030    2    1    2    0    0  0.00000000000E+00  0.00000000000E+00  0.20038012803E+04  0.39460325839E+04  0.33994048865E+04 0.  0.
        4    1    3    3  502    0 -0.51484858787E+03  0.10918592053E+04 -0.38706999991E+03  0.12676949122E+04  0.12699999809E+01 0. -1.
       -4    1    3    3    0  502  0.51484858787E+03 -0.10918592053E+04  0.23908712802E+04  0.26783376717E+04  0.12699999809E+01 0.  1.
</event>
<event>
 5   0  0.1986613E-07  0.3405562E+04  0.7818609E-02  0.8136543E-01
        2   -1    0    0  501    0  0.00000000000E+00  0.00000000000E+00  0.24131340598E+04  0.24131340598E+04  0.25500000920E-02 0. -1.
       -2   -1    0    0    0  501  0.00000000000E+00  0.00000000000E+00 -0.12015343997E+04  0.12015343997E+04  0.25500000920E-02 0.  1.
    10030    2    1    2    0    0  0.00000000000E+00  0.00000000000E+00  0.12115996601E+04  0.36146684596E+04  0.34055622643E+04 0.  0.
        5    1    3    3  502    0 -0.10293283083E+04  0.13502453340E+04  0.74321858417E+03  0.18533955816E+04  0.46999998093E+01 0. -1.
       -5    1    3    3    0  502  0.10293283083E+04 -0.13502453340E+04  0.46838107595E+03  0.17612728779E+04  0.46999998093E+01 0.  1.
</event>
<event>
 5   0  0.6311750E-08  0.3398964E+04  0.7818609E-02  0.8138161E-01
        4   -1    0    0  501    0  0.00000000000E+00  0.00000000000E+00  0.16923207200E+04  0.16923211966E+04  0.12699999809E+01 0.  1.
       -4   -1    0    0    0  501  0.00000000000E+00  0.00000000000E+00 -0.17066727524E+04  0.17066732249E+04  0.12699999809E+01 0. -1.
    10030    2    1    2    0    0  0.00000000000E+00  0.00000000000E+00 -0.14352032360E+02  0.33989944215E+04  0.33989641211E+04 0.  0.
        4    1    3    3  502    0  0.11575730082E+04  0.12068985464E+04 -0.30992991743E+03  0.17007755694E+04  0.12699999809E+01 0. -1.
       -4    1    3    3    0  502 -0.11575730082E+04 -0.12068985464E+04  0.29557788507E+03  0.16982188521E+04  0.12699999809E+01 0.  1.
</event>
<event>
 5   0  0.1897313E-07  0.3401025E+04  0.7818609E-02  0.8137655E-01
        2   -1    0    0  501    0  0.00000000000E+00  0.00000000000E+00  0.13782272786E+04  0.13782272786E+04  0.25500000920E-02 0. -1.
       -2   -1    0    0    0  501  0.00000000000E+00  0.00000000000E+00 -0.20981615740E+04  0.20981615740E+04  0.25500000920E-02 0.  1.
    10030    2    1    2    0    0  0.00000000000E+00  0.00000000000E+00 -0.71993429537E+03  0.34763888527E+04  0.34010254432E+04 0.  0.
        3    1    3    3  502    0  0.11079372441E+04 -0.12752634559E+04 -0.16091709659E+03  0.16969726401E+04  0.10100000352E+00 0.  1.
       -3    1    3    3    0  502 -0.11079372441E+04  0.12752634559E+04 -0.55901719878E+03  0.17794162126E+04  0.10100000352E+00 0. -1.
</event>
<event>
 5   0  0.6341535E-08  0.3401369E+04  0.7818609E-02  0.8137570E-01
       -1   -1    0    0    0  501  0.00000000000E+00  0.00000000000E+00  0.10420811698E+04  0.10420811699E+04  0.50400001928E-02 0.  1.
        1   -1    0    0  501    0  0.00000000000E+00  0.00000000000E+00 -0.27755299189E+04  0.27755299189E+04  0.50400001928E-02 0. -1.
    10030    2    1    2    0    0  0.00000000000E+00  0.00000000000E+00 -0.17334487491E+04  0.38176110888E+04  0.34013688215E+04 0.  0.
        5    1    3    3  502    0 -0.15179973961E+04 -0.69560919387E+03 -0.50456556767E+03  0.17443614153E+04  0.46999998093E+01 0.  1.
       -5    1    3    3    0  502  0.15179973961E+04  0.69560919387E+03 -0.12288831814E+04  0.20732496735E+04  0.46999998093E+01 0. -1.
</event>
<event>
 5   0  0.6788600E-08  0.3502230E+04  0.7818609E-02  0.8113262E-01
       -1   -1    0    0    0  501  0.00000000000E+00  0.00000000000E+00  0.13882678576E+04  0.13882678577E+04  0.50400001928E-02 0.  1.
        1   -1    0    0  501    0  0.00000000000E+00  0.00000000000E+00 -0.22087985214E+04  0.22087985214E+04  0.50400001928E-02 0. -1.
    10030    2    1    2    0    0  0.00000000000E+00  0.00000000000E+00 -0.82053066375E+03  0.35970663791E+04  0.35022301417E+04 0.  0.
        2    1    3    3  502    0 -0.56142034677E+03  0.16578623841E+04 -0.35686216312E+03  0.17863513355E+04  0.25500000920E-02 0.  1.
       -2    1    3    3    0  502  0.56142034677E+03 -0.16578623841E+04 -0.46366850063E+03  0.18107150435E+04  0.25500000920E-02 0. -1.
</event>
<event>
 5   0  0.1970449E-07  0.3401651E+04  0.7818609E-02  0.8137501E-01
       -2   -1    0    0    0  501  0.00000000000E+00  0.00000000000E+00  0.13490191047E+04  0.13490191047E+04  0.25500000920E-02 0. -1.
        2   -1    0    0  501    0  0.00000000000E+00  0.00000000000E+00 -0.21443784286E+04  0.21443784286E+04  0.25500000920E-02 0.  1.
    10030    2    1    2    0    0  0.00000000000E+00  0.00000000000E+00 -0.79535932386E+03  0.34933975333E+04  0.34016510509E+04 0.  0.
        1    1    3    3  502    0 -0.14020563600E+04 -0.76418531863E+03 -0.99919573106E+03  0.18836489447E+04  0.50400001928E-02 0.  1.
       -1    1    3    3    0  502  0.14020563600E+04  0.76418531863E+03  0.20383640720E+03  0.16097485887E+04  0.50400001928E-02 0. -1.
</event>
<event>
 5   0  0.6311750E-08  0.3402158E+04  0.7818609E-02  0.8137377E-01
        1   -1    0    0  501    0  0.00000000000E+00  0.00000000000E+00  0.10829312296E+04  0.10829312297E+04  0.50400001928E-02 0.  1.
       -1   -1    0    0    0  501  0.00000000000E+00  0.00000000000E+00 -0.26720719872E+04  0.26720719872E+04  0.50400001928E-02 0. -1.
    10030    2    1    2    0    0  0.00000000000E+00  0.00000000000E+00 -0.15891407576E+04  0.37550032169E+04  0.34021582578E+04 0.  0.
        4    1    3    3  502    0  0.11060548341E+04 -0.12298473676E+04 -0.12329910898E+04  0.20630439850E+04  0.12699999809E+01 0.  1.
       -4    1    3    3    0  502 -0.11060548341E+04  0.12298473676E+04 -0.35614966779E+03  0.16919592319E+04  0.12699999809E+01 0. -1.
</event>
<event>
 5   0  0.1897313E-07  0.3382693E+04  0.7818609E-02  0.8142167E-01
       -2   -1    0    0    0  501  0.00000000000E+00  0.00000000000E+00  0.11936245333E+04  0.11936245333E+04  0.25500000920E-02 0. -1.
        2   -1    0    0  501    0  0.00000000000E+00  0.00000000000E+00 -0.23966105457E+04  0.23966105457E+04  0.25500000920E-02 0.  1.
    10030    2    1    2    0    0  0.00000000000E+00  0.00000000000E+00 -0.12029860125E+04  0.35902350790E+04  0.33826930952E+04 0.  0.
        3    1    3    3  502    0  0.57702273558E+03 -0.97347301229E+03  0.73262871623E+03  0.13480911650E+04  0.10100000352E+00 0. -1.
       -3    1    3    3    0  502 -0.57702273558E+03  0.97347301229E+03 -0.19356147287E+04  0.22421439140E+04  0.10100000352E+00 0.  1.
</event>
<event>
 5   0  0.6341535E-08  0.3303251E+04  0.7818609E-02  0.8162069E-01
       -1   -1    0    0    0  501  0.00000000000E+00  0.00000000000E+00  0.11935212396E+04  0.11935212396E+04  0.50400001928E-02 0.  1.
        1   -1    0    0  501    0  0.00000000000E+00  0.00000000000E+00 -0.22855623251E+04  0.22855623251E+04  0.50400001928E-02 0. -1.
    10030    2    1    2    0    0  0.00000000000E+00  0.00000000000E+00 -0.10920410856E+04  0.34790835647E+04  0.33032512344E+04 0.  0.
        5    1    3    3  502    0 -0.10621709751E+03 -0.92389396455E+03 -0.19835862214E+04  0.21907757798E+04  0.46999998093E+01 0. -1.
       -5    1    3    3    0  502  0.10621709751E+03  0.92389396455E+03  0.89154513581E+03  0.12883077849E+04  0.46999998093E+01 0.  1.
</event>
<event>
 5   0  0.6367111E-08  0.3409874E+04  0.7818609E-02  0.8135487E-01
       -1   -1    0    0    0  501  0.00000000000E+00  0.00000000000E+00  0.18114161521E+04  0.18114161521E+04  0.50400001928E-02 0. -1.
        1   -1    0    0  501    0  0.00000000000E+00  0.00000000000E+00 -0.16047172977E+04  0.16047172977E+04  0.50400001928E-02 0.  1.
    10030    2    1    2    0    0  0.00000000000E+00  0.00000000000E+00  0.20669885445E+03  0.34161334498E+04  0.34098743863E+04 0.  0.
        3    1    3    3  502    0  0.12074803008E+04 -0.12001253610E+04  0.19572096803E+03  0.17136558191E+04  0.10100000352E+00 0. -1.
       -3    1    3    3    0  502 -0.12074803008E+04  0.12001253610E+04  0.10977886420E+02  0.17024776307E+04  0.10100000352E+00 0.  1.
</event>
<event>
 5   0  0.6311750E-08  0.3400162E+04  0.7818609E-02  0.8137866E-01
        3   -1    0    0  501    0  0.00000000000E+00  0.00000000000E+00  0.19285645405E+04  0.19285645432E+04  0.10100000352E+00 0.  1.
       -3   -1    0    0    0  501  0.00000000000E+00  0.00000000000E+00 -0.14986669180E+04  0.14986669214E+04  0.10100000352E+00 0. -1.
    10030    2    1    2    0    0  0.00000000000E+00  0.00000000000E+00  0.42989762257E+03  0.34272314645E+04  0.34001622822E+04 0.  0.
        1    1    3    3  502    0  0.10269598718E+04  0.12117990964E+04  0.82572025127E+03  0.17902283546E+04  0.50400001928E-02 0.  1.
       -1    1    3    3    0  502 -0.10269598718E+04 -0.12117990964E+04 -0.39582262870E+03  0.16370031099E+04  0.50400001928E-02 0. -1.
</event>
<event>
 5   0  0.1928004E-07  0.3395804E+04  0.7818609E-02  0.8138937E-01
       -2   -1    0    0    0  501  0.00000000000E+00  0.00000000000E+00  0.21309805895E+04  0.21309805895E+04  0.25500000920E-02 0.  1.
        2   -1    0    0  501    0  0.00000000000E+00  0.00000000000E+00 -0.13528378025E+04  0.13528378025E+04  0.25500000920E-02 0. -1.
    10030    2    1    2    0    0  0.00000000000E+00  0.00000000000E+00  0.77814278709E+03  0.34838183920E+04  0.33958039389E+04 0.  0.
        2    1    3    3  502    0 -0.95280480783E+02 -0.89699477925E+03 -0.10866807067E+04  0.14122864307E+04  0.25500000920E-02 0. -1.
       -2    1    3    3    0  502  0.95280480783E+02  0.89699477925E+03  0.18648234937E+04  0.20715319613E+04  0.25500000920E-02 0.  1.
</event>
<event>
 5   0  0.1986613E-07  0.3398134E+04  0.7818609E-02  0.8138364E-01
        2   -1    0    0  501    0  0.00000000000E+00  0.00000000000E+00  0.22685807729E+04  0.22685807729E+04  0.25500000920E-02 0. -1.
       -2   -1    0    0    0  501  0.00000000000E+00  0.00000000000E+00 -0.12725262397E+04  0.12725262397E+04  0.25500000920E-02 0.  1.
    10030    2    1    2    0    0  0.00000000000E+00  0.00000000000E+00  0.99605453320E+03  0.35411070127E+04  0.33981339353E+04 0.  0.
        5    1    3    3  502    0 -0.18404135165E+03  0.12965669863E+04 -0.63003855691E+03  0.14532473438E+04  0.46999998093E+01 0.  1.
       -5    1    3    3    0  502  0.18404135165E+03 -0.12965669863E+04  0.16260930901E+04  0.20878596689E+04  0.46999998093E+01 0. -1.
</event>
<event>
 5   0  0.6311750E-08  0.3392623E+04  0.7818609E-02  0.8139719E-01
        1   -1    0    0  501    0  0.00000000000E+00  0.00000000000E+00  0.21851406196E+04  0.21851406196E+04  0.50400001928E-02 0.  1.
       -1   -1    0    0    0  501  0.00000000000E+00  0.00000000000E+00 -0.13168367281E+04  0.13168367282E+04  0.50400001928E-02 0. -1.
    10030    2    1    2    0    0  0.00000000000E+00  0.00000000000E+00  0.86830389147E+03  0.35019773478E+04  0.33926234239E+04 0.  0.
        4    1    3    3  502    0 -0.27584210184E+03 -0.13837687622E+04  0.14060784986E+04  0.19919747010E+04  0.12699999809E+01 0.  1.
       -4    1    3    3    0  502  0.27584210184E+03  0.13837687622E+04 -0.53777460712E+03  0.15100026468E+04  0.12699999809E+01 0. -1.
</event>
<event>
 5   0  0.1963852E-07  0.3390457E+04  0.7818609E-02  0.8140252E-01
       -2   -1    0    0    0  501  0.00000000000E+00  0.00000000000E+00  0.12519556742E+04  0.12519556742E+04  0.25500000920E-02 0. -1.
        2   -1    0    0  501    0  0.00000000000E+00  0.00000000000E+00 -0.22954485528E+04  0.22954485528E+04  0.25500000920E-02 0.  1.
    10030    2    1    2    0    0  0.00000000000E+00  0.00000000000E+00 -0.10434928786E+04  0.35474042270E+04  0.33904571022E+04 0.  0.
        4    1    3    3  502    0 -0.15693212590E+04  0.62628826208E+03 -0.37831669290E+03  0.17315112862E+04  0.12699999809E+01 0.  1.
       -4    1    3    3    0  502  0.15693212590E+04 -0.62628826208E+03 -0.66517618571E+03  0.18158929407E+04  0.12699999809E+01 0. -1.
</event>
<event>
 5   0  0.6341535E-08  0.3365843E+04  0.7818609E-02  0.8146341E-01
        1   -1    0    0  501    0  0.00000000000E+00  0.00000000000E+00  0.21983691520E+04  0.21983691520E+04  0.50400001928E-02 0.  1.
       -1   -1    0    0    0  501  0.00000000000E+00  0.00000000000E+00 -0.12883302422E+04  0.12883302423E+04  0.50400001928E-02 0. -1.
    10030    2    1    2    0    0  0.00000000000E+00  0.00000000000E+00  0.91003890978E+03  0.34866993943E+04  0.33658434082E+04 0.  0.
        5    1    3    3  502    0 -0.22814221038E+03 -0.13443885902E+04 -0.56668794023E+03  0.14766810289E+04  0.46999998093E+01 0. -1.
       -5    1    3    3    0  502  0.22814221038E+03  0.13443885902E+04  0.14767268500E+04  0.20100183654E+04  0.46999998093E+01 0.  1.
</event>
<event>
 5   0  0.1928004E-07  0.3404454E+04  0.7818609E-02  0.8136814E-01
        2   -1    0    0  501    0  0.00000000000E+00  0.00000000000E+00  0.20589751752E+04  0.20589751752E+04  0.25500000920E-02 0. -1.
       -2   -1    0    0    0  501  0.00000000000E+00  0.00000000000E+00 -0.14072907353E+04  0.14072907353E+04  0.25500000920E-02 0.  1.
    10030    2    1    2    0    0  0.00000000000E+00  0.00000000000E+00  0.65168443984E+03  0.34662659105E+04  0.34044539581E+04 0.  0.
        2    1    3    3  502    0  0.11957196733E+04  0.88309925443E+03  0.11703393333E+04  0.18919048563E+04  0.25500000920E-02 0. -1.
       -2    1    3    3    0  502 -0.11957196733E+04 -0.88309925443E+03 -0.51865489349E+03  0.15743610541E+04  0.25500000920E-02 0.  1.
</event>
<event>
 5   0  0.1897313E-07  0.3398694E+04  0.7818609E-02  0.8138227E-01
        2   -1    0    0  501    0  0.00000000000E+00  0.00000000000E+00  0.23175444417E+04  0.23175444417E+04  0.25500000920E-02 0. -1.
       -2   -1    0    0    0  501  0.00000000000E+00  0.00000000000E+00 -0.12460514396E+04  0.12460514396E+04  0.25500000920E-02 0.  1.
    10030    2    1    2    0    0  0.00000000000E+00  0.00000000000E+00  0.10714930021E+04  0.35635958813E+04  0.33986936242E+04 0.  0.
        3    1    3    3  502    0 -0.71172124565E+03  0.90540218260E+03 -0.77447448664E+03  0.13878440058E+04  0.10100000352E+00 0.  1.
       -3    1    3    3    0  502  0.71172124565E+03 -0.90540218260E+03  0.18459674888E+04  0.21757518755E+04  0.10100000352E+00 0. -1.
</event>
<event>
 5   0  0.6788600E-08  0.3387101E+04  0.7818609E-02  0.8141080E-01
       -1   -1    0    0    0  501  0.00000000000E+00  0.00000000000E+00  0.18899699979E+04  0.18899699979E+04  0.50400001928E-02 0.  1.
        1   -1    0    0  501    0  0.00000000000E+00  0.00000000000E+00 -0.15175439408E+04  0.15175439408E+04  0.50400001928E-02 0. -1.
    10030    2    1    2    0    0  0.00000000000E+00  0.00000000000E+00  0.37242605714E+03  0.34075139388E+04  0.33871005410E+04 0.  0.
        2    1    3    3  502    0  0.10488014257E+04  0.25159752693E+03 -0.11273462644E+04  0.15601908044E+04  0.25500000920E-02 0. -1.
       -2    1    3    3    0  502 -0.10488014257E+04 -0.25159752693E+03  0.14997723216E+04  0.18473231344E+04  0.25500000920E-02 0.  1.
</event>
<event>
 5   0  0.6341535E-08  0.3399172E+04  0.7818609E-02  0.8138109E-01
        1   -1    0    0  501    0  0.00000000000E+00  0.00000000000E+00  0.99842525587E+03  0.99842525588E+03  0.50400001928E-02 0.  1.
       -1   -1    0    0    0  501  0.00000000000E+00  0.00000000000E+00 -0.28931493433E+04  0.28931493433E+04  0.50400001928E-02 0. -1.
    10030    2    1    2    0    0  0.00000000000E+00  0.00000000000E+00 -0.18947240874E+04  0.38915745992E+04  0.33991724719E+04 0.  0.
        5    1    3    3  502    0 -0.13383622364E+04  0.10326727748E+04 -0.74596845867E+03  0.18477330886E+04  0.46999998093E+01 0. -1.
       -5    1    3    3    0  502  0.13383622364E+04 -0.10326727748E+04 -0.11487556287E+04  0.20438415105E+04  0.46999998093E+01 0.  1.
</event>
<event>
 5   0  0.1897313E-07  0.3397204E+04  0.7818609E-02  0.8138593E-01
       -2   -1    0    0    0  501  0.00000000000E+00  0.00000000000E+00  0.14444273824E+04  0.14444273824E+04  0.25500000920E-02 0. -1.
        2   -1    0    0  501    0  0.00000000000E+00  0.00000000000E+00 -0.19975037873E+04  0.19975037873E+04  0.25500000920E-02 0.  1.
    10030    2    1    2    0    0  0.00000000000E+00  0.00000000000E+00 -0.55307640497E+03  0.34419311697E+04  0.33972042428E+04 0.  0.
        3    1    3    3  502    0  0.20107380442E+03 -0.75316511453E+03  0.12524900579E+04  0.14752693720E+04  0.10100000352E+00 0. -1.
       -3    1    3    3    0  502 -0.20107380442E+03  0.75316511453E+03 -0.18055664629E+04  0.19666617977E+04  0.10100000352E+00 0.  1.
</event>
<event>
 5   0  0.1897313E-07  0.3402758E+04  0.7818609E-02  0.8137230E-01
        2   -1    0    0  501    0  0.00000000000E+00  0.00000000000E+00  0.17962460128E+04  0.17962460128E+04  0.25500000920E-02 0. -1.
       -2   -1    0    0    0  501  0.00000000000E+00  0.00000000000E+00 -0.16115225333E+04  0.16115225333E+04  0.25500000920E-02 0.  1.
    10030    2    1    2    0    0  0.00000000000E+00  0.00000000000E+00  0.18472347951E+03  0.34077685461E+04  0.34027582488E+04 0.  0.
        3    1    3    3  502    0 -0.74989734765E+03 -0.10654150518E+04 -0.10034319994E+04  0.16444850417E+04  0.10100000352E+00 0.  1.
       -3    1    3    3    0  502  0.74989734765E+03  0.10654150518E+04  0.11881554789E+04  0.17632835044E+04  0.10100000352E+00 0. -1.
</event>
<event>
 5   0  0.1928004E-07  0.3392343E+04  0.7818609E-02  0.8139788E-01
       -2   -1    0    0    0  501  0.00000000000E+00  0.00000000000E+00  0.10497969498E+04  0.10497969498E+04  0.25500000920E-02 0. -1.
        2   -1    0    0  501    0  0.00000000000E+00  0.00000000000E+00 -0.27405271845E+04  0.27405271845E+04  0.25500000920E-02 0.  1.
    10030    2    1    2    0    0  0.00000000000E+00  0.00000000000E+00 -0.16907302346E+04  0.37903241343E+04  0.33923426001E+04 0.  0.
        2    1    3    3  502    0  0.33844278663E+03 -0.15259871355E+04 -0.10944641734E+03  0.15668946282E+04  0.25500000920E-02 0. -1.
       -2    1    3    3    0  502 -0.33844278663E+03  0.15259871355E+04 -0.15812838173E+04  0.22234295061E+04  0.25500000920E-02 0.  1.
</event>
<event>
 5   0  0.6584420E-08  0.3400015E+04  0.7818609E-02  0.8137903E-01
        1   -1    0    0  501    0  0.00000000000E+00  0.00000000000E+00  0.17500017888E+04  0.17500017888E+04  0.50400001928E-02 0.  1.
       -1   -1    0    0    0  501  0.00000000000E+00  0.00000000000E+00 -0.16514416961E+04  0.16514416962E+04  0.50400001928E-02 0. -1.
    10030    2    1    2    0    0  0.00000000000E+00  0.00000000000E+00  0.98560092652E+02  0.34014434850E+04  0.34000152484E+04 0.  0.
        1    1    3    3  502    0  0.36670243796E+03 -0.98301424640E+03 -0.12889059474E+04  0.16619465177E+04  0.50400001928E-02 0. -1.
       -1    1    3    3    0  502 -0.36670243796E+03  0.98301424640E+03  0.13874660400E+04  0.17394969672E+04  0.50400001928E-02 0.  1.
</event>
<event>
 5   0  0.1963852E-07  0.3400086E+04  0.7818609E-02  0.8137885E-01
        2   -1    0    0  501    0  0.00000000000E+00  0.00000000000E+00  0.23911132105E+04  0.23911132105E+04  0.25500000920E-02 0.  1.
       -2   -1    0    0    0  501  0.00000000000E+00  0.00000000000E+00 -0.12087035112E+04  0.12087035112E+04  0.25500000920E-02 0. -1.
    10030    2    1    2    0    0  0.00000000000E+00  0.00000000000E+00  0.11824096993E+04  0.35998167217E+04  0.34000864302E+04 0.  0.
        4    1    3    3  502    0  0.92916496254E+03  0.13250018575E+04  0.39877485791E+02  0.16188172462E+04  0.12699999809E+01 0. -1.
       -4    1    3    3    0  502 -0.92916496254E+03 -0.13250018575E+04  0.11425322135E+04  0.19809994755E+04  0.12699999809E+01 0.  1.
</event>
<event>
 5   0  0.1897313E-07  0.3398064E+04  0.7818609E-02  0.8138382E-01
        2   -1    0    0  501    0  0.00000000000E+00  0.00000000000E+00  0.20584819858E+04  0.20584819858E+04  0.25500000920E-02 0. -1.
       -2   -1    0    0    0  501  0.00000000000E+00  0.00000000000E+00 -0.14023488143E+04  0.14023488143E+04  0.25500000920E-02 0.  1.
    10030    2    1    2    0    0  0.00000000000E+00  0.00000000000E+00  0.65613317147E+03  0.34608308002E+04  0.33980640207E+04 0.  0.
        3    1    3    3  502    0  0.26149649685E+03 -0.12903073279E+04 -0.76575282507E+03  0.15230399921E+04  0.10100000352E+00 0.  1.
       -3    1    3    3    0  502 -0.26149649685E+03  0.12903073279E+04  0.14218859965E+04  0.19377908080E+04  0.10100000352E+00 0. -1.
</event>
<event>
 5   0  0.6788600E-08  0.3405557E+04  0.7818609E-02  0.8136544E-01
       -1   -1    0    0    0  501  0.00000000000E+00  0.00000000000E+00  0.15081939396E+04  0.15081939396E+04  0.50400001928E-02 0.  1.
        1   -1    0    0  501    0  0.00000000000E+00  0.00000000000E+00 -0.19224680720E+04  0.19224680720E+04  0.50400001928E-02 0. -1.
    10030    2    1    2    0    0  0.00000000000E+00  0.00000000000E+00 -0.41427413236E+03  0.34306620116E+04  0.34055570442E+04 0.  0.
        2    1    3    3  502    0 -0.10727464048E+03  0.42395036033E+03 -0.18649334142E+04  0.19155203982E+04  0.25500000920E-02 0. -1.
       -2    1    3    3    0  502  0.10727464048E+03 -0.42395036033E+03  0.14506592819E+04  0.15151416134E+04  0.25500000920E-02 0.  1.
</event>
<event>
 5   0  0.6584420E-08  0.3401052E+04  0.7818609E-02  0.8137648E-01
        1   -1    0    0  501    0  0.00000000000E+00  0.00000000000E+00  0.17224245740E+04  0.17224245740E+04  0.50400001928E-02 0.  1.
       -1   -1    0    0    0  501  0.00000000000E+00  0.00000000000E+00 -0.16789055169E+04  0.16789055169E+04  0.50400001928E-02 0. -1.
    10030    2    1    2    0    0  0.00000000000E+00  0.00000000000E+00  0.43519057099E+02  0.34013300909E+04  0.34010516725E+04 0.  0.
        1    1    3    3  502    0 -0.31337242197E+02 -0.19425537072E+03 -0.16674823386E+04  0.16790516733E+04  0.50400001928E-02 0. -1.
       -1    1    3    3    0  502  0.31337242197E+02  0.19425537072E+03  0.17110013957E+04  0.17222784177E+04  0.50400001928E-02 0.  1.
</event>
<event>
 5   0  0.1970449E-07  0.3404484E+04  0.7818609E-02  0.8136807E-01
       -2   -1    0    0    0  501  0.00000000000E+00  0.00000000000E+00  0.11611995976E+04  0.11611995976E+04  0.25500000920E-02 0. -1.
        2   -1    0    0  501    0  0.00000000000E+00  0.00000000000E+00 -0.24953742095E+04  0.24953742095E+04  0.25500000920E-02 0.  1.
    10030    2    1    2    0    0  0.00000000000E+00  0.00000000000E+00 -0.13341746119E+04  0.36565738071E+04  0.34044838246E+04 0.  0.
        1    1    3    3  502    0 -0.32602244246E+03 -0.35174577104E+03  0.10871340120E+04  0.11882239185E+04  0.50400001928E-02 0. -1.
       -1    1    3    3    0  502  0.32602244246E+03  0.35174577104E+03 -0.24213086239E+04  0.24683498886E+04  0.50400001928E-02 0.  1.
</event>
<event>
 5   0  0.6341535E-08  0.3402688E+04  0.7818609E-02  0.8137247E-01
       -1   -1    0    0    0  501  0.00000000000E+00  0.00000000000E+00  0.18842104563E+04  0.18842104563E+04  0.50400001928E-02 0.  1.
        1   -1    0    0  501    0  0.00000000000E+00  0.00000000000E+00 -0.15362250071E+04  0.15362250071E+04  0.50400001928E-02 0. -1.
    10030    2    1    2    0    0  0.00000000000E+00  0.00000000000E+00  0.34798544917E+03  0.34204354634E+04  0.34026878915E+04 0.  0.
        5    1    3    3  502    0  0.16293136280E+04  0.19271072372E+03  0.62661762475E+03  0.17562665114E+04  0.46999998093E+01 0.  1.
       -5    1    3    3    0  502 -0.16293136280E+04 -0.19271072372E+03 -0.27863217558E+03  0.16641689520E+04  0.46999998093E+01 0. -1.
</event>
<event>
 5   0  0.6584420E-08  0.3399807E+04  0.7818609E-02  0.8137954E-01
        1   -1    0    0  501    0  0.00000000000E+00  0.00000000000E+00  0.19349483755E+04  0.19349483755E+04  0.50400001928E-02 0. -1.
       -1   -1    0    0    0  501  0.00000000000E+00  0.00000000000E+00 -0.14934102747E+04  0.14934102747E+04  0.50400001928E-02 0.  1.
    10030    2    1    2    0    0  0.00000000000E+00  0.00000000000E+00  0.44153810079E+03  0.34283586503E+04  0.33998069270E+04 0.  0.
        1    1    3    3  502    0  0.14514512646E+04  0.22896246402E+03 -0.64112357015E+03  0.16031762273E+04  0.50400001928E-02 0.  1.
       -1    1    3    3    0  502 -0.14514512646E+04 -0.22896246402E+03  0.10826616709E+04  0.18251824230E+04  0.50400001928E-02 0. -1.
</event>
<event>
 5   0  0.1897313E-07  0.3385107E+04  0.7818609E-02  0.8141571E-01
       -2   -1    0    0    0  501  0.00000000000E+00  0.00000000000E+00  0.20465183184E+04  0.20465183184E+04  0.25500000920E-02 0.  1.
        2   -1    0    0  501    0  0.00000000000E+00  0.00000000000E+00 -0.13998103781E+04  0.13998103781E+04  0.25500000920E-02 0. -1.
    10030    2    1    2    0    0  0.00000000000E+00  0.00000000000E+00  0.64670794025E+03  0.34463286965E+04  0.33851071364E+04 0.  0.
        3    1    3    3  502    0 -0.14642388359E+04  0.49019375158E+03 -0.38232863293E+03  0.15907421150E+04  0.10100000352E+00 0. -1.
       -3    1    3    3    0  502  0.14642388359E+04 -0.49019375158E+03  0.10290365732E+04  0.18555865816E+04  0.10100000352E+00 0.  1.
</event>
<event>
 5   0  0.6584420E-08  0.3401039E+04  0.7818609E-02  0.8137651E-01
       -1   -1    0    0    0  501  0.00000000000E+00  0.00000000000E+00  0.92316031440E+03  0.92316031442E+03  0.50400001928E-02 0.  1.
        1   -1    0    0  501    0  0.00000000000E+00  0.00000000000E+00 -0.31324635769E+04  0.31324635769E+04  0.50400001928E-02 0. -1.
    10030    2    1    2    0    0  0.00000000000E+00  0.00000000000E+00 -0.22093032625E+04  0.40556238913E+04  0.34010387005E+04 0.  0.
        1    1    3    3  502    0  0.10233467342E+04  0.13495752584E+04 -0.92312182281E+03  0.19289234864E+04  0.50400001928E-02 0. -1.
       -1    1    3    3    0  502 -0.10233467342E+04 -0.13495752584E+04 -0.12861814397E+04  0.21267004049E+04  0.50400001928E-02 0.  1.
</event>
<event>
 5   0  0.6584420E-08  0.3399092E+04  0.7818609E-02  0.8138129E-01
        1   -1    0    0  501    0  0.00000000000E+00  0.00000000000E+00  0.11569693460E+04  0.11569693460E+04  0.50400001928E-02 0.  1.
       -1   -1    0    0    0  501  0.00000000000E+00  0.00000000000E+00 -0.24965707977E+04  0.24965707977E+04  0.50400001928E-02 0. -1.
    10030    2    1    2    0    0  0.00000000000E+00  0.00000000000E+00 -0.13396014517E+04  0.36535401438E+04  0.33990915746E+04 0.  0.
        1    1    3    3  502    0  0.25613600561E+03  0.14702985531E+04  0.20412702365E+03  0.15063370573E+04  0.50400001928E-02 0.  1.
       -1    1    3    3    0  502 -0.25613600561E+03 -0.14702985531E+04 -0.15437284754E+04  0.21472030864E+04  0.50400001928E-02 0. -1.
</event>
<event>
 5   0  0.6788600E-08  0.3399188E+04  0.7818609E-02  0.8138106E-01
        1   -1    0    0  501    0  0.00000000000E+00  0.00000000000E+00  0.15021364155E+04  0.15021364155E+04  0.50400001928E-02 0.  1.
       -1   -1    0    0    0  501  0.00000000000E+00  0.00000000000E+00 -0.19230072503E+04  0.19230072503E+04  0.50400001928E-02 0. -1.
    10030    2    1    2    0    0  0.00000000000E+00  0.00000000000E+00 -0.42087083482E+03  0.34251436658E+04  0.33991876782E+04 0.  0.
        2    1    3    3  502    0  0.40110504246E+03  0.62204278298E+03  0.13312135648E+04  0.15231388755E+04  0.25500000920E-02 0.  1.
       -2    1    3    3    0  502 -0.40110504246E+03 -0.62204278298E+03 -0.17520843996E+04  0.19020047903E+04  0.25500000920E-02 0. -1.
</event>
<event>
 5   0  0.1970449E-07  0.3390619E+04  0.7818609E-02  0.8140213E-01
       -2   -1    0    0    0  501  0.00000000000E+00  0.00000000000E+00  0.13920405244E+04  0.13920405244E+04  0.25500000920E-02 0.  1.
        2   -1    0    0  501    0  0.00000000000E+00  0.00000000000E+00 -0.20646480500E+04  0.20646480500E+04  0.25500000920E-02 0. -1.
    10030    2    1    2    0    0  0.00000000000E+00  0.00000000000E+00 -0.67260752559E+03  0.34566885744E+04  0.33906186776E+04 0.  0.
        1    1    3    3  502    0  0.27473092559E+03  0.15638410202E+04  0.26940992414E+03  0.16104836309E+04  0.50400001928E-02 0.  1.
       -1    1    3    3    0  502 -0.27473092559E+03 -0.15638410202E+04 -0.94201744973E+03  0.18462049436E+04  0.50400001928E-02 0. -1.
</event>
<event>
 5   0  0.6311750E-08  0.3391386E+04  0.7818609E-02  0.8140024E-01
       -3   -1    0    0    0  501  0.00000000000E+00  0.00000000000E+00  0.19279723151E+04  0.19279723178E+04  0.10100000352E+00 0.  1.
        3   -1    0    0  501    0  0.00000000000E+00  0.00000000000E+00 -0.14913980483E+04  0.14913980517E+04  0.10100000352E+00 0. -1.
    10030    2    1    2    0    0  0.00000000000E+00  0.00000000000E+00  0.43657426682E+03  0.34193703695E+04  0.33913856510E+04 0.  0.
        1    1    3    3  502    0  0.12630597364E+03  0.62323905108E+03  0.18031978977E+04  0.19120415194E+04  0.50400001928E-02 0.  1.
       -1    1    3    3    0  502 -0.12630597364E+03 -0.62323905108E+03 -0.13666236309E+04  0.15073288501E+04  0.50400001928E-02 0. -1.
</event>
<event>
 5   0  0.1897313E-07  0.3400348E+04  0.7818609E-02  0.8137821E-01
       -2   -1    0    0    0  501  0.00000000000E+00  0.00000000000E+00  0.99582033681E+03  0.99582033681E+03  0.25500000920E-02 0.  1.
        2   -1    0    0  501    0  0.00000000000E+00  0.00000000000E+00 -0.29027237528E+04  0.29027237528E+04  0.25500000920E-02 0. -1.
    10030    2    1    2    0    0  0.00000000000E+00  0.00000000000E+00 -0.19069034160E+04  0.38985440896E+04  0.34003478323E+04 0.  0.
        3    1    3    3  502    0  0.57189068495E+01  0.71473602908E+03 -0.27220989368E+04  0.28143743407E+04  0.10100000352E+00 0. -1.
       -3    1    3    3    0  502 -0.57189068495E+01 -0.71473602908E+03  0.81519552085E+03  0.10841697490E+04  0.10100000352E+00 0.  1.
</event>
<event>
 5   0  0.1928004E-07  0.3423430E+04  0.7818609E-02  0.8132180E-01
        2   -1    0    0  501    0  0.00000000000E+00  0.00000000000E+00  0.18767663830E+04  0.18767663830E+04  0.25500000920E-02 0. -1.
       -2   -1    0    0    0  501  0.00000000000E+00  0.00000000000E+00 -0.15611786781E+04  0.15611786781E+04  0.25500000920E-02 0.  1.
    10030    2    1    2    0    0  0.00000000000E+00  0.00000000000E+00  0.31558770485E+03  0.34379450611E+04  0.34234296609E+04 0.  0.
        2    1    3    3  502    0 -0.53715999480E+03  0.78968999251E+03 -0.12687277721E+04  0.15880243398E+04  0.25500000920E-02 0.  1.
       -2    1    3    3    0  502  0.53715999480E+03 -0.78968999251E+03  0.15843154769E+04  0.18499207212E+04  0.25500000920E-02 0. -1.
</event>
<event>
 5   0  0.1963852E-07  0.3402338E+04  0.7818609E-02  0.8137333E-01
        2   -1    0    0  501    0  0.00000000000E+00  0.00000000000E+00  0.15090209855E+04  0.15090209856E+04  0.25500000920E-02 0.  1.
       -2   -1    0    0    0  501  0.00000000000E+00  0.00000000000E+00 -0.19177838995E+04  0.19177838995E+04  0.25500000920E-02 0. -1.
    10030    2    1    2    0    0  0.00000000000E+00  0.00000000000E+00 -0.40876291396E+03  0.34268048851E+04  0.34023381079E+04 0.  0.
        4    1    3    3  502    0  0.12237973915E+04 -0.19286414947E+03 -0.13785684868E+04  0.18534641408E+04  0.12699999809E+01 0. -1.
       -4    1    3    3    0  502 -0.12237973915E+04  0.19286414947E+03  0.96980557286E+03  0.15733407443E+04  0.12699999809E+01 0.  1.
</event>
<event>
 5   0  0.1897313E-07  0.3398947E+04  0.7818609E-02  0.8138165E-01
        2   -1    0    0  501    0  0.00000000000E+00  0.00000000000E+00  0.23888331087E+04  0.23888331087E+04  0.25500000920E-02 0. -1.
       -2   -1    0    0    0  501  0.00000000000E+00  0.00000000000E+00 -0.12090464710E+04  0.12090464710E+04  0.25500000920E-02 0.  1.
    10030    2    1    2    0    0  0.00000000000E+00  0.00000000000E+00  0.11797866377E+04  0.35978795796E+04  0.33989470368E+04 0.  0.
        3    1    3    3  502    0  0.15321562456E+04 -0.72650476670E+03  0.71011099770E+03  0.18383605675E+04  0.10100000352E+00 0.  1.
       -3    1    3    3    0  502 -0.15321562456E+04  0.72650476670E+03  0.46967563996E+03  0.17595190121E+04  0.10100000352E+00 0. -1.
</event>
<event>
 5   0  0.6584420E-08  0.3396246E+04  0.7818609E-02  0.8138828E-01
       -1   -1    0    0    0  501  0.00000000000E+00  0.00000000000E+00  0.14117887554E+04  0.14117887554E+04  0.50400001928E-02 0.  1.
        1   -1    0    0  501    0  0.00000000000E+00  0.00000000000E+00 -0.20425306130E+04  0.20425306130E+04  0.50400001928E-02 0. -1.
    10030    2    1    2    0    0  0.00000000000E+00  0.00000000000E+00 -0.63074185753E+03  0.34543193684E+04  0.33962460170E+04 0.  0.
        1    1    3    3  502    0  0.75055685852E+03 -0.10639887756E+04 -0.14240623456E+04  0.19296013258E+04  0.50400001928E-02 0. -1.
       -1    1    3    3    0  502 -0.75055685852E+03  0.10639887756E+04  0.79332048812E+03  0.15247180425E+04  0.50400001928E-02 0.  1.
</event>
<event>
 5   0  0.6311750E-08  0.3398180E+04  0.7818609E-02  0.8138353E-01
       -3   -1    0    0    0  501  0.00000000000E+00  0.00000000000E+00  0.21427427792E+04  0.21427427816E+04  0.10100000352E+00 0. -1.
        3   -1    0    0  501    0  0.00000000000E+00  0.00000000000E+00 -0.13472949736E+04  0.13472949774E+04  0.10100000352E+00 0.  1.
    10030    2    1    2    0    0  0.00000000000E+00  0.00000000000E+00  0.79544780556E+03  0.34900377590E+04  0.33981798581E+04 0.  0.
        4    1    3    3  502    0  0.12737550430E+04 -0.91966257132E+03  0.10622647280E+04  0.18964807196E+04  0.12699999809E+01 0. -1.
       -4    1    3    3    0  502 -0.12737550430E+04  0.91966257132E+03 -0.26681692243E+03  0.15935570394E+04  0.12699999809E+01 0.  1.
</event>
<event>
 5   0  0.1963852E-07  0.3369655E+04  0.7818609E-02  0.8145394E-01
        2   -1    0    0  501    0  0.00000000000E+00  0.00000000000E+00  0.20565089460E+04  0.20565089460E+04  0.25500000920E-02 0.  1.
       -2   -1    0    0    0  501  0.00000000000E+00  0.00000000000E+00 -0.13803214086E+04  0.13803214086E+04  0.25500000920E-02 0. -1.
    10030    2    1    2    0    0  0.00000000000E+00  0.00000000000E+00  0.67618753740E+03  0.34368303547E+04  0.33696547748E+04 0.  0.
        4    1    3    3  502    0  0.76302228851E+03  0.10755292866E+04 -0.73146573676E+03  0.15079820941E+04  0.12699999809E+01 0. -1.
       -4    1    3    3    0  502 -0.76302228851E+03 -0.10755292866E+04  0.14076532742E+04  0.19288482606E+04  0.12699999809E+01 0.  1.
</event>
<event>
 5   0  0.1928004E-07  0.3396843E+04  0.7818609E-02  0.8138682E-01
        2   -1    0    0  501    0  0.00000000000E+00  0.00000000000E+00  0.18339035263E+04  0.18339035263E+04  0.25500000920E-02 0. -1.
       -2   -1    0    0    0  501  0.00000000000E+00  0.00000000000E+00 -0.15729484144E+04  0.15729484144E+04  0.25500000920E-02 0.  1.
    10030    2    1    2    0    0  0.00000000000E+00  0.00000000000E+00  0.26095511197E+03  0.34068519407E+04  0.33968430307E+04 0.  0.
        2    1    3    3  502    0 -0.44219478370E+03  0.97312527277E+03  0.14542631175E+04  0.18048241571E+04  0.25500000920E-02 0. -1.
       -2    1    3    3    0  502  0.44219478370E+03 -0.97312527277E+03 -0.11933080055E+04  0.16020277836E+04  0.25500000920E-02 0.  1.
</event>
<event>
 5   0  0.6788600E-08  0.3402532E+04  0.7818609E-02  0.8137285E-01
       -1   -1    0    0    0  501  0.00000000000E+00  0.00000000000E+00  0.17242108741E+04  0.17242108741E+04  0.50400001928E-02 0. -1.
        1   -1    0    0  501    0  0.00000000000E+00  0.00000000000E+00 -0.16786261781E+04  0.16786261781E+04  0.50400001928E-02 0.  1.
    10030    2    1    2    0    0  0.00000000000E+00  0.00000000000E+00  0.45584696008E+02  0.34028370523E+04  0.34025317103E+04 0.  0.
        2    1    3    3  502    0  0.47988309713E+03  0.15719417541E+04  0.46216859769E+03  0.17073044479E+04  0.25500000920E-02 0. -1.
       -2    1    3    3    0  502 -0.47988309713E+03 -0.15719417541E+04 -0.41658390168E+03  0.16955326043E+04  0.25500000920E-02 0.  1.
</event>
<event>
 5   0  0.6788600E-08  0.3396262E+04  0.7818609E-02  0.8138824E-01
       -1   -1    0    0    0  501  0.00000000000E+00  0.00000000000E+00  0.26233947096E+04  0.26233947096E+04  0.50400001928E-02 0.  1.
        1   -1    0    0  501    0  0.00000000000E+00  0.00000000000E+00 -0.10992050519E+04  0.10992050519E+04  0.50400001928E-02 0. -1.
    10030    2    1    2    0    0  0.00000000000E+00  0.00000000000E+00  0.15241896576E+04  0.37225997615E+04  0.33962618968E+04 0.  0.
        2    1    3    3  502    0 -0.11696545970E+04  0.74448731513E+03  0.18367611095E+04  0.23013136709E+04  0.25500000920E-02 0.  1.
       -2    1    3    3    0  502  0.11696545970E+04 -0.74448731513E+03 -0.31257145186E+03  0.14212860906E+04  0.25500000920E-02 0. -1.
</event>
<event>
 5   0  0.1970449E-07  0.3395059E+04  0.7818609E-02  0.8139120E-01
       -2   -1    0    0    0  501  0.00000000000E+00  0.00000000000E+00  0.13730703139E+04  0.13730703139E+04  0.25500000920E-02 0. -1.
        2   -1    0    0  501    0  0.00000000000E+00  0.00000000000E+00 -0.20986594755E+04  0.20986594756E+04  0.25500000920E-02 0.  1.
    10030    2    1    2    0    0  0.00000000000E+00  0.00000000000E+00 -0.72558916163E+03  0.34717297895E+04  0.33950593661E+04 0.  0.
        1    1    3    3  502    0 -0.77984577137E+03  0.72097971574E+03  0.99136002271E+03  0.14528475048E+04  0.50400001928E-02 0. -1.
       -1    1    3    3    0  502  0.77984577137E+03 -0.72097971574E+03 -0.17169491843E+04  0.20188822846E+04  0.50400001928E-02 0.  1.
</event>
<event>
 5   0  0.6584420E-08  0.3400069E+04  0.7818609E-02  0.8137889E-01
       -1   -1    0    0    0  501  0.00000000000E+00  0.00000000000E+00  0.17731908824E+04  0.17731908824E+04  0.50400001928E-02 0. -1.
        1   -1    0    0  501    0  0.00000000000E+00  0.00000000000E+00 -0.16298959057E+04  0.16298959057E+04  0.50400001928E-02 0.  1.
    10030    2    1    2    0    0  0.00000000000E+00  0.00000000000E+00  0.14329497672E+03  0.34030867881E+04  0.34000685636E+04 0.  0.
        1    1    3    3  502    0  0.11314891959E+04 -0.49369601308E+02  0.13406102343E+04  0.17549760564E+04  0.50400001928E-02 0. -1.
       -1    1    3    3    0  502 -0.11314891959E+04  0.49369601308E+02 -0.11973152576E+04  0.16481107318E+04  0.50400001928E-02 0.  1.
</event>
<event>
 5   0  0.6341535E-08  0.3387128E+04  0.7818609E-02  0.8141073E-01
        1   -1    0    0  501    0  0.00000000000E+00  0.00000000000E+00  0.22291231525E+04  0.22291231525E+04  0.50400001928E-02 0.  1.
       -1   -1    0    0    0  501  0.00000000000E+00  0.00000000000E+00 -0.12866760560E+04  0.12866760560E+04  0.50400001928E-02 0. -1.
    10030    2    1    2    0    0  0.00000000000E+00  0.00000000000E+00  0.94244709645E+03  0.35157992085E+04  0.33871282150E+04 0.  0.
        5    1    3    3  502    0  0.12411515903E+04  0.90461821750E+03  0.12120199047E+04  0.19564778887E+04  0.46999998093E+01 0. -1.
       -5    1    3    3    0  502 -0.12411515903E+04 -0.90461821750E+03 -0.26957280826E+03  0.15593213198E+04  0.46999998093E+01 0.  1.
</event>
<event>
 5   0  0.6584420E-08  0.3401749E+04  0.7818609E-02  0.8137477E-01
       -1   -1    0    0    0  501  0.00000000000E+00  0.00000000000E+00  0.18996147057E+04  0.18996147057E+04  0.50400001928E-02 0. -1.
        1   -1    0    0  501    0  0.00000000000E+00  0.00000000000E+00 -0.15229266766E+04  0.15229266766E+04  0.50400001928E-02 0.  1.
    10030    2    1    2    0    0  0.00000000000E+00  0.00000000000E+00  0.37668802909E+03  0.34225413823E+04  0.34017489093E+04 0.  0.
        1    1    3    3  502    0 -0.13170568973E+04  0.48193931468E+03 -0.77986306266E+03  0.16047089363E+04  0.50400001928E-02 0.  1.
       -1    1    3    3    0  502  0.13170568973E+04 -0.48193931468E+03  0.11565510917E+04  0.18178324460E+04  0.50400001928E-02 0. -1.
</event>
<event>
 5   0  0.6367111E-08  0.3403970E+04  0.7818609E-02  0.8136933E-01
       -1   -1    0    0    0  501  0.00000000000E+00  0.00000000000E+00  0.12350846053E+04  0.12350846053E+04  0.50400001928E-02 0. -1.
        1   -1    0    0  501    0  0.00000000000E+00  0.00000000000E+00 -0.23453885182E+04  0.23453885182E+04  0.50400001928E-02 0.  1.
    10030    2    1    2    0    0  0.00000000000E+00  0.00000000000E+00 -0.11103039129E+04  0.35804731235E+04  0.34039701834E+04 0.  0.
        3    1    3    3  502    0 -0.62105328317E+03 -0.79761108271E+03  0.88510305906E+03  0.13436138043E+04  0.10100000352E+00 0. -1.
       -3    1    3    3    0  502  0.62105328317E+03  0.79761108271E+03 -0.19954069720E+04  0.22368593192E+04  0.10100000352E+00 0.  1.
</event>
<event>
 5   0  0.1970449E-07  0.3393247E+04  0.7818609E-02  0.8139566E-01
       -2   -1    0    0    0  501  0.00000000000E+00  0.00000000000E+00  0.17929774006E+04  0.17929774006E+04  0.25500000920E-02 0. -1.
        2   -1    0    0  501    0  0.00000000000E+00  0.00000000000E+00 -0.16054473560E+04  0.16054473560E+04  0.25500000920E-02 0.  1.
    10030    2    1    2    0    0  0.00000000000E+00  0.00000000000E+00  0.18753004459E+03  0.33984247566E+04  0.33932467209E+04 0.  0.
        1    1    3    3  502    0  0.16433045690E+04  0.25237328302E+03 -0.24496499302E+03  0.16805207610E+04  0.50400001928E-02 0.  1.
       -1    1    3    3    0  502 -0.16433045690E+04 -0.25237328302E+03  0.43249503761E+03  0.17179039956E+04  0.50400001928E-02 0. -1.
</event>
<event>
 5   0  0.1970449E-07  0.3451396E+04  0.7818609E-02  0.8125406E-01
        2   -1    0    0  501    0  0.00000000000E+00  0.00000000000E+00  0.17611178042E+04  0.17611178042E+04  0.25500000920E-02 0. -1.
       -2   -1    0    0    0  501  0.00000000000E+00  0.00000000000E+00 -0.16909905890E+04  0.16909905890E+04  0.25500000920E-02 0.  1.
    10030    2    1    2    0    0  0.00000000000E+00  0.00000000000E+00  0.70127215240E+02  0.34521083932E+04  0.34513960266E+04 0.  0.
        1    1    3    3  502    0 -0.12280324473E+04  0.29457753088E+02 -0.11772518171E+04  0.17014268399E+04  0.50400001928E-02 0.  1.
       -1    1    3    3    0  502  0.12280324473E+04 -0.29457753088E+02  0.12473790323E+04  0.17506815533E+04  0.50400001928E-02 0. -1.
</event>
<event>
 5   0  0.6311750E-08  0.3398893E+04  0.7818609E-02  0.8138178E-01
        3   -1    0    0  501    0  0.00000000000E+00  0.00000000000E+00  0.17772734336E+04  0.17772734365E+04  0.10100000352E+00 0. -1.
       -3   -1    0    0    0  501  0.00000000000E+00  0.00000000000E+00 -0.16250278066E+04  0.16250278097E+04  0.10100000352E+00 0.  1.
    10030    2    1    2    0    0  0.00000000000E+00  0.00000000000E+00  0.15224562705E+03  0.34023012462E+04  0.33988932079E+04 0.  0.
        3    1    3    3  502    0  0.97947394680E+03  0.21085510993E+02 -0.13139037558E+04  0.16389499385E+04  0.10100000352E+00 0.  1.
       -3    1    3    3    0  502 -0.97947394680E+03 -0.21085510993E+02  0.14661493828E+04  0.17633513077E+04  0.10100000352E+00 0. -1.
</event>
<event>
 5   0  0.1963852E-07  0.3426932E+04  0.7818609E-02  0.8131328E-01
       -2   -1    0    0    0  501  0.00000000000E+00  0.00000000000E+00  0.13570262284E+04  0.13570262284E+04  0.25500000920E-02 0. -1.
        2   -1    0    0  501    0  0.00000000000E+00  0.00000000000E+00 -0.21635295618E+04  0.21635295618E+04  0.25500000920E-02 0.  1.
    10030    2    1    2    0    0  0.00000000000E+00  0.00000000000E+00 -0.80650333342E+03  0.35205557901E+04  0.34269323665E+04 0.  0.
        4    1    3    3  502    0  0.53825748377E+03 -0.16077008130E+04 -0.14839820807E+03  0.17018950214E+04  0.12699999809E+01 0.  1.
       -4    1    3    3    0  502 -0.53825748377E+03  0.16077008130E+04 -0.65810512535E+03  0.18186607687E+04  0.12699999809E+01 0. -1.
</event>
<event>
 5   0  0.6788600E-08  0.3402825E+04  0.7818609E-02  0.8137213E-01
       -1   -1    0    0    0  501  0.00000000000E+00  0.00000000000E+00  0.12495373054E+04  0.12495373054E+04  0.50400001928E-02 0.  1.
        1   -1    0    0  501    0  0.00000000000E+00  0.00000000000E+00 -0.23167008948E+04  0.23167008949E+04  0.50400001928E-02 0. -1.
    10030    2    1    2    0    0  0.00000000000E+00  0.00000000000E+00 -0.10671635895E+04  0.35662382002E+04  0.34028248227E+04 0.  0.
        2    1    3    3  502    0 -0.51661781908E+02 -0.36134586547E+03 -0.22751815089E+04  0.23042766050E+04  0.25500000920E-02 0. -1.
       -2    1    3    3    0  502  0.51661781908E+02  0.36134586547E+03  0.12080179194E+04  0.12619615952E+04  0.25500000920E-02 0.  1.
</event>
<event>
 5   0  0.1986613E-07  0.3404743E+04  0.7818609E-02  0.8136743E-01
        2   -1    0    0  501    0  0.00000000000E+00  0.00000000000E+00  0.23256705758E+04  0.23256705758E+04  0.25500000920E-02 0.  1.
       -2   -1    0    0    0  501  0.00000000000E+00  0.00000000000E+00 -0.12461215910E+04  0.12461215910E+04  0.25500000920E-02 0. -1.
    10030    2    1    2    0    0  0.00000000000E+00  0.00000000000E+00  0.10795489848E+04  0.35717921668E+04  0.34047427615E+04 0.  0.
        5    1    3    3  502    0 -0.10645429262E+04  0.82142778997E+03  0.16350547977E+04  0.21169368289E+04  0.46999998093E+01 0.  1.
       -5    1    3    3    0  502  0.10645429262E+04 -0.82142778997E+03 -0.55550581293E+03  0.14548553379E+04  0.46999998093E+01 0. -1.
</event>
<event>
 5   0  0.1986613E-07  0.3401160E+04  0.7818609E-02  0.8137622E-01
        2   -1    0    0  501    0  0.00000000000E+00  0.00000000000E+00  0.10452352938E+04  0.10452352938E+04  0.25500000920E-02 0. -1.
       -2   -1    0    0    0  501  0.00000000000E+00  0.00000000000E+00 -0.27668149863E+04  0.27668149863E+04  0.25500000920E-02 0.  1.
    10030    2    1    2    0    0  0.00000000000E+00  0.00000000000E+00 -0.17215796925E+04  0.38120502801E+04  0.34011601992E+04 0.  0.
        5    1    3    3  502    0 -0.29676384806E+03  0.63588440253E+02  0.10146278434E+04  0.10590580824E+04  0.46999998093E+01 0. -1.
       -5    1    3    3    0  502  0.29676384806E+03 -0.63588440253E+02 -0.27362075359E+04  0.27529921978E+04  0.46999998093E+01 0.  1.
</event>
<event>
 5   0  0.1897313E-07  0.3401170E+04  0.7818609E-02  0.8137619E-01
        2   -1    0    0  501    0  0.00000000000E+00  0.00000000000E+00  0.85658921799E+03  0.85658921799E+03  0.25500000920E-02 0.  1.
       -2   -1    0    0    0  501  0.00000000000E+00  0.00000000000E+00 -0.33761674342E+04  0.33761674342E+04  0.25500000920E-02 0. -1.
    10030    2    1    2    0    0  0.00000000000E+00  0.00000000000E+00 -0.25195782163E+04  0.42327566522E+04  0.34011695767E+04 0.  0.
        3    1    3    3  502    0 -0.71347952841E+03  0.14050711471E+04 -0.46417405666E+03  0.16427828618E+04  0.10100000352E+00 0.  1.
       -3    1    3    3    0  502  0.71347952841E+03 -0.14050711471E+04 -0.20554041596E+04  0.25899737905E+04  0.10100000352E+00 0. -1.
</event>
<event>
 5   0  0.1986613E-07  0.3395479E+04  0.7818609E-02  0.8139017E-01
       -2   -1    0    0    0  501  0.00000000000E+00  0.00000000000E+00  0.11401277149E+04  0.11401277149E+04  0.25500000920E-02 0. -1.
        2   -1    0    0  501    0  0.00000000000E+00  0.00000000000E+00 -0.25280665041E+04  0.25280665041E+04  0.25500000920E-02 0.  1.
    10030    2    1    2    0    0  0.00000000000E+00  0.00000000000E+00 -0.13879387893E+04  0.36681942190E+04  0.33954785739E+04 0.  0.
        5    1    3    3  502    0  0.44553441472E+03  0.16332191441E+04 -0.83227916093E+03  0.18864295320E+04  0.46999998093E+01 0.  1.
       -5    1    3    3    0  502 -0.44553441472E+03 -0.16332191441E+04 -0.55565962836E+03  0.17817646870E+04  0.46999998093E+01 0. -1.
</event>
<event>
 5   0  0.1928004E-07  0.3410812E+04  0.7818609E-02  0.8135258E-01
       -2   -1    0    0    0  501  0.00000000000E+00  0.00000000000E+00  0.12507657595E+04  0.12507657595E+04  0.25500000920E-02 0.  1.
        2   -1    0    0  501    0  0.00000000000E+00  0.00000000000E+00 -0.23253025760E+04  0.23253025760E+04  0.25500000920E-02 0. -1.
    10030    2    1    2    0    0  0.00000000000E+00  0.00000000000E+00 -0.10745368164E+04  0.35760683355E+04  0.34108115413E+04 0.  0.
        2    1    3    3  502    0 -0.11730840052E+04  0.24018157179E+03 -0.18104329888E+04  0.21705945908E+04  0.25500000920E-02 0.  1.
       -2    1    3    3    0  502  0.11730840052E+04 -0.24018157179E+03  0.73589617235E+03  0.14054737447E+04  0.25500000920E-02 0. -1.
</event>
<event>
 5   0  0.1986613E-07  0.3398696E+04  0.7818609E-02  0.8138226E-01
       -2   -1    0    0    0  501  0.00000000000E+00  0.00000000000E+00  0.19176849923E+04  0.19176849923E+04  0.25500000920E-02 0. -1.
        2   -1    0    0  501    0  0.00000000000E+00  0.00000000000E+00 -0.15058697543E+04  0.15058697543E+04  0.25500000920E-02 0.  1.
    10030    2    1    2    0    0  0.00000000000E+00  0.00000000000E+00  0.41181523795E+03  0.34235547466E+04  0.33986961195E+04 0.  0.
        5    1    3    3  502    0  0.10076452981E+04 -0.51623792085E+03  0.14824219401E+04  0.18653277290E+04  0.46999998093E+01 0. -1.
       -5    1    3    3    0  502 -0.10076452981E+04  0.51623792085E+03 -0.10706067022E+04  0.15582270177E+04  0.46999998093E+01 0.  1.
</event>
<event>
 5   0  0.1928004E-07  0.3408780E+04  0.7818609E-02  0.8135755E-01
       -2   -1    0    0    0  501  0.00000000000E+00  0.00000000000E+00  0.14140415277E+04  0.14140415277E+04  0.25500000920E-02 0.  1.
        2   -1    0    0  501    0  0.00000000000E+00  0.00000000000E+00 -0.20543562890E+04  0.20543562890E+04  0.25500000920E-02 0. -1.
    10030    2    1    2    0    0  0.00000000000E+00  0.00000000000E+00 -0.64031476133E+03  0.34683978166E+04  0.34087799021E+04 0.  0.
        2    1    3    3  502    0  0.16340267289E+04 -0.38530055754E+03 -0.61931527867E+03  0.17894276416E+04  0.25500000920E-02 0. -1.
       -2    1    3    3    0  502 -0.16340267289E+04  0.38530055754E+03 -0.20999482656E+02  0.16789701750E+04  0.25500000920E-02 0.  1.
</event>
<event>
 5   0  0.1963852E-07  0.3411668E+04  0.7818609E-02  0.8135048E-01
        2   -1    0    0  501    0  0.00000000000E+00  0.00000000000E+00  0.23484152892E+04  0.23484152892E+04  0.25500000920E-02 0.  1.
       -2   -1    0    0    0  501  0.00000000000E+00  0.00000000000E+00 -0.12390782017E+04  0.12390782017E+04  0.25500000920E-02 0. -1.
    10030    2    1    2    0    0  0.00000000000E+00  0.00000000000E+00  0.11093370875E+04  0.35874934909E+04  0.34116683271E+04 0.  0.
        4    1    3    3  502    0  0.15912662227E+03  0.15686787589E+04  0.12392133002E+04  0.20054240317E+04  0.12699999809E+01 0.  1.
       -4    1    3    3    0  502 -0.15912662227E+03 -0.15686787589E+04 -0.12987621267E+03  0.15820694593E+04  0.12699999809E+01 0. -1.
</event>
<event>
 5   0  0.1970449E-07  0.3406283E+04  0.7818609E-02  0.8136366E-01
       -2   -1    0    0    0  501  0.00000000000E+00  0.00000000000E+00  0.10094017965E+04  0.10094017965E+04  0.25500000920E-02 0. -1.
        2   -1    0    0  501    0  0.00000000000E+00  0.00000000000E+00 -0.28736740638E+04  0.28736740638E+04  0.25500000920E-02 0.  1.
    10030    2    1    2    0    0  0.00000000000E+00  0.00000000000E+00 -0.18642722673E+04  0.38830758603E+04  0.34062834659E+04 0.  0.
        1    1    3    3  502    0 -0.20871753832E+03 -0.20858293524E+03 -0.28443125487E+04  0.28595775433E+04  0.50400001928E-02 0.  1.
       -1    1    3    3    0  502  0.20871753832E+03  0.20858293524E+03  0.98004028137E+03  0.10234983170E+04  0.50400001928E-02 0. -1.
</event>
<event>
 5   0  0.6584420E-08  0.3416930E+04  0.7818609E-02  0.8133764E-01
        1   -1    0    0  501    0  0.00000000000E+00  0.00000000000E+00  0.22410303345E+04  0.22410303345E+04  0.50400001928E-02 0. -1.
       -1   -1    0    0    0  501  0.00000000000E+00  0.00000000000E+00 -0.13024601709E+04  0.13024601709E+04  0.50400001928E-02 0.  1.
    10030    2    1    2    0    0  0.00000000000E+00  0.00000000000E+00  0.93857016365E+03  0.35434905054E+04  0.34169300563E+04 0.  0.
        1    1    3    3  502    0  0.10879689525E+04 -0.10499971322E+04 -0.35558972220E+03  0.15532593054E+04  0.50400001928E-02 0.  1.
       -1    1    3    3    0  502 -0.10879689525E+04  0.10499971322E+04  0.12941598859E+04  0.19902312000E+04  0.50400001928E-02 0. -1.
</event>
<event>
 5   0  0.6341535E-08  0.3385103E+04  0.7818609E-02  0.8141572E-01
        1   -1    0    0  501    0  0.00000000000E+00  0.00000000000E+00  0.25586847394E+04  0.25586847394E+04  0.50400001928E-02 0.  1.
       -1   -1    0    0    0  501  0.00000000000E+00  0.00000000000E+00 -0.11196104248E+04  0.11196104248E+04  0.50400001928E-02 0. -1.
    10030    2    1    2    0    0  0.00000000000E+00  0.00000000000E+00  0.14390743146E+04  0.36782951642E+04  0.33851027210E+04 0.  0.
        5    1    3    3  502    0 -0.41270410464E+03 -0.51859220011E+03  0.24118103772E+04  0.25012224878E+04  0.46999998093E+01 0.  1.
       -5    1    3    3    0  502  0.41270410464E+03  0.51859220011E+03 -0.97273606260E+03  0.11770726764E+04  0.46999998093E+01 0. -1.
</event>
<event>
 5   0  0.6788600E-08  0.3400818E+04  0.7818609E-02  0.8137706E-01
        1   -1    0    0  501    0  0.00000000000E+00  0.00000000000E+00  0.20245681611E+04  0.20245681611E+04  0.50400001928E-02 0. -1.
       -1   -1    0    0    0  501  0.00000000000E+00  0.00000000000E+00 -0.14281515765E+04  0.14281515765E+04  0.50400001928E-02 0.  1.
    10030    2    1    2    0    0  0.00000000000E+00  0.00000000000E+00  0.59641658464E+03  0.34527197376E+04  0.34008176728E+04 0.  0.
        2    1    3    3  502    0  0.10952453651E+04  0.12875850360E+04  0.48528268529E+03  0.17586747623E+04  0.25500000920E-02 0. -1.
       -2    1    3    3    0  502 -0.10952453651E+04 -0.12875850360E+04  0.11113389936E+03  0.16940449753E+04  0.25500000920E-02 0.  1.
</event>
<event>
 5   0  0.6341535E-08  0.3358821E+04  0.7818609E-02  0.8148088E-01
        1   -1    0    0  501    0  0.00000000000E+00  0.00000000000E+00  0.28238956058E+04  0.28238956058E+04  0.50400001928E-02 0. -1.
       -1   -1    0    0    0  501  0.00000000000E+00  0.00000000000E+00 -0.99876899266E+03  0.99876899267E+03  0.50400001928E-02 0.  1.
    10030    2    1    2    0    0  0.00000000000E+00  0.00000000000E+00  0.18251266132E+04  0.38226645985E+04  0.33588208465E+04 0.  0.
        5    1    3    3  502    0  0.64628910630E+03 -0.10357415150E+04 -0.39992835176E+03  0.12846847362E+04  0.46999998093E+01 0.  1.
       -5    1    3    3    0  502 -0.64628910630E+03  0.10357415150E+04  0.22250549649E+04  0.25379798624E+04  0.46999998093E+01 0. -1.
</event>
<event>
 5   0  0.1970449E-07  0.3396303E+04  0.7818609E-02  0.8138814E-01
       -2   -1    0    0    0  501  0.00000000000E+00  0.00000000000E+00  0.13517837223E+04  0.13517837223E+04  0.25500000920E-02 0. -1.
        2   -1    0    0  501    0  0.00000000000E+00  0.00000000000E+00 -0.21332688928E+04  0.21332688928E+04  0.25500000920E-02 0.  1.
    10030    2    1    2    0    0  0.00000000000E+00  0.00000000000E+00 -0.78148517050E+03  0.34850526152E+04  0.33963027926E+04 0.  0.
        1    1    3    3  502    0 -0.55644327766E+03 -0.85561399748E+03 -0.17834162672E+04  0.20548182440E+04  0.50400001928E-02 0.  1.
       -1    1    3    3    0  502  0.55644327766E+03  0.85561399748E+03  0.10019310967E+04  0.14302343712E+04  0.50400001928E-02 0. -1.
</event>
<event>
 5   0  0.1963852E-07  0.3384827E+04  0.7818609E-02  0.8141640E-01
        2   -1    0    0  501    0  0.00000000000E+00  0.00000000000E+00  0.23927643695E+04  0.23927643695E+04  0.25500000920E-02 0. -1.
       -2   -1    0    0    0  501  0.00000000000E+00  0.00000000000E+00 -0.11970522032E+04  0.11970522032E+04  0.25500000920E-02 0.  1.
    10030    2    1    2    0    0  0.00000000000E+00  0.00000000000E+00  0.11957121663E+04  0.35898165727E+04  0.33848272394E+04 0.  0.
        4    1    3    3  502    0  0.67594594655E+03  0.39221525929E+03  0.21899441494E+04  0.23252081031E+04  0.12699999809E+01 0. -1.
       -4    1    3    3    0  502 -0.67594594655E+03 -0.39221525929E+03 -0.99423198308E+03  0.12646084696E+04  0.12699999809E+01 0.  1.
</event>
<event>
 5   0  0.6311750E-08  0.3394525E+04  0.7818609E-02  0.8139251E-01
       -1   -1    0    0    0  501  0.00000000000E+00  0.00000000000E+00  0.16205398532E+04  0.16205398532E+04  0.50400001928E-02 0. -1.
        1   -1    0    0  501    0  0.00000000000E+00  0.00000000000E+00 -0.17776170097E+04  0.17776170097E+04  0.50400001928E-02 0.  1.
    10030    2    1    2    0    0  0.00000000000E+00  0.00000000000E+00 -0.15707715650E+03  0.33981568630E+04  0.33945245370E+04 0.  0.
        4    1    3    3  502    0  0.91197975415E+03  0.84872859766E+03  0.10753657801E+04  0.16457401005E+04  0.12699999809E+01 0. -1.
       -4    1    3    3    0  502 -0.91197975415E+03 -0.84872859766E+03 -0.12324429366E+04  0.17524167625E+04  0.12699999809E+01 0.  1.
</event>
<event>
 5   0  0.6788600E-08  0.3399061E+04  0.7818609E-02  0.8138137E-01
        1   -1    0    0  501    0  0.00000000000E+00  0.00000000000E+00  0.23633689231E+04  0.23633689231E+04  0.50400001928E-02 0. -1.
       -1   -1    0    0    0  501  0.00000000000E+00  0.00000000000E+00 -0.12221553638E+04  0.12221553638E+04  0.50400001928E-02 0.  1.
    10030    2    1    2    0    0  0.00000000000E+00  0.00000000000E+00  0.11412135592E+04  0.35855242869E+04  0.33990610504E+04 0.  0.
        2    1    3    3  502    0 -0.12136103481E+04  0.10823412470E+04  0.10917653713E+04  0.19586383735E+04  0.25500000920E-02 0. -1.
       -2    1    3    3    0  502  0.12136103481E+04 -0.10823412470E+04  0.49448187932E+02  0.16268859134E+04  0.25500000920E-02 0.  1.
</event>
<event>
 5   0  0.6788600E-08  0.3409257E+04  0.7818609E-02  0.8135638E-01
       -1   -1    0    0    0  501  0.00000000000E+00  0.00000000000E+00  0.25592526914E+04  0.25592526914E+04  0.50400001928E-02 0.  1.
        1   -1    0    0  501    0  0.00000000000E+00  0.00000000000E+00 -0.11353935150E+04  0.11353935150E+04  0.50400001928E-02 0. -1.
    10030    2    1    2    0    0  0.00000000000E+00  0.00000000000E+00  0.14238591764E+04  0.36946462064E+04  0.34092573438E+04 0.  0.
        2    1    3    3  502    0  0.16896392086E+03  0.19040586422E+03  0.25385373730E+04  0.25512693299E+04  0.25500000920E-02 0.  1.
       -2    1    3    3    0  502 -0.16896392086E+03 -0.19040586422E+03 -0.11146781966E+04  0.11433768765E+04  0.25500000920E-02 0. -1.
</event>
<event>
 5   0  0.1928004E-07  0.3415962E+04  0.7818609E-02  0.8134000E-01
       -2   -1    0    0    0  501  0.00000000000E+00  0.00000000000E+00  0.14921418686E+04  0.14921418686E+04  0.25500000920E-02 0. -1.
        2   -1    0    0  501    0  0.00000000000E+00  0.00000000000E+00 -0.19550417196E+04  0.19550417196E+04  0.25500000920E-02 0.  1.
    10030    2    1    2    0    0  0.00000000000E+00  0.00000000000E+00 -0.46289985106E+03  0.34471835882E+04  0.34159622976E+04 0.  0.
        2    1    3    3  502    0 -0.77822458374E+03  0.12602154662E+04 -0.10897665516E+04  0.18388495482E+04  0.25500000920E-02 0.  1.
       -2    1    3    3    0  502  0.77822458374E+03 -0.12602154662E+04  0.62686670056E+03  0.16083340400E+04  0.25500000920E-02 0. -1.
</event>
<event>
 5   0  0.6584420E-08  0.3399161E+04  0.7818609E-02  0.8138112E-01
       -1   -1    0    0    0  501  0.00000000000E+00  0.00000000000E+00  0.12267892929E+04  0.12267892929E+04  0.50400001928E-02 0.  1.
        1   -1    0    0  501    0  0.00000000000E+00  0.00000000000E+00 -0.23545802393E+04  0.23545802393E+04  0.50400001928E-02 0. -1.
    10030    2    1    2    0    0  0.00000000000E+00  0.00000000000E+00 -0.11277909464E+04  0.35813695322E+04  0.33991609711E+04 0.  0.
        1    1    3    3  502    0 -0.59780100000E+03  0.88848730377E+02  0.11097482973E+04  0.12636460802E+04  0.50400001928E-02 0.  1.
       -1    1    3    3    0  502  0.59780100000E+03 -0.88848730377E+02 -0.22375392438E+04  0.23177234520E+04  0.50400001928E-02 0. -1.
</event>
<event>
 5   0  0.6311750E-08  0.3394019E+04  0.7818609E-02  0.8139376E-01
       -1   -1    0    0    0  501  0.00000000000E+00  0.00000000000E+00  0.12618226073E+04  0.12618226073E+04  0.50400001928E-02 0.  1.
        1   -1    0    0  501    0  0.00000000000E+00  0.00000000000E+00 -0.22822864467E+04  0.22822864467E+04  0.50400001928E-02 0. -1.
    10030    2    1    2    0    0  0.00000000000E+00  0.00000000000E+00 -0.10204638394E+04  0.35441090540E+04  0.33940186415E+04 0.  0.
        4    1    3    3  502    0 -0.47807978117E+03 -0.12334816091E+04 -0.16201578488E+04  0.20916381678E+04  0.12699999809E+01 0. -1.
       -4    1    3    3    0  502  0.47807978117E+03  0.12334816091E+04  0.59969400938E+03  0.14524708861E+04  0.12699999809E+01 0.  1.
</event>
<event>
 5   0  0.6367111E-08  0.3400496E+04  0.7818609E-02  0.8137785E-01
        1   -1    0    0  501    0  0.00000000000E+00  0.00000000000E+00  0.26260059774E+04  0.26260059774E+04  0.50400001928E-02 0.  1.
       -1   -1    0    0    0  501  0.00000000000E+00  0.00000000000E+00 -0.11008518083E+04  0.11008518084E+04  0.50400001928E-02 0. -1.
    10030    2    1    2    0    0  0.00000000000E+00  0.00000000000E+00  0.15251541691E+04  0.37268577858E+04  0.34004960985E+04 0.  0.
        3    1    3    3  502    0 -0.23173426389E+03  0.16791424820E+04  0.61708391103E+03  0.18038882469E+04  0.10100000352E+00 0.  1.
       -3    1    3    3    0  502  0.23173426389E+03 -0.16791424820E+04  0.90807025805E+03  0.19229695389E+04  0.10100000352E+00 0. -1.
</event>
<event>
 5   0  0.6311750E-08  0.3422913E+04  0.7818609E-02  0.8132306E-01
       -1   -1    0    0    0  501  0.00000000000E+00  0.00000000000E+00  0.12113814093E+04  0.12113814093E+04  0.50400001928E-02 0.  1.
        1   -1    0    0  501    0  0.00000000000E+00  0.00000000000E+00 -0.24179694428E+04  0.24179694428E+04  0.50400001928E-02 0. -1.
    10030    2    1    2    0    0  0.00000000000E+00  0.00000000000E+00 -0.12065880335E+04  0.36293508522E+04  0.34229129299E+04 0.  0.
        4    1    3    3  502    0  0.12019836974E+04 -0.70187663745E+03 -0.16591877005E+04  0.21657102903E+04  0.12699999809E+01 0. -1.
       -4    1    3    3    0  502 -0.12019836974E+04  0.70187663745E+03  0.45259966701E+03  0.14636405619E+04  0.12699999809E+01 0.  1.
</event>
<event>
 5   0  0.1963852E-07  0.3445562E+04  0.7818609E-02  0.8126814E-01
        2   -1    0    0  501    0  0.00000000000E+00  0.00000000000E+00  0.11248116856E+04  0.11248116856E+04  0.25500000920E-02 0. -1.
       -2   -1    0    0    0  501  0.00000000000E+00  0.00000000000E+00 -0.26386404995E+04  0.26386404995E+04  0.25500000920E-02 0.  1.
    10030    2    1    2    0    0  0.00000000000E+00  0.00000000000E+00 -0.15138288139E+04  0.37634521852E+04  0.34455615903E+04 0.  0.
        4    1    3    3  502    0 -0.10226463767E+04 -0.12377774651E+04 -0.74733519476E+02  0.16073224247E+04  0.12699999809E+01 0. -1.
       -4    1    3    3    0  502  0.10226463767E+04  0.12377774651E+04 -0.14390952944E+04  0.21561297605E+04  0.12699999809E+01 0.  1.
</event>
<event>
 5   0  0.1928004E-07  0.3408786E+04  0.7818609E-02  0.8135753E-01
        2   -1    0    0  501    0  0.00000000000E+00  0.00000000000E+00  0.18916668488E+04  0.18916668488E+04  0.25500000920E-02 0. -1.
       -2   -1    0    0    0  501  0.00000000000E+00  0.00000000000E+00 -0.15356590879E+04  0.15356590879E+04  0.25500000920E-02 0.  1.
    10030    2    1    2    0    0  0.00000000000E+00  0.00000000000E+00  0.35600776088E+03  0.34273259366E+04  0.34087859349E+04 0.  0.
        2    1    3    3  502    0  0.16322934711E+04 -0.29374915414E+03  0.57293132416E+03  0.17546853973E+04  0.25500000920E-02 0. -1.
       -2    1    3    3    0  502 -0.16322934711E+04  0.29374915414E+03 -0.21692356328E+03  0.16726405393E+04  0.25500000920E-02 0.  1.
</event>
<event>
 5   0  0.1986613E-07  0.3392689E+04  0.7818609E-02  0.8139703E-01
       -2   -1    0    0    0  501  0.00000000000E+00  0.00000000000E+00  0.26776328369E+04  0.26776328369E+04  0.25500000920E-02 0.  1.
        2   -1    0    0  501    0  0.00000000000E+00  0.00000000000E+00 -0.10746750906E+04  0.10746750906E+04  0.25500000920E-02 0. -1.
    10030    2    1    2    0    0  0.00000000000E+00  0.00000000000E+00  0.16029577463E+04  0.37523079275E+04  0.33926893825E+04 0.  0.
        5    1    3    3  502    0  0.73774795711E+03  0.23080344085E+03 -0.86854926859E+03  0.11627304926E+04  0.46999998093E+01 0. -1.
       -5    1    3    3    0  502 -0.73774795711E+03 -0.23080344085E+03  0.24715070149E+04  0.25895774349E+04  0.46999998093E+01 0.  1.
</event>
<event>
 5   0  0.1897313E-07  0.3357356E+04  0.7818609E-02  0.8148452E-01
        2   -1    0    0  501    0  0.00000000000E+00  0.00000000000E+00  0.16787357909E+04  0.16787357909E+04  0.25500000920E-02 0. -1.
       -2   -1    0    0    0  501  0.00000000000E+00  0.00000000000E+00 -0.16786207041E+04  0.16786207041E+04  0.25500000920E-02 0.  1.
    10030    2    1    2    0    0  0.00000000000E+00  0.00000000000E+00  0.11508673972E+00  0.33573564950E+04  0.33573564930E+04 0.  0.
        3    1    3    3  502    0  0.66864873052E+03 -0.72847650352E+03 -0.13564790416E+04  0.16786317468E+04  0.10100000352E+00 0.  1.
       -3    1    3    3    0  502 -0.66864873052E+03  0.72847650352E+03  0.13565941283E+04  0.16787247482E+04  0.10100000352E+00 0. -1.
</event>
<event>
 5   0  0.1970449E-07  0.3432286E+04  0.7818609E-02  0.8130027E-01
        2   -1    0    0  501    0  0.00000000000E+00  0.00000000000E+00  0.16761063310E+04  0.16761063310E+04  0.25500000920E-02 0.  1.
       -2   -1    0    0    0  501  0.00000000000E+00  0.00000000000E+00 -0.17571363448E+04  0.17571363448E+04  0.25500000920E-02 0. -1.
    10030    2    1    2    0    0  0.00000000000E+00  0.00000000000E+00 -0.81030013797E+02  0.34332426758E+04  0.34322863237E+04 0.  0.
        1    1    3    3  502    0  0.79462911877E+02  0.10243853244E+04  0.13344470987E+04  0.16841700349E+04  0.50400001928E-02 0.  1.
       -1    1    3    3    0  502 -0.79462911877E+02 -0.10243853244E+04 -0.14154771125E+04  0.17490726409E+04  0.50400001928E-02 0. -1.
</event>
<event>
 5   0  0.6367111E-08  0.3398510E+04  0.7818609E-02  0.8138272E-01
        1   -1    0    0  501    0  0.00000000000E+00  0.00000000000E+00  0.17263444554E+04  0.17263444554E+04  0.50400001928E-02 0.  1.
       -1   -1    0    0    0  501  0.00000000000E+00  0.00000000000E+00 -0.16725907811E+04  0.16725907811E+04  0.50400001928E-02 0. -1.
    10030    2    1    2    0    0  0.00000000000E+00  0.00000000000E+00  0.53753674273E+02  0.33989352365E+04  0.33985101566E+04 0.  0.
        3    1    3    3  502    0 -0.23359430085E+03  0.12675285309E+04 -0.10806337570E+04  0.16819524967E+04  0.10100000352E+00 0. -1.
       -3    1    3    3    0  502  0.23359430085E+03 -0.12675285309E+04  0.11343874313E+04  0.17169827398E+04  0.10100000352E+00 0.  1.
</event>
<event>
 5   0  0.6367111E-08  0.3425657E+04  0.7818609E-02  0.8131638E-01
       -1   -1    0    0    0  501  0.00000000000E+00  0.00000000000E+00  0.14164103827E+04  0.14164103827E+04  0.50400001928E-02 0. -1.
        1   -1    0    0  501    0  0.00000000000E+00  0.00000000000E+00 -0.20712788224E+04  0.20712788224E+04  0.50400001928E-02 0.  1.
    10030    2    1    2    0    0  0.00000000000E+00  0.00000000000E+00 -0.65486843977E+03  0.34876892051E+04  0.34256566258E+04 0.  0.
        3    1    3    3  502    0  0.14709003616E+04  0.87556720623E+03 -0.26622048464E+03  0.17323507621E+04  0.10100000352E+00 0. -1.
       -3    1    3    3    0  502 -0.14709003616E+04 -0.87556720623E+03 -0.38864795513E+03  0.17553384430E+04  0.10100000352E+00 0.  1.
</event>
<event>
 5   0  0.1897313E-07  0.3374804E+04  0.7818609E-02  0.8144118E-01
       -2   -1    0    0    0  501  0.00000000000E+00  0.00000000000E+00  0.31491316675E+04  0.31491316675E+04  0.25500000920E-02 0. -1.
        2   -1    0    0  501    0  0.00000000000E+00  0.00000000000E+00 -0.90416217100E+03  0.90416217100E+03  0.25500000920E-02 0.  1.
    10030    2    1    2    0    0  0.00000000000E+00  0.00000000000E+00  0.22449694965E+04  0.40532938385E+04  0.33748041278E+04 0.  0.
        3    1    3    3  502    0 -0.13965133793E+04 -0.46637371735E+03  0.13238911725E+03  0.14782695800E+04  0.10100000352E+00 0.  1.
       -3    1    3    3    0  502  0.13965133793E+04  0.46637371735E+03  0.21125803792E+04  0.25750242584E+04  0.10100000352E+00 0. -1.
</event>
<event>
 5   0  0.6311750E-08  0.3397340E+04  0.7818609E-02  0.8138560E-01
       -1   -1    0    0    0  501  0.00000000000E+00  0.00000000000E+00  0.26561741333E+04  0.26561741333E+04  0.50400001928E-02 0.  1.
        1   -1    0    0  501    0  0.00000000000E+00  0.00000000000E+00 -0.10863291374E+04  0.10863291374E+04  0.50400001928E-02 0. -1.
    10030    2    1    2    0    0  0.00000000000E+00  0.00000000000E+00  0.15698449959E+04  0.37425032707E+04  0.33973397563E+04 0.  0.
        4    1    3    3  502    0 -0.12283607446E+04  0.94756627743E+03  0.15471184041E+04  0.21909652982E+04  0.12699999809E+01 0.  1.
       -4    1    3    3    0  502  0.12283607446E+04 -0.94756627743E+03  0.22726591802E+02  0.15515379724E+04  0.12699999809E+01 0. -1.
</event>
<event>
 5   0  0.1970449E-07  0.3405546E+04  0.7818609E-02  0.8136546E-01
       -2   -1    0    0    0  501  0.00000000000E+00  0.00000000000E+00  0.12046601014E+04  0.12046601014E+04  0.25500000920E-02 0. -1.
        2   -1    0    0  501    0  0.00000000000E+00  0.00000000000E+00 -0.24068503885E+04  0.24068503885E+04  0.25500000920E-02 0.  1.
    10030    2    1    2    0    0  0.00000000000E+00  0.00000000000E+00 -0.12021902870E+04  0.36115104899E+04  0.34055464367E+04 0.  0.
        1    1    3    3  502    0  0.91308310324E+03  0.12515852156E+03 -0.21194889742E+04  0.23111942629E+04  0.50400001928E-02 0.  1.
       -1    1    3    3    0  502 -0.91308310324E+03 -0.12515852156E+03  0.91729868713E+03  0.13003162271E+04  0.50400001928E-02 0. -1.
</event>
<event>
 5   0  0.1897313E-07  0.3400541E+04  0.7818609E-02  0.8137774E-01
       -2   -1    0    0    0  501  0.00000000000E+00  0.00000000000E+00  0.13368009939E+04  0.13368009939E+04  0.25500000920E-02 0.  1.
        2   -1    0    0  501    0  0.00000000000E+00  0.00000000000E+00 -0.21625655643E+04  0.21625655643E+04  0.25500000920E-02 0. -1.
    10030    2    1    2    0    0  0.00000000000E+00  0.00000000000E+00 -0.82576457044E+03  0.34993665582E+04  0.34005410133E+04 0.  0.
        3    1    3    3  502    0 -0.10597997758E+04  0.13122210804E+04 -0.19260524508E+03  0.16977033072E+04  0.10100000352E+00 0.  1.
       -3    1    3    3    0  502  0.10597997758E+04 -0.13122210804E+04 -0.63315932536E+03  0.18016632510E+04  0.10100000352E+00 0. -1.
</event>
<event>
 5   0  0.6367111E-08  0.3395573E+04  0.7818609E-02  0.8138994E-01
        1   -1    0    0  501    0  0.00000000000E+00  0.00000000000E+00  0.24091062759E+04  0.24091062759E+04  0.50400001928E-02 0. -1.
       -1   -1    0    0    0  501  0.00000000000E+00  0.00000000000E+00 -0.11964932110E+04  0.11964932110E+04  0.50400001928E-02 0.  1.
    10030    2    1    2    0    0  0.00000000000E+00  0.00000000000E+00  0.12126130649E+04  0.36055994869E+04  0.33955731792E+04 0.  0.
        3    1    3    3  502    0  0.11811517601E+04 -0.12183850925E+04  0.54914786637E+03  0.17835764921E+04  0.10100000352E+00 0.  1.
       -3    1    3    3    0  502 -0.11811517601E+04  0.12183850925E+04  0.66346519853E+03  0.18220229948E+04  0.10100000352E+00 0. -1.
</event>
<event>
 5   0  0.1897313E-07  0.3410634E+04  0.7818609E-02  0.8135301E-01
        2   -1    0    0  501    0  0.00000000000E+00  0.00000000000E+00  0.26373233875E+04  0.26373233875E+04  0.25500000920E-02 0.  1.
       -2   -1    0    0    0  501  0.00000000000E+00  0.00000000000E+00 -0.11026730864E+04  0.11026730864E+04  0.25500000920E-02 0. -1.
    10030    2    1    2    0    0  0.00000000000E+00  0.00000000000E+00  0.15346503011E+04  0.37399964739E+04  0.34106336769E+04 0.  0.
        3    1    3    3  502    0  0.13489985026E+04 -0.89191688026E+03  0.17396779025E+03  0.16265231273E+04  0.10100000352E+00 0.  1.
       -3    1    3    3    0  502 -0.13489985026E+04  0.89191688026E+03  0.13606825108E+04  0.21134733466E+04  0.10100000352E+00 0. -1.
</event>
<event>
 5   0  0.1970449E-07  0.3400235E+04  0.7818609E-02  0.8137849E-01
        2   -1    0    0  501    0  0.00000000000E+00  0.00000000000E+00  0.19225825382E+04  0.19225825382E+04  0.25500000920E-02 0. -1.
       -2   -1    0    0    0  501  0.00000000000E+00  0.00000000000E+00 -0.15033943196E+04  0.15033943196E+04  0.25500000920E-02 0.  1.
    10030    2    1    2    0    0  0.00000000000E+00  0.00000000000E+00  0.41918821857E+03  0.34259768578E+04  0.34002350900E+04 0.  0.
        1    1    3    3  502    0 -0.37893539885E+03  0.11868531257E+04 -0.95596399971E+03  0.15703756070E+04  0.50400001928E-02 0. -1.
       -1    1    3    3    0  502  0.37893539885E+03 -0.11868531257E+04  0.13751522183E+04  0.18556012508E+04  0.50400001928E-02 0.  1.
</event>
<event>
 5   0  0.6788600E-08  0.3405382E+04  0.7818609E-02  0.8136587E-01
       -1   -1    0    0    0  501  0.00000000000E+00  0.00000000000E+00  0.20973389312E+04  0.20973389312E+04  0.50400001928E-02 0. -1.
        1   -1    0    0  501    0  0.00000000000E+00  0.00000000000E+00 -0.13823020044E+04  0.13823020044E+04  0.50400001928E-02 0.  1.
    10030    2    1    2    0    0  0.00000000000E+00  0.00000000000E+00  0.71503692686E+03  0.34796409356E+04  0.34053815108E+04 0.  0.
        2    1    3    3  502    0 -0.54902637665E+03  0.53173071557E+03 -0.11971688589E+04  0.14203453076E+04  0.25500000920E-02 0.  1.
       -2    1    3    3    0  502  0.54902637665E+03 -0.53173071557E+03  0.19122057858E+04  0.20592956280E+04  0.25500000920E-02 0. -1.
</event>
<event>
 5   0  0.1963852E-07  0.3414656E+04  0.7818609E-02  0.8134319E-01
        2   -1    0    0  501    0  0.00000000000E+00  0.00000000000E+00  0.22742384030E+04  0.22742384030E+04  0.25500000920E-02 0. -1.
       -2   -1    0    0    0  501  0.00000000000E+00  0.00000000000E+00 -0.12817338423E+04  0.12817338423E+04  0.25500000920E-02 0.  1.
    10030    2    1    2    0    0  0.00000000000E+00  0.00000000000E+00  0.99250456072E+03  0.35559722452E+04  0.34146556643E+04 0.  0.
        4    1    3    3  502    0  0.38084178832E+03  0.33532233084E+03 -0.12013926955E+04  0.13041577953E+04  0.12699999809E+01 0.  1.
       -4    1    3    3    0  502 -0.38084178832E+03 -0.33532233084E+03  0.21938972562E+04  0.22518144499E+04  0.12699999809E+01 0. -1.
</event>
<event>
 5   0  0.1928004E-07  0.3408488E+04  0.7818609E-02  0.8135826E-01
        2   -1    0    0  501    0  0.00000000000E+00  0.00000000000E+00  0.22121086981E+04  0.22121086981E+04  0.25500000920E-02 0. -1.
       -2   -1    0    0    0  501  0.00000000000E+00  0.00000000000E+00 -0.13129768328E+04  0.13129768328E+04  0.25500000920E-02 0.  1.
    10030    2    1    2    0    0  0.00000000000E+00  0.00000000000E+00  0.89913186527E+03  0.35250855309E+04  0.34084879183E+04 0.  0.
        2    1    3    3  502    0 -0.84327140721E+03 -0.11223834540E+04  0.14488464840E+04  0.20174259387E+04  0.25500000920E-02 0. -1.
       -2    1    3    3    0  502  0.84327140721E+03  0.11223834540E+04 -0.54971461875E+03  0.15076595922E+04  0.25500000920E-02 0.  1.
</event>
<event>
 5   0  0.6367111E-08  0.3395733E+04  0.7818609E-02  0.8138954E-01
       -1   -1    0    0    0  501  0.00000000000E+00  0.00000000000E+00  0.10671390484E+04  0.10671390484E+04  0.50400001928E-02 0. -1.
        1   -1    0    0  501    0  0.00000000000E+00  0.00000000000E+00 -0.27013818727E+04  0.27013818727E+04  0.50400001928E-02 0.  1.
    10030    2    1    2    0    0  0.00000000000E+00  0.00000000000E+00 -0.16342428243E+04  0.37685209211E+04  0.33957326638E+04 0.  0.
        3    1    3    3  502    0  0.10897813953E+04  0.57001195818E+01 -0.22620099414E+04  0.25108454684E+04  0.10100000352E+00 0.  1.
       -3    1    3    3    0  502 -0.10897813953E+04 -0.57001195818E+01  0.62776711711E+03  0.12576754527E+04  0.10100000352E+00 0. -1.
</event>
<event>
 5   0  0.6311750E-08  0.3400639E+04  0.7818609E-02  0.8137749E-01
       -1   -1    0    0    0  501  0.00000000000E+00  0.00000000000E+00  0.10902062705E+04  0.10902062705E+04  0.50400001928E-02 0. -1.
        1   -1    0    0  501    0  0.00000000000E+00  0.00000000000E+00 -0.26518716736E+04  0.26518716736E+04  0.50400001928E-02 0.  1.
    10030    2    1    2    0    0  0.00000000000E+00  0.00000000000E+00 -0.15616654031E+04  0.37420779442E+04  0.34006394265E+04 0.  0.
        4    1    3    3  502    0 -0.59376417715E+03  0.64705315185E+03 -0.23829894273E+04  0.25396601944E+04  0.12699999809E+01 0.  1.
       -4    1    3    3    0  502  0.59376417715E+03 -0.64705315185E+03  0.82132402421E+03  0.12024177498E+04  0.12699999809E+01 0. -1.
</event>
<event>
 5   0  0.6341535E-08  0.3395466E+04  0.7818609E-02  0.8139020E-01
       -1   -1    0    0    0  501  0.00000000000E+00  0.00000000000E+00  0.16451123159E+04  0.16451123159E+04  0.50400001928E-02 0. -1.
        1   -1    0    0  501    0  0.00000000000E+00  0.00000000000E+00 -0.17520368085E+04  0.17520368085E+04  0.50400001928E-02 0.  1.
    10030    2    1    2    0    0  0.00000000000E+00  0.00000000000E+00 -0.10692449255E+03  0.33971491244E+04  0.33954659954E+04 0.  0.
        5    1    3    3  502    0  0.10858532660E+04 -0.11588571991E+04 -0.65396633119E+03  0.17174752911E+04  0.46999998093E+01 0.  1.
       -5    1    3    3    0  502 -0.10858532660E+04  0.11588571991E+04  0.54704183864E+03  0.16796738333E+04  0.46999998093E+01 0. -1.
</event>
<event>
 5   0  0.6311750E-08  0.3409291E+04  0.7818609E-02  0.8135630E-01
       -1   -1    0    0    0  501  0.00000000000E+00  0.00000000000E+00  0.14192808639E+04  0.14192808639E+04  0.50400001928E-02 0. -1.
        1   -1    0    0  501    0  0.00000000000E+00  0.00000000000E+00 -0.20473860245E+04  0.20473860245E+04  0.50400001928E-02 0.  1.
    10030    2    1    2    0    0  0.00000000000E+00  0.00000000000E+00 -0.62810516059E+03  0.34666668884E+04  0.34092907213E+04 0.  0.
        4    1    3    3  502    0 -0.75453310253E+03 -0.41468129107E+03 -0.18100478604E+04  0.20043841064E+04  0.12699999809E+01 0.  1.
       -4    1    3    3    0  502  0.75453310253E+03  0.41468129107E+03  0.11819426998E+04  0.14622827820E+04  0.12699999809E+01 0. -1.
</event>
<event>
 5   0  0.6584420E-08  0.3395363E+04  0.7818609E-02  0.8139045E-01
        1   -1    0    0  501    0  0.00000000000E+00  0.00000000000E+00  0.17239198918E+04  0.17239198918E+04  0.50400001928E-02 0.  1.
       -1   -1    0    0    0  501  0.00000000000E+00  0.00000000000E+00 -0.16718425110E+04  0.16718425110E+04  0.50400001928E-02 0. -1.
    10030    2    1    2    0    0  0.00000000000E+00  0.00000000000E+00  0.52077380818E+02  0.33957624028E+04  0.33953630502E+04 0.  0.
        1    1    3    3  502    0 -0.48536920766E+03 -0.13755681874E+04 -0.84259754783E+03  0.16845598041E+04  0.50400001928E-02 0. -1.
       -1    1    3    3    0  502  0.48536920766E+03  0.13755681874E+04  0.89467492865E+03  0.17112025987E+04  0.50400001928E-02 0.  1.
</event>
<event>
 5   0  0.1986613E-07  0.3405309E+04  0.7818609E-02  0.8136605E-01
       -2   -1    0    0    0  501  0.00000000000E+00  0.00000000000E+00  0.11503617350E+04  0.11503617350E+04  0.25500000920E-02 0. -1.
        2   -1    0    0  501    0  0.00000000000E+00  0.00000000000E+00 -0.25201049711E+04  0.25201049711E+04  0.25500000920E-02 0.  1.
    10030    2    1    2    0    0  0.00000000000E+00  0.00000000000E+00 -0.13697432361E+04  0.36704667061E+04  0.34053089885E+04 0.  0.
        5    1    3    3  502    0 -0.22106991460E+03 -0.68561020713E+02  0.11333185551E+04  0.11567219017E+04  0.46999998093E+01 0. -1.
       -5    1    3    3    0  502  0.22106991460E+03  0.68561020713E+02 -0.25030617912E+04  0.25137448043E+04  0.46999998093E+01 0.  1.
</event>
<event>
 5   0  0.6311750E-08  0.3365414E+04  0.7818609E-02  0.8146447E-01
       -1   -1    0    0    0  501  0.00000000000E+00  0.00000000000E+00  0.17447196511E+04  0.17447196511E+04  0.50400001928E-02 0. -1.
        1   -1    0    0  501    0  0.00000000000E+00  0.00000000000E+00 -0.16228985707E+04  0.16228985707E+04  0.50400001928E-02 0.  1.
    10030    2    1    2    0    0  0.00000000000E+00  0.00000000000E+00  0.12182108045E+03  0.33676182218E+04  0.33654141071E+04 0.  0.
        4    1    3    3  502    0 -0.84421678083E+03  0.98021247590E+03 -0.10158903881E+04  0.16448566395E+04  0.12699999809E+01 0.  1.
       -4    1    3    3    0  502  0.84421678083E+03 -0.98021247590E+03  0.11377114685E+04  0.17227615823E+04  0.12699999809E+01 0. -1.
</event>
<event>
 5   0  0.1986613E-07  0.3396692E+04  0.7818609E-02  0.8138719E-01
        2   -1    0    0  501    0  0.00000000000E+00  0.00000000000E+00  0.21708577335E+04  0.21708577335E+04  0.25500000920E-02 0. -1.
       -2   -1    0    0    0  501  0.00000000000E+00  0.00000000000E+00 -0.13286821188E+04  0.13286821188E+04  0.25500000920E-02 0.  1.
    10030    2    1    2    0    0  0.00000000000E+00  0.00000000000E+00  0.84217561473E+03  0.34995398524E+04  0.33966924224E+04 0.  0.
        5    1    3    3  502    0 -0.49820164523E+03  0.15296767340E+04 -0.13967347093E+03  0.16148209060E+04  0.46999998093E+01 0.  1.
       -5    1    3    3    0  502  0.49820164523E+03 -0.15296767340E+04  0.98184908566E+03  0.18847189464E+04  0.46999998093E+01 0. -1.
</event>
<event>
 5   0  0.1897313E-07  0.3394591E+04  0.7818609E-02  0.8139235E-01
       -2   -1    0    0    0  501  0.00000000000E+00  0.00000000000E+00  0.16174378002E+04  0.16174378002E+04  0.25500000920E-02 0. -1.
        2   -1    0    0  501    0  0.00000000000E+00  0.00000000000E+00 -0.17810962764E+04  0.17810962764E+04  0.25500000920E-02 0.  1.
    10030    2    1    2    0    0  0.00000000000E+00  0.00000000000E+00 -0.16365847620E+03  0.33985340766E+04  0.33945912528E+04 0.  0.
        3    1    3    3  502    0 -0.77823603996E+03 -0.55596543452E+03 -0.14856217299E+04  0.17668675199E+04  0.10100000352E+00 0.  1.
       -3    1    3    3    0  502  0.77823603996E+03  0.55596543452E+03  0.13219632537E+04  0.16316665568E+04  0.10100000352E+00 0. -1.
</event>
<event>
 5   0  0.1897313E-07  0.3399260E+04  0.7818609E-02  0.8138088E-01
       -2   -1    0    0    0  501  0.00000000000E+00  0.00000000000E+00  0.18094509471E+04  0.18094509471E+04  0.25500000920E-02 0. -1.
        2   -1    0    0  501    0  0.00000000000E+00  0.00000000000E+00 -0.15964746123E+04  0.15964746123E+04  0.25500000920E-02 0.  1.
    10030    2    1    2    0    0  0.00000000000E+00  0.00000000000E+00  0.21297633485E+03  0.34059255594E+04  0.33992602132E+04 0.  0.
        3    1    3    3  502    0 -0.58421112374E+03 -0.14054805644E+04 -0.65134418054E+03  0.16555746753E+04  0.10100000352E+00 0.  1.
       -3    1    3    3    0  502  0.58421112374E+03  0.14054805644E+04  0.86432051539E+03  0.17503508841E+04  0.10100000352E+00 0. -1.
</event>
<event>
 5   0  0.6341535E-08  0.3433179E+04  0.7818609E-02  0.8129811E-01
        1   -1    0    0  501    0  0.00000000000E+00  0.00000000000E+00  0.14294638223E+04  0.14294638223E+04  0.50400001928E-02 0.  1.
       -1   -1    0    0    0  501  0.00000000000E+00  0.00000000000E+00 -0.20613881771E+04  0.20613881772E+04  0.50400001928E-02 0. -1.
    10030    2    1    2    0    0  0.00000000000E+00  0.00000000000E+00 -0.63192435486E+03  0.34908519995E+04  0.34331791814E+04 0.  0.
        5    1    3    3  502    0 -0.13303360324E+04  0.10147910830E+04 -0.70589197862E+03  0.18160122457E+04  0.46999998093E+01 0. -1.
       -5    1    3    3    0  502  0.13303360324E+04 -0.10147910830E+04  0.73967623760E+02  0.16748397537E+04  0.46999998093E+01 0.  1.
</event>
<event>
 5   0  0.1986613E-07  0.3362316E+04  0.7818609E-02  0.8147218E-01
        2   -1    0    0  501    0  0.00000000000E+00  0.00000000000E+00  0.16036206176E+04  0.16036206176E+04  0.25500000920E-02 0. -1.
       -2   -1    0    0    0  501  0.00000000000E+00  0.00000000000E+00 -0.17624445228E+04  0.17624445228E+04  0.25500000920E-02 0.  1.
    10030    2    1    2    0    0  0.00000000000E+00  0.00000000000E+00 -0.15882390518E+03  0.33660651404E+04  0.33623160911E+04 0.  0.
        5    1    3    3  502    0  0.13194854162E+04 -0.18993106231E+03  0.94601267809E+03  0.16346490905E+04  0.46999998093E+01 0. -1.
       -5    1    3    3    0  502 -0.13194854162E+04  0.18993106231E+03 -0.11048365833E+04  0.17314160499E+04  0.46999998093E+01 0.  1.
</event>
<event>
 5   0  0.1897313E-07  0.3399883E+04  0.7818609E-02  0.8137935E-01
       -2   -1    0    0    0  501  0.00000000000E+00  0.00000000000E+00  0.24651293346E+04  0.24651293346E+04  0.25500000920E-02 0. -1.
        2   -1    0    0  501    0  0.00000000000E+00  0.00000000000E+00 -0.11722715582E+04  0.11722715582E+04  0.25500000920E-02 0.  1.
    10030    2    1    2    0    0  0.00000000000E+00  0.00000000000E+00  0.12928577764E+04  0.36374008928E+04  0.33998829428E+04 0.  0.
        3    1    3    3  502    0 -0.74713223198E+03  0.11105532048E+04 -0.47476565272E+03  0.14201892226E+04  0.10100000352E+00 0.  1.
       -3    1    3    3    0  502  0.74713223198E+03 -0.11105532048E+04  0.17676234291E+04  0.22172116701E+04  0.10100000352E+00 0. -1.
</event>
<event>
 5   0  0.6367111E-08  0.3403235E+04  0.7818609E-02  0.8137113E-01
        1   -1    0    0  501    0  0.00000000000E+00  0.00000000000E+00  0.14668887966E+04  0.14668887966E+04  0.50400001928E-02 0. -1.
       -1   -1    0    0    0  501  0.00000000000E+00  0.00000000000E+00 -0.19739066506E+04  0.19739066506E+04  0.50400001928E-02 0.  1.
    10030    2    1    2    0    0  0.00000000000E+00  0.00000000000E+00 -0.50701785402E+03  0.34407954472E+04  0.34032346679E+04 0.  0.
        3    1    3    3  502    0  0.64507964266E+03 -0.15527791101E+04 -0.51764087202E+03  0.17593188434E+04  0.10100000352E+00 0.  1.
       -3    1    3    3    0  502 -0.64507964266E+03  0.15527791101E+04  0.10623018009E+02  0.16814766037E+04  0.10100000352E+00 0. -1.
</event>
<event>
 5   0  0.6367111E-08  0.3410235E+04  0.7818609E-02  0.8135399E-01
        1   -1    0    0  501    0  0.00000000000E+00  0.00000000000E+00  0.10545687851E+04  0.10545687851E+04  0.50400001928E-02 0.  1.
       -1   -1    0    0    0  501  0.00000000000E+00  0.00000000000E+00 -0.27569800350E+04  0.27569800350E+04  0.50400001928E-02 0. -1.
    10030    2    1    2    0    0  0.00000000000E+00  0.00000000000E+00 -0.17024112499E+04  0.38115488201E+04  0.34102346465E+04 0.  0.
        3    1    3    3  502    0 -0.99325678647E+02  0.14571902627E+04  0.13219724909E+03  0.14665419104E+04  0.10100000352E+00 0.  1.
       -3    1    3    3    0  502  0.99325678647E+02 -0.14571902627E+04 -0.18346084990E+04  0.23450069097E+04  0.10100000352E+00 0. -1.
</event>
<event>
 5   0  0.6311750E-08  0.3401572E+04  0.7818609E-02  0.8137521E-01
       -1   -1    0    0    0  501  0.00000000000E+00  0.00000000000E+00  0.30007005589E+04  0.30007005589E+04  0.50400001928E-02 0. -1.
        1   -1    0    0  501    0  0.00000000000E+00  0.00000000000E+00 -0.96399915205E+03  0.96399915207E+03  0.50400001928E-02 0.  1.
    10030    2    1    2    0    0  0.00000000000E+00  0.00000000000E+00  0.20367014068E+04  0.39646997110E+04  0.34015718686E+04 0.  0.
        4    1    3    3  502    0  0.57351878973E+03 -0.15926675509E+04  0.82627379596E+03  0.18836782445E+04  0.12699999809E+01 0.  1.
       -4    1    3    3    0  502 -0.57351878973E+03  0.15926675509E+04  0.12104276109E+04  0.20810214665E+04  0.12699999809E+01 0. -1.
</event>
<event>
 5   0  0.1970449E-07  0.3424071E+04  0.7818609E-02  0.8132024E-01
        2   -1    0    0  501    0  0.00000000000E+00  0.00000000000E+00  0.18311079312E+04  0.18311079312E+04  0.25500000920E-02 0. -1.
       -2   -1    0    0    0  501  0.00000000000E+00  0.00000000000E+00 -0.16007060630E+04  0.16007060630E+04  0.25500000920E-02 0.  1.
    10030    2    1    2    0    0  0.00000000000E+00  0.00000000000E+00  0.23040186828E+03  0.34318139942E+04  0.34240710083E+04 0.  0.
        1    1    3    3  502    0  0.80026474066E+03 -0.72225760142E+03 -0.12178390013E+04  0.16264106281E+04  0.50400001928E-02 0.  1.
       -1    1    3    3    0  502 -0.80026474066E+03  0.72225760142E+03  0.14482408696E+04  0.18054033661E+04  0.50400001928E-02 0. -1.
</event>
<event>
 5   0  0.1986613E-07  0.3376895E+04  0.7818609E-02  0.8143600E-01
        2   -1    0    0  501    0  0.00000000000E+00  0.00000000000E+00  0.22777161203E+04  0.22777161203E+04  0.25500000920E-02 0. -1.
       -2   -1    0    0    0  501  0.00000000000E+00  0.00000000000E+00 -0.12516286899E+04  0.12516286899E+04  0.25500000920E-02 0.  1.
    10030    2    1    2    0    0  0.00000000000E+00  0.00000000000E+00  0.10260874304E+04  0.35293448102E+04  0.33768949309E+04 0.  0.
        5    1    3    3  502    0 -0.78676957372E+03  0.52109431813E+03 -0.95026642918E+03  0.13392438265E+04  0.46999998093E+01 0.  1.
       -5    1    3    3    0  502  0.78676957372E+03 -0.52109431813E+03  0.19763538596E+04  0.21901009837E+04  0.46999998093E+01 0. -1.
</event>
<event>
 5   0  0.1928004E-07  0.3405769E+04  0.7818609E-02  0.8136492E-01
        2   -1    0    0  501    0  0.00000000000E+00  0.00000000000E+00  0.20359862037E+04  0.20359862037E+04  0.25500000920E-02 0.  1.
       -2   -1    0    0    0  501  0.00000000000E+00  0.00000000000E+00 -0.14242802668E+04  0.14242802668E+04  0.25500000920E-02 0. -1.
    10030    2    1    2    0    0  0.00000000000E+00  0.00000000000E+00  0.61170593693E+03  0.34602664705E+04  0.34057686201E+04 0.  0.
        2    1    3    3  502    0 -0.12505096454E+04  0.60174892413E+03 -0.69682216827E+03  0.15528803158E+04  0.25500000920E-02 0. -1.
       -2    1    3    3    0  502  0.12505096454E+04 -0.60174892413E+03  0.13085281052E+04  0.19073861547E+04  0.25500000920E-02 0.  1.
</event>
<event>
 5   0  0.1897313E-07  0.3402545E+04  0.7818609E-02  0.8137282E-01
       -2   -1    0    0    0  501  0.00000000000E+00  0.00000000000E+00  0.10817023649E+04  0.10817023649E+04  0.25500000920E-02 0.  1.
        2   -1    0    0  501    0  0.00000000000E+00  0.00000000000E+00 -0.26757154969E+04  0.26757154969E+04  0.25500000920E-02 0. -1.
    10030    2    1    2    0    0  0.00000000000E+00  0.00000000000E+00 -0.15940131320E+04  0.37574178618E+04  0.34025448011E+04 0.  0.
        3    1    3    3  502    0  0.72781643541E+03 -0.11318818235E+04  0.35244583330E+03  0.13910755916E+04  0.10100000352E+00 0.  1.
       -3    1    3    3    0  502 -0.72781643541E+03  0.11318818235E+04 -0.19464589653E+04  0.23663422702E+04  0.10100000352E+00 0. -1.
</event>
<event>
 5   0  0.6788600E-08  0.3398749E+04  0.7818609E-02  0.8138214E-01
        1   -1    0    0  501    0  0.00000000000E+00  0.00000000000E+00  0.24711182548E+04  0.24711182548E+04  0.50400001928E-02 0.  1.
       -1   -1    0    0    0  501  0.00000000000E+00  0.00000000000E+00 -0.11686503194E+04  0.11686503194E+04  0.50400001928E-02 0. -1.
    10030    2    1    2    0    0  0.00000000000E+00  0.00000000000E+00  0.13024679354E+04  0.36397685742E+04  0.33987486743E+04 0.  0.
        2    1    3    3  502    0  0.14572873656E+04  0.99887116975E+02 -0.27880392393E+03  0.14870761682E+04  0.25500000920E-02 0. -1.
       -2    1    3    3    0  502 -0.14572873656E+04 -0.99887116975E+02  0.15812718593E+04  0.21526924060E+04  0.25500000920E-02 0.  1.
</event>
<event>
 5   0  0.6584420E-08  0.3396896E+04  0.7818609E-02  0.8138669E-01
       -1   -1    0    0    0  501  0.00000000000E+00  0.00000000000E+00  0.15452014253E+04  0.15452014253E+04  0.50400001928E-02 0. -1.
        1   -1    0    0  501    0  0.00000000000E+00  0.00000000000E+00 -0.18668927499E+04  0.18668927499E+04  0.50400001928E-02 0.  1.
    10030    2    1    2    0    0  0.00000000000E+00  0.00000000000E+00 -0.32169132468E+03  0.34120941752E+04  0.33968958406E+04 0.  0.
        1    1    3    3  502    0  0.45905943730E+03  0.94641148141E+02 -0.18006425596E+04  0.18606466998E+04  0.50400001928E-02 0.  1.
       -1    1    3    3    0  502 -0.45905943730E+03 -0.94641148141E+02  0.14789512349E+04  0.15514474755E+04  0.50400001928E-02 0. -1.
</event>
<event>
 5   0  0.1897313E-07  0.3393818E+04  0.7818609E-02  0.8139425E-01
       -2   -1    0    0    0  501  0.00000000000E+00  0.00000000000E+00  0.15940323476E+04  0.15940323476E+04  0.25500000920E-02 0. -1.
        2   -1    0    0  501    0  0.00000000000E+00  0.00000000000E+00 -0.18064249845E+04  0.18064249846E+04  0.25500000920E-02 0.  1.
    10030    2    1    2    0    0  0.00000000000E+00  0.00000000000E+00 -0.21239263695E+03  0.34004573322E+04  0.33938178259E+04 0.  0.
        3    1    3    3  502    0 -0.63701157316E+03  0.15285056261E+04 -0.47757851345E+03  0.17234252058E+04  0.10100000352E+00 0.  1.
       -3    1    3    3    0  502  0.63701157316E+03 -0.15285056261E+04  0.26518587650E+03  0.16770321263E+04  0.10100000352E+00 0. -1.
</event>
<event>
 5   0  0.1986613E-07  0.3399270E+04  0.7818609E-02  0.8138086E-01
        2   -1    0    0  501    0  0.00000000000E+00  0.00000000000E+00  0.23555778488E+04  0.23555778488E+04  0.25500000920E-02 0.  1.
       -2   -1    0    0    0  501  0.00000000000E+00  0.00000000000E+00 -0.12263481860E+04  0.12263481860E+04  0.25500000920E-02 0. -1.
    10030    2    1    2    0    0  0.00000000000E+00  0.00000000000E+00  0.11292296628E+04  0.35819260349E+04  0.33992696992E+04 0.  0.
        5    1    3    3  502    0 -0.14766521204E+04 -0.84131666195E+03  0.58624390161E+03  0.17977817477E+04  0.46999998093E+01 0. -1.
       -5    1    3    3    0  502  0.14766521204E+04  0.84131666195E+03  0.54298576120E+03  0.17841442871E+04  0.46999998093E+01 0.  1.
</event>
<event>
 5   0  0.6367111E-08  0.3399280E+04  0.7818609E-02  0.8138083E-01
       -1   -1    0    0    0  501  0.00000000000E+00  0.00000000000E+00  0.24103935120E+04  0.24103935121E+04  0.50400001928E-02 0. -1.
        1   -1    0    0  501    0  0.00000000000E+00  0.00000000000E+00 -0.11984667990E+04  0.11984667990E+04  0.50400001928E-02 0.  1.
    10030    2    1    2    0    0  0.00000000000E+00  0.00000000000E+00  0.12119267131E+04  0.36088603110E+04  0.33992802748E+04 0.  0.
        3    1    3    3  502    0 -0.11987866501E+04  0.59200455758E+03 -0.50812516809E+03  0.14302971807E+04  0.10100000352E+00 0.  1.
       -3    1    3    3    0  502  0.11987866501E+04 -0.59200455758E+03  0.17200518812E+04  0.21785631303E+04  0.10100000352E+00 0. -1.
</event>
<event>
 5   0  0.6311750E-08  0.3397555E+04  0.7818609E-02  0.8138507E-01
       -1   -1    0    0    0  501  0.00000000000E+00  0.00000000000E+00  0.88829208924E+03  0.88829208926E+03  0.50400001928E-02 0.  1.
        1   -1    0    0  501    0  0.00000000000E+00  0.00000000000E+00 -0.32487577068E+04  0.32487577068E+04  0.50400001928E-02 0. -1.
    10030    2    1    2    0    0  0.00000000000E+00  0.00000000000E+00 -0.23604656175E+04  0.41370497960E+04  0.33975554570E+04 0.  0.
        4    1    3    3  502    0 -0.19341817780E+03 -0.15516272298E+04 -0.37171870977E+03  0.16072131358E+04  0.12699999809E+01 0.  1.
       -4    1    3    3    0  502  0.19341817780E+03  0.15516272298E+04 -0.19887469078E+04  0.25298366603E+04  0.12699999809E+01 0. -1.
</event>
<event>
 5   0  0.6788600E-08  0.3399602E+04  0.7818609E-02  0.8138004E-01
        1   -1    0    0  501    0  0.00000000000E+00  0.00000000000E+00  0.15928903000E+04  0.15928903000E+04  0.50400001928E-02 0.  1.
       -1   -1    0    0    0  501  0.00000000000E+00  0.00000000000E+00 -0.18138875754E+04  0.18138875754E+04  0.50400001928E-02 0. -1.
    10030    2    1    2    0    0  0.00000000000E+00  0.00000000000E+00 -0.22099727544E+03  0.34067778754E+04  0.33996022850E+04 0.  0.
        2    1    3    3  502    0 -0.41937334128E+03  0.54584563454E+03 -0.16679677714E+04  0.18044217751E+04  0.25500000920E-02 0. -1.
       -2    1    3    3    0  502  0.41937334128E+03 -0.54584563454E+03  0.14469704959E+04  0.16023561003E+04  0.25500000920E-02 0.  1.
</event>
<event>
 5   0  0.1963852E-07  0.3397183E+04  0.7818609E-02  0.8138598E-01
       -2   -1    0    0    0  501  0.00000000000E+00  0.00000000000E+00  0.20184289955E+04  0.20184289955E+04  0.25500000920E-02 0. -1.
        2   -1    0    0  501    0  0.00000000000E+00  0.00000000000E+00 -0.14294349975E+04  0.14294349975E+04  0.25500000920E-02 0.  1.
    10030    2    1    2    0    0  0.00000000000E+00  0.00000000000E+00  0.58899399803E+03  0.34478639930E+04  0.33971829778E+04 0.  0.
        4    1    3    3  502    0 -0.40459781601E+03  0.55379504943E+03  0.18716500704E+04  0.19933549479E+04  0.12699999809E+01 0. -1.
       -4    1    3    3    0  502  0.40459781601E+03 -0.55379504943E+03 -0.12826560723E+04  0.14545090451E+04  0.12699999809E+01 0.  1.
</event>
<event>
 5   0  0.6341535E-08  0.3405766E+04  0.7818609E-02  0.8136493E-01
       -1   -1    0    0    0  501  0.00000000000E+00  0.00000000000E+00  0.11182645917E+04  0.11182645917E+04  0.50400001928E-02 0. -1.
        1   -1    0    0  501    0  0.00000000000E+00  0.00000000000E+00 -0.25931342333E+04  0.25931342333E+04  0.50400001928E-02 0.  1.
    10030    2    1    2    0    0  0.00000000000E+00  0.00000000000E+00 -0.14748696416E+04  0.37113988250E+04  0.34057658138E+04 0.  0.
        5    1    3    3  502    0 -0.36830959020E+03  0.53373090274E+03 -0.24533054306E+04  0.25375677836E+04  0.46999998093E+01 0.  1.
       -5    1    3    3    0  502  0.36830959020E+03 -0.53373090274E+03  0.97843578894E+03  0.11738310414E+04  0.46999998093E+01 0. -1.
</event>
<event>
 5   0  0.1986613E-07  0.3410972E+04  0.7818609E-02  0.8135219E-01
       -2   -1    0    0    0  501  0.00000000000E+00  0.00000000000E+00  0.19196907427E+04  0.19196907427E+04  0.25500000920E-02 0.  1.
        2   -1    0    0  501    0  0.00000000000E+00  0.00000000000E+00 -0.15151824831E+04  0.15151824831E+04  0.25500000920E-02 0. -1.
    10030    2    1    2    0    0  0.00000000000E+00  0.00000000000E+00  0.40450825963E+03  0.34348732258E+04  0.34109715837E+04 0.  0.
        5    1    3    3  502    0  0.33923308414E+03  0.23697876578E+02 -0.14806894557E+04  0.15192445586E+04  0.46999998093E+01 0. -1.
       -5    1    3    3    0  502 -0.33923308414E+03 -0.23697876578E+02  0.18851977153E+04  0.19156286672E+04  0.46999998093E+01 0.  1.
</event>
<event>
 5   0  0.6788600E-08  0.3443749E+04  0.7818609E-02  0.8127252E-01
       -1   -1    0    0    0  501  0.00000000000E+00  0.00000000000E+00  0.16177894278E+04  0.16177894278E+04  0.50400001928E-02 0.  1.
        1   -1    0    0  501    0  0.00000000000E+00  0.00000000000E+00 -0.18326560839E+04  0.18326560839E+04  0.50400001928E-02 0. -1.
    10030    2    1    2    0    0  0.00000000000E+00  0.00000000000E+00 -0.21486665610E+03  0.34504455117E+04  0.34437489092E+04 0.  0.
        2    1    3    3  502    0 -0.49203909066E+03 -0.11046573671E+04 -0.13355743241E+04  0.18017017346E+04  0.25500000920E-02 0. -1.
       -2    1    3    3    0  502  0.49203909066E+03  0.11046573671E+04  0.11207076680E+04  0.16487437771E+04  0.25500000920E-02 0.  1.
</event>
<event>
 5   0  0.1970449E-07  0.3395155E+04  0.7818609E-02  0.8139097E-01
        2   -1    0    0  501    0  0.00000000000E+00  0.00000000000E+00  0.27284153127E+04  0.27284153127E+04  0.25500000920E-02 0.  1.
       -2   -1    0    0    0  501  0.00000000000E+00  0.00000000000E+00 -0.10562060636E+04  0.10562060636E+04  0.25500000920E-02 0. -1.
    10030    2    1    2    0    0  0.00000000000E+00  0.00000000000E+00  0.16722092491E+04  0.37846213763E+04  0.33951546635E+04 0.  0.
        1    1    3    3  502    0 -0.13240792013E+04 -0.56248905755E+03  0.18407006610E+04  0.23361846234E+04  0.50400001928E-02 0.  1.
       -1    1    3    3    0  502  0.13240792013E+04  0.56248905755E+03 -0.16849141199E+03  0.14484367529E+04  0.50400001928E-02 0. -1.
</event>
<event>
 5   0  0.6341535E-08  0.3399134E+04  0.7818609E-02  0.8138119E-01
       -1   -1    0    0    0  501  0.00000000000E+00  0.00000000000E+00  0.15467842347E+04  0.15467842347E+04  0.50400001928E-02 0.  1.
        1   -1    0    0  501    0  0.00000000000E+00  0.00000000000E+00 -0.18674413439E+04  0.18674413439E+04  0.50400001928E-02 0. -1.
    10030    2    1    2    0    0  0.00000000000E+00  0.00000000000E+00 -0.32065710920E+03  0.34142255787E+04  0.33991344958E+04 0.  0.
        5    1    3    3  502    0  0.16879777174E+04 -0.10872598286E+03  0.59862339831E+01  0.16914928433E+04  0.46999998093E+01 0. -1.
       -5    1    3    3    0  502 -0.16879777174E+04  0.10872598286E+03 -0.32664334318E+03  0.17227327354E+04  0.46999998093E+01 0.  1.
</event>
<event>
 5   0  0.6788600E-08  0.3399956E+04  0.7818609E-02  0.8137917E-01
       -1   -1    0    0    0  501  0.00000000000E+00  0.00000000000E+00  0.11985515494E+04  0.11985515494E+04  0.50400001928E-02 0.  1.
        1   -1    0    0  501    0  0.00000000000E+00  0.00000000000E+00 -0.24111814333E+04  0.24111814333E+04  0.50400001928E-02 0. -1.
    10030    2    1    2    0    0  0.00000000000E+00  0.00000000000E+00 -0.12126298839E+04  0.36097329827E+04  0.33999560249E+04 0.  0.
        2    1    3    3  502    0 -0.77453916335E+03 -0.72682069926E+03 -0.20155175057E+04  0.22782647038E+04  0.25500000920E-02 0. -1.
       -2    1    3    3    0  502  0.77453916335E+03  0.72682069926E+03  0.80288762186E+03  0.13314682789E+04  0.25500000920E-02 0.  1.
</event>
<event>
 5   0  0.1928004E-07  0.3404357E+04  0.7818609E-02  0.8136838E-01
       -2   -1    0    0    0  501  0.00000000000E+00  0.00000000000E+00  0.15717447273E+04  0.15717447273E+04  0.25500000920E-02 0. -1.
        2   -1    0    0  501    0  0.00000000000E+00  0.00000000000E+00 -0.18434369908E+04  0.18434369908E+04  0.25500000920E-02 0.  1.
    10030    2    1    2    0    0  0.00000000000E+00  0.00000000000E+00 -0.27169226346E+03  0.34151817181E+04  0.34043574257E+04 0.  0.
        2    1    3    3  502    0 -0.16222383473E+04 -0.13032369702E+03  0.36450906010E+03  0.16677854707E+04  0.25500000920E-02 0. -1.
       -2    1    3    3    0  502  0.16222383473E+04  0.13032369702E+03 -0.63620132356E+03  0.17473962474E+04  0.25500000920E-02 0.  1.
</event>
<event>
 5   0  0.1928004E-07  0.3391170E+04  0.7818609E-02  0.8140077E-01
        2   -1    0    0  501    0  0.00000000000E+00  0.00000000000E+00  0.20976523913E+04  0.20976523913E+04  0.25500000920E-02 0.  1.
       -2   -1    0    0    0  501  0.00000000000E+00  0.00000000000E+00 -0.13705841934E+04  0.13705841934E+04  0.25500000920E-02 0. -1.
    10030    2    1    2    0    0  0.00000000000E+00  0.00000000000E+00  0.72706819784E+03  0.34682365847E+04  0.33911704238E+04 0.  0.
        2    1    3    3  502    0 -0.13512287128E+04  0.43234613109E+03  0.13132199808E+04  0.19332069029E+04  0.25500000920E-02 0.  1.
       -2    1    3    3    0  502  0.13512287128E+04 -0.43234613109E+03 -0.58615178295E+03  0.15350296818E+04  0.25500000920E-02 0. -1.
</event>
<event>
 5   0  0.1963852E-07  0.3398992E+04  0.7818609E-02  0.8138154E-01
       -2   -1    0    0    0  501  0.00000000000E+00  0.00000000000E+00  0.11649640884E+04  0.11649640884E+04  0.25500000920E-02 0.  1.
        2   -1    0    0  501    0  0.00000000000E+00  0.00000000000E+00 -0.24792926613E+04  0.24792926613E+04  0.25500000920E-02 0. -1.
    10030    2    1    2    0    0  0.00000000000E+00  0.00000000000E+00 -0.13143285730E+04  0.36442567497E+04  0.33989921535E+04 0.  0.
        4    1    3    3  502    0 -0.93686774434E+02  0.13289391690E+04  0.47416759333E+03  0.14141050337E+04  0.12699999809E+01 0.  1.
       -4    1    3    3    0  502  0.93686774434E+02 -0.13289391690E+04 -0.17884961663E+04  0.22301517160E+04  0.12699999809E+01 0. -1.
</event>
<event>
 5   0  0.1928004E-07  0.3407486E+04  0.7818609E-02  0.8136071E-01
        2   -1    0    0  501    0  0.00000000000E+00  0.00000000000E+00  0.22833436707E+04  0.22833436707E+04  0.25500000920E-02 0.  1.
       -2   -1    0    0    0  501  0.00000000000E+00  0.00000000000E+00 -0.12712673106E+04  0.12712673106E+04  0.25500000920E-02 0. -1.
    10030    2    1    2    0    0  0.00000000000E+00  0.00000000000E+00  0.10120763601E+04  0.35546109813E+04  0.34074859750E+04 0.  0.
        2    1    3    3  502    0 -0.44489489140E+03  0.51939202886E+03  0.21338758964E+04  0.22407868897E+04  0.25500000920E-02 0.  1.
       -2    1    3    3    0  502  0.44489489140E+03 -0.51939202886E+03 -0.11217995363E+04  0.13138240916E+04  0.25500000920E-02 0. -1.
</event>
<event>
 5   0  0.1928004E-07  0.3395680E+04  0.7818609E-02  0.8138967E-01
        2   -1    0    0  501    0  0.00000000000E+00  0.00000000000E+00  0.17685699077E+04  0.17685699077E+04  0.25500000920E-02 0. -1.
       -2   -1    0    0    0  501  0.00000000000E+00  0.00000000000E+00 -0.16299385145E+04  0.16299385146E+04  0.25500000920E-02 0.  1.
    10030    2    1    2    0    0  0.00000000000E+00  0.00000000000E+00  0.13863139310E+03  0.33985084222E+04  0.33956797306E+04 0.  0.
        2    1    3    3  502    0  0.67618366575E+03 -0.13401773427E+04 -0.72466763658E+03  0.16668661744E+04  0.25500000920E-02 0.  1.
       -2    1    3    3    0  502 -0.67618366575E+03  0.13401773427E+04  0.86329902968E+03  0.17316422478E+04  0.25500000920E-02 0. -1.
</event>
<event>
 5   0  0.1897313E-07  0.3401829E+04  0.7818609E-02  0.8137458E-01
       -2   -1    0    0    0  501  0.00000000000E+00  0.00000000000E+00  0.17857579502E+04  0.17857579502E+04  0.25500000920E-02 0.  1.
        2   -1    0    0  501    0  0.00000000000E+00  0.00000000000E+00 -0.16201022102E+04  0.16201022102E+04  0.25500000920E-02 0. -1.
    10030    2    1    2    0    0  0.00000000000E+00  0.00000000000E+00  0.16565574006E+03  0.34058601604E+04  0.34018291562E+04 0.  0.
        3    1    3    3  502    0 -0.85724582112E+03  0.57715732647E+03  0.14354022150E+04  0.17687171923E+04  0.10100000352E+00 0.  1.
       -3    1    3    3    0  502  0.85724582112E+03 -0.57715732647E+03 -0.12697464749E+04  0.16371429681E+04  0.10100000352E+00 0. -1.
</event>
<event>
 5   0  0.6311750E-08  0.3401057E+04  0.7818609E-02  0.8137647E-01
       -1   -1    0    0    0  501  0.00000000000E+00  0.00000000000E+00  0.14721834568E+04  0.14721834568E+04  0.50400001928E-02 0. -1.
        1   -1    0    0  501    0  0.00000000000E+00  0.00000000000E+00 -0.19642914507E+04  0.19642914507E+04  0.50400001928E-02 0.  1.
    10030    2    1    2    0    0  0.00000000000E+00  0.00000000000E+00 -0.49210799385E+03  0.34364749075E+04  0.34010571168E+04 0.  0.
        4    1    3    3  502    0 -0.19490364188E+03  0.16526716454E+04 -0.59967682535E+03  0.17688767354E+04  0.12699999809E+01 0.  1.
       -4    1    3    3    0  502  0.19490364188E+03 -0.16526716454E+04  0.10756883150E+03  0.16675981721E+04  0.12699999809E+01 0. -1.
</event>
<event>
 5   0  0.6584420E-08  0.3404773E+04  0.7818609E-02  0.8136736E-01
       -1   -1    0    0    0  501  0.00000000000E+00  0.00000000000E+00  0.31592456620E+04  0.31592456620E+04  0.50400001928E-02 0. -1.
        1   -1    0    0  501    0  0.00000000000E+00  0.00000000000E+00 -0.91734575523E+03  0.91734575524E+03  0.50400001928E-02 0.  1.
    10030    2    1    2    0    0  0.00000000000E+00  0.00000000000E+00  0.22418999067E+04  0.40765914172E+04  0.34047734713E+04 0.  0.
        1    1    3    3  502    0  0.40753922429E+03 -0.63132035597E+03  0.29499334798E+04  0.30441355335E+04  0.50400001928E-02 0. -1.
       -1    1    3    3    0  502 -0.40753922429E+03  0.63132035597E+03 -0.70803357305E+03  0.10324558837E+04  0.50400001928E-02 0.  1.
</event>
<event>
 5   0  0.6367111E-08  0.3403074E+04  0.7818609E-02  0.8137152E-01
       -1   -1    0    0    0  501  0.00000000000E+00  0.00000000000E+00  0.12038994253E+04  0.12038994253E+04  0.50400001928E-02 0. -1.
        1   -1    0    0  501    0  0.00000000000E+00  0.00000000000E+00 -0.24048755175E+04  0.24048755175E+04  0.50400001928E-02 0.  1.
    10030    2    1    2    0    0  0.00000000000E+00  0.00000000000E+00 -0.12009760922E+04  0.36087749428E+04  0.34030740535E+04 0.  0.
        3    1    3    3  502    0 -0.57275231576E+02 -0.75620476873E+03 -0.22157462334E+04  0.23419345605E+04  0.10100000352E+00 0.  1.
       -3    1    3    3    0  502  0.57275231576E+02  0.75620476873E+03  0.10147701413E+04  0.12668403823E+04  0.10100000352E+00 0. -1.
</event>
<event>
 5   0  0.6788600E-08  0.3402066E+04  0.7818609E-02  0.8137399E-01
        1   -1    0    0  501    0  0.00000000000E+00  0.00000000000E+00  0.18598981952E+04  0.18598981952E+04  0.50400001928E-02 0. -1.
       -1   -1    0    0    0  501  0.00000000000E+00  0.00000000000E+00 -0.15557374990E+04  0.15557374990E+04  0.50400001928E-02 0.  1.
    10030    2    1    2    0    0  0.00000000000E+00  0.00000000000E+00  0.30416069626E+03  0.34156356942E+04  0.34020660585E+04 0.  0.
        2    1    3    3  502    0 -0.13265705136E+04 -0.61282738942E+03  0.10262810160E+04  0.17856649911E+04  0.25500000920E-02 0. -1.
       -2    1    3    3    0  502  0.13265705136E+04  0.61282738942E+03 -0.72212031972E+03  0.16299707031E+04  0.25500000920E-02 0.  1.
</event>
<event>
 5   0  0.6367111E-08  0.3407835E+04  0.7818609E-02  0.8135986E-01
        1   -1    0    0  501    0  0.00000000000E+00  0.00000000000E+00  0.17188413911E+04  0.17188413911E+04  0.50400001928E-02 0.  1.
       -1   -1    0    0    0  501  0.00000000000E+00  0.00000000000E+00 -0.16891231751E+04  0.16891231751E+04  0.50400001928E-02 0. -1.
    10030    2    1    2    0    0  0.00000000000E+00  0.00000000000E+00  0.29718216001E+02  0.34079645663E+04  0.34078349891E+04 0.  0.
        3    1    3    3  502    0 -0.16039867099E+03  0.14913890363E+03 -0.16749875764E+04  0.16892464407E+04  0.10100000352E+00 0. -1.
       -3    1    3    3    0  502  0.16039867099E+03 -0.14913890363E+03  0.17047057924E+04  0.17187181255E+04  0.10100000352E+00 0.  1.
</event>
<event>
 5   0  0.1963852E-07  0.3400770E+04  0.7818609E-02  0.8137717E-01
       -2   -1    0    0    0  501  0.00000000000E+00  0.00000000000E+00  0.13741689943E+04  0.13741689943E+04  0.25500000920E-02 0. -1.
        2   -1    0    0  501    0  0.00000000000E+00  0.00000000000E+00 -0.21040419206E+04  0.21040419206E+04  0.25500000920E-02 0.  1.
    10030    2    1    2    0    0  0.00000000000E+00  0.00000000000E+00 -0.72987292633E+03  0.34782109149E+04  0.34007700128E+04 0.  0.
        4    1    3    3  502    0 -0.67954959622E+03 -0.13741981721E+04  0.38740869795E+03  0.15812322353E+04  0.12699999809E+01 0. -1.
       -4    1    3    3    0  502  0.67954959622E+03  0.13741981721E+04 -0.11172816243E+04  0.18969786796E+04  0.12699999809E+01 0.  1.
</event>
<event>
 5   0  0.1963852E-07  0.3402210E+04  0.7818609E-02  0.8137364E-01
        2   -1    0    0  501    0  0.00000000000E+00  0.00000000000E+00  0.16362026804E+04  0.16362026804E+04  0.25500000920E-02 0.  1.
       -2   -1    0    0    0  501  0.00000000000E+00  0.00000000000E+00 -0.17685819917E+04  0.17685819917E+04  0.25500000920E-02 0. -1.
    10030    2    1    2    0    0  0.00000000000E+00  0.00000000000E+00 -0.13237931129E+03  0.34047846720E+04  0.34022102200E+04 0.  0.
        4    1    3    3  502    0 -0.85209801828E+03  0.57262650479E+03  0.12912234056E+04  0.16496156046E+04  0.12699999809E+01 0.  1.
       -4    1    3    3    0  502  0.85209801828E+03 -0.57262650479E+03 -0.14236027169E+04  0.17551690674E+04  0.12699999809E+01 0. -1.
</event>
<event>
 5   0  0.1928004E-07  0.3401004E+04  0.7818609E-02  0.8137660E-01
        2   -1    0    0  501    0  0.00000000000E+00  0.00000000000E+00  0.23479593785E+04  0.23479593785E+04  0.25500000920E-02 0.  1.
       -2   -1    0    0    0  501  0.00000000000E+00  0.00000000000E+00 -0.12315829340E+04  0.12315829340E+04  0.25500000920E-02 0. -1.
    10030    2    1    2    0    0  0.00000000000E+00  0.00000000000E+00  0.11163764445E+04  0.35795423124E+04  0.34010037931E+04 0.  0.
        2    1    3    3  502    0  0.60951921889E+03  0.15713336900E+04  0.79611620536E+03  0.18639753904E+04  0.25500000920E-02 0. -1.
       -2    1    3    3    0  502 -0.60951921889E+03 -0.15713336900E+04  0.32026023913E+03  0.17155669221E+04  0.25500000920E-02 0.  1.
</event>
<event>
 5   0  0.6311750E-08  0.3408006E+04  0.7818609E-02  0.8135944E-01
       -3   -1    0    0    0  501  0.00000000000E+00  0.00000000000E+00  0.11265657445E+04  0.11265657490E+04  0.10100000352E+00 0. -1.
        3   -1    0    0  501    0  0.00000000000E+00  0.00000000000E+00 -0.25774145991E+04  0.25774146011E+04  0.10100000352E+00 0.  1.
    10030    2    1    2    0    0  0.00000000000E+00  0.00000000000E+00 -0.14508488546E+04  0.37039803501E+04  0.34080064605E+04 0.  0.
        4    1    3    3  502    0  0.10968638534E+04  0.53163270516E+03 -0.20195853166E+04  0.23589129086E+04  0.12699999809E+01 0. -1.
       -4    1    3    3    0  502 -0.10968638534E+04 -0.53163270516E+03  0.56873646205E+03  0.13450674415E+04  0.12699999809E+01 0.  1.
</event>
<event>
 5   0  0.6311750E-08  0.3406043E+04  0.7818609E-02  0.8136425E-01
        1   -1    0    0  501    0  0.00000000000E+00  0.00000000000E+00  0.14078902819E+04  0.14078902820E+04  0.50400001928E-02 0. -1.
       -1   -1    0    0    0  501  0.00000000000E+00  0.00000000000E+00 -0.20600199353E+04  0.20600199354E+04  0.50400001928E-02 0.  1.
    10030    2    1    2    0    0  0.00000000000E+00  0.00000000000E+00 -0.65212965340E+03  0.34679102173E+04  0.34060428932E+04 0.  0.
        4    1    3    3  502    0  0.46502147606E+03  0.16334334305E+04 -0.45457426351E+03  0.17581209057E+04  0.12699999809E+01 0.  1.
       -4    1    3    3    0  502 -0.46502147606E+03 -0.16334334305E+04 -0.19755538989E+03  0.17097893116E+04  0.12699999809E+01 0. -1.
</event>
<event>
 5   0  0.6367111E-08  0.3400045E+04  0.7818609E-02  0.8137895E-01
        1   -1    0    0  501    0  0.00000000000E+00  0.00000000000E+00  0.28301718324E+04  0.28301718324E+04  0.50400001928E-02 0.  1.
       -1   -1    0    0    0  501  0.00000000000E+00  0.00000000000E+00 -0.10211664482E+04  0.10211664482E+04  0.50400001928E-02 0. -1.
    10030    2    1    2    0    0  0.00000000000E+00  0.00000000000E+00  0.18090053842E+04  0.38513382806E+04  0.34000450102E+04 0.  0.
        3    1    3    3  502    0  0.39555047107E+02  0.47744094747E+03  0.27521271215E+04  0.27935135874E+04  0.10100000352E+00 0.  1.
       -3    1    3    3    0  502 -0.39555047107E+02 -0.47744094747E+03 -0.94312173726E+03  0.10578246932E+04  0.10100000352E+00 0. -1.
</event>
<event>
 5   0  0.6311750E-08  0.3393822E+04  0.7818609E-02  0.8139424E-01
       -1   -1    0    0    0  501  0.00000000000E+00  0.00000000000E+00  0.16786682503E+04  0.16786682503E+04  0.50400001928E-02 0. -1.
        1   -1    0    0  501    0  0.00000000000E+00  0.00000000000E+00 -0.17153519854E+04  0.17153519854E+04  0.50400001928E-02 0.  1.
    10030    2    1    2    0    0  0.00000000000E+00  0.00000000000E+00 -0.36683735132E+02  0.33940202358E+04  0.33938219848E+04 0.  0.
        4    1    3    3  502    0 -0.46510506463E+03  0.37336780642E+03  0.15703915670E+04  0.16798385419E+04  0.12699999809E+01 0. -1.
       -4    1    3    3    0  502  0.46510506463E+03 -0.37336780642E+03 -0.16070753022E+04  0.17141816939E+04  0.12699999809E+01 0.  1.
</event>
<event>
 5   0  0.6311750E-08  0.3402794E+04  0.7818609E-02  0.8137221E-01
       -1   -1    0    0    0  501  0.00000000000E+00  0.00000000000E+00  0.98763201382E+03  0.98763201383E+03  0.50400001928E-02 0. -1.
        1   -1    0    0  501    0  0.00000000000E+00  0.00000000000E+00 -0.29310025436E+04  0.29310025436E+04  0.50400001928E-02 0.  1.
    10030    2    1    2    0    0  0.00000000000E+00  0.00000000000E+00 -0.19433705298E+04  0.39186345575E+04  0.34027941135E+04 0.  0.
        4    1    3    3  502    0  0.11302384809E+04 -0.12517636843E+04 -0.71315583138E+03  0.18311046386E+04  0.12699999809E+01 0.  1.
       -4    1    3    3    0  502 -0.11302384809E+04  0.12517636843E+04 -0.12302146984E+04  0.20875299188E+04  0.12699999809E+01 0. -1.
</event>
<event>
 5   0  0.1970449E-07  0.3399226E+04  0.7818609E-02  0.8138096E-01
        2   -1    0    0  501    0  0.00000000000E+00  0.00000000000E+00  0.15595300828E+04  0.15595300828E+04  0.25500000920E-02 0.  1.
       -2   -1    0    0    0  501  0.00000000000E+00  0.00000000000E+00 -0.18522783807E+04  0.18522783807E+04  0.25500000920E-02 0. -1.
    10030    2    1    2    0    0  0.00000000000E+00  0.00000000000E+00 -0.29274829783E+03  0.34118084635E+04  0.33992257098E+04 0.  0.
        1    1    3    3  502    0  0.23825618725E+03  0.10220935400E+04 -0.14882007526E+04  0.18210389055E+04  0.50400001928E-02 0. -1.
       -1    1    3    3    0  502 -0.23825618725E+03 -0.10220935400E+04  0.11954524548E+04  0.15907695580E+04  0.50400001928E-02 0.  1.
</event>
<event>
 5   0  0.1928004E-07  0.3401158E+04  0.7818609E-02  0.8137622E-01
       -2   -1    0    0    0  501  0.00000000000E+00  0.00000000000E+00  0.11645771157E+04  0.11645771157E+04  0.25500000920E-02 0. -1.
        2   -1    0    0  501    0  0.00000000000E+00  0.00000000000E+00 -0.24832775927E+04  0.24832775927E+04  0.25500000920E-02 0.  1.
    10030    2    1    2    0    0  0.00000000000E+00  0.00000000000E+00 -0.13187004770E+04  0.36478547084E+04  0.34011576008E+04 0.  0.
        2    1    3    3  502    0 -0.13434149128E+04  0.16578557635E+03 -0.17634448603E+04  0.22230578627E+04  0.25500000920E-02 0.  1.
       -2    1    3    3    0  502  0.13434149128E+04 -0.16578557635E+03  0.44474438328E+03  0.14247968458E+04  0.25500000920E-02 0. -1.
</event>
<event>
 5   0  0.1897313E-07  0.3400489E+04  0.7818609E-02  0.8137786E-01
       -2   -1    0    0    0  501  0.00000000000E+00  0.00000000000E+00  0.15597830070E+04  0.15597830070E+04  0.25500000920E-02 0. -1.
        2   -1    0    0  501    0  0.00000000000E+00  0.00000000000E+00 -0.18533547646E+04  0.18533547646E+04  0.25500000920E-02 0.  1.
    10030    2    1    2    0    0  0.00000000000E+00  0.00000000000E+00 -0.29357175752E+03  0.34131377716E+04  0.34004889459E+04 0.  0.
        3    1    3    3  502    0 -0.22256453108E+03 -0.14089901914E+04 -0.10754533281E+04  0.17864456894E+04  0.10100000352E+00 0.  1.
       -3    1    3    3    0  502  0.22256453108E+03  0.14089901914E+04  0.78188157061E+03  0.16266920823E+04  0.10100000352E+00 0. -1.
</event>
<event>
 5   0  0.1986613E-07  0.3398060E+04  0.7818609E-02  0.8138383E-01
        2   -1    0    0  501    0  0.00000000000E+00  0.00000000000E+00  0.18681402585E+04  0.18681402585E+04  0.25500000920E-02 0. -1.
       -2   -1    0    0    0  501  0.00000000000E+00  0.00000000000E+00 -0.15452277596E+04  0.15452277596E+04  0.25500000920E-02 0.  1.
    10030    2    1    2    0    0  0.00000000000E+00  0.00000000000E+00  0.32291249891E+03  0.34133680180E+04  0.33980595558E+04 0.  0.
        5    1    3    3  502    0 -0.11618425594E+04  0.48576059897E+03  0.13071375826E+04  0.18150681095E+04  0.46999998093E+01 0. -1.
       -5    1    3    3    0  502  0.11618425594E+04 -0.48576059897E+03 -0.98422508365E+03  0.15982999085E+04  0.46999998093E+01 0.  1.
</event>
<event>
 5   0  0.6341535E-08  0.3402817E+04  0.7818609E-02  0.8137215E-01
        1   -1    0    0  501    0  0.00000000000E+00  0.00000000000E+00  0.15946144026E+04  0.15946144026E+04  0.50400001928E-02 0. -1.
       -1   -1    0    0    0  501  0.00000000000E+00  0.00000000000E+00 -0.18153549037E+04  0.18153549037E+04  0.50400001928E-02 0.  1.
    10030    2    1    2    0    0  0.00000000000E+00  0.00000000000E+00 -0.22074050116E+03  0.34099693063E+04  0.34028171125E+04 0.  0.
        5    1    3    3  502    0 -0.83779451432E+03 -0.20494336702E+03 -0.15800364152E+04  0.18001218279E+04  0.46999998093E+01 0.  1.
       -5    1    3    3    0  502  0.83779451432E+03  0.20494336702E+03  0.13592959140E+04  0.16098474784E+04  0.46999998093E+01 0. -1.
</event>
<event>
 5   0  0.6788600E-08  0.3394956E+04  0.7818609E-02  0.8139145E-01
       -1   -1    0    0    0  501  0.00000000000E+00  0.00000000000E+00  0.98093277422E+03  0.98093277423E+03  0.50400001928E-02 0. -1.
        1   -1    0    0  501    0  0.00000000000E+00  0.00000000000E+00 -0.29374397644E+04  0.29374397644E+04  0.50400001928E-02 0.  1.
    10030    2    1    2    0    0  0.00000000000E+00  0.00000000000E+00 -0.19565069902E+04  0.39183725386E+04  0.33949556328E+04 0.  0.
        2    1    3    3  502    0  0.16010859245E+04 -0.14950630540E+03 -0.35073606546E+03  0.16458566343E+04  0.25500000920E-02 0. -1.
       -2    1    3    3    0  502 -0.16010859245E+04  0.14950630540E+03 -0.16057709247E+04  0.22725159044E+04  0.25500000920E-02 0.  1.
</event>
<event>
 5   0  0.6341535E-08  0.3373320E+04  0.7818609E-02  0.8144486E-01
       -1   -1    0    0    0  501  0.00000000000E+00  0.00000000000E+00  0.16571866848E+04  0.16571866848E+04  0.50400001928E-02 0. -1.
        1   -1    0    0  501    0  0.00000000000E+00  0.00000000000E+00 -0.17166572830E+04  0.17166572830E+04  0.50400001928E-02 0.  1.
    10030    2    1    2    0    0  0.00000000000E+00  0.00000000000E+00 -0.59470598197E+02  0.33738439678E+04  0.33733197843E+04 0.  0.
        5    1    3    3  502    0 -0.12281103769E+04  0.26079480292E+03 -0.11562008963E+04  0.17067781431E+04  0.46999998093E+01 0.  1.
       -5    1    3    3    0  502  0.12281103769E+04 -0.26079480292E+03  0.10967302981E+04  0.16670658247E+04  0.46999998093E+01 0. -1.
</event>
<event>
 5   0  0.1928004E-07  0.3402588E+04  0.7818609E-02  0.8137271E-01
        2   -1    0    0  501    0  0.00000000000E+00  0.00000000000E+00  0.20751985619E+04  0.20751985619E+04  0.25500000920E-02 0.  1.
       -2   -1    0    0    0  501  0.00000000000E+00  0.00000000000E+00 -0.13947589911E+04  0.13947589911E+04  0.25500000920E-02 0. -1.
    10030    2    1    2    0    0  0.00000000000E+00  0.00000000000E+00  0.68043957084E+03  0.34699575530E+04  0.34025883398E+04 0.  0.
        2    1    3    3  502    0  0.78245276765E+03  0.14734059678E+03 -0.11930309854E+04  0.14343167423E+04  0.25500000920E-02 0. -1.
       -2    1    3    3    0  502 -0.78245276765E+03 -0.14734059678E+03  0.18734705563E+04  0.20356408107E+04  0.25500000920E-02 0.  1.
</event>
<event>
 5   0  0.1970449E-07  0.3420020E+04  0.7818609E-02  0.8133010E-01
       -2   -1    0    0    0  501  0.00000000000E+00  0.00000000000E+00  0.10479283829E+04  0.10479283829E+04  0.25500000920E-02 0.  1.
        2   -1    0    0  501    0  0.00000000000E+00  0.00000000000E+00 -0.27903947333E+04  0.27903947333E+04  0.25500000920E-02 0. -1.
    10030    2    1    2    0    0  0.00000000000E+00  0.00000000000E+00 -0.17424663504E+04  0.38383231161E+04  0.34200197896E+04 0.  0.
        1    1    3    3  502    0  0.62594421201E+03 -0.63009692451E+03  0.76876334613E+03  0.11746596840E+04  0.50400001928E-02 0.  1.
       -1    1    3    3    0  502 -0.62594421201E+03  0.63009692451E+03 -0.25112296966E+04  0.26636634322E+04  0.50400001928E-02 0. -1.
</event>
<event>
 5   0  0.1970449E-07  0.3397293E+04  0.7818609E-02  0.8138571E-01
        2   -1    0    0  501    0  0.00000000000E+00  0.00000000000E+00  0.23729579687E+04  0.23729579687E+04  0.25500000920E-02 0. -1.
       -2   -1    0    0    0  501  0.00000000000E+00  0.00000000000E+00 -0.12159506612E+04  0.12159506612E+04  0.25500000920E-02 0.  1.
    10030    2    1    2    0    0  0.00000000000E+00  0.00000000000E+00  0.11570073075E+04  0.35889086299E+04  0.33972929288E+04 0.  0.
        1    1    3    3  502    0 -0.96950409371E+03 -0.12571184749E+02  0.20519119150E+04  0.22694578052E+04  0.50400001928E-02 0. -1.
       -1    1    3    3    0  502  0.96950409371E+03  0.12571184749E+02 -0.89490460749E+03  0.13194508247E+04  0.50400001928E-02 0.  1.
</event>
<event>
 5   0  0.1897313E-07  0.3401548E+04  0.7818609E-02  0.8137527E-01
       -2   -1    0    0    0  501  0.00000000000E+00  0.00000000000E+00  0.12296762217E+04  0.12296762217E+04  0.25500000920E-02 0. -1.
        2   -1    0    0  501    0  0.00000000000E+00  0.00000000000E+00 -0.23523520536E+04  0.23523520536E+04  0.25500000920E-02 0.  1.
    10030    2    1    2    0    0  0.00000000000E+00  0.00000000000E+00 -0.11226758319E+04  0.35820282754E+04  0.34015475216E+04 0.  0.
        3    1    3    3  502    0 -0.14551897711E+04  0.66168435886E+03  0.50187096921E+02  0.15993505606E+04  0.10100000352E+00 0. -1.
       -3    1    3    3    0  502  0.14551897711E+04 -0.66168435886E+03 -0.11728629288E+04  0.19826777148E+04  0.10100000352E+00 0.  1.
</event>
<event>
 5   0  0.6311750E-08  0.3408091E+04  0.7818609E-02  0.8135923E-01
        1   -1    0    0  501    0  0.00000000000E+00  0.00000000000E+00  0.29802244543E+04  0.29802244543E+04  0.50400001928E-02 0. -1.
       -1   -1    0    0    0  501  0.00000000000E+00  0.00000000000E+00 -0.97434642062E+03  0.97434642064E+03  0.50400001928E-02 0.  1.
    10030    2    1    2    0    0  0.00000000000E+00  0.00000000000E+00  0.20058780337E+04  0.39545708749E+04  0.34080909787E+04 0.  0.
        4    1    3    3  502    0  0.68994253400E+03  0.15089222078E+04  0.55218834462E+03  0.17486510545E+04  0.12699999809E+01 0.  1.
       -4    1    3    3    0  502 -0.68994253400E+03 -0.15089222078E+04  0.14536896891E+04  0.22059198205E+04  0.12699999809E+01 0. -1.
</event>
<event>
 5   0  0.1897313E-07  0.3399281E+04  0.7818609E-02  0.8138083E-01
        2   -1    0    0  501    0  0.00000000000E+00  0.00000000000E+00  0.13154935540E+04  0.13154935540E+04  0.25500000920E-02 0. -1.
       -2   -1    0    0    0  501  0.00000000000E+00  0.00000000000E+00 -0.21959645381E+04  0.21959645381E+04  0.25500000920E-02 0.  1.
    10030    2    1    2    0    0  0.00000000000E+00  0.00000000000E+00 -0.88047098412E+03  0.35114580921E+04  0.33992806267E+04 0.  0.
        3    1    3    3  502    0  0.26730572269E+03 -0.14351709445E+04  0.45889575157E+03  0.15302788342E+04  0.10100000352E+00 0. -1.
       -3    1    3    3    0  502 -0.26730572269E+03  0.14351709445E+04 -0.13393667357E+04  0.19811792580E+04  0.10100000352E+00 0.  1.
</event>
<event>
 5   0  0.6788600E-08  0.3398551E+04  0.7818609E-02  0.8138262E-01
       -1   -1    0    0    0  501  0.00000000000E+00  0.00000000000E+00  0.12652572601E+04  0.12652572601E+04  0.50400001928E-02 0.  1.
        1   -1    0    0  501    0  0.00000000000E+00  0.00000000000E+00 -0.22821736474E+04  0.22821736475E+04  0.50400001928E-02 0. -1.
    10030    2    1    2    0    0  0.00000000000E+00  0.00000000000E+00 -0.10169163874E+04  0.35474309075E+04  0.33985507360E+04 0.  0.
        2    1    3    3  502    0 -0.16854842795E+04  0.21050967916E+03 -0.45769445037E+03  0.17591633783E+04  0.25500000920E-02 0. -1.
       -2    1    3    3    0  502  0.16854842795E+04 -0.21050967916E+03 -0.55922193700E+03  0.17882675293E+04  0.25500000920E-02 0.  1.
</event>
<event>
 5   0  0.1986613E-07  0.3431842E+04  0.7818609E-02  0.8130135E-01
        2   -1    0    0  501    0  0.00000000000E+00  0.00000000000E+00  0.22031176959E+04  0.22031176959E+04  0.25500000920E-02 0.  1.
       -2   -1    0    0    0  501  0.00000000000E+00  0.00000000000E+00 -0.13364627550E+04  0.13364627550E+04  0.25500000920E-02 0. -1.
    10030    2    1    2    0    0  0.00000000000E+00  0.00000000000E+00  0.86665494097E+03  0.35395804509E+04  0.34318419226E+04 0.  0.
        5    1    3    3  502    0 -0.55161080405E+03 -0.16139313298E+03  0.21008843755E+04  0.21780861947E+04  0.46999998093E+01 0.  1.
       -5    1    3    3    0  502  0.55161080405E+03  0.16139313298E+03 -0.12342294345E+04  0.13614942562E+04  0.46999998093E+01 0. -1.
</event>
<event>
 5   0  0.1897313E-07  0.3399183E+04  0.7818609E-02  0.8138107E-01
        2   -1    0    0  501    0  0.00000000000E+00  0.00000000000E+00  0.22999942555E+04  0.22999942555E+04  0.25500000920E-02 0.  1.
       -2   -1    0    0    0  501  0.00000000000E+00  0.00000000000E+00 -0.12559211435E+04  0.12559211435E+04  0.25500000920E-02 0. -1.
    10030    2    1    2    0    0  0.00000000000E+00  0.00000000000E+00  0.10440731120E+04  0.35559153990E+04  0.33991830874E+04 0.  0.
        3    1    3    3  502    0 -0.10158423248E+04  0.66160391785E+03  0.17681607609E+04  0.21438395134E+04  0.10100000352E+00 0.  1.
       -3    1    3    3    0  502  0.10158423248E+04 -0.66160391785E+03 -0.72408764889E+03  0.14120758855E+04  0.10100000352E+00 0. -1.
</event>
<event>
 5   0  0.6788600E-08  0.3399286E+04  0.7818609E-02  0.8138081E-01
       -1   -1    0    0    0  501  0.00000000000E+00  0.00000000000E+00  0.15664743024E+04  0.15664743024E+04  0.50400001928E-02 0.  1.
        1   -1    0    0  501    0  0.00000000000E+00  0.00000000000E+00 -0.18441329636E+04  0.18441329636E+04  0.50400001928E-02 0. -1.
    10030    2    1    2    0    0  0.00000000000E+00  0.00000000000E+00 -0.27765866123E+03  0.34106072660E+04  0.33992863355E+04 0.  0.
        2    1    3    3  502    0  0.11801804650E+04 -0.99387041059E+03 -0.85407271422E+03  0.17635318325E+04  0.25500000920E-02 0. -1.
       -2    1    3    3    0  502 -0.11801804650E+04  0.99387041059E+03  0.57641405300E+03  0.16470754335E+04  0.25500000920E-02 0.  1.
</event>
<event>
 5   0  0.6788600E-08  0.3394427E+04  0.7818609E-02  0.8139275E-01
       -1   -1    0    0    0  501  0.00000000000E+00  0.00000000000E+00  0.12453496472E+04  0.12453496472E+04  0.50400001928E-02 0. -1.
        1   -1    0    0  501    0  0.00000000000E+00  0.00000000000E+00 -0.23130324288E+04  0.23130324288E+04  0.50400001928E-02 0.  1.
    10030    2    1    2    0    0  0.00000000000E+00  0.00000000000E+00 -0.10676827815E+04  0.35583820760E+04  0.33944272679E+04 0.  0.
        2    1    3    3  502    0 -0.39954396728E+03 -0.13246540001E+04  0.49658614552E+03  0.14700140821E+04  0.25500000920E-02 0. -1.
       -2    1    3    3    0  502  0.39954396728E+03  0.13246540001E+04 -0.15642689271E+04  0.20883679939E+04  0.25500000920E-02 0.  1.
</event>
<event>
 5   0  0.6341535E-08  0.3407194E+04  0.7818609E-02  0.8136143E-01
       -1   -1    0    0    0  501  0.00000000000E+00  0.00000000000E+00  0.13738907920E+04  0.13738907920E+04  0.50400001928E-02 0.  1.
        1   -1    0    0  501    0  0.00000000000E+00  0.00000000000E+00 -0.21124258996E+04  0.21124258996E+04  0.50400001928E-02 0. -1.
    10030    2    1    2    0    0  0.00000000000E+00  0.00000000000E+00 -0.73853510753E+03  0.34863166916E+04  0.34071938555E+04 0.  0.
        5    1    3    3  502    0  0.15917542224E+04  0.64646432017E+02  0.24837211463E+03  0.16123186605E+04  0.46999998093E+01 0.  1.
       -5    1    3    3    0  502 -0.15917542224E+04 -0.64646432017E+02 -0.98690722216E+03  0.18739980311E+04  0.46999998093E+01 0. -1.
</event>
<event>
 5   0  0.1928004E-07  0.3402664E+04  0.7818609E-02  0.8137253E-01
       -2   -1    0    0    0  501  0.00000000000E+00  0.00000000000E+00  0.14354722677E+04  0.14354722677E+04  0.25500000920E-02 0.  1.
        2   -1    0    0  501    0  0.00000000000E+00  0.00000000000E+00 -0.20164305474E+04  0.20164305474E+04  0.25500000920E-02 0. -1.
    10030    2    1    2    0    0  0.00000000000E+00  0.00000000000E+00 -0.58095827974E+03  0.34519028151E+04  0.34026637393E+04 0.  0.
        2    1    3    3  502    0  0.16472596192E+03 -0.12988247435E+04 -0.13926864415E+04  0.19114538658E+04  0.25500000920E-02 0. -1.
       -2    1    3    3    0  502 -0.16472596192E+03  0.12988247435E+04  0.81172816178E+03  0.15404489493E+04  0.25500000920E-02 0.  1.
</event>
<event>
 5   0  0.1928004E-07  0.3395395E+04  0.7818609E-02  0.8139037E-01
       -2   -1    0    0    0  501  0.00000000000E+00  0.00000000000E+00  0.15839693130E+04  0.15839693130E+04  0.25500000920E-02 0.  1.
        2   -1    0    0  501    0  0.00000000000E+00  0.00000000000E+00 -0.18195914735E+04  0.18195914735E+04  0.25500000920E-02 0. -1.
    10030    2    1    2    0    0  0.00000000000E+00  0.00000000000E+00 -0.23562216054E+03  0.34035607865E+04  0.33953951500E+04 0.  0.
        2    1    3    3  502    0 -0.55272100951E+03  0.10530578709E+04  0.10966080229E+04  0.16177084254E+04  0.25500000920E-02 0.  1.
       -2    1    3    3    0  502  0.55272100951E+03 -0.10530578709E+04 -0.13322301834E+04  0.17858523611E+04  0.25500000920E-02 0. -1.
</event>
<event>
 5   0  0.6367111E-08  0.3396391E+04  0.7818609E-02  0.8138793E-01
       -1   -1    0    0    0  501  0.00000000000E+00  0.00000000000E+00  0.12370439046E+04  0.12370439046E+04  0.50400001928E-02 0.  1.
        1   -1    0    0  501    0  0.00000000000E+00  0.00000000000E+00 -0.23312574009E+04  0.23312574009E+04  0.50400001928E-02 0. -1.
    10030    2    1    2    0    0  0.00000000000E+00  0.00000000000E+00 -0.10942134964E+04  0.35683013055E+04  0.33963908832E+04 0.  0.
        3    1    3    3  502    0  0.11843032333E+04  0.89469647133E+03  0.31977008554E+03  0.15183243534E+04  0.10100000352E+00 0.  1.
       -3    1    3    3    0  502 -0.11843032333E+04 -0.89469647133E+03 -0.14139835819E+04  0.20499769521E+04  0.10100000352E+00 0. -1.
</event>
<event>
 5   0  0.1963852E-07  0.3399959E+04  0.7818609E-02  0.8137916E-01
        2   -1    0    0  501    0  0.00000000000E+00  0.00000000000E+00  0.22655323650E+04  0.22655323650E+04  0.25500000920E-02 0.  1.
       -2   -1    0    0    0  501  0.00000000000E+00  0.00000000000E+00 -0.12756078785E+04  0.12756078785E+04  0.25500000920E-02 0. -1.
    10030    2    1    2    0    0  0.00000000000E+00  0.00000000000E+00  0.98992448653E+03  0.35411402434E+04  0.33999593725E+04 0.  0.
        4    1    3    3  502    0 -0.15143252751E+04  0.45382207844E+03  0.11460555542E+04  0.19525830235E+04  0.12699999809E+01 0.  1.
       -4    1    3    3    0  502  0.15143252751E+04 -0.45382207844E+03 -0.15613106763E+03  0.15885572199E+04  0.12699999809E+01 0. -1.
</event>
<event>
 5   0  0.6584420E-08  0.3401109E+04  0.7818609E-02  0.8137634E-01
       -1   -1    0    0    0  501  0.00000000000E+00  0.00000000000E+00  0.14811812527E+04  0.14811812527E+04  0.50400001928E-02 0. -1.
        1   -1    0    0  501    0  0.00000000000E+00  0.00000000000E+00 -0.19524188572E+04  0.19524188572E+04  0.50400001928E-02 0.  1.
    10030    2    1    2    0    0  0.00000000000E+00  0.00000000000E+00 -0.47123760444E+03  0.34336001099E+04  0.34011093536E+04 0.  0.
        1    1    3    3  502    0  0.31337452342E+03 -0.53832623329E+03 -0.18331028242E+04  0.19360435660E+04  0.50400001928E-02 0.  1.
       -1    1    3    3    0  502 -0.31337452342E+03  0.53832623329E+03  0.13618652198E+04  0.14975565439E+04  0.50400001928E-02 0. -1.
</event>
<event>
 5   0  0.1928004E-07  0.3400632E+04  0.7818609E-02  0.8137751E-01
       -2   -1    0    0    0  501  0.00000000000E+00  0.00000000000E+00  0.13364242494E+04  0.13364242494E+04  0.25500000920E-02 0.  1.
        2   -1    0    0  501    0  0.00000000000E+00  0.00000000000E+00 -0.21632904419E+04  0.21632904419E+04  0.25500000920E-02 0. -1.
    10030    2    1    2    0    0  0.00000000000E+00  0.00000000000E+00 -0.82686619253E+03  0.34997146914E+04  0.34006315914E+04 0.  0.
        2    1    3    3  502    0 -0.93364602312E+03 -0.71612760712E+03  0.84974158452E+03  0.14514111777E+04  0.25500000920E-02 0.  1.
       -2    1    3    3    0  502  0.93364602312E+03  0.71612760712E+03 -0.16766077771E+04  0.20483035137E+04  0.25500000920E-02 0. -1.
</event>
<event>
 5   0  0.6367111E-08  0.3401011E+04  0.7818609E-02  0.8137658E-01
       -1   -1    0    0    0  501  0.00000000000E+00  0.00000000000E+00  0.12457873017E+04  0.12457873017E+04  0.50400001928E-02 0. -1.
        1   -1    0    0  501    0  0.00000000000E+00  0.00000000000E+00 -0.23211982060E+04  0.23211982060E+04  0.50400001928E-02 0.  1.
    10030    2    1    2    0    0  0.00000000000E+00  0.00000000000E+00 -0.10754109043E+04  0.35669855077E+04  0.34010111730E+04 0.  0.
        3    1    3    3  502    0 -0.13408327907E+04  0.76949168444E+03 -0.12806309985E+04  0.20074774692E+04  0.10100000352E+00 0. -1.
       -3    1    3    3    0  502  0.13408327907E+04 -0.76949168444E+03  0.20522009418E+03  0.15595080385E+04  0.10100000352E+00 0.  1.
</event>
<event>
 5   0  0.1970449E-07  0.3398359E+04  0.7818609E-02  0.8138309E-01
        2   -1    0    0  501    0  0.00000000000E+00  0.00000000000E+00  0.14999261196E+04  0.14999261196E+04  0.25500000920E-02 0. -1.
       -2   -1    0    0    0  501  0.00000000000E+00  0.00000000000E+00 -0.19249025293E+04  0.19249025294E+04  0.25500000920E-02 0.  1.
    10030    2    1    2    0    0  0.00000000000E+00  0.00000000000E+00 -0.42497640972E+03  0.34248286490E+04  0.33983593580E+04 0.  0.
        1    1    3    3  502    0 -0.58039653774E+03 -0.29606101469E+03 -0.17940102187E+04  0.19086605068E+04  0.50400001928E-02 0.  1.
       -1    1    3    3    0  502  0.58039653774E+03  0.29606101469E+03  0.13690338089E+04  0.15161681422E+04  0.50400001928E-02 0. -1.
</event>
<event>
 5   0  0.1986613E-07  0.3396312E+04  0.7818609E-02  0.8138812E-01
       -2   -1    0    0    0  501  0.00000000000E+00  0.00000000000E+00  0.16462082717E+04  0.16462082717E+04  0.25500000920E-02 0.  1.
        2   -1    0    0  501    0  0.00000000000E+00  0.00000000000E+00 -0.17517425133E+04  0.17517425133E+04  0.25500000920E-02 0. -1.
    10030    2    1    2    0    0  0.00000000000E+00  0.00000000000E+00 -0.10553424163E+03  0.33979507850E+04  0.33963115377E+04 0.  0.
        5    1    3    3  502    0 -0.11232638682E+04 -0.80297345421E+03 -0.10417900682E+04  0.17296926669E+04  0.46999998093E+01 0. -1.
       -5    1    3    3    0  502  0.11232638682E+04  0.80297345421E+03  0.93625582659E+03  0.16682581181E+04  0.46999998093E+01 0.  1.
</event>
<event>
 5   0  0.6584420E-08  0.3428206E+04  0.7818609E-02  0.8131018E-01
        1   -1    0    0  501    0  0.00000000000E+00  0.00000000000E+00  0.23818235717E+04  0.23818235717E+04  0.50400001928E-02 0.  1.
       -1   -1    0    0    0  501  0.00000000000E+00  0.00000000000E+00 -0.12335713989E+04  0.12335713989E+04  0.50400001928E-02 0. -1.
    10030    2    1    2    0    0  0.00000000000E+00  0.00000000000E+00  0.11482521728E+04  0.36153949706E+04  0.34282061988E+04 0.  0.
        1    1    3    3  502    0  0.16643815956E+04 -0.35961494909E+03  0.36676744339E+03  0.17418402237E+04  0.50400001928E-02 0. -1.
       -1    1    3    3    0  502 -0.16643815956E+04  0.35961494909E+03  0.78148472937E+03  0.18735547469E+04  0.50400001928E-02 0.  1.
</event>
<event>
 5   0  0.6311750E-08  0.3332109E+04  0.7818609E-02  0.8154773E-01
        1   -1    0    0  501    0  0.00000000000E+00  0.00000000000E+00  0.15459545941E+04  0.15459545942E+04  0.50400001928E-02 0. -1.
       -1   -1    0    0    0  501  0.00000000000E+00  0.00000000000E+00 -0.17954840818E+04  0.17954840818E+04  0.50400001928E-02 0.  1.
    10030    2    1    2    0    0  0.00000000000E+00  0.00000000000E+00 -0.24952948769E+03  0.33414386760E+04  0.33321085607E+04 0.  0.
        4    1    3    3  502    0  0.30586845906E+03  0.16007759550E+04  0.22217520991E+03  0.16448108126E+04  0.12699999809E+01 0. -1.
       -4    1    3    3    0  502 -0.30586845906E+03 -0.16007759550E+04 -0.47170469761E+03  0.16966278634E+04  0.12699999809E+01 0.  1.
</event>
<event>
 5   0  0.6311750E-08  0.3393693E+04  0.7818609E-02  0.8139456E-01
        1   -1    0    0  501    0  0.00000000000E+00  0.00000000000E+00  0.18015651357E+04  0.18015651357E+04  0.50400001928E-02 0. -1.
       -1   -1    0    0    0  501  0.00000000000E+00  0.00000000000E+00 -0.15982146186E+04  0.15982146186E+04  0.50400001928E-02 0.  1.
    10030    2    1    2    0    0  0.00000000000E+00  0.00000000000E+00  0.20335051719E+03  0.33997797543E+04  0.33936928183E+04 0.  0.
        4    1    3    3  502    0  0.62691006675E+03  0.95677854552E+03 -0.11539061613E+04  0.16247899738E+04  0.12699999809E+01 0.  1.
       -4    1    3    3    0  502 -0.62691006675E+03 -0.95677854552E+03  0.13572566784E+04  0.17749897805E+04  0.12699999809E+01 0. -1.
</event>
<event>
 5   0  0.1928004E-07  0.3399721E+04  0.7818609E-02  0.8137975E-01
        2   -1    0    0  501    0  0.00000000000E+00  0.00000000000E+00  0.19688264386E+04  0.19688264386E+04  0.25500000920E-02 0. -1.
       -2   -1    0    0    0  501  0.00000000000E+00  0.00000000000E+00 -0.14676384170E+04  0.14676384170E+04  0.25500000920E-02 0.  1.
    10030    2    1    2    0    0  0.00000000000E+00  0.00000000000E+00  0.50118802156E+03  0.34364648556E+04  0.33997207636E+04 0.  0.
        2    1    3    3  502    0  0.21795142437E+03 -0.12698737449E+04 -0.87019248033E+03  0.15547723641E+04  0.25500000920E-02 0.  1.
       -2    1    3    3    0  502 -0.21795142437E+03  0.12698737449E+04  0.13713805019E+04  0.18816924914E+04  0.25500000920E-02 0. -1.
</event>
<event>
 5   0  0.1928004E-07  0.3401452E+04  0.7818609E-02  0.8137550E-01
        2   -1    0    0  501    0  0.00000000000E+00  0.00000000000E+00  0.89488981795E+03  0.89488981795E+03  0.25500000920E-02 0.  1.
       -2   -1    0    0    0  501  0.00000000000E+00  0.00000000000E+00 -0.32322066369E+04  0.32322066369E+04  0.25500000920E-02 0. -1.
    10030    2    1    2    0    0  0.00000000000E+00  0.00000000000E+00 -0.23373168189E+04  0.41270964548E+04  0.34014519305E+04 0.  0.
        2    1    3    3  502    0  0.10245151581E+04 -0.80334719805E+03 -0.24963975049E+04  0.28154925914E+04  0.25500000920E-02 0. -1.
       -2    1    3    3    0  502 -0.10245151581E+04  0.80334719805E+03  0.15908068600E+03  0.13116038634E+04  0.25500000920E-02 0.  1.
</event>
<event>
 5   0  0.1963852E-07  0.3404182E+04  0.7818609E-02  0.8136881E-01
       -2   -1    0    0    0  501  0.00000000000E+00  0.00000000000E+00  0.15462049018E+04  0.15462049018E+04  0.25500000920E-02 0.  1.
        2   -1    0    0  501    0  0.00000000000E+00  0.00000000000E+00 -0.18736927971E+04  0.18736927971E+04  0.25500000920E-02 0. -1.
    10030    2    1    2    0    0  0.00000000000E+00  0.00000000000E+00 -0.32748789526E+03  0.34198976989E+04  0.34041815389E+04 0.  0.
        4    1    3    3  502    0 -0.12726618474E+04  0.79176951913E+03  0.64654294892E+03  0.16323561336E+04  0.12699999809E+01 0.  1.
       -4    1    3    3    0  502  0.12726618474E+04 -0.79176951913E+03 -0.97403084418E+03  0.17875415653E+04  0.12699999809E+01 0. -1.
</event>
<event>
 5   0  0.1986613E-07  0.3398900E+04  0.7818609E-02  0.8138176E-01
        2   -1    0    0  501    0  0.00000000000E+00  0.00000000000E+00  0.13934030116E+04  0.13934030116E+04  0.25500000920E-02 0.  1.
       -2   -1    0    0    0  501  0.00000000000E+00  0.00000000000E+00 -0.20727166341E+04  0.20727166341E+04  0.25500000920E-02 0. -1.
    10030    2    1    2    0    0  0.00000000000E+00  0.00000000000E+00 -0.67931362249E+03  0.34661196457E+04  0.33988995868E+04 0.  0.
        5    1    3    3  502    0  0.10037486461E+04  0.10978728995E+04 -0.11776574493E+04  0.18972968681E+04  0.46999998093E+01 0. -1.
       -5    1    3    3    0  502 -0.10037486461E+04 -0.10978728995E+04  0.49834382676E+03  0.15688227776E+04  0.46999998093E+01 0.  1.
</event>
<event>
 5   0  0.1928004E-07  0.3403144E+04  0.7818609E-02  0.8137135E-01
       -2   -1    0    0    0  501  0.00000000000E+00  0.00000000000E+00  0.13282233143E+04  0.13282233143E+04  0.25500000920E-02 0. -1.
        2   -1    0    0  501    0  0.00000000000E+00  0.00000000000E+00 -0.21798649064E+04  0.21798649064E+04  0.25500000920E-02 0.  1.
    10030    2    1    2    0    0  0.00000000000E+00  0.00000000000E+00 -0.85164159209E+03  0.35080882207E+04  0.34031440703E+04 0.  0.
        2    1    3    3  502    0 -0.11943805608E+04 -0.41388168932E+03 -0.16000276018E+04  0.20391006114E+04  0.25500000920E-02 0.  1.
       -2    1    3    3    0  502  0.11943805608E+04  0.41388168932E+03  0.74838600976E+03  0.14689876093E+04  0.25500000920E-02 0. -1.
</event>
<event>
 5   0  0.1970449E-07  0.3384240E+04  0.7818609E-02  0.8141785E-01
       -2   -1    0    0    0  501  0.00000000000E+00  0.00000000000E+00  0.11037205779E+04  0.11037205779E+04  0.25500000920E-02 0.  1.
        2   -1    0    0  501    0  0.00000000000E+00  0.00000000000E+00 -0.25941982206E+04  0.25941982206E+04  0.25500000920E-02 0. -1.
    10030    2    1    2    0    0  0.00000000000E+00  0.00000000000E+00 -0.14904776427E+04  0.36979187984E+04  0.33842399201E+04 0.  0.
        1    1    3    3  502    0  0.23800843383E+03 -0.62631113038E+03 -0.24430793971E+04  0.25332884927E+04  0.50400001928E-02 0. -1.
       -1    1    3    3    0  502 -0.23800843383E+03  0.62631113038E+03  0.95260175439E+03  0.11646303058E+04  0.50400001928E-02 0.  1.
</event>
<event>
 5   0  0.1963852E-07  0.3409703E+04  0.7818609E-02  0.8135529E-01
       -2   -1    0    0    0  501  0.00000000000E+00  0.00000000000E+00  0.18638011642E+04  0.18638011642E+04  0.25500000920E-02 0. -1.
        2   -1    0    0  501    0  0.00000000000E+00  0.00000000000E+00 -0.15594574065E+04  0.15594574065E+04  0.25500000920E-02 0.  1.
    10030    2    1    2    0    0  0.00000000000E+00  0.00000000000E+00  0.30434375761E+03  0.34232585707E+04  0.34097029371E+04 0.  0.
        4    1    3    3  502    0 -0.63572273095E+03  0.42380049421E+03  0.16822935038E+04  0.18476642811E+04  0.12699999809E+01 0. -1.
       -4    1    3    3    0  502  0.63572273095E+03 -0.42380049421E+03 -0.13779497462E+04  0.15755942896E+04  0.12699999809E+01 0.  1.
</event>
<event>
 5   0  0.1963852E-07  0.3394360E+04  0.7818609E-02  0.8139292E-01
        2   -1    0    0  501    0  0.00000000000E+00  0.00000000000E+00  0.12201789153E+04  0.12201789153E+04  0.25500000920E-02 0. -1.
       -2   -1    0    0    0  501  0.00000000000E+00  0.00000000000E+00 -0.23606535433E+04  0.23606535433E+04  0.25500000920E-02 0.  1.
    10030    2    1    2    0    0  0.00000000000E+00  0.00000000000E+00 -0.11404746280E+04  0.35808324586E+04  0.33943598394E+04 0.  0.
        4    1    3    3  502    0  0.65848726618E+03 -0.15192611063E+04 -0.17741240129E+03  0.16653037446E+04  0.12699999809E+01 0. -1.
       -4    1    3    3    0  502 -0.65848726618E+03  0.15192611063E+04 -0.96306222667E+03  0.19155287140E+04  0.12699999809E+01 0.  1.
</event>
<event>
 5   0  0.1986613E-07  0.3404954E+04  0.7818609E-02  0.8136692E-01
       -2   -1    0    0    0  501  0.00000000000E+00  0.00000000000E+00  0.12377895017E+04  0.12377895017E+04  0.25500000920E-02 0.  1.
        2   -1    0    0  501    0  0.00000000000E+00  0.00000000000E+00 -0.23416162560E+04  0.23416162560E+04  0.25500000920E-02 0. -1.
    10030    2    1    2    0    0  0.00000000000E+00  0.00000000000E+00 -0.11038267543E+04  0.35794057577E+04  0.34049540488E+04 0.  0.
        5    1    3    3  502    0 -0.85361007252E+03 -0.12176507952E+04  0.31945954817E+03  0.15209865575E+04  0.46999998093E+01 0.  1.
       -5    1    3    3    0  502  0.85361007252E+03  0.12176507952E+04 -0.14232863024E+04  0.20584192002E+04  0.46999998093E+01 0. -1.
</event>
<event>
 5   0  0.6311750E-08  0.3397549E+04  0.7818609E-02  0.8138508E-01
        1   -1    0    0  501    0  0.00000000000E+00  0.00000000000E+00  0.19452625902E+04  0.19452625902E+04  0.50400001928E-02 0.  1.
       -1   -1    0    0    0  501  0.00000000000E+00  0.00000000000E+00 -0.14835196189E+04  0.14835196189E+04  0.50400001928E-02 0. -1.
    10030    2    1    2    0    0  0.00000000000E+00  0.00000000000E+00  0.46174297130E+03  0.34287822092E+04  0.33975492441E+04 0.  0.
        4    1    3    3  502    0  0.27538467354E+02  0.51723846488E+03 -0.14018825697E+04  0.14945134154E+04  0.12699999809E+01 0. -1.
       -4    1    3    3    0  502 -0.27538467354E+02 -0.51723846488E+03  0.18636255410E+04  0.19342687938E+04  0.12699999809E+01 0.  1.
</event>
<event>
 5   0  0.1986613E-07  0.3397687E+04  0.7818609E-02  0.8138474E-01
       -2   -1    0    0    0  501  0.00000000000E+00  0.00000000000E+00  0.30733434152E+04  0.30733434152E+04  0.25500000920E-02 0. -1.
        2   -1    0    0  501    0  0.00000000000E+00  0.00000000000E+00 -0.93906484045E+03  0.93906484045E+03  0.25500000920E-02 0.  1.
    10030    2    1    2    0    0  0.00000000000E+00  0.00000000000E+00  0.21342785748E+04  0.40124082557E+04  0.33976867094E+04 0.  0.
        5    1    3    3  502    0 -0.14307546031E+04  0.82575411137E+03  0.59904337612E+03  0.17572147402E+04  0.46999998093E+01 0. -1.
       -5    1    3    3    0  502  0.14307546031E+04 -0.82575411137E+03  0.15352351987E+04  0.22551935154E+04  0.46999998093E+01 0.  1.
</event>
<event>
 5   0  0.1897313E-07  0.3398340E+04  0.7818609E-02  0.8138314E-01
       -2   -1    0    0    0  501  0.00000000000E+00  0.00000000000E+00  0.13747007794E+04  0.13747007794E+04  0.25500000920E-02 0.  1.
        2   -1    0    0  501    0  0.00000000000E+00  0.00000000000E+00 -0.21002229862E+04  0.21002229862E+04  0.25500000920E-02 0. -1.
    10030    2    1    2    0    0  0.00000000000E+00  0.00000000000E+00 -0.72552220676E+03  0.34749237656E+04  0.33983396981E+04 0.  0.
        3    1    3    3  502    0 -0.53739848252E+03  0.16114751986E+04 -0.32278112006E+03  0.17291145441E+04  0.10100000352E+00 0.  1.
       -3    1    3    3    0  502  0.53739848252E+03 -0.16114751986E+04 -0.40274108670E+03  0.17458092215E+04  0.10100000352E+00 0. -1.
</event>
<event>
 5   0  0.1986613E-07  0.3400210E+04  0.7818609E-02  0.8137855E-01
        2   -1    0    0  501    0  0.00000000000E+00  0.00000000000E+00  0.97896023179E+03  0.97896023179E+03  0.25500000920E-02 0. -1.
       -2   -1    0    0    0  501  0.00000000000E+00  0.00000000000E+00 -0.29524764313E+04  0.29524764313E+04  0.25500000920E-02 0.  1.
    10030    2    1    2    0    0  0.00000000000E+00  0.00000000000E+00 -0.19735161995E+04  0.39314366631E+04  0.34002100003E+04 0.  0.
        5    1    3    3  502    0 -0.23757449741E+03  0.15815439567E+03 -0.29245724696E+04  0.29384691039E+04  0.46999998093E+01 0.  1.
       -5    1    3    3    0  502  0.23757449741E+03 -0.15815439567E+03  0.95105627010E+03  0.99296755918E+03  0.46999998093E+01 0. -1.
</event>
<event>
 5   0  0.6584420E-08  0.3400014E+04  0.7818609E-02  0.8137903E-01
        1   -1    0    0  501    0  0.00000000000E+00  0.00000000000E+00  0.11615885896E+04  0.11615885896E+04  0.50400001928E-02 0. -1.
       -1   -1    0    0    0  501  0.00000000000E+00  0.00000000000E+00 -0.24879928657E+04  0.24879928657E+04  0.50400001928E-02 0.  1.
    10030    2    1    2    0    0  0.00000000000E+00  0.00000000000E+00 -0.13264042761E+04  0.36495814553E+04  0.34000141905E+04 0.  0.
        1    1    3    3  502    0 -0.11706110984E+04 -0.10266223478E+04  0.69342775513E+02  0.15585545256E+04  0.50400001928E-02 0. -1.
       -1    1    3    3    0  502  0.11706110984E+04  0.10266223478E+04 -0.13957470516E+04  0.20910269297E+04  0.50400001928E-02 0.  1.
</event>
<event>
 5   0  0.6341535E-08  0.3401565E+04  0.7818609E-02  0.8137522E-01
       -1   -1    0    0    0  501  0.00000000000E+00  0.00000000000E+00  0.23700643841E+04  0.23700643841E+04  0.50400001928E-02 0.  1.
        1   -1    0    0  501    0  0.00000000000E+00  0.00000000000E+00 -0.12204988340E+04  0.12204988340E+04  0.50400001928E-02 0. -1.
    10030    2    1    2    0    0  0.00000000000E+00  0.00000000000E+00  0.11495655501E+04  0.35905632181E+04  0.34015648266E+04 0.  0.
        5    1    3    3  502    0 -0.10452094199E+04 -0.51834026051E+03  0.18810806995E+04  0.22135098927E+04  0.46999998093E+01 0.  1.
       -5    1    3    3    0  502  0.10452094199E+04  0.51834026051E+03 -0.73151514936E+03  0.13770533254E+04  0.46999998093E+01 0. -1.
</event>
<event>
 5   0  0.6341535E-08  0.3396798E+04  0.7818609E-02  0.8138693E-01
       -1   -1    0    0    0  501  0.00000000000E+00  0.00000000000E+00  0.19293067554E+04  0.19293067554E+04  0.50400001928E-02 0.  1.
        1   -1    0    0  501    0  0.00000000000E+00  0.00000000000E+00 -0.14951274476E+04  0.14951274476E+04  0.50400001928E-02 0. -1.
    10030    2    1    2    0    0  0.00000000000E+00  0.00000000000E+00  0.43417930780E+03  0.34244342031E+04  0.33967981894E+04 0.  0.
        5    1    3    3  502    0  0.15882628398E+04  0.24724011888E+03  0.77003254732E+03  0.17823239713E+04  0.46999998093E+01 0.  1.
       -5    1    3    3    0  502 -0.15882628398E+04 -0.24724011888E+03 -0.33585323952E+03  0.16421102318E+04  0.46999998093E+01 0. -1.
</event>
<event>
 5   0  0.1970449E-07  0.3410854E+04  0.7818609E-02  0.8135247E-01
       -2   -1    0    0    0  501  0.00000000000E+00  0.00000000000E+00  0.21840075742E+04  0.21840075742E+04  0.25500000920E-02 0. -1.
        2   -1    0    0  501    0  0.00000000000E+00  0.00000000000E+00 -0.13317176800E+04  0.13317176800E+04  0.25500000920E-02 0.  1.
    10030    2    1    2    0    0  0.00000000000E+00  0.00000000000E+00  0.85228989423E+03  0.35157252542E+04  0.34108541451E+04 0.  0.
        1    1    3    3  502    0 -0.16936550223E+04 -0.15657300755E+03  0.55446792842E+03  0.17889709681E+04  0.50400001928E-02 0. -1.
       -1    1    3    3    0  502  0.16936550223E+04  0.15657300755E+03  0.29782196581E+03  0.17267542861E+04  0.50400001928E-02 0.  1.
</event>
<event>
 5   0  0.1970449E-07  0.3403428E+04  0.7818609E-02  0.8137066E-01
       -2   -1    0    0    0  501  0.00000000000E+00  0.00000000000E+00  0.16607209608E+04  0.16607209608E+04  0.25500000920E-02 0.  1.
        2   -1    0    0  501    0  0.00000000000E+00  0.00000000000E+00 -0.17437184675E+04  0.17437184675E+04  0.25500000920E-02 0. -1.
    10030    2    1    2    0    0  0.00000000000E+00  0.00000000000E+00 -0.82997506668E+02  0.34044394283E+04  0.34034275715E+04 0.  0.
        1    1    3    3  502    0  0.10781206455E+04  0.14419629840E+03 -0.13505868506E+04  0.17341342335E+04  0.50400001928E-02 0. -1.
       -1    1    3    3    0  502 -0.10781206455E+04 -0.14419629840E+03  0.12675893439E+04  0.16703051948E+04  0.50400001928E-02 0.  1.
</event>
<event>
 5   0  0.6311750E-08  0.3398374E+04  0.7818609E-02  0.8138306E-01
        1   -1    0    0  501    0  0.00000000000E+00  0.00000000000E+00  0.17338377601E+04  0.17338377601E+04  0.50400001928E-02 0.  1.
       -1   -1    0    0    0  501  0.00000000000E+00  0.00000000000E+00 -0.16652286677E+04  0.16652286677E+04  0.50400001928E-02 0. -1.
    10030    2    1    2    0    0  0.00000000000E+00  0.00000000000E+00  0.68609092331E+02  0.33990664278E+04  0.33983739307E+04 0.  0.
        4    1    3    3  502    0 -0.10792913802E+04 -0.13075212812E+04  0.14725650145E+03  0.17018131138E+04  0.12699999809E+01 0.  1.
       -4    1    3    3    0  502  0.10792913802E+04  0.13075212812E+04 -0.78647409119E+02  0.16972533140E+04  0.12699999809E+01 0. -1.
</event>
<event>
 5   0  0.1928004E-07  0.3396206E+04  0.7818609E-02  0.8138838E-01
        2   -1    0    0  501    0  0.00000000000E+00  0.00000000000E+00  0.90810352476E+03  0.90810352476E+03  0.25500000920E-02 0. -1.
       -2   -1    0    0    0  501  0.00000000000E+00  0.00000000000E+00 -0.31753588392E+04  0.31753588392E+04  0.25500000920E-02 0.  1.
    10030    2    1    2    0    0  0.00000000000E+00  0.00000000000E+00 -0.22672553144E+04  0.40834623639E+04  0.33962064450E+04 0.  0.
        2    1    3    3  502    0 -0.11803246967E+04  0.94438399587E+02  0.32983228888E+03  0.12291762851E+04  0.25500000920E-02 0. -1.
       -2    1    3    3    0  502  0.11803246967E+04 -0.94438399587E+02 -0.25970876033E+04  0.28542860789E+04  0.25500000920E-02 0.  1.
</event>
<event>
 5   0  0.6311750E-08  0.3405635E+04  0.7818609E-02  0.8136525E-01
        3   -1    0    0  501    0  0.00000000000E+00  0.00000000000E+00  0.31895744386E+04  0.31895744402E+04  0.10100000352E+00 0. -1.
       -3   -1    0    0    0  501  0.00000000000E+00  0.00000000000E+00 -0.90908274670E+03  0.90908275231E+03  0.10100000352E+00 0.  1.
    10030    2    1    2    0    0  0.00000000000E+00  0.00000000000E+00  0.22804916919E+04  0.40986571925E+04  0.34056348050E+04 0.  0.
        5    1    3    3  502    0  0.68134641957E+03 -0.12718270017E+04  0.51907510412E+02  0.14437774570E+04  0.46999998093E+01 0.  1.
       -5    1    3    3    0  502 -0.68134641957E+03  0.12718270017E+04  0.22285841815E+04  0.26548797355E+04  0.46999998093E+01 0. -1.
</event>
<event>
 5   0  0.1986613E-07  0.3400695E+04  0.7818609E-02  0.8137736E-01
       -2   -1    0    0    0  501  0.00000000000E+00  0.00000000000E+00  0.12777022193E+04  0.12777022193E+04  0.25500000920E-02 0.  1.
        2   -1    0    0  501    0  0.00000000000E+00  0.00000000000E+00 -0.22627978852E+04  0.22627978852E+04  0.25500000920E-02 0. -1.
    10030    2    1    2    0    0  0.00000000000E+00  0.00000000000E+00 -0.98509566591E+03  0.35405001046E+04  0.34006951524E+04 0.  0.
        5    1    3    3  502    0 -0.11244695032E+03 -0.53810324401E+03 -0.21677206252E+04  0.22363439398E+04  0.46999998093E+01 0. -1.
       -5    1    3    3    0  502  0.11244695032E+03  0.53810324401E+03  0.11826249593E+04  0.13041561648E+04  0.46999998093E+01 0.  1.
</event>
<event>
 5   0  0.1986613E-07  0.3340193E+04  0.7818609E-02  0.8152743E-01
       -2   -1    0    0    0  501  0.00000000000E+00  0.00000000000E+00  0.15305274926E+04  0.15305274926E+04  0.25500000920E-02 0. -1.
        2   -1    0    0  501    0  0.00000000000E+00  0.00000000000E+00 -0.18223932822E+04  0.18223932822E+04  0.25500000920E-02 0.  1.
    10030    2    1    2    0    0  0.00000000000E+00  0.00000000000E+00 -0.29186578954E+03  0.33529207748E+04  0.33401934200E+04 0.  0.
        5    1    3    3  502    0 -0.61718381811E+03 -0.36925343638E+03 -0.16589708214E+04  0.18081676476E+04  0.46999998093E+01 0.  1.
       -5    1    3    3    0  502  0.61718381811E+03  0.36925343638E+03  0.13671050319E+04  0.15447531271E+04  0.46999998093E+01 0. -1.
</event>
<event>
 5   0  0.6584420E-08  0.3400386E+04  0.7818609E-02  0.8137812E-01
        1   -1    0    0  501    0  0.00000000000E+00  0.00000000000E+00  0.25047451855E+04  0.25047451855E+04  0.50400001928E-02 0.  1.
       -1   -1    0    0    0  501  0.00000000000E+00  0.00000000000E+00 -0.11540721635E+04  0.11540721635E+04  0.50400001928E-02 0. -1.
    10030    2    1    2    0    0  0.00000000000E+00  0.00000000000E+00  0.13506730219E+04  0.36588173490E+04  0.34003862694E+04 0.  0.
        1    1    3    3  502    0  0.87487816171E+03 -0.35774306654E+03  0.21959901284E+04  0.23907665180E+04  0.50400001928E-02 0.  1.
       -1    1    3    3    0  502 -0.87487816171E+03  0.35774306654E+03 -0.84531710646E+03  0.12680508310E+04  0.50400001928E-02 0. -1.
</event>
<event>
 5   0  0.6311750E-08  0.3397775E+04  0.7818609E-02  0.8138453E-01
       -1   -1    0    0    0  501  0.00000000000E+00  0.00000000000E+00  0.16435954431E+04  0.16435954431E+04  0.50400001928E-02 0. -1.
        1   -1    0    0  501    0  0.00000000000E+00  0.00000000000E+00 -0.17560392104E+04  0.17560392104E+04  0.50400001928E-02 0.  1.
    10030    2    1    2    0    0  0.00000000000E+00  0.00000000000E+00 -0.11244376733E+03  0.33996346535E+04  0.33977745918E+04 0.  0.
        4    1    3    3  502    0  0.39031712504E+03 -0.18638716446E+03  0.15875800520E+04  0.16454481662E+04  0.12699999809E+01 0. -1.
       -4    1    3    3    0  502 -0.39031712504E+03  0.18638716446E+03 -0.17000238193E+04  0.17541864873E+04  0.12699999809E+01 0.  1.
</event>
<event>
 5   0  0.1897313E-07  0.3368715E+04  0.7818609E-02  0.8145628E-01
        2   -1    0    0  501    0  0.00000000000E+00  0.00000000000E+00  0.20288331096E+04  0.20288331096E+04  0.25500000920E-02 0.  1.
       -2   -1    0    0    0  501  0.00000000000E+00  0.00000000000E+00 -0.13983705081E+04  0.13983705081E+04  0.25500000920E-02 0. -1.
    10030    2    1    2    0    0  0.00000000000E+00  0.00000000000E+00  0.63046260146E+03  0.34272036177E+04  0.33687151179E+04 0.  0.
        3    1    3    3  502    0  0.11347529577E+03  0.84936455288E+03 -0.11600364411E+04  0.14422140414E+04  0.10100000352E+00 0. -1.
       -3    1    3    3    0  502 -0.11347529577E+03 -0.84936455288E+03  0.17904990425E+04  0.19849895763E+04  0.10100000352E+00 0.  1.
</event>
<event>
 5   0  0.1970449E-07  0.3383941E+04  0.7818609E-02  0.8141859E-01
       -2   -1    0    0    0  501  0.00000000000E+00  0.00000000000E+00  0.14540840021E+04  0.14540840021E+04  0.25500000920E-02 0. -1.
        2   -1    0    0  501    0  0.00000000000E+00  0.00000000000E+00 -0.19687745521E+04  0.19687745521E+04  0.25500000920E-02 0.  1.
    10030    2    1    2    0    0  0.00000000000E+00  0.00000000000E+00 -0.51469054994E+03  0.34228585542E+04  0.33839406495E+04 0.  0.
        1    1    3    3  502    0 -0.76615406987E+03 -0.13348219949E+03 -0.17772758894E+04  0.19399791606E+04  0.50400001928E-02 0.  1.
       -1    1    3    3    0  502  0.76615406987E+03  0.13348219949E+03  0.12625853395E+04  0.14828793936E+04  0.50400001928E-02 0. -1.
</event>
<event>
 5   0  0.1986613E-07  0.3397547E+04  0.7818609E-02  0.8138509E-01
        2   -1    0    0  501    0  0.00000000000E+00  0.00000000000E+00  0.15900510654E+04  0.15900510654E+04  0.25500000920E-02 0. -1.
       -2   -1    0    0    0  501  0.00000000000E+00  0.00000000000E+00 -0.18149305484E+04  0.18149305484E+04  0.25500000920E-02 0.  1.
    10030    2    1    2    0    0  0.00000000000E+00  0.00000000000E+00 -0.22487948296E+03  0.34049816138E+04  0.33975474991E+04 0.  0.
        5    1    3    3  502    0 -0.10946173277E+04 -0.11664826190E+04 -0.68547872987E+03  0.17403367415E+04  0.46999998093E+01 0. -1.
       -5    1    3    3    0  502  0.10946173277E+04  0.11664826190E+04  0.46059924691E+03  0.16646448723E+04  0.46999998093E+01 0.  1.
</event>
<event>
 5   0  0.1986613E-07  0.3392291E+04  0.7818609E-02  0.8139801E-01
        2   -1    0    0  501    0  0.00000000000E+00  0.00000000000E+00  0.16026802606E+04  0.16026802606E+04  0.25500000920E-02 0.  1.
       -2   -1    0    0    0  501  0.00000000000E+00  0.00000000000E+00 -0.17950611422E+04  0.17950611422E+04  0.25500000920E-02 0. -1.
    10030    2    1    2    0    0  0.00000000000E+00  0.00000000000E+00 -0.19238088157E+03  0.33977414027E+04  0.33922907063E+04 0.  0.
        5    1    3    3  502    0  0.75669243287E+03 -0.14669798759E+04  0.29465903270E+03  0.16767407164E+04  0.46999998093E+01 0. -1.
       -5    1    3    3    0  502 -0.75669243287E+03  0.14669798759E+04 -0.48703991427E+03  0.17210006864E+04  0.46999998093E+01 0.  1.
</event>
<event>
 5   0  0.1897313E-07  0.3397216E+04  0.7818609E-02  0.8138590E-01
       -2   -1    0    0    0  501  0.00000000000E+00  0.00000000000E+00  0.11233415935E+04  0.11233415935E+04  0.25500000920E-02 0. -1.
        2   -1    0    0  501    0  0.00000000000E+00  0.00000000000E+00 -0.25684702845E+04  0.25684702845E+04  0.25500000920E-02 0.  1.
    10030    2    1    2    0    0  0.00000000000E+00  0.00000000000E+00 -0.14451286910E+04  0.36918118780E+04  0.33972162147E+04 0.  0.
        3    1    3    3  502    0 -0.35716224162E+03 -0.71947279219E+03  0.90390746975E+03  0.12092372346E+04  0.10100000352E+00 0. -1.
       -3    1    3    3    0  502  0.35716224162E+03  0.71947279219E+03 -0.23490361607E+04  0.24825746434E+04  0.10100000352E+00 0.  1.
</event>
<event>
 5   0  0.1963852E-07  0.3399434E+04  0.7818609E-02  0.8138045E-01
        2   -1    0    0  501    0  0.00000000000E+00  0.00000000000E+00  0.19695804191E+04  0.19695804191E+04  0.25500000920E-02 0. -1.
       -2   -1    0    0    0  501  0.00000000000E+00  0.00000000000E+00 -0.14668292709E+04  0.14668292709E+04  0.25500000920E-02 0.  1.
    10030    2    1    2    0    0  0.00000000000E+00  0.00000000000E+00  0.50275114825E+03  0.34364096900E+04  0.33994341942E+04 0.  0.
        4    1    3    3  502    0  0.11019279473E+04  0.75393163892E+03  0.13146617226E+04  0.18737649732E+04  0.12699999809E+01 0. -1.
       -4    1    3    3    0  502 -0.11019279473E+04 -0.75393163892E+03 -0.81191057433E+03  0.15626447168E+04  0.12699999809E+01 0.  1.
</event>
<event>
 5   0  0.6311750E-08  0.3391657E+04  0.7818609E-02  0.8139957E-01
        3   -1    0    0  501    0  0.00000000000E+00  0.00000000000E+00  0.17178180430E+04  0.17178180459E+04  0.10100000352E+00 0.  1.
       -3   -1    0    0    0  501  0.00000000000E+00  0.00000000000E+00 -0.16741200686E+04  0.16741200716E+04  0.10100000352E+00 0. -1.
    10030    2    1    2    0    0  0.00000000000E+00  0.00000000000E+00  0.43697974407E+02  0.33919381175E+04  0.33916566277E+04 0.  0.
        4    1    3    3  502    0 -0.39330978713E+02 -0.10371672244E+04 -0.13193698003E+04  0.16786902812E+04  0.12699999809E+01 0. -1.
       -4    1    3    3    0  502  0.39330978713E+02  0.10371672244E+04  0.13630677747E+04  0.17132478363E+04  0.12699999809E+01 0.  1.
</event>
<event>
 5   0  0.1897313E-07  0.3401646E+04  0.7818609E-02  0.8137502E-01
        2   -1    0    0  501    0  0.00000000000E+00  0.00000000000E+00  0.20534063401E+04  0.20534063401E+04  0.25500000920E-02 0.  1.
       -2   -1    0    0    0  501  0.00000000000E+00  0.00000000000E+00 -0.14087804884E+04  0.14087804884E+04  0.25500000920E-02 0. -1.
    10030    2    1    2    0    0  0.00000000000E+00  0.00000000000E+00  0.64462585176E+03  0.34621868285E+04  0.34016459467E+04 0.  0.
        3    1    3    3  502    0  0.83330331388E+03  0.78472411123E+03 -0.95809595406E+03  0.14926936092E+04  0.10100000352E+00 0. -1.
       -3    1    3    3    0  502 -0.83330331388E+03 -0.78472411123E+03  0.16027218058E+04  0.19694932193E+04  0.10100000352E+00 0.  1.
</event>
<event>
 5   0  0.1963852E-07  0.3410008E+04  0.7818609E-02  0.8135454E-01
        2   -1    0    0  501    0  0.00000000000E+00  0.00000000000E+00  0.13547219420E+04  0.13547219420E+04  0.25500000920E-02 0.  1.
       -2   -1    0    0    0  501  0.00000000000E+00  0.00000000000E+00 -0.21458564171E+04  0.21458564171E+04  0.25500000920E-02 0. -1.
    10030    2    1    2    0    0  0.00000000000E+00  0.00000000000E+00 -0.79113447508E+03  0.35005783591E+04  0.34100080778E+04 0.  0.
        4    1    3    3  502    0 -0.85057819176E+03  0.14495529839E+04 -0.10097837793E+03  0.16837117803E+04  0.12699999809E+01 0.  1.
       -4    1    3    3    0  502  0.85057819176E+03 -0.14495529839E+04 -0.69015609715E+03  0.18168665787E+04  0.12699999809E+01 0. -1.
</event>
<event>
 5   0  0.1970449E-07  0.3373147E+04  0.7818609E-02  0.8144528E-01
        2   -1    0    0  501    0  0.00000000000E+00  0.00000000000E+00  0.28469280229E+04  0.28469280229E+04  0.25500000920E-02 0. -1.
       -2   -1    0    0    0  501  0.00000000000E+00  0.00000000000E+00 -0.99915783746E+03  0.99915783747E+03  0.25500000920E-02 0.  1.
    10030    2    1    2    0    0  0.00000000000E+00  0.00000000000E+00  0.18477701854E+04  0.38460858604E+04  0.33731471636E+04 0.  0.
        1    1    3    3  502    0  0.84448314177E+02  0.19413803911E+02  0.28443883168E+04  0.28457078751E+04  0.50400001928E-02 0. -1.
       -1    1    3    3    0  502 -0.84448314177E+02 -0.19413803911E+02 -0.99661813139E+03  0.10003779853E+04  0.50400001928E-02 0.  1.
</event>
<event>
 5   0  0.6311750E-08  0.3401923E+04  0.7818609E-02  0.8137434E-01
        1   -1    0    0  501    0  0.00000000000E+00  0.00000000000E+00  0.12511358584E+04  0.12511358584E+04  0.50400001928E-02 0.  1.
       -1   -1    0    0    0  501  0.00000000000E+00  0.00000000000E+00 -0.23125150317E+04  0.23125150317E+04  0.50400001928E-02 0. -1.
    10030    2    1    2    0    0  0.00000000000E+00  0.00000000000E+00 -0.10613791733E+04  0.35636508901E+04  0.34019232673E+04 0.  0.
        4    1    3    3  502    0  0.14118271539E+04 -0.18293760831E+03  0.44444968331E+03  0.14913950566E+04  0.12699999809E+01 0.  1.
       -4    1    3    3    0  502 -0.14118271539E+04  0.18293760831E+03 -0.15058288566E+04  0.20722558334E+04  0.12699999809E+01 0. -1.
</event>
<event>
 5   0  0.1897313E-07  0.3406857E+04  0.7818609E-02  0.8136225E-01
        2   -1    0    0  501    0  0.00000000000E+00  0.00000000000E+00  0.22386020744E+04  0.22386020744E+04  0.25500000920E-02 0. -1.
       -2   -1    0    0    0  501  0.00000000000E+00  0.00000000000E+00 -0.12961970257E+04  0.12961970257E+04  0.25500000920E-02 0.  1.
    10030    2    1    2    0    0  0.00000000000E+00  0.00000000000E+00  0.94240504869E+03  0.35347991002E+04  0.34068574086E+04 0.  0.
        3    1    3    3  502    0  0.33695139081E+03  0.67374792671E+03 -0.11139808784E+04  0.13447772738E+04  0.10100000352E+00 0.  1.
       -3    1    3    3    0  502 -0.33695139081E+03 -0.67374792671E+03  0.20563859271E+04  0.21900218263E+04  0.10100000352E+00 0. -1.
</event>
<event>
 5   0  0.1986613E-07  0.3401520E+04  0.7818609E-02  0.8137533E-01
        2   -1    0    0  501    0  0.00000000000E+00  0.00000000000E+00  0.19176054756E+04  0.19176054756E+04  0.25500000920E-02 0. -1.
       -2   -1    0    0    0  501  0.00000000000E+00  0.00000000000E+00 -0.15084356503E+04  0.15084356503E+04  0.25500000920E-02 0.  1.
    10030    2    1    2    0    0  0.00000000000E+00  0.00000000000E+00  0.40916982529E+03  0.34260411259E+04  0.34015199324E+04 0.  0.
        5    1    3    3  502    0  0.51132054584E+02  0.16973770636E+04  0.10978418920E+03  0.17016985753E+04  0.46999998093E+01 0. -1.
       -5    1    3    3    0  502 -0.51132054584E+02 -0.16973770636E+04  0.29938563609E+03  0.17243425506E+04  0.46999998093E+01 0.  1.
</event>
<event>
 5   0  0.6367111E-08  0.3399176E+04  0.7818609E-02  0.8138109E-01
        1   -1    0    0  501    0  0.00000000000E+00  0.00000000000E+00  0.18778316311E+04  0.18778316311E+04  0.50400001928E-02 0. -1.
       -1   -1    0    0    0  501  0.00000000000E+00  0.00000000000E+00 -0.15382629589E+04  0.15382629589E+04  0.50400001928E-02 0.  1.
    10030    2    1    2    0    0  0.00000000000E+00  0.00000000000E+00  0.33956867222E+03  0.34160945900E+04  0.33991756890E+04 0.  0.
        3    1    3    3  502    0  0.16157952967E+04 -0.47914827589E+03  0.39047086408E+03  0.17299841089E+04  0.10100000352E+00 0. -1.
       -3    1    3    3    0  502 -0.16157952967E+04  0.47914827589E+03 -0.50902191862E+02  0.16861104811E+04  0.10100000352E+00 0.  1.
</event>
<event>
 5   0  0.6311750E-08  0.3395095E+04  0.7818609E-02  0.8139111E-01
       -1   -1    0    0    0  501  0.00000000000E+00  0.00000000000E+00  0.14891514801E+04  0.14891514801E+04  0.50400001928E-02 0. -1.
        1   -1    0    0  501    0  0.00000000000E+00  0.00000000000E+00 -0.19351068198E+04  0.19351068198E+04  0.50400001928E-02 0.  1.
    10030    2    1    2    0    0  0.00000000000E+00  0.00000000000E+00 -0.44595533973E+03  0.34242583000E+04  0.33950948057E+04 0.  0.
        4    1    3    3  502    0  0.92328277496E+02  0.13030742049E+04  0.87037223440E+03  0.15697376639E+04  0.12699999809E+01 0. -1.
       -4    1    3    3    0  502 -0.92328277496E+02 -0.13030742049E+04 -0.13163275741E+04  0.18545206360E+04  0.12699999809E+01 0.  1.
</event>
<event>
 5   0  0.1963852E-07  0.3402435E+04  0.7818609E-02  0.8137309E-01
        2   -1    0    0  501    0  0.00000000000E+00  0.00000000000E+00  0.22571212098E+04  0.22571212098E+04  0.25500000920E-02 0. -1.
       -2   -1    0    0    0  501  0.00000000000E+00  0.00000000000E+00 -0.12822265438E+04  0.12822265439E+04  0.25500000920E-02 0.  1.
    10030    2    1    2    0    0  0.00000000000E+00  0.00000000000E+00  0.97489466597E+03  0.35393477537E+04  0.34024348505E+04 0.  0.
        4    1    3    3  502    0  0.10175193778E+04  0.72759312840E+03  0.16868403822E+04  0.21000403645E+04  0.12699999809E+01 0. -1.
       -4    1    3    3    0  502 -0.10175193778E+04 -0.72759312840E+03 -0.71194571619E+03  0.14393073892E+04  0.12699999809E+01 0.  1.
</event>
<event>
 5   0  0.6367111E-08  0.3399071E+04  0.7818609E-02  0.8138134E-01
        1   -1    0    0  501    0  0.00000000000E+00  0.00000000000E+00  0.22057797876E+04  0.22057797876E+04  0.50400001928E-02 0. -1.
       -1   -1    0    0    0  501  0.00000000000E+00  0.00000000000E+00 -0.13094780663E+04  0.13094780663E+04  0.50400001928E-02 0.  1.
    10030    2    1    2    0    0  0.00000000000E+00  0.00000000000E+00  0.89630172127E+03  0.35152578540E+04  0.33990706089E+04 0.  0.
        3    1    3    3  502    0  0.12908170130E+04  0.76459194115E+03  0.12739508027E+04  0.19681869970E+04  0.10100000352E+00 0. -1.
       -3    1    3    3    0  502 -0.12908170130E+04 -0.76459194115E+03 -0.37764908141E+03  0.15470708569E+04  0.10100000352E+00 0.  1.
</event>
<event>
 5   0  0.1986613E-07  0.3395473E+04  0.7818609E-02  0.8139018E-01
       -2   -1    0    0    0  501  0.00000000000E+00  0.00000000000E+00  0.17454435772E+04  0.17454435772E+04  0.25500000920E-02 0.  1.
        2   -1    0    0  501    0  0.00000000000E+00  0.00000000000E+00 -0.16513333953E+04  0.16513333953E+04  0.25500000920E-02 0. -1.
    10030    2    1    2    0    0  0.00000000000E+00  0.00000000000E+00  0.94110181956E+02  0.33967769725E+04  0.33954730267E+04 0.  0.
        5    1    3    3  502    0  0.16547842046E+04  0.15823411400E+03 -0.29795179037E+03  0.16888298191E+04  0.46999998093E+01 0. -1.
       -5    1    3    3    0  502 -0.16547842046E+04 -0.15823411400E+03  0.39206197233E+03  0.17079471534E+04  0.46999998093E+01 0.  1.
</event>
<event>
 5   0  0.1928004E-07  0.3394691E+04  0.7818609E-02  0.8139210E-01
        2   -1    0    0  501    0  0.00000000000E+00  0.00000000000E+00  0.25197613268E+04  0.25197613268E+04  0.25500000920E-02 0. -1.
       -2   -1    0    0    0  501  0.00000000000E+00  0.00000000000E+00 -0.11433552165E+04  0.11433552165E+04  0.25500000920E-02 0.  1.
    10030    2    1    2    0    0  0.00000000000E+00  0.00000000000E+00  0.13764061102E+04  0.36631165433E+04  0.33946913011E+04 0.  0.
        2    1    3    3  502    0 -0.66657604736E+03  0.14524485695E+04  0.13053075496E+04  0.20634336125E+04  0.25500000920E-02 0. -1.
       -2    1    3    3    0  502  0.66657604736E+03 -0.14524485695E+04  0.71098560644E+02  0.15996829309E+04  0.25500000920E-02 0.  1.
</event>
<event>
 5   0  0.1986613E-07  0.3406070E+04  0.7818609E-02  0.8136418E-01
        2   -1    0    0  501    0  0.00000000000E+00  0.00000000000E+00  0.19677840833E+04  0.19677840833E+04  0.25500000920E-02 0. -1.
       -2   -1    0    0    0  501  0.00000000000E+00  0.00000000000E+00 -0.14739057945E+04  0.14739057945E+04  0.25500000920E-02 0.  1.
    10030    2    1    2    0    0  0.00000000000E+00  0.00000000000E+00  0.49387828883E+03  0.34416898778E+04  0.34060700890E+04 0.  0.
        5    1    3    3  502    0 -0.15776484455E+04  0.61660552293E+02 -0.39811734696E+03  0.16282801212E+04  0.46999998093E+01 0.  1.
       -5    1    3    3    0  502  0.15776484455E+04 -0.61660552293E+02  0.89199563579E+03  0.18134097566E+04  0.46999998093E+01 0. -1.
</event>
<event>
 5   0  0.6341535E-08  0.3403177E+04  0.7818609E-02  0.8137127E-01
       -1   -1    0    0    0  501  0.00000000000E+00  0.00000000000E+00  0.25262096134E+04  0.25262096134E+04  0.50400001928E-02 0.  1.
        1   -1    0    0  501    0  0.00000000000E+00  0.00000000000E+00 -0.11461453244E+04  0.11461453244E+04  0.50400001928E-02 0. -1.
    10030    2    1    2    0    0  0.00000000000E+00  0.00000000000E+00  0.13800642890E+04  0.36723549378E+04  0.34031769492E+04 0.  0.
        5    1    3    3  502    0  0.13514876145E+04  0.43707555548E+03  0.17010636597E+04  0.22161212687E+04  0.46999998093E+01 0.  1.
       -5    1    3    3    0  502 -0.13514876145E+04 -0.43707555548E+03 -0.32099937066E+03  0.14562336692E+04  0.46999998093E+01 0. -1.
</event>
<event>
 5   0  0.6311750E-08  0.3400660E+04  0.7818609E-02  0.8137744E-01
       -1   -1    0    0    0  501  0.00000000000E+00  0.00000000000E+00  0.16422217993E+04  0.16422217993E+04  0.50400001928E-02 0.  1.
        1   -1    0    0  501    0  0.00000000000E+00  0.00000000000E+00 -0.17604945372E+04  0.17604945372E+04  0.50400001928E-02 0. -1.
    10030    2    1    2    0    0  0.00000000000E+00  0.00000000000E+00 -0.11827273784E+03  0.34027163365E+04  0.34006602339E+04 0.  0.
        4    1    3    3  502    0  0.84778154297E+03  0.11710695269E+04  0.83638157296E+03  0.16702314600E+04  0.12699999809E+01 0.  1.
       -4    1    3    3    0  502 -0.84778154297E+03 -0.11710695269E+04 -0.95465431080E+03  0.17324848766E+04  0.12699999809E+01 0. -1.
</event>
<event>
 5   0  0.1897313E-07  0.3400172E+04  0.7818609E-02  0.8137864E-01
       -2   -1    0    0    0  501  0.00000000000E+00  0.00000000000E+00  0.21419984897E+04  0.21419984897E+04  0.25500000920E-02 0.  1.
        2   -1    0    0  501    0  0.00000000000E+00  0.00000000000E+00 -0.13493439384E+04  0.13493439384E+04  0.25500000920E-02 0. -1.
    10030    2    1    2    0    0  0.00000000000E+00  0.00000000000E+00  0.79265455133E+03  0.34913424281E+04  0.34001721593E+04 0.  0.
        3    1    3    3  502    0  0.10846714230E+04 -0.12333825524E+04 -0.54241511843E+02  0.16433766361E+04  0.10100000352E+00 0. -1.
       -3    1    3    3    0  502 -0.10846714230E+04  0.12333825524E+04  0.84689606317E+03  0.18479657920E+04  0.10100000352E+00 0.  1.
</event>
<event>
 5   0  0.6788600E-08  0.3404451E+04  0.7818609E-02  0.8136815E-01
       -1   -1    0    0    0  501  0.00000000000E+00  0.00000000000E+00  0.18015047607E+04  0.18015047607E+04  0.50400001928E-02 0. -1.
        1   -1    0    0  501    0  0.00000000000E+00  0.00000000000E+00 -0.16084170493E+04  0.16084170493E+04  0.50400001928E-02 0.  1.
    10030    2    1    2    0    0  0.00000000000E+00  0.00000000000E+00  0.19308771136E+03  0.34099218100E+04  0.34044505998E+04 0.  0.
        2    1    3    3  502    0  0.37073232122E+03 -0.23641706009E+03 -0.15505548962E+04  0.16116935088E+04  0.25500000920E-02 0.  1.
       -2    1    3    3    0  502 -0.37073232122E+03  0.23641706009E+03  0.17436426076E+04  0.17982283012E+04  0.25500000920E-02 0. -1.
</event>
<event>
 5   0  0.1963852E-07  0.3404056E+04  0.7818609E-02  0.8136912E-01
        2   -1    0    0  501    0  0.00000000000E+00  0.00000000000E+00  0.25351433425E+04  0.25351433425E+04  0.25500000920E-02 0.  1.
       -2   -1    0    0    0  501  0.00000000000E+00  0.00000000000E+00 -0.11426963615E+04  0.11426963615E+04  0.25500000920E-02 0. -1.
    10030    2    1    2    0    0  0.00000000000E+00  0.00000000000E+00  0.13924469810E+04  0.36778397039E+04  0.34040558592E+04 0.  0.
        4    1    3    3  502    0 -0.21364899961E+03  0.16348361161E+04  0.11527764613E+04  0.20117729008E+04  0.12699999809E+01 0. -1.
       -4    1    3    3    0  502  0.21364899961E+03 -0.16348361161E+04  0.23967051969E+03  0.16660668031E+04  0.12699999809E+01 0.  1.
</event>
<event>
 5   0  0.6311750E-08  0.3397840E+04  0.7818609E-02  0.8138437E-01
       -1   -1    0    0    0  501  0.00000000000E+00  0.00000000000E+00  0.20710516181E+04  0.20710516181E+04  0.50400001928E-02 0.  1.
        1   -1    0    0  501    0  0.00000000000E+00  0.00000000000E+00 -0.13936539152E+04  0.13936539152E+04  0.50400001928E-02 0. -1.
    10030    2    1    2    0    0  0.00000000000E+00  0.00000000000E+00  0.67739770296E+03  0.34647055333E+04  0.33978400175E+04 0.  0.
        4    1    3    3  502    0 -0.11863902457E+04  0.10938804449E+04 -0.20301011216E+03  0.16264411952E+04  0.12699999809E+01 0. -1.
       -4    1    3    3    0  502  0.11863902457E+04 -0.10938804449E+04  0.88040781512E+03  0.18382643381E+04  0.12699999809E+01 0.  1.
</event>
<event>
 5   0  0.6584420E-08  0.3401170E+04  0.7818609E-02  0.8137619E-01
       -1   -1    0    0    0  501  0.00000000000E+00  0.00000000000E+00  0.11071341989E+04  0.11071341989E+04  0.50400001928E-02 0.  1.
        1   -1    0    0  501    0  0.00000000000E+00  0.00000000000E+00 -0.26121395149E+04  0.26121395149E+04  0.50400001928E-02 0. -1.
    10030    2    1    2    0    0  0.00000000000E+00  0.00000000000E+00 -0.15050053160E+04  0.37192737138E+04  0.34011697924E+04 0.  0.
        1    1    3    3  502    0  0.13230915425E+04  0.59802112276E+03  0.21561751546E+03  0.14678867143E+04  0.50400001928E-02 0.  1.
       -1    1    3    3    0  502 -0.13230915425E+04 -0.59802112276E+03 -0.17206228314E+04  0.22513869994E+04  0.50400001928E-02 0. -1.
</event>
<event>
 5   0  0.6341535E-08  0.3398852E+04  0.7818609E-02  0.8138188E-01
        1   -1    0    0  501    0  0.00000000000E+00  0.00000000000E+00  0.13084522675E+04  0.13084522675E+04  0.50400001928E-02 0. -1.
       -1   -1    0    0    0  501  0.00000000000E+00  0.00000000000E+00 -0.22072248519E+04  0.22072248519E+04  0.50400001928E-02 0.  1.
    10030    2    1    2    0    0  0.00000000000E+00  0.00000000000E+00 -0.89877258445E+03  0.35156771194E+04  0.33988517839E+04 0.  0.
        5    1    3    3  502    0  0.22482221354E+02 -0.54347720846E+03 -0.21147423495E+04  0.21835819704E+04  0.46999998093E+01 0.  1.
       -5    1    3    3    0  502 -0.22482221354E+02  0.54347720846E+03  0.12159697651E+04  0.13320951490E+04  0.46999998093E+01 0. -1.
</event>
<event>
 5   0  0.6367111E-08  0.3341096E+04  0.7818609E-02  0.8152517E-01
        1   -1    0    0  501    0  0.00000000000E+00  0.00000000000E+00  0.16777523437E+04  0.16777523438E+04  0.50400001928E-02 0.  1.
       -1   -1    0    0    0  501  0.00000000000E+00  0.00000000000E+00 -0.16633741730E+04  0.16633741730E+04  0.50400001928E-02 0. -1.
    10030    2    1    2    0    0  0.00000000000E+00  0.00000000000E+00  0.14378170735E+02  0.33411265168E+04  0.33410955792E+04 0.  0.
        3    1    3    3  502    0  0.53819292593E+03 -0.54778794821E+03  0.14907818216E+04  0.16769477367E+04  0.10100000352E+00 0.  1.
       -3    1    3    3    0  502 -0.53819292593E+03  0.54778794821E+03 -0.14764036508E+04  0.16641787801E+04  0.10100000352E+00 0. -1.
</event>
<event>
 5   0  0.1928004E-07  0.3405102E+04  0.7818609E-02  0.8136655E-01
       -2   -1    0    0    0  501  0.00000000000E+00  0.00000000000E+00  0.13130740873E+04  0.13130740873E+04  0.25500000920E-02 0.  1.
        2   -1    0    0  501    0  0.00000000000E+00  0.00000000000E+00 -0.22075521204E+04  0.22075521204E+04  0.25500000920E-02 0. -1.
    10030    2    1    2    0    0  0.00000000000E+00  0.00000000000E+00 -0.89447803306E+03  0.35206262077E+04  0.34051017522E+04 0.  0.
        2    1    3    3  502    0  0.40698479358E+03  0.15411257290E+04  0.17136933437E+03  0.16031445923E+04  0.25500000920E-02 0.  1.
       -2    1    3    3    0  502 -0.40698479358E+03 -0.15411257290E+04 -0.10658473674E+04  0.19174816154E+04  0.25500000920E-02 0. -1.
</event>
<event>
 5   0  0.6311750E-08  0.3405408E+04  0.7818609E-02  0.8136580E-01
        1   -1    0    0  501    0  0.00000000000E+00  0.00000000000E+00  0.18231318176E+04  0.18231318176E+04  0.50400001928E-02 0.  1.
       -1   -1    0    0    0  501  0.00000000000E+00  0.00000000000E+00 -0.15902311615E+04  0.15902311615E+04  0.50400001928E-02 0. -1.
    10030    2    1    2    0    0  0.00000000000E+00  0.00000000000E+00  0.23290065609E+03  0.34133629792E+04  0.34054080684E+04 0.  0.
        4    1    3    3  502    0  0.13083457480E+04 -0.59418920285E+03 -0.79912199550E+03  0.16442101392E+04  0.12699999809E+01 0. -1.
       -4    1    3    3    0  502 -0.13083457480E+04  0.59418920285E+03  0.10320226516E+04  0.17691528400E+04  0.12699999809E+01 0.  1.
</event>
<event>
 5   0  0.1897313E-07  0.3393650E+04  0.7818609E-02  0.8139467E-01
        2   -1    0    0  501    0  0.00000000000E+00  0.00000000000E+00  0.25236720930E+04  0.25236720930E+04  0.25500000920E-02 0.  1.
       -2   -1    0    0    0  501  0.00000000000E+00  0.00000000000E+00 -0.11408830378E+04  0.11408830378E+04  0.25500000920E-02 0. -1.
    10030    2    1    2    0    0  0.00000000000E+00  0.00000000000E+00  0.13827890552E+04  0.36645551308E+04  0.33936497661E+04 0.  0.
        3    1    3    3  502    0 -0.39046511313E+01 -0.16965238538E+04  0.65714100809E+03  0.18193522879E+04  0.10100000352E+00 0. -1.
       -3    1    3    3    0  502  0.39046511313E+01  0.16965238538E+04  0.72564804710E+03  0.18452028429E+04  0.10100000352E+00 0.  1.
</event>
<event>
 5   0  0.1963852E-07  0.3399808E+04  0.7818609E-02  0.8137953E-01
        2   -1    0    0  501    0  0.00000000000E+00  0.00000000000E+00  0.12158442523E+04  0.12158442523E+04  0.25500000920E-02 0. -1.
       -2   -1    0    0    0  501  0.00000000000E+00  0.00000000000E+00 -0.23766805007E+04  0.23766805007E+04  0.25500000920E-02 0.  1.
    10030    2    1    2    0    0  0.00000000000E+00  0.00000000000E+00 -0.11608362484E+04  0.35925247529E+04  0.33998078335E+04 0.  0.
        4    1    3    3  502    0  0.60787216013E+03  0.13218810405E+04 -0.15093356903E+04  0.20964193014E+04  0.12699999809E+01 0.  1.
       -4    1    3    3    0  502 -0.60787216013E+03 -0.13218810405E+04  0.34849944194E+03  0.14961054515E+04  0.12699999809E+01 0. -1.
</event>
<event>
 5   0  0.6584420E-08  0.3393371E+04  0.7818609E-02  0.8139535E-01
        1   -1    0    0  501    0  0.00000000000E+00  0.00000000000E+00  0.19897803047E+04  0.19897803047E+04  0.50400001928E-02 0. -1.
       -1   -1    0    0    0  501  0.00000000000E+00  0.00000000000E+00 -0.14467636014E+04  0.14467636014E+04  0.50400001928E-02 0.  1.
    10030    2    1    2    0    0  0.00000000000E+00  0.00000000000E+00  0.54301670334E+03  0.34365439061E+04  0.33933710198E+04 0.  0.
        1    1    3    3  502    0  0.10396500312E+04  0.19277117931E+02 -0.10862570855E+04  0.15037281172E+04  0.50400001928E-02 0.  1.
       -1    1    3    3    0  502 -0.10396500312E+04 -0.19277117931E+02  0.16292737889E+04  0.19328157889E+04  0.50400001928E-02 0. -1.
</event>
<event>
 5   0  0.1986613E-07  0.3405104E+04  0.7818609E-02  0.8136655E-01
       -2   -1    0    0    0  501  0.00000000000E+00  0.00000000000E+00  0.12615337950E+04  0.12615337950E+04  0.25500000920E-02 0.  1.
        2   -1    0    0  501    0  0.00000000000E+00  0.00000000000E+00 -0.22977453304E+04  0.22977453304E+04  0.25500000920E-02 0. -1.
    10030    2    1    2    0    0  0.00000000000E+00  0.00000000000E+00 -0.10362115354E+04  0.35592791253E+04  0.34051040433E+04 0.  0.
        5    1    3    3  502    0 -0.25769710807E+03 -0.23867940517E+03  0.12232419671E+04  0.12726816798E+04  0.46999998093E+01 0.  1.
       -5    1    3    3    0  502  0.25769710807E+03  0.23867940517E+03 -0.22594535025E+04  0.22865974456E+04  0.46999998093E+01 0. -1.
</event>
<event>
 5   0  0.1970449E-07  0.3400950E+04  0.7818609E-02  0.8137673E-01
       -2   -1    0    0    0  501  0.00000000000E+00  0.00000000000E+00  0.11380255445E+04  0.11380255445E+04  0.25500000920E-02 0. -1.
        2   -1    0    0  501    0  0.00000000000E+00  0.00000000000E+00 -0.25409056945E+04  0.25409056945E+04  0.25500000920E-02 0.  1.
    10030    2    1    2    0    0  0.00000000000E+00  0.00000000000E+00 -0.14028801499E+04  0.36789312390E+04  0.34009502122E+04 0.  0.
        1    1    3    3  502    0 -0.25802478972E+03  0.13460118397E+04  0.38746111497E+03  0.14242369116E+04  0.50400001928E-02 0. -1.
       -1    1    3    3    0  502  0.25802478972E+03 -0.13460118397E+04 -0.17903412649E+04  0.22546943273E+04  0.50400001928E-02 0.  1.
</event>
<event>
 5   0  0.1897313E-07  0.3404603E+04  0.7818609E-02  0.8136778E-01
        2   -1    0    0  501    0  0.00000000000E+00  0.00000000000E+00  0.23971607676E+04  0.23971607676E+04  0.25500000920E-02 0.  1.
       -2   -1    0    0    0  501  0.00000000000E+00  0.00000000000E+00 -0.12088591267E+04  0.12088591267E+04  0.25500000920E-02 0. -1.
    10030    2    1    2    0    0  0.00000000000E+00  0.00000000000E+00  0.11883016409E+04  0.36060198944E+04  0.34046025743E+04 0.  0.
        3    1    3    3  502    0  0.52323508247E+03  0.95727530801E+03 -0.78994059593E+03  0.13469065009E+04  0.10100000352E+00 0. -1.
       -3    1    3    3    0  502 -0.52323508247E+03 -0.95727530801E+03  0.19782422368E+04  0.22591133935E+04  0.10100000352E+00 0.  1.
</event>
<event>
 5   0  0.6584420E-08  0.3396495E+04  0.7818609E-02  0.8138767E-01
       -1   -1    0    0    0  501  0.00000000000E+00  0.00000000000E+00  0.14793510046E+04  0.14793510047E+04  0.50400001928E-02 0. -1.
        1   -1    0    0  501    0  0.00000000000E+00  0.00000000000E+00 -0.19495334318E+04  0.19495334318E+04  0.50400001928E-02 0.  1.
    10030    2    1    2    0    0  0.00000000000E+00  0.00000000000E+00 -0.47018242718E+03  0.34288844365E+04  0.33964948055E+04 0.  0.
        1    1    3    3  502    0  0.11161892476E+04  0.76129018315E+03 -0.12737872310E+04  0.18568723945E+04  0.50400001928E-02 0.  1.
       -1    1    3    3    0  502 -0.11161892476E+04 -0.76129018315E+03  0.80360480383E+03  0.15720120420E+04  0.50400001928E-02 0. -1.
</event>
<event>
 5   0  0.6788600E-08  0.3399443E+04  0.7818609E-02  0.8138043E-01
       -1   -1    0    0    0  501  0.00000000000E+00  0.00000000000E+00  0.28027441060E+04  0.28027441060E+04  0.50400001928E-02 0. -1.
        1   -1    0    0  501    0  0.00000000000E+00  0.00000000000E+00 -0.10307946490E+04  0.10307946490E+04  0.50400001928E-02 0.  1.
    10030    2    1    2    0    0  0.00000000000E+00  0.00000000000E+00  0.17719494571E+04  0.38335387550E+04  0.33994432644E+04 0.  0.
        2    1    3    3  502    0 -0.13324396739E+04  0.81672091120E+03  0.16396141748E+04  0.22651187990E+04  0.25500000920E-02 0. -1.
       -2    1    3    3    0  502  0.13324396739E+04 -0.81672091120E+03  0.13233528230E+03  0.15684199560E+04  0.25500000920E-02 0.  1.
</event>
<event>
 5   0  0.1970449E-07  0.3397752E+04  0.7818609E-02  0.8138458E-01
       -2   -1    0    0    0  501  0.00000000000E+00  0.00000000000E+00  0.16158253276E+04  0.16158253276E+04  0.25500000920E-02 0.  1.
        2   -1    0    0  501    0  0.00000000000E+00  0.00000000000E+00 -0.17861953528E+04  0.17861953528E+04  0.25500000920E-02 0. -1.
    10030    2    1    2    0    0  0.00000000000E+00  0.00000000000E+00 -0.17037002520E+03  0.34020206805E+04  0.33977520164E+04 0.  0.
        1    1    3    3  502    0  0.11956164071E+04 -0.17303008013E+03 -0.12811485698E+04  0.17609030806E+04  0.50400001928E-02 0. -1.
       -1    1    3    3    0  502 -0.11956164071E+04  0.17303008013E+03  0.11107785446E+04  0.16411175999E+04  0.50400001928E-02 0.  1.
</event>
<event>
 5   0  0.1897313E-07  0.3412316E+04  0.7818609E-02  0.8134890E-01
       -2   -1    0    0    0  501  0.00000000000E+00  0.00000000000E+00  0.13839132270E+04  0.13839132270E+04  0.25500000920E-02 0.  1.
        2   -1    0    0  501    0  0.00000000000E+00  0.00000000000E+00 -0.21034375260E+04  0.21034375260E+04  0.25500000920E-02 0. -1.
    10030    2    1    2    0    0  0.00000000000E+00  0.00000000000E+00 -0.71952429904E+03  0.34873507530E+04  0.34123159375E+04 0.  0.
        3    1    3    3  502    0  0.15782912129E+04 -0.51944477796E+03  0.36249152359E+02  0.16619687245E+04  0.10100000352E+00 0.  1.
       -3    1    3    3    0  502 -0.15782912129E+04  0.51944477796E+03 -0.75577345140E+03  0.18253820285E+04  0.10100000352E+00 0. -1.
</event>
<event>
 5   0  0.6341535E-08  0.3402159E+04  0.7818609E-02  0.8137377E-01
        1   -1    0    0  501    0  0.00000000000E+00  0.00000000000E+00  0.18434223108E+04  0.18434223108E+04  0.50400001928E-02 0. -1.
       -1   -1    0    0    0  501  0.00000000000E+00  0.00000000000E+00 -0.15697279458E+04  0.15697279458E+04  0.50400001928E-02 0.  1.
    10030    2    1    2    0    0  0.00000000000E+00  0.00000000000E+00  0.27369436495E+03  0.34131502566E+04  0.34021590305E+04 0.  0.
        5    1    3    3  502    0 -0.66784837687E+03 -0.11571659597E+04 -0.91945271630E+03  0.16218723440E+04  0.46999998093E+01 0.  1.
       -5    1    3    3    0  502  0.66784837687E+03  0.11571659597E+04  0.11931470813E+04  0.17912779126E+04  0.46999998093E+01 0. -1.
</event>
<event>
 5   0  0.1897313E-07  0.3397979E+04  0.7818609E-02  0.8138402E-01
       -2   -1    0    0    0  501  0.00000000000E+00  0.00000000000E+00  0.19227618900E+04  0.19227618900E+04  0.25500000920E-02 0. -1.
        2   -1    0    0  501    0  0.00000000000E+00  0.00000000000E+00 -0.15012602637E+04  0.15012602637E+04  0.25500000920E-02 0.  1.
    10030    2    1    2    0    0  0.00000000000E+00  0.00000000000E+00  0.42150162636E+03  0.34240221537E+04  0.33979794126E+04 0.  0.
        3    1    3    3  502    0  0.13868290328E+04  0.87083706289E+03  0.66689453003E+03  0.17681629678E+04  0.10100000352E+00 0. -1.
       -3    1    3    3    0  502 -0.13868290328E+04 -0.87083706289E+03 -0.24539290367E+03  0.16558591859E+04  0.10100000352E+00 0.  1.
</event>
<event>
 5   0  0.6311750E-08  0.3401020E+04  0.7818609E-02  0.8137656E-01
        1   -1    0    0  501    0  0.00000000000E+00  0.00000000000E+00  0.32807931187E+04  0.32807931187E+04  0.50400001928E-02 0.  1.
       -1   -1    0    0    0  501  0.00000000000E+00  0.00000000000E+00 -0.88141309658E+03  0.88141309659E+03  0.50400001928E-02 0. -1.
    10030    2    1    2    0    0  0.00000000000E+00  0.00000000000E+00  0.23993800221E+04  0.41622062153E+04  0.34010198600E+04 0.  0.
        4    1    3    3  502    0  0.38798729936E+03 -0.15130587588E+04  0.20223346445E+04  0.25553316770E+04  0.12699999809E+01 0.  1.
       -4    1    3    3    0  502 -0.38798729936E+03  0.15130587588E+04  0.37704537760E+03  0.16068745383E+04  0.12699999809E+01 0. -1.
</event>
<event>
 5   0  0.6311750E-08  0.3397860E+04  0.7818609E-02  0.8138432E-01
        1   -1    0    0  501    0  0.00000000000E+00  0.00000000000E+00  0.23854632605E+04  0.23854632605E+04  0.50400001928E-02 0.  1.
       -1   -1    0    0    0  501  0.00000000000E+00  0.00000000000E+00 -0.12099802588E+04  0.12099802589E+04  0.50400001928E-02 0. -1.
    10030    2    1    2    0    0  0.00000000000E+00  0.00000000000E+00  0.11754830016E+04  0.35954435193E+04  0.33978601816E+04 0.  0.
        4    1    3    3  502    0  0.11295482229E+03  0.14315238762E+04  0.15484702714E+04  0.21118194038E+04  0.12699999809E+01 0.  1.
       -4    1    3    3    0  502 -0.11295482229E+03 -0.14315238762E+04 -0.37298726978E+03  0.14836241155E+04  0.12699999809E+01 0. -1.
</event>
<event>
 5   0  0.1897313E-07  0.3399171E+04  0.7818609E-02  0.8138110E-01
        2   -1    0    0  501    0  0.00000000000E+00  0.00000000000E+00  0.21276519160E+04  0.21276519160E+04  0.25500000920E-02 0.  1.
       -2   -1    0    0    0  501  0.00000000000E+00  0.00000000000E+00 -0.13576428615E+04  0.13576428615E+04  0.25500000920E-02 0. -1.
    10030    2    1    2    0    0  0.00000000000E+00  0.00000000000E+00  0.77000905457E+03  0.34852947775E+04  0.33991713317E+04 0.  0.
        3    1    3    3  502    0  0.11327744258E+03 -0.13162686387E+04 -0.71128914291E+03  0.15004423225E+04  0.10100000352E+00 0. -1.
       -3    1    3    3    0  502 -0.11327744258E+03  0.13162686387E+04  0.14812981975E+04  0.19848524550E+04  0.10100000352E+00 0.  1.
</event>
<event>
 5   0  0.6367111E-08  0.3407084E+04  0.7818609E-02  0.8136170E-01
       -1   -1    0    0    0  501  0.00000000000E+00  0.00000000000E+00  0.23843651382E+04  0.23843651382E+04  0.50400001928E-02 0.  1.
        1   -1    0    0  501    0  0.00000000000E+00  0.00000000000E+00 -0.12171185197E+04  0.12171185197E+04  0.50400001928E-02 0. -1.
    10030    2    1    2    0    0  0.00000000000E+00  0.00000000000E+00  0.11672466185E+04  0.36014836580E+04  0.34070837780E+04 0.  0.
        3    1    3    3  502    0  0.63382873946E+03 -0.46256282773E+03 -0.10147203253E+04  0.12827160985E+04  0.10100000352E+00 0. -1.
       -3    1    3    3    0  502 -0.63382873946E+03  0.46256282773E+03  0.21819669438E+04  0.23187675595E+04  0.10100000352E+00 0.  1.
</event>
<event>
 5   0  0.6584420E-08  0.3397327E+04  0.7818609E-02  0.8138563E-01
       -1   -1    0    0    0  501  0.00000000000E+00  0.00000000000E+00  0.15756891094E+04  0.15756891094E+04  0.50400001928E-02 0. -1.
        1   -1    0    0  501    0  0.00000000000E+00  0.00000000000E+00 -0.18312350197E+04  0.18312350197E+04  0.50400001928E-02 0.  1.
    10030    2    1    2    0    0  0.00000000000E+00  0.00000000000E+00 -0.25554591030E+03  0.34069241291E+04  0.33973266415E+04 0.  0.
        1    1    3    3  502    0  0.13842343103E+04  0.73517929172E+03 -0.78449997143E+03  0.17527217184E+04  0.50400001928E-02 0.  1.
       -1    1    3    3    0  502 -0.13842343103E+04 -0.73517929172E+03  0.52895406113E+03  0.16542024107E+04  0.50400001928E-02 0. -1.
</event>
<event>
 5   0  0.6311750E-08  0.3401574E+04  0.7818609E-02  0.8137520E-01
        1   -1    0    0  501    0  0.00000000000E+00  0.00000000000E+00  0.15318467234E+04  0.15318467234E+04  0.50400001928E-02 0.  1.
       -1   -1    0    0    0  501  0.00000000000E+00  0.00000000000E+00 -0.18883593633E+04  0.18883593633E+04  0.50400001928E-02 0. -1.
    10030    2    1    2    0    0  0.00000000000E+00  0.00000000000E+00 -0.35651263994E+03  0.34202060867E+04  0.34015744021E+04 0.  0.
        4    1    3    3  502    0  0.65060969448E+03  0.19123827821E+03 -0.17465465466E+04  0.18735771951E+04  0.12699999809E+01 0. -1.
       -4    1    3    3    0  502 -0.65060969448E+03 -0.19123827821E+03  0.13900339067E+04  0.15466288916E+04  0.12699999809E+01 0.  1.
</event>
<event>
 5   0  0.1928004E-07  0.3388673E+04  0.7818609E-02  0.8140692E-01
       -2   -1    0    0    0  501  0.00000000000E+00  0.00000000000E+00  0.23167550434E+04  0.23167550434E+04  0.25500000920E-02 0. -1.
        2   -1    0    0  501    0  0.00000000000E+00  0.00000000000E+00 -0.12391364047E+04  0.12391364047E+04  0.25500000920E-02 0.  1.
    10030    2    1    2    0    0  0.00000000000E+00  0.00000000000E+00  0.10776186387E+04  0.35558914482E+04  0.33886726104E+04 0.  0.
        2    1    3    3  502    0 -0.16201159264E+04 -0.38915293473E+03  0.21612908052E+03  0.16801569573E+04  0.25500000920E-02 0.  1.
       -2    1    3    3    0  502  0.16201159264E+04  0.38915293473E+03  0.86148955820E+03  0.18757344909E+04  0.25500000920E-02 0. -1.
</event>
<event>
 5   0  0.1928004E-07  0.3397720E+04  0.7818609E-02  0.8138466E-01
        2   -1    0    0  501    0  0.00000000000E+00  0.00000000000E+00  0.24981473842E+04  0.24981473842E+04  0.25500000920E-02 0. -1.
       -2   -1    0    0    0  501  0.00000000000E+00  0.00000000000E+00 -0.11553065003E+04  0.11553065003E+04  0.25500000920E-02 0.  1.
    10030    2    1    2    0    0  0.00000000000E+00  0.00000000000E+00  0.13428408839E+04  0.36534538844E+04  0.33977203602E+04 0.  0.
        2    1    3    3  502    0 -0.10097877444E+04  0.33456453813E+03  0.20957002141E+04  0.23502263947E+04  0.25500000920E-02 0. -1.
       -2    1    3    3    0  502  0.10097877444E+04 -0.33456453813E+03 -0.75285933022E+03  0.13032274897E+04  0.25500000920E-02 0.  1.
</event>
<event>
 5   0  0.1928004E-07  0.3451022E+04  0.7818609E-02  0.8125496E-01
       -2   -1    0    0    0  501  0.00000000000E+00  0.00000000000E+00  0.12021505493E+04  0.12021505493E+04  0.25500000920E-02 0. -1.
        2   -1    0    0  501    0  0.00000000000E+00  0.00000000000E+00 -0.24767180303E+04  0.24767180303E+04  0.25500000920E-02 0.  1.
    10030    2    1    2    0    0  0.00000000000E+00  0.00000000000E+00 -0.12745674810E+04  0.36788685796E+04  0.34510218432E+04 0.  0.
        2    1    3    3  502    0  0.11403018801E+04 -0.12933035739E+04 -0.56604796965E+03  0.18147542027E+04  0.25500000920E-02 0.  1.
       -2    1    3    3    0  502 -0.11403018801E+04  0.12933035739E+04 -0.70851951135E+03  0.18641143769E+04  0.25500000920E-02 0. -1.
</event>
<event>
 5   0  0.6788600E-08  0.3396667E+04  0.7818609E-02  0.8138725E-01
       -1   -1    0    0    0  501  0.00000000000E+00  0.00000000000E+00  0.11316007238E+04  0.11316007238E+04  0.50400001928E-02 0. -1.
        1   -1    0    0  501    0  0.00000000000E+00  0.00000000000E+00 -0.25488998655E+04  0.25488998655E+04  0.50400001928E-02 0.  1.
    10030    2    1    2    0    0  0.00000000000E+00  0.00000000000E+00 -0.14172991417E+04  0.36805005894E+04  0.33966671505E+04 0.  0.
        2    1    3    3  502    0  0.13817763668E+04 -0.77360472814E+03 -0.43721184545E+02  0.15841975083E+04  0.25500000920E-02 0.  1.
       -2    1    3    3    0  502 -0.13817763668E+04  0.77360472814E+03 -0.13735779571E+04  0.20963030811E+04  0.25500000920E-02 0. -1.
</event>
<event>
 5   0  0.6311750E-08  0.3385896E+04  0.7818609E-02  0.8141377E-01
        1   -1    0    0  501    0  0.00000000000E+00  0.00000000000E+00  0.25394600262E+04  0.25394600262E+04  0.50400001928E-02 0. -1.
       -1   -1    0    0    0  501  0.00000000000E+00  0.00000000000E+00 -0.11286152576E+04  0.11286152576E+04  0.50400001928E-02 0.  1.
    10030    2    1    2    0    0  0.00000000000E+00  0.00000000000E+00  0.14108447686E+04  0.36680752839E+04  0.33858962369E+04 0.  0.
        4    1    3    3  502    0  0.14106673948E+03  0.13989510911E+04 -0.31608565990E+03  0.14411369600E+04  0.12699999809E+01 0.  1.
       -4    1    3    3    0  502 -0.14106673948E+03 -0.13989510911E+04  0.17269304285E+04  0.22269383238E+04  0.12699999809E+01 0. -1.
</event>
<event>
 5   0  0.6367111E-08  0.3414631E+04  0.7818609E-02  0.8134325E-01
       -1   -1    0    0    0  501  0.00000000000E+00  0.00000000000E+00  0.13132557995E+04  0.13132557995E+04  0.50400001928E-02 0.  1.
        1   -1    0    0  501    0  0.00000000000E+00  0.00000000000E+00 -0.22196175983E+04  0.22196175983E+04  0.50400001928E-02 0. -1.
    10030    2    1    2    0    0  0.00000000000E+00  0.00000000000E+00 -0.90636179881E+03  0.35328733977E+04  0.34146306878E+04 0.  0.
        3    1    3    3  502    0  0.16201434115E+04 -0.49622271594E+03 -0.23658989208E+03  0.17108700841E+04  0.10100000352E+00 0.  1.
       -3    1    3    3    0  502 -0.16201434115E+04  0.49622271594E+03 -0.66977190673E+03  0.18220033136E+04  0.10100000352E+00 0. -1.
</event>
<event>
 5   0  0.1986613E-07  0.3395555E+04  0.7818609E-02  0.8138998E-01
       -2   -1    0    0    0  501  0.00000000000E+00  0.00000000000E+00  0.12550302011E+04  0.12550302011E+04  0.25500000920E-02 0. -1.
        2   -1    0    0  501    0  0.00000000000E+00  0.00000000000E+00 -0.22967169251E+04  0.22967169251E+04  0.25500000920E-02 0.  1.
    10030    2    1    2    0    0  0.00000000000E+00  0.00000000000E+00 -0.10416867240E+04  0.35517471262E+04  0.33955553916E+04 0.  0.
        5    1    3    3  502    0 -0.73910564596E+03 -0.12846977250E+04  0.34531799476E+03  0.15218383646E+04  0.46999998093E+01 0. -1.
       -5    1    3    3    0  502  0.73910564596E+03  0.12846977250E+04 -0.13870047188E+04  0.20299087616E+04  0.46999998093E+01 0.  1.
</event>
<event>
 5   0  0.6311750E-08  0.3392600E+04  0.7818609E-02  0.8139725E-01
       -1   -1    0    0    0  501  0.00000000000E+00  0.00000000000E+00  0.27803084053E+04  0.27803084053E+04  0.50400001928E-02 0.  1.
        1   -1    0    0  501    0  0.00000000000E+00  0.00000000000E+00 -0.10349334578E+04  0.10349334578E+04  0.50400001928E-02 0. -1.
    10030    2    1    2    0    0  0.00000000000E+00  0.00000000000E+00  0.17453749475E+04  0.38152418631E+04  0.33926002957E+04 0.  0.
        4    1    3    3  502    0 -0.71113684961E+03 -0.14834062049E+04  0.40734743773E+03  0.16947398430E+04  0.12699999809E+01 0.  1.
       -4    1    3    3    0  502  0.71113684961E+03  0.14834062049E+04  0.13380275098E+04  0.21205020201E+04  0.12699999809E+01 0. -1.
</event>
<event>
 5   0  0.1986613E-07  0.3401151E+04  0.7818609E-02  0.8137624E-01
        2   -1    0    0  501    0  0.00000000000E+00  0.00000000000E+00  0.13452988472E+04  0.13452988472E+04  0.25500000920E-02 0.  1.
       -2   -1    0    0    0  501  0.00000000000E+00  0.00000000000E+00 -0.21496759574E+04  0.21496759574E+04  0.25500000920E-02 0. -1.
    10030    2    1    2    0    0  0.00000000000E+00  0.00000000000E+00 -0.80437711020E+03  0.34949748045E+04  0.34011507389E+04 0.  0.
        5    1    3    3  502    0  0.60137055277E+03 -0.11957763235E+04  0.67575204382E+03  0.14993967028E+04  0.46999998093E+01 0.  1.
       -5    1    3    3    0  502 -0.60137055277E+03  0.11957763235E+04 -0.14801291540E+04  0.19955781017E+04  0.46999998093E+01 0. -1.
</event>
<event>
 5   0  0.6311750E-08  0.3393009E+04  0.7818609E-02  0.8139624E-01
        1   -1    0    0  501    0  0.00000000000E+00  0.00000000000E+00  0.23455302335E+04  0.23455302335E+04  0.50400001928E-02 0. -1.
       -1   -1    0    0    0  501  0.00000000000E+00  0.00000000000E+00 -0.12270693363E+04  0.12270693363E+04  0.50400001928E-02 0.  1.
    10030    2    1    2    0    0  0.00000000000E+00  0.00000000000E+00  0.11184608972E+04  0.35725995698E+04  0.33930094176E+04 0.  0.
        4    1    3    3  502    0 -0.23407503752E+03 -0.10654110188E+04 -0.80886282398E+03  0.13579957449E+04  0.12699999809E+01 0.  1.
       -4    1    3    3    0  502  0.23407503752E+03  0.10654110188E+04  0.19273237212E+04  0.22146038249E+04  0.12699999809E+01 0. -1.
</event>
<event>
 5   0  0.6341535E-08  0.3390649E+04  0.7818609E-02  0.8140205E-01
        1   -1    0    0  501    0  0.00000000000E+00  0.00000000000E+00  0.14216200377E+04  0.14216200377E+04  0.50400001928E-02 0. -1.
       -1   -1    0    0    0  501  0.00000000000E+00  0.00000000000E+00 -0.20217256742E+04  0.20217256742E+04  0.50400001928E-02 0.  1.
    10030    2    1    2    0    0  0.00000000000E+00  0.00000000000E+00 -0.60010563648E+03  0.34433457120E+04  0.33906493356E+04 0.  0.
        5    1    3    3  502    0 -0.15619375464E+03 -0.13916184636E+04 -0.12704692902E+04  0.18907968543E+04  0.46999998093E+01 0.  1.
       -5    1    3    3    0  502  0.15619375464E+03  0.13916184636E+04  0.67036365368E+03  0.15525488576E+04  0.46999998093E+01 0. -1.
</event>
<event>
 5   0  0.6367111E-08  0.3421563E+04  0.7818609E-02  0.8132634E-01
        1   -1    0    0  501    0  0.00000000000E+00  0.00000000000E+00  0.15335765972E+04  0.15335765972E+04  0.50400001928E-02 0. -1.
       -1   -1    0    0    0  501  0.00000000000E+00  0.00000000000E+00 -0.19084629244E+04  0.19084629244E+04  0.50400001928E-02 0.  1.
    10030    2    1    2    0    0  0.00000000000E+00  0.00000000000E+00 -0.37488632722E+03  0.34420395217E+04  0.34215634307E+04 0.  0.
        3    1    3    3  502    0  0.58195848252E+03 -0.15450550831E+03  0.14234600355E+04  0.15455698335E+04  0.10100000352E+00 0. -1.
       -3    1    3    3    0  502 -0.58195848252E+03  0.15450550831E+03 -0.17983463627E+04  0.18964696881E+04  0.10100000352E+00 0.  1.
</event>
<event>
 5   0  0.6367111E-08  0.3406972E+04  0.7818609E-02  0.8136197E-01
       -1   -1    0    0    0  501  0.00000000000E+00  0.00000000000E+00  0.11976655870E+04  0.11976655871E+04  0.50400001928E-02 0.  1.
        1   -1    0    0  501    0  0.00000000000E+00  0.00000000000E+00 -0.24229332540E+04  0.24229332540E+04  0.50400001928E-02 0. -1.
    10030    2    1    2    0    0  0.00000000000E+00  0.00000000000E+00 -0.12252676669E+04  0.36205988410E+04  0.34069715455E+04 0.  0.
        3    1    3    3  502    0  0.84390587054E+03  0.13155105219E+04  0.10743564073E+03  0.15666165704E+04  0.10100000352E+00 0.  1.
       -3    1    3    3    0  502 -0.84390587054E+03 -0.13155105219E+04 -0.13327033076E+04  0.20539822706E+04  0.10100000352E+00 0. -1.
</event>
<event>
 5   0  0.1963852E-07  0.3402606E+04  0.7818609E-02  0.8137267E-01
       -2   -1    0    0    0  501  0.00000000000E+00  0.00000000000E+00  0.18087871853E+04  0.18087871853E+04  0.25500000920E-02 0. -1.
        2   -1    0    0  501    0  0.00000000000E+00  0.00000000000E+00 -0.16002054794E+04  0.16002054794E+04  0.25500000920E-02 0.  1.
    10030    2    1    2    0    0  0.00000000000E+00  0.00000000000E+00  0.20858170589E+03  0.34089926647E+04  0.34026055692E+04 0.  0.
        4    1    3    3  502    0  0.10357695538E+04 -0.11669082765E+04  0.78374974625E+03  0.17460695210E+04  0.12699999809E+01 0. -1.
       -4    1    3    3    0  502 -0.10357695538E+04  0.11669082765E+04 -0.57516804036E+03  0.16629231437E+04  0.12699999809E+01 0.  1.
</event>
<event>
 5   0  0.1928004E-07  0.3402165E+04  0.7818609E-02  0.8137375E-01
        2   -1    0    0  501    0  0.00000000000E+00  0.00000000000E+00  0.18680334575E+04  0.18680334575E+04  0.25500000920E-02 0. -1.
       -2   -1    0    0    0  501  0.00000000000E+00  0.00000000000E+00 -0.15490522161E+04  0.15490522161E+04  0.25500000920E-02 0.  1.
    10030    2    1    2    0    0  0.00000000000E+00  0.00000000000E+00  0.31898124140E+03  0.34170856737E+04  0.34021648210E+04 0.  0.
        2    1    3    3  502    0  0.10933265445E+04  0.94664619046E+03  0.10590633416E+04  0.17925169746E+04  0.25500000920E-02 0. -1.
       -2    1    3    3    0  502 -0.10933265445E+04 -0.94664619046E+03 -0.74008210018E+03  0.16245686990E+04  0.25500000920E-02 0.  1.
</event>
<event>
 5   0  0.6367111E-08  0.3401854E+04  0.7818609E-02  0.8137451E-01
       -1   -1    0    0    0  501  0.00000000000E+00  0.00000000000E+00  0.27269866906E+04  0.27269866906E+04  0.50400001928E-02 0.  1.
        1   -1    0    0  501    0  0.00000000000E+00  0.00000000000E+00 -0.10609338344E+04  0.10609338344E+04  0.50400001928E-02 0. -1.
    10030    2    1    2    0    0  0.00000000000E+00  0.00000000000E+00  0.16660528562E+04  0.37879205250E+04  0.34018538746E+04 0.  0.
        3    1    3    3  502    0  0.24578393813E+03 -0.10701376618E+04 -0.61345639515E+03  0.12577492271E+04  0.10100000352E+00 0. -1.
       -3    1    3    3    0  502 -0.24578393813E+03  0.10701376618E+04  0.22795092514E+04  0.25301712979E+04  0.10100000352E+00 0.  1.
</event>
<event>
 5   0  0.1897313E-07  0.3394776E+04  0.7818609E-02  0.8139190E-01
       -2   -1    0    0    0  501  0.00000000000E+00  0.00000000000E+00  0.10224540579E+04  0.10224540579E+04  0.25500000920E-02 0. -1.
        2   -1    0    0  501    0  0.00000000000E+00  0.00000000000E+00 -0.28178536095E+04  0.28178536095E+04  0.25500000920E-02 0.  1.
    10030    2    1    2    0    0  0.00000000000E+00  0.00000000000E+00 -0.17953995516E+04  0.38403076674E+04  0.33947759028E+04 0.  0.
        3    1    3    3  502    0 -0.14033141691E+04 -0.12114654701E+03 -0.19691932889E+04  0.24210925968E+04  0.10100000352E+00 0.  1.
       -3    1    3    3    0  502  0.14033141691E+04  0.12114654701E+03  0.17379373729E+03  0.14192150705E+04  0.10100000352E+00 0. -1.
</event>
<event>
 5   0  0.6584420E-08  0.3373935E+04  0.7818609E-02  0.8144333E-01
       -1   -1    0    0    0  501  0.00000000000E+00  0.00000000000E+00  0.15410258580E+04  0.15410258580E+04  0.50400001928E-02 0. -1.
        1   -1    0    0  501    0  0.00000000000E+00  0.00000000000E+00 -0.18467309562E+04  0.18467309562E+04  0.50400001928E-02 0.  1.
    10030    2    1    2    0    0  0.00000000000E+00  0.00000000000E+00 -0.30570509821E+03  0.33877568142E+04  0.33739354803E+04 0.  0.
        1    1    3    3  502    0 -0.88581746432E+02  0.85482463767E+03  0.13047443273E+04  0.15623474795E+04  0.50400001928E-02 0. -1.
       -1    1    3    3    0  502  0.88581746432E+02 -0.85482463767E+03 -0.16104494255E+04  0.18254093347E+04  0.50400001928E-02 0.  1.
</event>
<event>
 5   0  0.6311750E-08  0.3403235E+04  0.7818609E-02  0.8137113E-01
        1   -1    0    0  501    0  0.00000000000E+00  0.00000000000E+00  0.14759955877E+04  0.14759955877E+04  0.50400001928E-02 0. -1.
       -1   -1    0    0    0  501  0.00000000000E+00  0.00000000000E+00 -0.19617285299E+04  0.19617285299E+04  0.50400001928E-02 0.  1.
    10030    2    1    2    0    0  0.00000000000E+00  0.00000000000E+00 -0.48573294219E+03  0.34377241177E+04  0.34032353163E+04 0.  0.
        4    1    3    3  502    0  0.43519777779E+03  0.16068971155E+04 -0.59855074087E+03  0.17691184380E+04  0.12699999809E+01 0.  1.
       -4    1    3    3    0  502 -0.43519777779E+03 -0.16068971155E+04  0.11281779868E+03  0.16686056796E+04  0.12699999809E+01 0. -1.
</event>
<event>
 5   0  0.6341535E-08  0.3402155E+04  0.7818609E-02  0.8137378E-01
        1   -1    0    0  501    0  0.00000000000E+00  0.00000000000E+00  0.17809196782E+04  0.17809196782E+04  0.50400001928E-02 0. -1.
       -1   -1    0    0    0  501  0.00000000000E+00  0.00000000000E+00 -0.16248147538E+04  0.16248147538E+04  0.50400001928E-02 0.  1.
    10030    2    1    2    0    0  0.00000000000E+00  0.00000000000E+00  0.15610492439E+03  0.34057344320E+04  0.34021549456E+04 0.  0.
        5    1    3    3  502    0  0.10989089423E+03 -0.16054738987E+04 -0.47390777183E+03  0.16775676184E+04  0.46999998093E+01 0.  1.
       -5    1    3    3    0  502 -0.10989089423E+03  0.16054738987E+04  0.63001269621E+03  0.17281668136E+04  0.46999998093E+01 0. -1.
</event>
<event>
 5   0  0.1897313E-07  0.3361948E+04  0.7818609E-02  0.8147309E-01
        2   -1    0    0  501    0  0.00000000000E+00  0.00000000000E+00  0.18176866556E+04  0.18176866556E+04  0.25500000920E-02 0. -1.
       -2   -1    0    0    0  501  0.00000000000E+00  0.00000000000E+00 -0.15545436562E+04  0.15545436562E+04  0.25500000920E-02 0.  1.
    10030    2    1    2    0    0  0.00000000000E+00  0.00000000000E+00  0.26314299940E+03  0.33722303118E+04  0.33619478042E+04 0.  0.
        3    1    3    3  502    0  0.65338922427E+03 -0.58330461725E+03 -0.13075680535E+04  0.15738157387E+04  0.10100000352E+00 0.  1.
       -3    1    3    3    0  502 -0.65338922427E+03  0.58330461725E+03  0.15707110529E+04  0.17984145731E+04  0.10100000352E+00 0. -1.
</event>
<event>
 5   0  0.6584420E-08  0.3403156E+04  0.7818609E-02  0.8137132E-01
       -1   -1    0    0    0  501  0.00000000000E+00  0.00000000000E+00  0.15641125809E+04  0.15641125809E+04  0.50400001928E-02 0. -1.
        1   -1    0    0  501    0  0.00000000000E+00  0.00000000000E+00 -0.18511251708E+04  0.18511251708E+04  0.50400001928E-02 0.  1.
    10030    2    1    2    0    0  0.00000000000E+00  0.00000000000E+00 -0.28701258992E+03  0.34152377518E+04  0.34031562812E+04 0.  0.
        1    1    3    3  502    0 -0.10674868367E+03  0.15616743514E+04  0.52605499752E+03  0.16513497273E+04  0.50400001928E-02 0. -1.
       -1    1    3    3    0  502  0.10674868367E+03 -0.15616743514E+04 -0.81306758744E+03  0.17638880245E+04  0.50400001928E-02 0.  1.
</event>
<event>
 5   0  0.1970449E-07  0.3380595E+04  0.7818609E-02  0.8142686E-01
        2   -1    0    0  501    0  0.00000000000E+00  0.00000000000E+00  0.26960507967E+04  0.26960507967E+04  0.25500000920E-02 0.  1.
       -2   -1    0    0    0  501  0.00000000000E+00  0.00000000000E+00 -0.10597370093E+04  0.10597370093E+04  0.25500000920E-02 0. -1.
    10030    2    1    2    0    0  0.00000000000E+00  0.00000000000E+00  0.16363137875E+04  0.37557878060E+04  0.33805945088E+04 0.  0.
        1    1    3    3  502    0  0.13922660954E+04  0.91079206481E+03  0.48642479416E+03  0.17333655547E+04  0.50400001928E-02 0. -1.
       -1    1    3    3    0  502 -0.13922660954E+04 -0.91079206481E+03  0.11498889933E+04  0.20224222513E+04  0.50400001928E-02 0.  1.
</event>
<event>
 5   0  0.6311750E-08  0.3401668E+04  0.7818609E-02  0.8137497E-01
        1   -1    0    0  501    0  0.00000000000E+00  0.00000000000E+00  0.24770152878E+04  0.24770152878E+04  0.50400001928E-02 0.  1.
       -1   -1    0    0    0  501  0.00000000000E+00  0.00000000000E+00 -0.11678719159E+04  0.11678719159E+04  0.50400001928E-02 0. -1.
    10030    2    1    2    0    0  0.00000000000E+00  0.00000000000E+00  0.13091433719E+04  0.36448872038E+04  0.34016681731E+04 0.  0.
        4    1    3    3  502    0 -0.69290090776E+03 -0.32694562452E+03  0.22816399585E+04  0.24068418358E+04  0.12699999809E+01 0.  1.
       -4    1    3    3    0  502  0.69290090776E+03  0.32694562452E+03 -0.97249658658E+03  0.12380453680E+04  0.12699999809E+01 0. -1.
</event>
<event>
 5   0  0.6341535E-08  0.3392432E+04  0.7818609E-02  0.8139766E-01
       -1   -1    0    0    0  501  0.00000000000E+00  0.00000000000E+00  0.17978536836E+04  0.17978536836E+04  0.50400001928E-02 0. -1.
        1   -1    0    0  501    0  0.00000000000E+00  0.00000000000E+00 -0.16003238940E+04  0.16003238940E+04  0.50400001928E-02 0.  1.
    10030    2    1    2    0    0  0.00000000000E+00  0.00000000000E+00  0.19752978955E+03  0.33981775776E+04  0.33924316989E+04 0.  0.
        5    1    3    3  502    0  0.94624244396E+03  0.14032249750E+04 -0.14169242164E+02  0.16925241359E+04  0.46999998093E+01 0. -1.
       -5    1    3    3    0  502 -0.94624244396E+03 -0.14032249750E+04  0.21169903171E+03  0.17056534417E+04  0.46999998093E+01 0.  1.
</event>
<event>
 5   0  0.6788600E-08  0.3399860E+04  0.7818609E-02  0.8137941E-01
        1   -1    0    0  501    0  0.00000000000E+00  0.00000000000E+00  0.10020643146E+04  0.10020643146E+04  0.50400001928E-02 0. -1.
       -1   -1    0    0    0  501  0.00000000000E+00  0.00000000000E+00 -0.28838089349E+04  0.28838089349E+04  0.50400001928E-02 0.  1.
    10030    2    1    2    0    0  0.00000000000E+00  0.00000000000E+00 -0.18817446204E+04  0.38858732495E+04  0.33998600111E+04 0.  0.
        2    1    3    3  502    0  0.67100680277E+03  0.48167543878E+03  0.75728538255E+03  0.11205991738E+04  0.25500000920E-02 0. -1.
       -2    1    3    3    0  502 -0.67100680277E+03 -0.48167543878E+03 -0.26390300029E+04  0.27652740757E+04  0.25500000920E-02 0.  1.
</event>
<event>
 5   0  0.6311750E-08  0.3399161E+04  0.7818609E-02  0.8138112E-01
        1   -1    0    0  501    0  0.00000000000E+00  0.00000000000E+00  0.21441572262E+04  0.21441572262E+04  0.50400001928E-02 0.  1.
       -1   -1    0    0    0  501  0.00000000000E+00  0.00000000000E+00 -0.13471839366E+04  0.13471839366E+04  0.50400001928E-02 0. -1.
    10030    2    1    2    0    0  0.00000000000E+00  0.00000000000E+00  0.79697328958E+03  0.34913411627E+04  0.33991611745E+04 0.  0.
        4    1    3    3  502    0 -0.69121677046E+02 -0.74961947330E+03  0.19635756877E+04  0.21029356279E+04  0.12699999809E+01 0.  1.
       -4    1    3    3    0  502  0.69121677046E+02  0.74961947330E+03 -0.11666023981E+04  0.13884055348E+04  0.12699999809E+01 0. -1.
</event>
<event>
 5   0  0.6341535E-08  0.3410018E+04  0.7818609E-02  0.8135452E-01
       -1   -1    0    0    0  501  0.00000000000E+00  0.00000000000E+00  0.13018994383E+04  0.13018994383E+04  0.50400001928E-02 0.  1.
        1   -1    0    0  501    0  0.00000000000E+00  0.00000000000E+00 -0.22329337787E+04  0.22329337787E+04  0.50400001928E-02 0. -1.
    10030    2    1    2    0    0  0.00000000000E+00  0.00000000000E+00 -0.93103434039E+03  0.35348332169E+04  0.34100177314E+04 0.  0.
        5    1    3    3  502    0  0.78683789859E+03  0.14736231808E+04 -0.11192477131E+03  0.16742844448E+04  0.46999998093E+01 0.  1.
       -5    1    3    3    0  502 -0.78683789859E+03 -0.14736231808E+04 -0.81910956908E+03  0.18605487722E+04  0.46999998093E+01 0. -1.
</event>
<event>
 5   0  0.1928004E-07  0.3399758E+04  0.7818609E-02  0.8137966E-01
       -2   -1    0    0    0  501  0.00000000000E+00  0.00000000000E+00  0.10385264734E+04  0.10385264734E+04  0.25500000920E-02 0.  1.
        2   -1    0    0  501    0  0.00000000000E+00  0.00000000000E+00 -0.27823928125E+04  0.27823928125E+04  0.25500000920E-02 0. -1.
    10030    2    1    2    0    0  0.00000000000E+00  0.00000000000E+00 -0.17438663391E+04  0.38209192859E+04  0.33997579885E+04 0.  0.
        2    1    3    3  502    0 -0.72358362998E+03  0.14458883725E+04 -0.28211345483E+03  0.16412661139E+04  0.25500000920E-02 0. -1.
       -2    1    3    3    0  502  0.72358362998E+03 -0.14458883725E+04 -0.14617528843E+04  0.21796531720E+04  0.25500000920E-02 0.  1.
</event>
<event>
 5   0  0.6584420E-08  0.3400680E+04  0.7818609E-02  0.8137739E-01
        1   -1    0    0  501    0  0.00000000000E+00  0.00000000000E+00  0.26766880072E+04  0.26766880072E+04  0.50400001928E-02 0. -1.
       -1   -1    0    0    0  501  0.00000000000E+00  0.00000000000E+00 -0.10801244684E+04  0.10801244684E+04  0.50400001928E-02 0.  1.
    10030    2    1    2    0    0  0.00000000000E+00  0.00000000000E+00  0.15965635388E+04  0.37568124755E+04  0.34006800560E+04 0.  0.
        1    1    3    3  502    0 -0.89352648194E+03 -0.57205963700E+03  0.22661577910E+04  0.25022216001E+04  0.50400001928E-02 0. -1.
       -1    1    3    3    0  502  0.89352648194E+03  0.57205963700E+03 -0.66959425218E+03  0.12545908755E+04  0.50400001928E-02 0.  1.
</event>
<event>
 5   0  0.6584420E-08  0.3399140E+04  0.7818609E-02  0.8138118E-01
        1   -1    0    0  501    0  0.00000000000E+00  0.00000000000E+00  0.17397352781E+04  0.17397352781E+04  0.50400001928E-02 0.  1.
       -1   -1    0    0    0  501  0.00000000000E+00  0.00000000000E+00 -0.16603315956E+04  0.16603315956E+04  0.50400001928E-02 0. -1.
    10030    2    1    2    0    0  0.00000000000E+00  0.00000000000E+00  0.79403682528E+02  0.34000668738E+04  0.33991395678E+04 0.  0.
        1    1    3    3  502    0  0.24676188338E+03 -0.67672063693E+03 -0.15000995465E+04  0.16640735852E+04  0.50400001928E-02 0. -1.
       -1    1    3    3    0  502 -0.24676188338E+03  0.67672063693E+03  0.15795032290E+04  0.17359932886E+04  0.50400001928E-02 0.  1.
</event>
<event>
 5   0  0.6584420E-08  0.3405470E+04  0.7818609E-02  0.8136565E-01
       -1   -1    0    0    0  501  0.00000000000E+00  0.00000000000E+00  0.13373517927E+04  0.13373517927E+04  0.50400001928E-02 0.  1.
        1   -1    0    0  501    0  0.00000000000E+00  0.00000000000E+00 -0.21679463017E+04  0.21679463017E+04  0.50400001928E-02 0. -1.
    10030    2    1    2    0    0  0.00000000000E+00  0.00000000000E+00 -0.83059450896E+03  0.35052980944E+04  0.34054702307E+04 0.  0.
        1    1    3    3  502    0  0.13276823614E+04  0.85552645813E+03 -0.10700581852E+04  0.19077972882E+04  0.50400001928E-02 0.  1.
       -1    1    3    3    0  502 -0.13276823614E+04 -0.85552645813E+03  0.23946367622E+03  0.15975008061E+04  0.50400001928E-02 0. -1.
</event>
<event>
 5   0  0.1963852E-07  0.3398862E+04  0.7818609E-02  0.8138186E-01
        2   -1    0    0  501    0  0.00000000000E+00  0.00000000000E+00  0.24349789680E+04  0.24349789680E+04  0.25500000920E-02 0. -1.
       -2   -1    0    0    0  501  0.00000000000E+00  0.00000000000E+00 -0.11860742160E+04  0.11860742160E+04  0.25500000920E-02 0.  1.
    10030    2    1    2    0    0  0.00000000000E+00  0.00000000000E+00  0.12489047520E+04  0.36210531840E+04  0.33988620274E+04 0.  0.
        4    1    3    3  502    0 -0.93005438542E+03  0.12007056816E+04  0.14367725753E+04  0.20906966159E+04  0.12699999809E+01 0. -1.
       -4    1    3    3    0  502  0.93005438542E+03 -0.12007056816E+04 -0.18786782324E+03  0.15303565681E+04  0.12699999809E+01 0.  1.
</event>
<event>
 5   0  0.6367111E-08  0.3399509E+04  0.7818609E-02  0.8138027E-01
        1   -1    0    0  501    0  0.00000000000E+00  0.00000000000E+00  0.23536724395E+04  0.23536724395E+04  0.50400001928E-02 0. -1.
       -1   -1    0    0    0  501  0.00000000000E+00  0.00000000000E+00 -0.12275141405E+04  0.12275141405E+04  0.50400001928E-02 0.  1.
    10030    2    1    2    0    0  0.00000000000E+00  0.00000000000E+00  0.11261582990E+04  0.35811865800E+04  0.33995094949E+04 0.  0.
        3    1    3    3  502    0  0.21306072571E+03 -0.39276408048E+03  0.22906946242E+04  0.23338681127E+04  0.10100000352E+00 0. -1.
       -3    1    3    3    0  502 -0.21306072571E+03  0.39276408048E+03 -0.11645363252E+04  0.12473184673E+04  0.10100000352E+00 0.  1.
</event>
<event>
 5   0  0.1963852E-07  0.3408405E+04  0.7818609E-02  0.8135847E-01
        2   -1    0    0  501    0  0.00000000000E+00  0.00000000000E+00  0.25177670268E+04  0.25177670268E+04  0.25500000920E-02 0.  1.
       -2   -1    0    0    0  501  0.00000000000E+00  0.00000000000E+00 -0.11535246613E+04  0.11535246613E+04  0.25500000920E-02 0. -1.
    10030    2    1    2    0    0  0.00000000000E+00  0.00000000000E+00  0.13642423655E+04  0.36712916881E+04  0.34084051149E+04 0.  0.
        4    1    3    3  502    0 -0.69409295900E+03 -0.14064428216E+04 -0.35975948815E+02  0.15688028327E+04  0.12699999809E+01 0. -1.
       -4    1    3    3    0  502  0.69409295900E+03  0.14064428216E+04  0.14002183143E+04  0.21024888553E+04  0.12699999809E+01 0.  1.
</event>
<event>
 5   0  0.1897313E-07  0.3380262E+04  0.7818609E-02  0.8142768E-01
        2   -1    0    0  501    0  0.00000000000E+00  0.00000000000E+00  0.14085700048E+04  0.14085700048E+04  0.25500000920E-02 0. -1.
       -2   -1    0    0    0  501  0.00000000000E+00  0.00000000000E+00 -0.20279740124E+04  0.20279740124E+04  0.25500000920E-02 0.  1.
    10030    2    1    2    0    0  0.00000000000E+00  0.00000000000E+00 -0.61940400764E+03  0.34365440172E+04  0.33802623356E+04 0.  0.
        3    1    3    3  502    0 -0.10609819582E+04 -0.58575688096E+03  0.88794007590E+03  0.15024085423E+04  0.10100000352E+00 0. -1.
       -3    1    3    3    0  502  0.10609819582E+04  0.58575688096E+03 -0.15073440835E+04  0.19341354750E+04  0.10100000352E+00 0.  1.
</event>
<event>
 5   0  0.1970449E-07  0.3399629E+04  0.7818609E-02  0.8137997E-01
       -2   -1    0    0    0  501  0.00000000000E+00  0.00000000000E+00  0.10893656149E+04  0.10893656149E+04  0.25500000920E-02 0.  1.
        2   -1    0    0  501    0  0.00000000000E+00  0.00000000000E+00 -0.26523419060E+04  0.26523419060E+04  0.25500000920E-02 0. -1.
    10030    2    1    2    0    0  0.00000000000E+00  0.00000000000E+00 -0.15629762911E+04  0.37417075208E+04  0.33996294335E+04 0.  0.
        1    1    3    3  502    0 -0.23048545040E+03 -0.37389656107E+03  0.10258285982E+04  0.11159061315E+04  0.50400001928E-02 0.  1.
       -1    1    3    3    0  502  0.23048545040E+03  0.37389656107E+03 -0.25888048894E+04  0.26258013894E+04  0.50400001928E-02 0. -1.
</event>
<event>
 5   0  0.1963852E-07  0.3412382E+04  0.7818609E-02  0.8134874E-01
        2   -1    0    0  501    0  0.00000000000E+00  0.00000000000E+00  0.18381365057E+04  0.18381365057E+04  0.25500000920E-02 0.  1.
       -2   -1    0    0    0  501  0.00000000000E+00  0.00000000000E+00 -0.15837168805E+04  0.15837168805E+04  0.25500000920E-02 0. -1.
    10030    2    1    2    0    0  0.00000000000E+00  0.00000000000E+00  0.25441962520E+03  0.34218533862E+04  0.34123820494E+04 0.  0.
        4    1    3    3  502    0 -0.71082483500E+03 -0.31782971966E+03  0.16495798664E+04  0.18241170537E+04  0.12699999809E+01 0.  1.
       -4    1    3    3    0  502  0.71082483500E+03  0.31782971966E+03 -0.13951602413E+04  0.15977363326E+04  0.12699999809E+01 0. -1.
</event>
<event>
 5   0  0.6367111E-08  0.3400179E+04  0.7818609E-02  0.8137862E-01
       -1   -1    0    0    0  501  0.00000000000E+00  0.00000000000E+00  0.16534926073E+04  0.16534926074E+04  0.50400001928E-02 0. -1.
        1   -1    0    0  501    0  0.00000000000E+00  0.00000000000E+00 -0.17479998995E+04  0.17479998995E+04  0.50400001928E-02 0.  1.
    10030    2    1    2    0    0  0.00000000000E+00  0.00000000000E+00 -0.94507292120E+02  0.34014925068E+04  0.34001793549E+04 0.  0.
        3    1    3    3  502    0  0.75300810243E+03 -0.72865584789E+03 -0.13865553414E+04  0.17379575000E+04  0.10100000352E+00 0.  1.
       -3    1    3    3    0  502 -0.75300810243E+03  0.72865584789E+03  0.12920480493E+04  0.16635350068E+04  0.10100000352E+00 0. -1.
</event>
<event>
 5   0  0.1897313E-07  0.3392429E+04  0.7818609E-02  0.8139767E-01
       -2   -1    0    0    0  501  0.00000000000E+00  0.00000000000E+00  0.15191618591E+04  0.15191618591E+04  0.25500000920E-02 0.  1.
        2   -1    0    0  501    0  0.00000000000E+00  0.00000000000E+00 -0.18939020223E+04  0.18939020223E+04  0.25500000920E-02 0. -1.
    10030    2    1    2    0    0  0.00000000000E+00  0.00000000000E+00 -0.37474016313E+03  0.34130638814E+04  0.33924290514E+04 0.  0.
        3    1    3    3  502    0 -0.26408423389E+03 -0.17216767018E+03  0.14894293643E+04  0.15224263629E+04  0.10100000352E+00 0.  1.
       -3    1    3    3    0  502  0.26408423389E+03  0.17216767018E+03 -0.18641695274E+04  0.18906375185E+04  0.10100000352E+00 0. -1.
</event>
<event>
 5   0  0.6367111E-08  0.3393890E+04  0.7818609E-02  0.8139408E-01
        1   -1    0    0  501    0  0.00000000000E+00  0.00000000000E+00  0.87686039774E+03  0.87686039776E+03  0.50400001928E-02 0.  1.
       -1   -1    0    0    0  501  0.00000000000E+00  0.00000000000E+00 -0.32840147610E+04  0.32840147610E+04  0.50400001928E-02 0. -1.
    10030    2    1    2    0    0  0.00000000000E+00  0.00000000000E+00 -0.24071543632E+04  0.41608751587E+04  0.33938900922E+04 0.  0.
        3    1    3    3  502    0 -0.10140599503E+04  0.59077834401E+03  0.29909137592E+03  0.12111120080E+04  0.10100000352E+00 0.  1.
       -3    1    3    3    0  502  0.10140599503E+04 -0.59077834401E+03 -0.27062457391E+04  0.29497631507E+04  0.10100000352E+00 0. -1.
</event>
<event>
 5   0  0.1963852E-07  0.3396187E+04  0.7818609E-02  0.8138843E-01
        2   -1    0    0  501    0  0.00000000000E+00  0.00000000000E+00  0.23295921037E+04  0.23295921037E+04  0.25500000920E-02 0.  1.
       -2   -1    0    0    0  501  0.00000000000E+00  0.00000000000E+00 -0.12377796227E+04  0.12377796227E+04  0.25500000920E-02 0. -1.
    10030    2    1    2    0    0  0.00000000000E+00  0.00000000000E+00  0.10918124810E+04  0.35673717264E+04  0.33961870591E+04 0.  0.
        4    1    3    3  502    0  0.80892023894E+03  0.33329889812E+03  0.20746261932E+04  0.22515584743E+04  0.12699999809E+01 0.  1.
       -4    1    3    3    0  502 -0.80892023894E+03 -0.33329889812E+03 -0.98281371228E+03  0.13158132521E+04  0.12699999809E+01 0. -1.
</event>
<event>
 5   0  0.1928004E-07  0.3395435E+04  0.7818609E-02  0.8139028E-01
       -2   -1    0    0    0  501  0.00000000000E+00  0.00000000000E+00  0.11716220368E+04  0.11716220368E+04  0.25500000920E-02 0.  1.
        2   -1    0    0  501    0  0.00000000000E+00  0.00000000000E+00 -0.24600472110E+04  0.24600472110E+04  0.25500000920E-02 0. -1.
    10030    2    1    2    0    0  0.00000000000E+00  0.00000000000E+00 -0.12884251742E+04  0.36316692478E+04  0.33954354796E+04 0.  0.
        2    1    3    3  502    0 -0.26260133646E+03 -0.42871886668E+03 -0.23786005619E+04  0.24311519824E+04  0.25500000920E-02 0. -1.
       -2    1    3    3    0  502  0.26260133646E+03  0.42871886668E+03  0.10901753877E+04  0.12005172654E+04  0.25500000920E-02 0.  1.
</event>
<event>
 5   0  0.1970449E-07  0.3396427E+04  0.7818609E-02  0.8138784E-01
        2   -1    0    0  501    0  0.00000000000E+00  0.00000000000E+00  0.27326985568E+04  0.27326985568E+04  0.25500000920E-02 0. -1.
       -2   -1    0    0    0  501  0.00000000000E+00  0.00000000000E+00 -0.10553410468E+04  0.10553410468E+04  0.25500000920E-02 0.  1.
    10030    2    1    2    0    0  0.00000000000E+00  0.00000000000E+00  0.16773575100E+04  0.37880396037E+04  0.33964269200E+04 0.  0.
        1    1    3    3  502    0 -0.14569206033E+04 -0.86774472665E+03  0.94047345814E+03  0.19390948612E+04  0.50400001928E-02 0.  1.
       -1    1    3    3    0  502  0.14569206033E+04  0.86774472665E+03  0.73688405185E+03  0.18489447425E+04  0.50400001928E-02 0. -1.
</event>
<event>
 5   0  0.1897313E-07  0.3430312E+04  0.7818609E-02  0.8130507E-01
        2   -1    0    0  501    0  0.00000000000E+00  0.00000000000E+00  0.22311552284E+04  0.22311552284E+04  0.25500000920E-02 0.  1.
       -2   -1    0    0    0  501  0.00000000000E+00  0.00000000000E+00 -0.13184915616E+04  0.13184915616E+04  0.25500000920E-02 0. -1.
    10030    2    1    2    0    0  0.00000000000E+00  0.00000000000E+00  0.91266366677E+03  0.35496467900E+04  0.34303115551E+04 0.  0.
        3    1    3    3  502    0  0.74772943506E+02 -0.11047535575E+04  0.18117419421E+04  0.21233182265E+04  0.10100000352E+00 0.  1.
       -3    1    3    3    0  502 -0.74772943506E+02  0.11047535575E+04 -0.89907827529E+03  0.14263285636E+04  0.10100000352E+00 0. -1.
</event>
<event>
 5   0  0.1928004E-07  0.3407491E+04  0.7818609E-02  0.8136070E-01
        2   -1    0    0  501    0  0.00000000000E+00  0.00000000000E+00  0.16894528921E+04  0.16894528921E+04  0.25500000920E-02 0. -1.
       -2   -1    0    0    0  501  0.00000000000E+00  0.00000000000E+00 -0.17181594597E+04  0.17181594597E+04  0.25500000920E-02 0.  1.
    10030    2    1    2    0    0  0.00000000000E+00  0.00000000000E+00 -0.28706567620E+02  0.34076123517E+04  0.34074914340E+04 0.  0.
        2    1    3    3  502    0  0.15984642616E+04 -0.23725658949E+03  0.52545359157E+03  0.16992587095E+04  0.25500000920E-02 0.  1.
       -2    1    3    3    0  502 -0.15984642616E+04  0.23725658949E+03 -0.55416015919E+03  0.17083536422E+04  0.25500000920E-02 0. -1.
</event>
<event>
 5   0  0.6788600E-08  0.3396999E+04  0.7818609E-02  0.8138643E-01
        1   -1    0    0  501    0  0.00000000000E+00  0.00000000000E+00  0.11212391758E+04  0.11212391758E+04  0.50400001928E-02 0.  1.
       -1   -1    0    0    0  501  0.00000000000E+00  0.00000000000E+00 -0.25729566235E+04  0.25729566236E+04  0.50400001928E-02 0. -1.
    10030    2    1    2    0    0  0.00000000000E+00  0.00000000000E+00 -0.14517174478E+04  0.36941957994E+04  0.33969985363E+04 0.  0.
        2    1    3    3  502    0  0.73032558282E+03  0.12516581558E+04  0.23758227045E+03  0.14684920603E+04  0.25500000920E-02 0.  1.
       -2    1    3    3    0  502 -0.73032558282E+03 -0.12516581558E+04 -0.16892997182E+04  0.22257037390E+04  0.25500000920E-02 0. -1.
</event>
<event>
 5   0  0.6788600E-08  0.3399450E+04  0.7818609E-02  0.8138041E-01
        1   -1    0    0  501    0  0.00000000000E+00  0.00000000000E+00  0.14382164654E+04  0.14382164654E+04  0.50400001928E-02 0. -1.
       -1   -1    0    0    0  501  0.00000000000E+00  0.00000000000E+00 -0.20087830864E+04  0.20087830864E+04  0.50400001928E-02 0.  1.
    10030    2    1    2    0    0  0.00000000000E+00  0.00000000000E+00 -0.57056662095E+03  0.34469995518E+04  0.33994499028E+04 0.  0.
        2    1    3    3  502    0 -0.74991880486E+03  0.73518276217E+03  0.10698960334E+04  0.14991829208E+04  0.25500000920E-02 0. -1.
       -2    1    3    3    0  502  0.74991880486E+03 -0.73518276217E+03 -0.16404626544E+04  0.19478166310E+04  0.25500000920E-02 0.  1.
</event>
<event>
 5   0  0.6311750E-08  0.3401408E+04  0.7818609E-02  0.8137561E-01
       -1   -1    0    0    0  501  0.00000000000E+00  0.00000000000E+00  0.13410484939E+04  0.13410484939E+04  0.50400001928E-02 0. -1.
        1   -1    0    0  501    0  0.00000000000E+00  0.00000000000E+00 -0.21568158007E+04  0.21568158007E+04  0.50400001928E-02 0.  1.
    10030    2    1    2    0    0  0.00000000000E+00  0.00000000000E+00 -0.81576730684E+03  0.34978642946E+04  0.34014082854E+04 0.  0.
        4    1    3    3  502    0  0.30556992820E+02  0.14823636976E+04 -0.12646093507E+04  0.19487365868E+04  0.12699999809E+01 0.  1.
       -4    1    3    3    0  502 -0.30556992820E+02 -0.14823636976E+04  0.44884204389E+03  0.15491277078E+04  0.12699999809E+01 0. -1.
</event>
<event>
 5   0  0.6341535E-08  0.3418534E+04  0.7818609E-02  0.8133372E-01
        1   -1    0    0  501    0  0.00000000000E+00  0.00000000000E+00  0.16109194503E+04  0.16109194503E+04  0.50400001928E-02 0.  1.
       -1   -1    0    0    0  501  0.00000000000E+00  0.00000000000E+00 -0.18136187026E+04  0.18136187026E+04  0.50400001928E-02 0. -1.
    10030    2    1    2    0    0  0.00000000000E+00  0.00000000000E+00 -0.20269925235E+03  0.34245381529E+04  0.34185339802E+04 0.  0.
        5    1    3    3  502    0 -0.14476366606E+04  0.86458389690E+03  0.17916780088E+03  0.16956651812E+04  0.46999998093E+01 0.  1.
       -5    1    3    3    0  502  0.14476366606E+04 -0.86458389690E+03 -0.38186705323E+03  0.17288729717E+04  0.46999998093E+01 0. -1.
</event>
<event>
 5   0  0.6341535E-08  0.3398371E+04  0.7818609E-02  0.8138306E-01
        1   -1    0    0  501    0  0.00000000000E+00  0.00000000000E+00  0.25186272997E+04  0.25186272997E+04  0.50400001928E-02 0.  1.
       -1   -1    0    0    0  501  0.00000000000E+00  0.00000000000E+00 -0.11463514527E+04  0.11463514527E+04  0.50400001928E-02 0. -1.
    10030    2    1    2    0    0  0.00000000000E+00  0.00000000000E+00  0.13722758470E+04  0.36649787525E+04  0.33983714123E+04 0.  0.
        5    1    3    3  502    0 -0.24335249822E+03 -0.13144452780E+04  0.18173421217E+04  0.22560455014E+04  0.46999998093E+01 0.  1.
       -5    1    3    3    0  502  0.24335249822E+03  0.13144452780E+04 -0.44506627469E+03  0.14089332511E+04  0.46999998093E+01 0. -1.
</event>
<event>
 5   0  0.1897313E-07  0.3400911E+04  0.7818609E-02  0.8137683E-01
       -2   -1    0    0    0  501  0.00000000000E+00  0.00000000000E+00  0.14147303255E+04  0.14147303255E+04  0.25500000920E-02 0. -1.
        2   -1    0    0  501    0  0.00000000000E+00  0.00000000000E+00 -0.20438870801E+04  0.20438870801E+04  0.25500000920E-02 0.  1.
    10030    2    1    2    0    0  0.00000000000E+00  0.00000000000E+00 -0.62915675459E+03  0.34586174056E+04  0.34009110745E+04 0.  0.
        3    1    3    3  502    0  0.95831035441E+02  0.70980741069E+03  0.12538416294E+04  0.14439975725E+04  0.10100000352E+00 0. -1.
       -3    1    3    3    0  502 -0.95831035441E+02 -0.70980741069E+03 -0.18829983840E+04  0.20146198331E+04  0.10100000352E+00 0.  1.
</event>
<event>
 5   0  0.1897313E-07  0.3400782E+04  0.7818609E-02  0.8137714E-01
       -2   -1    0    0    0  501  0.00000000000E+00  0.00000000000E+00  0.10831136571E+04  0.10831136571E+04  0.25500000920E-02 0.  1.
        2   -1    0    0  501    0  0.00000000000E+00  0.00000000000E+00 -0.26694614465E+04  0.26694614465E+04  0.25500000920E-02 0. -1.
    10030    2    1    2    0    0  0.00000000000E+00  0.00000000000E+00 -0.15863477894E+04  0.37525751036E+04  0.34007823510E+04 0.  0.
        3    1    3    3  502    0  0.94491684491E+03  0.84828830588E+03  0.45467967754E+03  0.13487751900E+04  0.10100000352E+00 0.  1.
       -3    1    3    3    0  502 -0.94491684491E+03 -0.84828830588E+03 -0.20410274670E+04  0.24037999136E+04  0.10100000352E+00 0. -1.
</event>
<event>
 5   0  0.6341535E-08  0.3405434E+04  0.7818609E-02  0.8136574E-01
       -1   -1    0    0    0  501  0.00000000000E+00  0.00000000000E+00  0.14243366872E+04  0.14243366872E+04  0.50400001928E-02 0.  1.
        1   -1    0    0  501    0  0.00000000000E+00  0.00000000000E+00 -0.20355056722E+04  0.20355056722E+04  0.50400001928E-02 0. -1.
    10030    2    1    2    0    0  0.00000000000E+00  0.00000000000E+00 -0.61116898498E+03  0.34598423594E+04  0.34054341314E+04 0.  0.
        5    1    3    3  502    0 -0.66396296874E+03 -0.56386433749E+03 -0.17919810707E+04  0.19924879078E+04  0.46999998093E+01 0. -1.
       -5    1    3    3    0  502  0.66396296874E+03  0.56386433749E+03  0.11808120857E+04  0.14673544516E+04  0.46999998093E+01 0.  1.
</event>
<event>
 5   0  0.1970449E-07  0.3401567E+04  0.7818609E-02  0.8137522E-01
        2   -1    0    0  501    0  0.00000000000E+00  0.00000000000E+00  0.10405176681E+04  0.10405176681E+04  0.25500000920E-02 0.  1.
       -2   -1    0    0    0  501  0.00000000000E+00  0.00000000000E+00 -0.27800245200E+04  0.27800245200E+04  0.25500000920E-02 0. -1.
    10030    2    1    2    0    0  0.00000000000E+00  0.00000000000E+00 -0.17395068519E+04  0.38205421881E+04  0.34015670688E+04 0.  0.
        1    1    3    3  502    0  0.32815195734E+03 -0.16170788297E+04 -0.13328991466E+04  0.21211430370E+04  0.50400001928E-02 0.  1.
       -1    1    3    3    0  502 -0.32815195734E+03  0.16170788297E+04 -0.40660770537E+03  0.16993991511E+04  0.50400001928E-02 0. -1.
</event>
<event>
 5   0  0.6788600E-08  0.3399952E+04  0.7818609E-02  0.8137918E-01
       -1   -1    0    0    0  501  0.00000000000E+00  0.00000000000E+00  0.18795419707E+04  0.18795419707E+04  0.50400001928E-02 0.  1.
        1   -1    0    0  501    0  0.00000000000E+00  0.00000000000E+00 -0.15375652987E+04  0.15375652988E+04  0.50400001928E-02 0. -1.
    10030    2    1    2    0    0  0.00000000000E+00  0.00000000000E+00  0.34197667191E+03  0.34171072694E+04  0.33999520653E+04 0.  0.
        2    1    3    3  502    0  0.10390040845E+04 -0.11536059291E+04 -0.52502478933E+03  0.16388981532E+04  0.25500000920E-02 0.  1.
       -2    1    3    3    0  502 -0.10390040845E+04  0.11536059291E+04  0.86700146124E+03  0.17782091162E+04  0.25500000920E-02 0. -1.
</event>
<event>
 5   0  0.1897313E-07  0.3403460E+04  0.7818609E-02  0.8137058E-01
        2   -1    0    0  501    0  0.00000000000E+00  0.00000000000E+00  0.22406073829E+04  0.22406073829E+04  0.25500000920E-02 0. -1.
       -2   -1    0    0    0  501  0.00000000000E+00  0.00000000000E+00 -0.12924553871E+04  0.12924553871E+04  0.25500000920E-02 0.  1.
    10030    2    1    2    0    0  0.00000000000E+00  0.00000000000E+00  0.94815199581E+03  0.35330627700E+04  0.34034600526E+04 0.  0.
        3    1    3    3  502    0 -0.41403398384E+03  0.25051974825E+03  0.21676739211E+04  0.22210345613E+04  0.10100000352E+00 0. -1.
       -3    1    3    3    0  502  0.41403398384E+03 -0.25051974825E+03 -0.12195219253E+04  0.13120282087E+04  0.10100000352E+00 0.  1.
</event>
<event>
 5   0  0.1963852E-07  0.3403727E+04  0.7818609E-02  0.8136992E-01
       -2   -1    0    0    0  501  0.00000000000E+00  0.00000000000E+00  0.12845536066E+04  0.12845536066E+04  0.25500000920E-02 0.  1.
        2   -1    0    0  501    0  0.00000000000E+00  0.00000000000E+00 -0.22547432257E+04  0.22547432257E+04  0.25500000920E-02 0. -1.
    10030    2    1    2    0    0  0.00000000000E+00  0.00000000000E+00 -0.97018961910E+03  0.35392968322E+04  0.34037265121E+04 0.  0.
        4    1    3    3  502    0  0.89816599099E+03 -0.56871449934E+03  0.89682263153E+03  0.13908381554E+04  0.12699999809E+01 0.  1.
       -4    1    3    3    0  502 -0.89816599099E+03  0.56871449934E+03 -0.18670122506E+04  0.21484586768E+04  0.12699999809E+01 0. -1.
</event>
<event>
 5   0  0.1986613E-07  0.3451085E+04  0.7818609E-02  0.8125481E-01
       -2   -1    0    0    0  501  0.00000000000E+00  0.00000000000E+00  0.12118852467E+04  0.12118852467E+04  0.25500000920E-02 0. -1.
        2   -1    0    0  501    0  0.00000000000E+00  0.00000000000E+00 -0.24569138581E+04  0.24569138581E+04  0.25500000920E-02 0.  1.
    10030    2    1    2    0    0  0.00000000000E+00  0.00000000000E+00 -0.12450286114E+04  0.36687991049E+04  0.34510854276E+04 0.  0.
        5    1    3    3  502    0 -0.99023845376E+03 -0.47738566632E+03  0.79143197880E+03  0.13545685427E+04  0.46999998093E+01 0. -1.
       -5    1    3    3    0  502  0.99023845376E+03  0.47738566632E+03 -0.20364605902E+04  0.23142305622E+04  0.46999998093E+01 0.  1.
</event>
<event>
 5   0  0.6584420E-08  0.3402293E+04  0.7818609E-02  0.8137344E-01
       -1   -1    0    0    0  501  0.00000000000E+00  0.00000000000E+00  0.21435195385E+04  0.21435195385E+04  0.50400001928E-02 0.  1.
        1   -1    0    0  501    0  0.00000000000E+00  0.00000000000E+00 -0.13500691632E+04  0.13500691632E+04  0.50400001928E-02 0. -1.
    10030    2    1    2    0    0  0.00000000000E+00  0.00000000000E+00  0.79345037538E+03  0.34935887017E+04  0.34022931265E+04 0.  0.
        1    1    3    3  502    0 -0.23014032862E+03  0.25442254699E+03 -0.13141792476E+04  0.13582203422E+04  0.50400001928E-02 0. -1.
       -1    1    3    3    0  502  0.23014032862E+03 -0.25442254699E+03  0.21076296229E+04  0.21353683595E+04  0.50400001928E-02 0.  1.
</event>
<event>
 5   0  0.6367111E-08  0.3402855E+04  0.7818609E-02  0.8137206E-01
       -1   -1    0    0    0  501  0.00000000000E+00  0.00000000000E+00  0.13710718493E+04  0.13710718493E+04  0.50400001928E-02 0.  1.
        1   -1    0    0  501    0  0.00000000000E+00  0.00000000000E+00 -0.21113811132E+04  0.21113811132E+04  0.50400001928E-02 0. -1.
    10030    2    1    2    0    0  0.00000000000E+00  0.00000000000E+00 -0.74030926394E+03  0.34824529626E+04  0.34028548059E+04 0.  0.
        3    1    3    3  502    0  0.16740353501E+04 -0.26205491256E+03 -0.21231305436E+03  0.17076720921E+04  0.10100000352E+00 0.  1.
       -3    1    3    3    0  502 -0.16740353501E+04  0.26205491256E+03 -0.52799620958E+03  0.17747808705E+04  0.10100000352E+00 0. -1.
</event>
<event>
 5   0  0.6311750E-08  0.3410596E+04  0.7818609E-02  0.8135311E-01
       -1   -1    0    0    0  501  0.00000000000E+00  0.00000000000E+00  0.17706579829E+04  0.17706579830E+04  0.50400001928E-02 0. -1.
        1   -1    0    0  501    0  0.00000000000E+00  0.00000000000E+00 -0.16423509050E+04  0.16423509050E+04  0.50400001928E-02 0.  1.
    10030    2    1    2    0    0  0.00000000000E+00  0.00000000000E+00  0.12830707793E+03  0.34130088880E+04  0.34105962768E+04 0.  0.
        4    1    3    3  502    0  0.74386785362E+03 -0.17245116718E+03  0.15900145408E+04  0.17638669569E+04  0.12699999809E+01 0. -1.
       -4    1    3    3    0  502 -0.74386785362E+03  0.17245116718E+03 -0.14617074629E+04  0.16491419311E+04  0.12699999809E+01 0.  1.
</event>
<event>
 5   0  0.6341535E-08  0.3396448E+04  0.7818609E-02  0.8138779E-01
       -1   -1    0    0    0  501  0.00000000000E+00  0.00000000000E+00  0.12179708562E+04  0.12179708562E+04  0.50400001928E-02 0. -1.
        1   -1    0    0  501    0  0.00000000000E+00  0.00000000000E+00 -0.23678439113E+04  0.23678439113E+04  0.50400001928E-02 0.  1.
    10030    2    1    2    0    0  0.00000000000E+00  0.00000000000E+00 -0.11498730551E+04  0.35858147674E+04  0.33964480717E+04 0.  0.
        5    1    3    3  502    0 -0.98475583666E+03  0.47038595278E+03  0.79873569004E+03  0.13524081466E+04  0.46999998093E+01 0. -1.
       -5    1    3    3    0  502  0.98475583666E+03 -0.47038595278E+03 -0.19486087451E+04  0.22334066208E+04  0.46999998093E+01 0.  1.
</event>
<event>
 5   0  0.1897313E-07  0.3395557E+04  0.7818609E-02  0.8138998E-01
        2   -1    0    0  501    0  0.00000000000E+00  0.00000000000E+00  0.23275395310E+04  0.23275395310E+04  0.25500000920E-02 0. -1.
       -2   -1    0    0    0  501  0.00000000000E+00  0.00000000000E+00 -0.12384118139E+04  0.12384118139E+04  0.25500000920E-02 0.  1.
    10030    2    1    2    0    0  0.00000000000E+00  0.00000000000E+00  0.10891277171E+04  0.35659513449E+04  0.33955573637E+04 0.  0.
        3    1    3    3  502    0  0.43657179192E+03  0.49199511339E+03  0.21882901730E+04  0.22850094119E+04  0.10100000352E+00 0. -1.
       -3    1    3    3    0  502 -0.43657179192E+03 -0.49199511339E+03 -0.10991624559E+04  0.12809419330E+04  0.10100000352E+00 0.  1.
</event>
<event>
 5   0  0.6788600E-08  0.3406203E+04  0.7818609E-02  0.8136386E-01
       -1   -1    0    0    0  501  0.00000000000E+00  0.00000000000E+00  0.17371481176E+04  0.17371481176E+04  0.50400001928E-02 0. -1.
        1   -1    0    0  501    0  0.00000000000E+00  0.00000000000E+00 -0.16697220592E+04  0.16697220593E+04  0.50400001928E-02 0.  1.
    10030    2    1    2    0    0  0.00000000000E+00  0.00000000000E+00  0.67426058358E+02  0.34068701769E+04  0.34062028901E+04 0.  0.
        2    1    3    3  502    0  0.91835029785E+03  0.13719055994E+04 -0.38477339398E+03  0.16951527388E+04  0.25500000920E-02 0. -1.
       -2    1    3    3    0  502 -0.91835029785E+03 -0.13719055994E+04  0.45219945233E+03  0.17117174381E+04  0.25500000920E-02 0.  1.
</event>
<event>
 5   0  0.6311750E-08  0.3401129E+04  0.7818609E-02  0.8137629E-01
        1   -1    0    0  501    0  0.00000000000E+00  0.00000000000E+00  0.15157461452E+04  0.15157461452E+04  0.50400001928E-02 0. -1.
       -1   -1    0    0    0  501  0.00000000000E+00  0.00000000000E+00 -0.19079177175E+04  0.19079177175E+04  0.50400001928E-02 0.  1.
    10030    2    1    2    0    0  0.00000000000E+00  0.00000000000E+00 -0.39217157226E+03  0.34236638627E+04  0.34011285925E+04 0.  0.
        4    1    3    3  502    0 -0.12189695706E+04  0.11728091727E+04 -0.20144572380E+02  0.16916783342E+04  0.12699999809E+01 0. -1.
       -4    1    3    3    0  502  0.12189695706E+04 -0.11728091727E+04 -0.37202699988E+03  0.17319855286E+04  0.12699999809E+01 0.  1.
</event>
<event>
 5   0  0.6367111E-08  0.3400692E+04  0.7818609E-02  0.8137737E-01
        1   -1    0    0  501    0  0.00000000000E+00  0.00000000000E+00  0.20074205299E+04  0.20074205299E+04  0.50400001928E-02 0.  1.
       -1   -1    0    0    0  501  0.00000000000E+00  0.00000000000E+00 -0.14402444764E+04  0.14402444764E+04  0.50400001928E-02 0. -1.
    10030    2    1    2    0    0  0.00000000000E+00  0.00000000000E+00  0.56717605348E+03  0.34476650063E+04  0.34006918884E+04 0.  0.
        3    1    3    3  502    0  0.13571722343E+03  0.42066136921E+03  0.19481566493E+04  0.19976710171E+04  0.10100000352E+00 0.  1.
       -3    1    3    3    0  502 -0.13571722343E+03 -0.42066136921E+03 -0.13809805958E+04  0.14499939891E+04  0.10100000352E+00 0. -1.
</event>
<event>
 5   0  0.6311750E-08  0.3398819E+04  0.7818609E-02  0.8138196E-01
        1   -1    0    0  501    0  0.00000000000E+00  0.00000000000E+00  0.12036447808E+04  0.12036447808E+04  0.50400001928E-02 0.  1.
       -1   -1    0    0    0  501  0.00000000000E+00  0.00000000000E+00 -0.23993724055E+04  0.23993724055E+04  0.50400001928E-02 0. -1.
    10030    2    1    2    0    0  0.00000000000E+00  0.00000000000E+00 -0.11957276247E+04  0.36030171863E+04  0.33988186613E+04 0.  0.
        4    1    3    3  502    0  0.16121507203E+04  0.50517094552E+03 -0.40307779952E+03  0.17368652666E+04  0.12699999809E+01 0. -1.
       -4    1    3    3    0  502 -0.16121507203E+04 -0.50517094552E+03 -0.79264982515E+03  0.18661519197E+04  0.12699999809E+01 0.  1.
</event>
<event>
 5   0  0.1928004E-07  0.3396409E+04  0.7818609E-02  0.8138788E-01
        2   -1    0    0  501    0  0.00000000000E+00  0.00000000000E+00  0.23117294805E+04  0.23117294805E+04  0.25500000920E-02 0. -1.
       -2   -1    0    0    0  501  0.00000000000E+00  0.00000000000E+00 -0.12475066528E+04  0.12475066528E+04  0.25500000920E-02 0.  1.
    10030    2    1    2    0    0  0.00000000000E+00  0.00000000000E+00  0.10642228277E+04  0.35592361333E+04  0.33964086364E+04 0.  0.
        2    1    3    3  502    0 -0.63441325360E+02 -0.12804505066E+04  0.16991995903E+04  0.21285811118E+04  0.25500000920E-02 0. -1.
       -2    1    3    3    0  502  0.63441325360E+02  0.12804505066E+04 -0.63497676264E+03  0.14306550215E+04  0.25500000920E-02 0.  1.
</event>
<event>
 5   0  0.1986613E-07  0.3398402E+04  0.7818609E-02  0.8138299E-01
       -2   -1    0    0    0  501  0.00000000000E+00  0.00000000000E+00  0.12597401493E+04  0.12597401493E+04  0.25500000920E-02 0.  1.
        2   -1    0    0  501    0  0.00000000000E+00  0.00000000000E+00 -0.22919683980E+04  0.22919683980E+04  0.25500000920E-02 0. -1.
    10030    2    1    2    0    0  0.00000000000E+00  0.00000000000E+00 -0.10322282487E+04  0.35517085473E+04  0.33984023375E+04 0.  0.
        5    1    3    3  502    0 -0.14221808980E+04 -0.16389478980E+03 -0.14727206871E+04  0.20538715444E+04  0.46999998093E+01 0. -1.
       -5    1    3    3    0  502  0.14221808980E+04  0.16389478980E+03  0.44049243834E+03  0.14978370029E+04  0.46999998093E+01 0.  1.
</event>
<event>
 5   0  0.1897313E-07  0.3307386E+04  0.7818609E-02  0.8161019E-01
        2   -1    0    0  501    0  0.00000000000E+00  0.00000000000E+00  0.27764118031E+04  0.27764118031E+04  0.25500000920E-02 0.  1.
       -2   -1    0    0    0  501  0.00000000000E+00  0.00000000000E+00 -0.98497659746E+03  0.98497659747E+03  0.25500000920E-02 0. -1.
    10030    2    1    2    0    0  0.00000000000E+00  0.00000000000E+00  0.17914352056E+04  0.37613884005E+04  0.33073860682E+04 0.  0.
        3    1    3    3  502    0  0.12711405611E+04  0.57324406423E+03  0.19067323932E+04  0.23622098791E+04  0.10100000352E+00 0.  1.
       -3    1    3    3    0  502 -0.12711405611E+04 -0.57324406423E+03 -0.11529718761E+03  0.13991785215E+04  0.10100000352E+00 0. -1.
</event>
<event>
 5   0  0.1986613E-07  0.3391391E+04  0.7818609E-02  0.8140022E-01
       -2   -1    0    0    0  501  0.00000000000E+00  0.00000000000E+00  0.15790723940E+04  0.15790723940E+04  0.25500000920E-02 0. -1.
        2   -1    0    0  501    0  0.00000000000E+00  0.00000000000E+00 -0.18209323012E+04  0.18209323012E+04  0.25500000920E-02 0.  1.
    10030    2    1    2    0    0  0.00000000000E+00  0.00000000000E+00 -0.24185990714E+03  0.34000046952E+04  0.33913914125E+04 0.  0.
        5    1    3    3  502    0 -0.90163801253E+03 -0.25697567263E+03 -0.15374495235E+04  0.18007667060E+04  0.46999998093E+01 0.  1.
       -5    1    3    3    0  502  0.90163801253E+03  0.25697567263E+03  0.12955896164E+04  0.15992379892E+04  0.46999998093E+01 0. -1.
</event>
<event>
 5   0  0.6311750E-08  0.3402351E+04  0.7818609E-02  0.8137330E-01
        1   -1    0    0  501    0  0.00000000000E+00  0.00000000000E+00  0.17881773401E+04  0.17881773401E+04  0.50400001928E-02 0.  1.
       -1   -1    0    0    0  501  0.00000000000E+00  0.00000000000E+00 -0.16184062734E+04  0.16184062734E+04  0.50400001928E-02 0. -1.
    10030    2    1    2    0    0  0.00000000000E+00  0.00000000000E+00  0.16977106671E+03  0.34065836135E+04  0.34023506140E+04 0.  0.
        4    1    3    3  502    0  0.56225637012E+03 -0.13578681749E+04 -0.77295202870E+03  0.16605404715E+04  0.12699999809E+01 0. -1.
       -4    1    3    3    0  502 -0.56225637012E+03  0.13578681749E+04  0.94272309541E+03  0.17460431420E+04  0.12699999809E+01 0.  1.
</event>
<event>
 5   0  0.6341535E-08  0.3399096E+04  0.7818609E-02  0.8138128E-01
        1   -1    0    0  501    0  0.00000000000E+00  0.00000000000E+00  0.12563645275E+04  0.12563645275E+04  0.50400001928E-02 0. -1.
       -1   -1    0    0    0  501  0.00000000000E+00  0.00000000000E+00 -0.22990646330E+04  0.22990646330E+04  0.50400001928E-02 0.  1.
    10030    2    1    2    0    0  0.00000000000E+00  0.00000000000E+00 -0.10427001055E+04  0.35554291605E+04  0.33990959100E+04 0.  0.
        5    1    3    3  502    0 -0.54198884006E+03  0.88927715134E+03 -0.19262062767E+04  0.21897165262E+04  0.46999998093E+01 0.  1.
       -5    1    3    3    0  502  0.54198884006E+03 -0.88927715134E+03  0.88350617129E+03  0.13657126342E+04  0.46999998093E+01 0. -1.
</event>
<event>
 5   0  0.6367111E-08  0.3402718E+04  0.7818609E-02  0.8137239E-01
       -1   -1    0    0    0  501  0.00000000000E+00  0.00000000000E+00  0.12510497076E+04  0.12510497076E+04  0.50400001928E-02 0. -1.
        1   -1    0    0  501    0  0.00000000000E+00  0.00000000000E+00 -0.23137556176E+04  0.23137556176E+04  0.50400001928E-02 0.  1.
    10030    2    1    2    0    0  0.00000000000E+00  0.00000000000E+00 -0.10627059100E+04  0.35648053252E+04  0.34027184949E+04 0.  0.
        3    1    3    3  502    0  0.75217917394E+03  0.12418296841E+04 -0.14605692169E+04  0.20594117902E+04  0.10100000352E+00 0. -1.
       -3    1    3    3    0  502 -0.75217917394E+03 -0.12418296841E+04  0.39786330694E+03  0.15053935350E+04  0.10100000352E+00 0.  1.
</event>
<event>
 5   0  0.6341535E-08  0.3397224E+04  0.7818609E-02  0.8138588E-01
        1   -1    0    0  501    0  0.00000000000E+00  0.00000000000E+00  0.21047403355E+04  0.21047403355E+04  0.50400001928E-02 0.  1.
       -1   -1    0    0    0  501  0.00000000000E+00  0.00000000000E+00 -0.13708500080E+04  0.13708500081E+04  0.50400001928E-02 0. -1.
    10030    2    1    2    0    0  0.00000000000E+00  0.00000000000E+00  0.73389032748E+03  0.34755903436E+04  0.33972243411E+04 0.  0.
        5    1    3    3  502    0 -0.88945074941E+03  0.37118872235E+03  0.17979083665E+04  0.20399510503E+04  0.46999998093E+01 0.  1.
       -5    1    3    3    0  502  0.88945074941E+03 -0.37118872235E+03 -0.10640180390E+04  0.14356392933E+04  0.46999998093E+01 0. -1.
</event>
<event>
 5   0  0.1928004E-07  0.3424226E+04  0.7818609E-02  0.8131986E-01
        2   -1    0    0  501    0  0.00000000000E+00  0.00000000000E+00  0.22219330317E+04  0.22219330317E+04  0.25500000920E-02 0. -1.
       -2   -1    0    0    0  501  0.00000000000E+00  0.00000000000E+00 -0.13192702347E+04  0.13192702347E+04  0.25500000920E-02 0.  1.
    10030    2    1    2    0    0  0.00000000000E+00  0.00000000000E+00  0.90266279701E+03  0.35412032665E+04  0.34242255255E+04 0.  0.
        2    1    3    3  502    0  0.48591650265E+03  0.11309885240E+04 -0.77931256172E+03  0.14569069832E+04  0.25500000920E-02 0.  1.
       -2    1    3    3    0  502 -0.48591650265E+03 -0.11309885240E+04  0.16819753587E+04  0.20842962832E+04  0.25500000920E-02 0. -1.
</event>
<event>
 5   0  0.1897313E-07  0.3400513E+04  0.7818609E-02  0.8137781E-01
       -2   -1    0    0    0  501  0.00000000000E+00  0.00000000000E+00  0.16663016234E+04  0.16663016234E+04  0.25500000920E-02 0.  1.
        2   -1    0    0  501    0  0.00000000000E+00  0.00000000000E+00 -0.17349028004E+04  0.17349028004E+04  0.25500000920E-02 0. -1.
    10030    2    1    2    0    0  0.00000000000E+00  0.00000000000E+00 -0.68601176993E+02  0.34012044238E+04  0.34005125218E+04 0.  0.
        3    1    3    3  502    0  0.16985328346E+04 -0.60313207946E+02 -0.81425664349E+02  0.17015527092E+04  0.10100000352E+00 0. -1.
       -3    1    3    3    0  502 -0.16985328346E+04  0.60313207946E+02  0.12824487355E+02  0.16996517146E+04  0.10100000352E+00 0.  1.
</event>
<event>
 5   0  0.1897313E-07  0.3399658E+04  0.7818609E-02  0.8137990E-01
       -2   -1    0    0    0  501  0.00000000000E+00  0.00000000000E+00  0.31569962755E+04  0.31569962755E+04  0.25500000920E-02 0. -1.
        2   -1    0    0  501    0  0.00000000000E+00  0.00000000000E+00 -0.91524284830E+03  0.91524284830E+03  0.25500000920E-02 0.  1.
    10030    2    1    2    0    0  0.00000000000E+00  0.00000000000E+00  0.22417534272E+04  0.40722391238E+04  0.33996577847E+04 0.  0.
        3    1    3    3  502    0  0.24962759459E+03  0.72223664289E+02  0.31330619608E+04  0.31438205188E+04  0.10100000352E+00 0. -1.
       -3    1    3    3    0  502 -0.24962759459E+03 -0.72223664289E+02 -0.89130853368E+03  0.92841860498E+03  0.10100000352E+00 0.  1.
</event>
<event>
 5   0  0.6788600E-08  0.3398772E+04  0.7818609E-02  0.8138208E-01
       -1   -1    0    0    0  501  0.00000000000E+00  0.00000000000E+00  0.23909184859E+04  0.23909184859E+04  0.50400001928E-02 0. -1.
        1   -1    0    0  501    0  0.00000000000E+00  0.00000000000E+00 -0.12078678270E+04  0.12078678270E+04  0.50400001928E-02 0.  1.
    10030    2    1    2    0    0  0.00000000000E+00  0.00000000000E+00  0.11830506590E+04  0.35987863129E+04  0.33987724349E+04 0.  0.
        2    1    3    3  502    0 -0.12657854247E+04 -0.46014718463E+03 -0.50578408726E+03  0.14386680353E+04  0.25500000920E-02 0.  1.
       -2    1    3    3    0  502  0.12657854247E+04  0.46014718463E+03  0.16888347462E+04  0.21601182775E+04  0.25500000920E-02 0. -1.
</event>
<event>
 5   0  0.1963852E-07  0.3400521E+04  0.7818609E-02  0.8137779E-01
        2   -1    0    0  501    0  0.00000000000E+00  0.00000000000E+00  0.17497235522E+04  0.17497235522E+04  0.25500000920E-02 0.  1.
       -2   -1    0    0    0  501  0.00000000000E+00  0.00000000000E+00 -0.16521953134E+04  0.16521953134E+04  0.25500000920E-02 0. -1.
    10030    2    1    2    0    0  0.00000000000E+00  0.00000000000E+00  0.97528238815E+02  0.34019188656E+04  0.34005205794E+04 0.  0.
        4    1    3    3  502    0  0.16327074277E+04  0.45569581564E+03  0.18107287459E+03  0.17047525391E+04  0.12699999809E+01 0.  1.
       -4    1    3    3    0  502 -0.16327074277E+04 -0.45569581564E+03 -0.83544635771E+02  0.16971663265E+04  0.12699999809E+01 0. -1.
</event>
<event>
 5   0  0.1897313E-07  0.3404958E+04  0.7818609E-02  0.8136690E-01
       -2   -1    0    0    0  501  0.00000000000E+00  0.00000000000E+00  0.97652691569E+03  0.97652691570E+03  0.25500000920E-02 0.  1.
        2   -1    0    0  501    0  0.00000000000E+00  0.00000000000E+00 -0.29681059446E+04  0.29681059446E+04  0.25500000920E-02 0. -1.
    10030    2    1    2    0    0  0.00000000000E+00  0.00000000000E+00 -0.19915790289E+04  0.39446328603E+04  0.34049583513E+04 0.  0.
        3    1    3    3  502    0 -0.16450262251E+03  0.37364939792E+03 -0.29105571693E+04  0.29390505323E+04  0.10100000352E+00 0. -1.
       -3    1    3    3    0  502  0.16450262251E+03 -0.37364939792E+03  0.91897814047E+03  0.10055823279E+04  0.10100000352E+00 0.  1.
</event>
<event>
 5   0  0.1897313E-07  0.3397178E+04  0.7818609E-02  0.8138599E-01
       -2   -1    0    0    0  501  0.00000000000E+00  0.00000000000E+00  0.15335698695E+04  0.15335698695E+04  0.25500000920E-02 0.  1.
        2   -1    0    0  501    0  0.00000000000E+00  0.00000000000E+00 -0.18813651756E+04  0.18813651756E+04  0.25500000920E-02 0. -1.
    10030    2    1    2    0    0  0.00000000000E+00  0.00000000000E+00 -0.34779530610E+03  0.34149350451E+04  0.33971782095E+04 0.  0.
        3    1    3    3  502    0  0.76331573708E+03  0.11047501589E+04  0.87177084643E+03  0.16009710325E+04  0.10100000352E+00 0.  1.
       -3    1    3    3    0  502 -0.76331573708E+03 -0.11047501589E+04 -0.12195661525E+04  0.18139640125E+04  0.10100000352E+00 0. -1.
</event>
<event>
 5   0  0.1897313E-07  0.3394135E+04  0.7818609E-02  0.8139347E-01
        2   -1    0    0  501    0  0.00000000000E+00  0.00000000000E+00  0.11521981099E+04  0.11521981099E+04  0.25500000920E-02 0.  1.
       -2   -1    0    0    0  501  0.00000000000E+00  0.00000000000E+00 -0.24996027489E+04  0.24996027489E+04  0.25500000920E-02 0. -1.
    10030    2    1    2    0    0  0.00000000000E+00  0.00000000000E+00 -0.13474046390E+04  0.36518008589E+04  0.33941346838E+04 0.  0.
        3    1    3    3  502    0 -0.58688291835E+02 -0.14372963915E+04  0.29508282678E+03  0.14684478599E+04  0.10100000352E+00 0.  1.
       -3    1    3    3    0  502  0.58688291835E+02  0.14372963915E+04 -0.16424874658E+04  0.21833529989E+04  0.10100000352E+00 0. -1.
</event>
<event>
 5   0  0.1986613E-07  0.3363903E+04  0.7818609E-02  0.8146823E-01
        2   -1    0    0  501    0  0.00000000000E+00  0.00000000000E+00  0.22355230654E+04  0.22355230654E+04  0.25500000920E-02 0. -1.
       -2   -1    0    0    0  501  0.00000000000E+00  0.00000000000E+00 -0.12654583927E+04  0.12654583927E+04  0.25500000920E-02 0.  1.
    10030    2    1    2    0    0  0.00000000000E+00  0.00000000000E+00  0.97006467261E+03  0.35009814581E+04  0.33639033430E+04 0.  0.
        5    1    3    3  502    0  0.15313355890E+04  0.56590149300E+03  0.63938583133E+02  0.16338125407E+04  0.46999998093E+01 0.  1.
       -5    1    3    3    0  502 -0.15313355890E+04 -0.56590149300E+03  0.90612608948E+03  0.18671689173E+04  0.46999998093E+01 0. -1.
</event>
<event>
 5   0  0.6367111E-08  0.3398185E+04  0.7818609E-02  0.8138352E-01
        1   -1    0    0  501    0  0.00000000000E+00  0.00000000000E+00  0.17930900664E+04  0.17930900664E+04  0.50400001928E-02 0. -1.
       -1   -1    0    0    0  501  0.00000000000E+00  0.00000000000E+00 -0.16100220941E+04  0.16100220941E+04  0.50400001928E-02 0.  1.
    10030    2    1    2    0    0  0.00000000000E+00  0.00000000000E+00  0.18306797223E+03  0.34031121605E+04  0.33981845881E+04 0.  0.
        3    1    3    3  502    0  0.15412035655E+04  0.27243117770E+03 -0.57077774764E+03  0.16659274967E+04  0.10100000352E+00 0.  1.
       -3    1    3    3    0  502 -0.15412035655E+04 -0.27243117770E+03  0.75384571987E+03  0.17371846639E+04  0.10100000352E+00 0. -1.
</event>
<event>
 5   0  0.6788600E-08  0.3402922E+04  0.7818609E-02  0.8137190E-01
       -1   -1    0    0    0  501  0.00000000000E+00  0.00000000000E+00  0.17802867901E+04  0.17802867901E+04  0.50400001928E-02 0. -1.
        1   -1    0    0  501    0  0.00000000000E+00  0.00000000000E+00 -0.16261253853E+04  0.16261253853E+04  0.50400001928E-02 0.  1.
    10030    2    1    2    0    0  0.00000000000E+00  0.00000000000E+00  0.15416140485E+03  0.34064121754E+04  0.34029220047E+04 0.  0.
        2    1    3    3  502    0  0.60076476956E+03 -0.15907077829E+04  0.13797058019E+03  0.17059617346E+04  0.25500000920E-02 0. -1.
       -2    1    3    3    0  502 -0.60076476956E+03  0.15907077829E+04  0.16190824665E+02  0.17004504408E+04  0.25500000920E-02 0.  1.
</event>
<event>
 5   0  0.6311750E-08  0.3391181E+04  0.7818609E-02  0.8140074E-01
        1   -1    0    0  501    0  0.00000000000E+00  0.00000000000E+00  0.20233493323E+04  0.20233493323E+04  0.50400001928E-02 0. -1.
       -1   -1    0    0    0  501  0.00000000000E+00  0.00000000000E+00 -0.14209244192E+04  0.14209244192E+04  0.50400001928E-02 0.  1.
    10030    2    1    2    0    0  0.00000000000E+00  0.00000000000E+00  0.60242491312E+03  0.34442737515E+04  0.33911806056E+04 0.  0.
        4    1    3    3  502    0 -0.14340832487E+04  0.55717089240E+03  0.10251058625E+04  0.18487503373E+04  0.12699999809E+01 0. -1.
       -4    1    3    3    0  502  0.14340832487E+04 -0.55717089240E+03 -0.42268094937E+03  0.15955234142E+04  0.12699999809E+01 0.  1.
</event>
<event>
 5   0  0.1897313E-07  0.3398875E+04  0.7818609E-02  0.8138182E-01
       -2   -1    0    0    0  501  0.00000000000E+00  0.00000000000E+00  0.16803548533E+04  0.16803548533E+04  0.25500000920E-02 0. -1.
        2   -1    0    0  501    0  0.00000000000E+00  0.00000000000E+00 -0.17187371316E+04  0.17187371316E+04  0.25500000920E-02 0.  1.
    10030    2    1    2    0    0  0.00000000000E+00  0.00000000000E+00 -0.38382278311E+02  0.33990919849E+04  0.33988752731E+04 0.  0.
        3    1    3    3  502    0  0.84740065596E+03 -0.12889575592E+03 -0.14867267914E+04  0.17161172891E+04  0.10100000352E+00 0.  1.
       -3    1    3    3    0  502 -0.84740065596E+03  0.12889575592E+03  0.14483445131E+04  0.16829746957E+04  0.10100000352E+00 0. -1.
</event>
<event>
 5   0  0.1897313E-07  0.3397658E+04  0.7818609E-02  0.8138481E-01
       -2   -1    0    0    0  501  0.00000000000E+00  0.00000000000E+00  0.17853037145E+04  0.17853037145E+04  0.25500000920E-02 0.  1.
        2   -1    0    0  501    0  0.00000000000E+00  0.00000000000E+00 -0.16165426840E+04  0.16165426840E+04  0.25500000920E-02 0. -1.
    10030    2    1    2    0    0  0.00000000000E+00  0.00000000000E+00  0.16876103057E+03  0.34018463985E+04  0.33976578158E+04 0.  0.
        3    1    3    3  502    0  0.76583745369E+02  0.42226468499E+03 -0.15613754858E+04  0.16192794546E+04  0.10100000352E+00 0. -1.
       -3    1    3    3    0  502 -0.76583745369E+02 -0.42226468499E+03  0.17301365163E+04  0.17825669439E+04  0.10100000352E+00 0.  1.
</event>
<event>
 5   0  0.1970449E-07  0.3402991E+04  0.7818609E-02  0.8137173E-01
       -2   -1    0    0    0  501  0.00000000000E+00  0.00000000000E+00  0.11682790170E+04  0.11682790170E+04  0.25500000920E-02 0. -1.
        2   -1    0    0  501    0  0.00000000000E+00  0.00000000000E+00 -0.24780783573E+04  0.24780783573E+04  0.25500000920E-02 0.  1.
    10030    2    1    2    0    0  0.00000000000E+00  0.00000000000E+00 -0.13097993403E+04  0.36463573743E+04  0.34029910064E+04 0.  0.
        1    1    3    3  502    0  0.67637096221E+03 -0.69052374974E+03  0.84552277668E+03  0.12842155167E+04  0.50400001928E-02 0. -1.
       -1    1    3    3    0  502 -0.67637096221E+03  0.69052374974E+03 -0.21553221170E+04  0.23621418576E+04  0.50400001928E-02 0.  1.
</event>
<event>
 5   0  0.6584420E-08  0.3399804E+04  0.7818609E-02  0.8137954E-01
        1   -1    0    0  501    0  0.00000000000E+00  0.00000000000E+00  0.11399962709E+04  0.11399962709E+04  0.50400001928E-02 0. -1.
       -1   -1    0    0    0  501  0.00000000000E+00  0.00000000000E+00 -0.25348038619E+04  0.25348038619E+04  0.50400001928E-02 0.  1.
    10030    2    1    2    0    0  0.00000000000E+00  0.00000000000E+00 -0.13948075910E+04  0.36748001329E+04  0.33998040827E+04 0.  0.
        1    1    3    3  502    0  0.48043952843E+03  0.34048013828E+03 -0.24210416265E+04  0.24916242538E+04  0.50400001928E-02 0.  1.
       -1    1    3    3    0  502 -0.48043952843E+03 -0.34048013828E+03  0.10262340355E+04  0.11831758790E+04  0.50400001928E-02 0. -1.
</event>
<event>
 5   0  0.1928004E-07  0.3402117E+04  0.7818609E-02  0.8137387E-01
        2   -1    0    0  501    0  0.00000000000E+00  0.00000000000E+00  0.28035017634E+04  0.28035017634E+04  0.25500000920E-02 0.  1.
       -2   -1    0    0    0  501  0.00000000000E+00  0.00000000000E+00 -0.10321376531E+04  0.10321376531E+04  0.25500000920E-02 0. -1.
    10030    2    1    2    0    0  0.00000000000E+00  0.00000000000E+00  0.17713641102E+04  0.38356394165E+04  0.34021168296E+04 0.  0.
        2    1    3    3  502    0  0.28441949877E+03 -0.11042689184E+04  0.23087862721E+04  0.25750336591E+04  0.25500000920E-02 0.  1.
       -2    1    3    3    0  502 -0.28441949877E+03  0.11042689184E+04 -0.53742216183E+03  0.12606057574E+04  0.25500000920E-02 0. -1.
</event>
<event>
 5   0  0.1897313E-07  0.3423035E+04  0.7818609E-02  0.8132276E-01
       -2   -1    0    0    0  501  0.00000000000E+00  0.00000000000E+00  0.20034683801E+04  0.20034683801E+04  0.25500000920E-02 0.  1.
        2   -1    0    0  501    0  0.00000000000E+00  0.00000000000E+00 -0.14621104860E+04  0.14621104860E+04  0.25500000920E-02 0. -1.
    10030    2    1    2    0    0  0.00000000000E+00  0.00000000000E+00  0.54135789416E+03  0.34655788661E+04  0.34230349849E+04 0.  0.
        3    1    3    3  502    0  0.56830323926E+03  0.32226419090E+03 -0.13309017689E+04  0.14826065928E+04  0.10100000352E+00 0. -1.
       -3    1    3    3    0  502 -0.56830323926E+03 -0.32226419090E+03  0.18722596631E+04  0.19829722733E+04  0.10100000352E+00 0.  1.
</event>
<event>
 5   0  0.6584420E-08  0.3407981E+04  0.7818609E-02  0.8135950E-01
       -1   -1    0    0    0  501  0.00000000000E+00  0.00000000000E+00  0.14029197745E+04  0.14029197745E+04  0.50400001928E-02 0. -1.
        1   -1    0    0  501    0  0.00000000000E+00  0.00000000000E+00 -0.20696721148E+04  0.20696721148E+04  0.50400001928E-02 0.  1.
    10030    2    1    2    0    0  0.00000000000E+00  0.00000000000E+00 -0.66675234038E+03  0.34725918893E+04  0.34079811834E+04 0.  0.
        1    1    3    3  502    0 -0.11742524085E+04  0.10041223923E+04  0.39889535255E+03  0.15956967130E+04  0.50400001928E-02 0. -1.
       -1    1    3    3    0  502  0.11742524085E+04 -0.10041223923E+04 -0.10656476929E+04  0.18768951763E+04  0.50400001928E-02 0.  1.
</event>
<event>
 5   0  0.1963852E-07  0.3425993E+04  0.7818609E-02  0.8131556E-01
        2   -1    0    0  501    0  0.00000000000E+00  0.00000000000E+00  0.32510625823E+04  0.32510625823E+04  0.25500000920E-02 0. -1.
       -2   -1    0    0    0  501  0.00000000000E+00  0.00000000000E+00 -0.90258409228E+03  0.90258409228E+03  0.25500000920E-02 0.  1.
    10030    2    1    2    0    0  0.00000000000E+00  0.00000000000E+00  0.23484784900E+04  0.41536466746E+04  0.34259932106E+04 0.  0.
        4    1    3    3  502    0 -0.37314376851E+03  0.17668891939E+03  0.31898388105E+04  0.32164465636E+04  0.12699999809E+01 0. -1.
       -4    1    3    3    0  502  0.37314376851E+03 -0.17668891939E+03 -0.84136032053E+03  0.93720011100E+03  0.12699999809E+01 0.  1.
</event>
<event>
 5   0  0.6341535E-08  0.3415650E+04  0.7818609E-02  0.8134076E-01
       -1   -1    0    0    0  501  0.00000000000E+00  0.00000000000E+00  0.25349758293E+04  0.25349758293E+04  0.50400001928E-02 0.  1.
        1   -1    0    0  501    0  0.00000000000E+00  0.00000000000E+00 -0.11505697318E+04  0.11505697318E+04  0.50400001928E-02 0. -1.
    10030    2    1    2    0    0  0.00000000000E+00  0.00000000000E+00  0.13844060974E+04  0.36855455611E+04  0.34156501344E+04 0.  0.
        5    1    3    3  502    0 -0.64574549713E+03 -0.55031436746E+03 -0.90707793737E+03  0.12420328597E+04  0.46999998093E+01 0. -1.
       -5    1    3    3    0  502  0.64574549713E+03  0.55031436746E+03  0.22914840348E+04  0.24435127014E+04  0.46999998093E+01 0.  1.
</event>
<event>
 5   0  0.1986613E-07  0.3401154E+04  0.7818609E-02  0.8137623E-01
       -2   -1    0    0    0  501  0.00000000000E+00  0.00000000000E+00  0.18022525195E+04  0.18022525195E+04  0.25500000920E-02 0. -1.
        2   -1    0    0  501    0  0.00000000000E+00  0.00000000000E+00 -0.16046378592E+04  0.16046378592E+04  0.25500000920E-02 0.  1.
    10030    2    1    2    0    0  0.00000000000E+00  0.00000000000E+00  0.19761466032E+03  0.34068903787E+04  0.34011542891E+04 0.  0.
        5    1    3    3  502    0  0.34523910901E+03 -0.16104157051E+04 -0.32535900745E+03  0.16788416719E+04  0.46999998093E+01 0.  1.
       -5    1    3    3    0  502 -0.34523910901E+03  0.16104157051E+04  0.52297366777E+03  0.17280487067E+04  0.46999998093E+01 0. -1.
</event>
<event>
 5   0  0.1963852E-07  0.3387594E+04  0.7818609E-02  0.8140958E-01
        2   -1    0    0  501    0  0.00000000000E+00  0.00000000000E+00  0.21780052413E+04  0.21780052413E+04  0.25500000920E-02 0. -1.
       -2   -1    0    0    0  501  0.00000000000E+00  0.00000000000E+00 -0.13172367189E+04  0.13172367189E+04  0.25500000920E-02 0.  1.
    10030    2    1    2    0    0  0.00000000000E+00  0.00000000000E+00  0.86076852239E+03  0.34952419602E+04  0.33875941184E+04 0.  0.
        4    1    3    3  502    0  0.16481780166E+04  0.37967667713E+03  0.52439331651E+03  0.17707724633E+04  0.12699999809E+01 0. -1.
       -4    1    3    3    0  502 -0.16481780166E+04 -0.37967667713E+03  0.33637520587E+03  0.17244694968E+04  0.12699999809E+01 0.  1.
</event>
<event>
 5   0  0.1897313E-07  0.3396016E+04  0.7818609E-02  0.8138885E-01
       -2   -1    0    0    0  501  0.00000000000E+00  0.00000000000E+00  0.11012380188E+04  0.11012380188E+04  0.25500000920E-02 0.  1.
        2   -1    0    0  501    0  0.00000000000E+00  0.00000000000E+00 -0.26181718655E+04  0.26181718655E+04  0.25500000920E-02 0. -1.
    10030    2    1    2    0    0  0.00000000000E+00  0.00000000000E+00 -0.15169338467E+04  0.37194098844E+04  0.33960155466E+04 0.  0.
        3    1    3    3  502    0  0.14336050908E+04 -0.89220313748E+02 -0.17502658378E+04  0.22642028032E+04  0.10100000352E+00 0. -1.
       -3    1    3    3    0  502 -0.14336050908E+04  0.89220313748E+02  0.23333199111E+03  0.14552070812E+04  0.10100000352E+00 0.  1.
</event>
<event>
 5   0  0.1897313E-07  0.3399639E+04  0.7818609E-02  0.8137995E-01
       -2   -1    0    0    0  501  0.00000000000E+00  0.00000000000E+00  0.99278337254E+03  0.99278337254E+03  0.25500000920E-02 0.  1.
        2   -1    0    0  501    0  0.00000000000E+00  0.00000000000E+00 -0.29103895057E+04  0.29103895057E+04  0.25500000920E-02 0. -1.
    10030    2    1    2    0    0  0.00000000000E+00  0.00000000000E+00 -0.19176061331E+04  0.39031728782E+04  0.33996389860E+04 0.  0.
        3    1    3    3  502    0  0.16250485981E+03 -0.16400278029E+04 -0.14367375018E+04  0.21863928473E+04  0.10100000352E+00 0. -1.
       -3    1    3    3    0  502 -0.16250485981E+03  0.16400278029E+04 -0.48086863137E+03  0.17167800309E+04  0.10100000352E+00 0.  1.
</event>
<event>
 5   0  0.1928004E-07  0.3401551E+04  0.7818609E-02  0.8137526E-01
        2   -1    0    0  501    0  0.00000000000E+00  0.00000000000E+00  0.17032845803E+04  0.17032845803E+04  0.25500000920E-02 0.  1.
       -2   -1    0    0    0  501  0.00000000000E+00  0.00000000000E+00 -0.16982704043E+04  0.16982704043E+04  0.25500000920E-02 0. -1.
    10030    2    1    2    0    0  0.00000000000E+00  0.00000000000E+00  0.50141760265E+01  0.34015549846E+04  0.34015512889E+04 0.  0.
        2    1    3    3  502    0 -0.10635155874E+04  0.61850955338E+03  0.11768244714E+04  0.17025085342E+04  0.25500000920E-02 0.  1.
       -2    1    3    3    0  502  0.10635155874E+04 -0.61850955338E+03 -0.11718102954E+04  0.16990464504E+04  0.25500000920E-02 0. -1.
</event>
<event>
 5   0  0.1897313E-07  0.3401113E+04  0.7818609E-02  0.8137633E-01
       -2   -1    0    0    0  501  0.00000000000E+00  0.00000000000E+00  0.15256133908E+04  0.15256133908E+04  0.25500000920E-02 0. -1.
        2   -1    0    0  501    0  0.00000000000E+00  0.00000000000E+00 -0.18955601463E+04  0.18955601463E+04  0.25500000920E-02 0.  1.
    10030    2    1    2    0    0  0.00000000000E+00  0.00000000000E+00 -0.36994675556E+03  0.34211735371E+04  0.34011127251E+04 0.  0.
        3    1    3    3  502    0 -0.12841415441E+04  0.78713152853E+03 -0.97912125874E+03  0.17964615214E+04  0.10100000352E+00 0. -1.
       -3    1    3    3    0  502  0.12841415441E+04 -0.78713152853E+03  0.60917450318E+03  0.16247120157E+04  0.10100000352E+00 0.  1.
</event>
<event>
 5   0  0.6341535E-08  0.3399819E+04  0.7818609E-02  0.8137951E-01
       -1   -1    0    0    0  501  0.00000000000E+00  0.00000000000E+00  0.17105440545E+04  0.17105440545E+04  0.50400001928E-02 0.  1.
        1   -1    0    0  501    0  0.00000000000E+00  0.00000000000E+00 -0.16893410049E+04  0.16893410049E+04  0.50400001928E-02 0. -1.
    10030    2    1    2    0    0  0.00000000000E+00  0.00000000000E+00  0.21203049594E+02  0.33998850594E+04  0.33998189434E+04 0.  0.
        5    1    3    3  502    0  0.13765740192E+04 -0.94957194385E+03  0.31561108738E+03  0.17018446919E+04  0.46999998093E+01 0.  1.
       -5    1    3    3    0  502 -0.13765740192E+04  0.94957194385E+03 -0.29440803778E+03  0.16980403675E+04  0.46999998093E+01 0. -1.
</event>
<event>
 5   0  0.1970449E-07  0.3384309E+04  0.7818609E-02  0.8141768E-01
        2   -1    0    0  501    0  0.00000000000E+00  0.00000000000E+00  0.20860505615E+04  0.20860505615E+04  0.25500000920E-02 0.  1.
       -2   -1    0    0    0  501  0.00000000000E+00  0.00000000000E+00 -0.13726351674E+04  0.13726351674E+04  0.25500000920E-02 0. -1.
    10030    2    1    2    0    0  0.00000000000E+00  0.00000000000E+00  0.71341539417E+03  0.34586857289E+04  0.33843087103E+04 0.  0.
        1    1    3    3  502    0 -0.60507571634E+03  0.14445582115E+04 -0.29809277623E+03  0.15942786307E+04  0.50400001928E-02 0. -1.
       -1    1    3    3    0  502  0.60507571634E+03 -0.14445582115E+04  0.10115081704E+04  0.18644070982E+04  0.50400001928E-02 0.  1.
</event>
<event>
 5   0  0.6367111E-08  0.3402550E+04  0.7818609E-02  0.8137281E-01
       -1   -1    0    0    0  501  0.00000000000E+00  0.00000000000E+00  0.12488710712E+04  0.12488710712E+04  0.50400001928E-02 0.  1.
        1   -1    0    0  501    0  0.00000000000E+00  0.00000000000E+00 -0.23175625290E+04  0.23175625290E+04  0.50400001928E-02 0. -1.
    10030    2    1    2    0    0  0.00000000000E+00  0.00000000000E+00 -0.10686914578E+04  0.35664336002E+04  0.34025501014E+04 0.  0.
        3    1    3    3  502    0 -0.13648683634E+04 -0.93815227859E+03 -0.94210941437E+03  0.19054042894E+04  0.10100000352E+00 0. -1.
       -3    1    3    3    0  502  0.13648683634E+04  0.93815227859E+03 -0.12658204346E+03  0.16610293108E+04  0.10100000352E+00 0.  1.
</event>
<event>
 5   0  0.1963852E-07  0.3385652E+04  0.7818609E-02  0.8141437E-01
       -2   -1    0    0    0  501  0.00000000000E+00  0.00000000000E+00  0.10076542247E+04  0.10076542247E+04  0.25500000920E-02 0. -1.
        2   -1    0    0  501    0  0.00000000000E+00  0.00000000000E+00 -0.28438918753E+04  0.28438918753E+04  0.25500000920E-02 0.  1.
    10030    2    1    2    0    0  0.00000000000E+00  0.00000000000E+00 -0.18362376506E+04  0.38515461000E+04  0.33856518798E+04 0.  0.
        4    1    3    3  502    0  0.79561754251E+03  0.14049462019E+04 -0.14968216346E+04  0.22016715747E+04  0.12699999809E+01 0.  1.
       -4    1    3    3    0  502 -0.79561754251E+03 -0.14049462019E+04 -0.33941601600E+03  0.16498745253E+04  0.12699999809E+01 0. -1.
</event>
<event>
 5   0  0.1963852E-07  0.3408788E+04  0.7818609E-02  0.8135753E-01
        2   -1    0    0  501    0  0.00000000000E+00  0.00000000000E+00  0.18964738847E+04  0.18964738847E+04  0.25500000920E-02 0. -1.
       -2   -1    0    0    0  501  0.00000000000E+00  0.00000000000E+00 -0.15317681341E+04  0.15317681341E+04  0.25500000920E-02 0.  1.
    10030    2    1    2    0    0  0.00000000000E+00  0.00000000000E+00  0.36470575062E+03  0.34282420188E+04  0.34087876225E+04 0.  0.
        4    1    3    3  502    0  0.12140284870E+03  0.14067803687E+04 -0.77765608221E+03  0.16119926341E+04  0.12699999809E+01 0.  1.
       -4    1    3    3    0  502 -0.12140284870E+03 -0.14067803687E+04  0.11423618328E+04  0.18162493847E+04  0.12699999809E+01 0. -1.
</event>
<event>
 5   0  0.6311750E-08  0.3398043E+04  0.7818609E-02  0.8138387E-01
        3   -1    0    0  501    0  0.00000000000E+00  0.00000000000E+00  0.17216964402E+04  0.17216964432E+04  0.10100000352E+00 0.  1.
       -3   -1    0    0    0  501  0.00000000000E+00  0.00000000000E+00 -0.16766447572E+04  0.16766447602E+04  0.10100000352E+00 0. -1.
    10030    2    1    2    0    0  0.00000000000E+00  0.00000000000E+00  0.45051682996E+02  0.33983412034E+04  0.33980425660E+04 0.  0.
        5    1    3    3  502    0 -0.65732925144E+03  0.99303259582E+03  0.12344309001E+04  0.17152367820E+04  0.46999998093E+01 0.  1.
       -5    1    3    3    0  502  0.65732925144E+03 -0.99303259582E+03 -0.11893792171E+04  0.16831044214E+04  0.46999998093E+01 0. -1.
</event>
<event>
 5   0  0.1963852E-07  0.3444400E+04  0.7818609E-02  0.8127094E-01
        2   -1    0    0  501    0  0.00000000000E+00  0.00000000000E+00  0.25362635386E+04  0.25362635386E+04  0.25500000920E-02 0.  1.
       -2   -1    0    0    0  501  0.00000000000E+00  0.00000000000E+00 -0.11694259490E+04  0.11694259490E+04  0.25500000920E-02 0. -1.
    10030    2    1    2    0    0  0.00000000000E+00  0.00000000000E+00  0.13668375897E+04  0.37056894876E+04  0.34443997419E+04 0.  0.
        4    1    3    3  502    0 -0.12310847941E+04 -0.11895798850E+04  0.88555643694E+03  0.19274028870E+04  0.12699999809E+01 0.  1.
       -4    1    3    3    0  502  0.12310847941E+04  0.11895798850E+04  0.48128115274E+03  0.17782866006E+04  0.12699999809E+01 0. -1.
</event>
<event>
 5   0  0.1970449E-07  0.3400491E+04  0.7818609E-02  0.8137786E-01
       -2   -1    0    0    0  501  0.00000000000E+00  0.00000000000E+00  0.11673467727E+04  0.11673467727E+04  0.25500000920E-02 0. -1.
        2   -1    0    0  501    0  0.00000000000E+00  0.00000000000E+00 -0.24764149495E+04  0.24764149495E+04  0.25500000920E-02 0.  1.
    10030    2    1    2    0    0  0.00000000000E+00  0.00000000000E+00 -0.13090681768E+04  0.36437617222E+04  0.34004911405E+04 0.  0.
        1    1    3    3  502    0 -0.15118719447E+04  0.63448694444E+03 -0.11367324194E+04  0.19951168019E+04  0.50400001928E-02 0. -1.
       -1    1    3    3    0  502  0.15118719447E+04 -0.63448694444E+03 -0.17233575738E+03  0.16486449203E+04  0.50400001928E-02 0.  1.
</event>
<event>
 5   0  0.6311750E-08  0.3398278E+04  0.7818609E-02  0.8138329E-01
       -1   -1    0    0    0  501  0.00000000000E+00  0.00000000000E+00  0.27574902065E+04  0.27574902065E+04  0.50400001928E-02 0. -1.
        1   -1    0    0  501    0  0.00000000000E+00  0.00000000000E+00 -0.10469932798E+04  0.10469932799E+04  0.50400001928E-02 0.  1.
    10030    2    1    2    0    0  0.00000000000E+00  0.00000000000E+00  0.17104969267E+04  0.38044834864E+04  0.33982782202E+04 0.  0.
        4    1    3    3  502    0 -0.10305869422E+04 -0.86862793601E+03  0.20135445591E+04  0.24230120184E+04  0.12699999809E+01 0. -1.
       -4    1    3    3    0  502  0.10305869422E+04  0.86862793601E+03 -0.30304763243E+03  0.13814714680E+04  0.12699999809E+01 0.  1.
</event>
<event>
 5   0  0.6341535E-08  0.3400985E+04  0.7818609E-02  0.8137665E-01
       -1   -1    0    0    0  501  0.00000000000E+00  0.00000000000E+00  0.16435180547E+04  0.16435180547E+04  0.50400001928E-02 0. -1.
        1   -1    0    0  501    0  0.00000000000E+00  0.00000000000E+00 -0.17594419510E+04  0.17594419510E+04  0.50400001928E-02 0.  1.
    10030    2    1    2    0    0  0.00000000000E+00  0.00000000000E+00 -0.11592389627E+03  0.34029600058E+04  0.34009849237E+04 0.  0.
        5    1    3    3  502    0  0.62661455345E+03 -0.67902493890E+03  0.13704285985E+04  0.16528210127E+04  0.46999998093E+01 0. -1.
       -5    1    3    3    0  502 -0.62661455345E+03  0.67902493890E+03 -0.14863524948E+04  0.17501389931E+04  0.46999998093E+01 0.  1.
</event>
<event>
 5   0  0.1963852E-07  0.3401245E+04  0.7818609E-02  0.8137601E-01
       -2   -1    0    0    0  501  0.00000000000E+00  0.00000000000E+00  0.17048861103E+04  0.17048861103E+04  0.25500000920E-02 0.  1.
        2   -1    0    0  501    0  0.00000000000E+00  0.00000000000E+00 -0.16963697513E+04  0.16963697513E+04  0.25500000920E-02 0. -1.
    10030    2    1    2    0    0  0.00000000000E+00  0.00000000000E+00  0.85163590273E+01  0.34012558616E+04  0.34012451996E+04 0.  0.
        4    1    3    3  502    0 -0.13606613362E+03  0.21758580206E+03 -0.16768949245E+04  0.16964185140E+04  0.12699999809E+01 0. -1.
       -4    1    3    3    0  502  0.13606613362E+03 -0.21758580206E+03  0.16854112836E+04  0.17048373476E+04  0.12699999809E+01 0.  1.
</event>
<event>
 5   0  0.1970449E-07  0.3391603E+04  0.7818609E-02  0.8139970E-01
        2   -1    0    0  501    0  0.00000000000E+00  0.00000000000E+00  0.22982284423E+04  0.22982284423E+04  0.25500000920E-02 0.  1.
       -2   -1    0    0    0  501  0.00000000000E+00  0.00000000000E+00 -0.12512866900E+04  0.12512866900E+04  0.25500000920E-02 0. -1.
    10030    2    1    2    0    0  0.00000000000E+00  0.00000000000E+00  0.10469417523E+04  0.35495151323E+04  0.33916029606E+04 0.  0.
        1    1    3    3  502    0  0.91800248030E+03  0.61032103751E+03  0.18720809127E+04  0.21725347561E+04  0.50400001928E-02 0.  1.
       -1    1    3    3    0  502 -0.91800248030E+03 -0.61032103751E+03 -0.82513916039E+03  0.13769803763E+04  0.50400001928E-02 0. -1.
</event>
<event>
 5   0  0.1928004E-07  0.3395528E+04  0.7818609E-02  0.8139005E-01
       -2   -1    0    0    0  501  0.00000000000E+00  0.00000000000E+00  0.11061919635E+04  0.11061919635E+04  0.25500000920E-02 0. -1.
        2   -1    0    0  501    0  0.00000000000E+00  0.00000000000E+00 -0.26056990169E+04  0.26056990169E+04  0.25500000920E-02 0.  1.
    10030    2    1    2    0    0  0.00000000000E+00  0.00000000000E+00 -0.14995070534E+04  0.37118909805E+04  0.33955284195E+04 0.  0.
        2    1    3    3  502    0  0.72221949338E+03  0.12848733521E+04  0.17130511668E+03  0.14838618435E+04  0.25500000920E-02 0. -1.
       -2    1    3    3    0  502 -0.72221949338E+03 -0.12848733521E+04 -0.16708121701E+04  0.22280291370E+04  0.25500000920E-02 0.  1.
</event>
<event>
 5   0  0.1986613E-07  0.3402108E+04  0.7818609E-02  0.8137389E-01
       -2   -1    0    0    0  501  0.00000000000E+00  0.00000000000E+00  0.20730616638E+04  0.20730616638E+04  0.25500000920E-02 0.  1.
        2   -1    0    0  501    0  0.00000000000E+00  0.00000000000E+00 -0.13958024747E+04  0.13958024747E+04  0.25500000920E-02 0. -1.
    10030    2    1    2    0    0  0.00000000000E+00  0.00000000000E+00  0.67725918910E+03  0.34688641384E+04  0.34021079350E+04 0.  0.
        5    1    3    3  502    0 -0.66605988543E+02  0.12447197711E+04  0.15188388118E+04  0.19648554890E+04  0.46999998093E+01 0.  1.
       -5    1    3    3    0  502  0.66605988543E+02 -0.12447197711E+04 -0.84157962268E+03  0.15040086495E+04  0.46999998093E+01 0. -1.
</event>
<event>
 5   0  0.1928004E-07  0.3401376E+04  0.7818609E-02  0.8137569E-01
        2   -1    0    0  501    0  0.00000000000E+00  0.00000000000E+00  0.14848087606E+04  0.14848087606E+04  0.25500000920E-02 0.  1.
       -2   -1    0    0    0  501  0.00000000000E+00  0.00000000000E+00 -0.19479540054E+04  0.19479540054E+04  0.25500000920E-02 0. -1.
    10030    2    1    2    0    0  0.00000000000E+00  0.00000000000E+00 -0.46314524482E+03  0.34327627660E+04  0.34013757054E+04 0.  0.
        2    1    3    3  502    0  0.38238509764E+03 -0.91943880290E+03  0.11598275054E+04  0.15286549373E+04  0.25500000920E-02 0.  1.
       -2    1    3    3    0  502 -0.38238509764E+03  0.91943880290E+03 -0.16229727502E+04  0.19041078286E+04  0.25500000920E-02 0. -1.
</event>
<event>
 5   0  0.6367111E-08  0.3396436E+04  0.7818609E-02  0.8138782E-01
       -1   -1    0    0    0  501  0.00000000000E+00  0.00000000000E+00  0.20735142842E+04  0.20735142842E+04  0.50400001928E-02 0. -1.
        1   -1    0    0  501    0  0.00000000000E+00  0.00000000000E+00 -0.13908481630E+04  0.13908481630E+04  0.50400001928E-02 0.  1.
    10030    2    1    2    0    0  0.00000000000E+00  0.00000000000E+00  0.68266612119E+03  0.34643624472E+04  0.33964355040E+04 0.  0.
        3    1    3    3  502    0  0.51058130064E+03  0.76809541162E+03  0.17957821106E+04  0.20187860770E+04  0.10100000352E+00 0. -1.
       -3    1    3    3    0  502 -0.51058130064E+03 -0.76809541162E+03 -0.11131159894E+04  0.14455763702E+04  0.10100000352E+00 0.  1.
</event>
<event>
 5   0  0.1970449E-07  0.3397790E+04  0.7818609E-02  0.8138449E-01
        2   -1    0    0  501    0  0.00000000000E+00  0.00000000000E+00  0.21185185672E+04  0.21185185672E+04  0.25500000920E-02 0.  1.
       -2   -1    0    0    0  501  0.00000000000E+00  0.00000000000E+00 -0.13623883235E+04  0.13623883235E+04  0.25500000920E-02 0. -1.
    10030    2    1    2    0    0  0.00000000000E+00  0.00000000000E+00  0.75613024368E+03  0.34809068906E+04  0.33977904344E+04 0.  0.
        1    1    3    3  502    0 -0.70644413418E+02  0.60327044409E+03 -0.12473524579E+04  0.13873766670E+04  0.50400001928E-02 0. -1.
       -1    1    3    3    0  502  0.70644413418E+02 -0.60327044409E+03  0.20034827016E+04  0.20935302237E+04  0.50400001928E-02 0.  1.
</event>
<event>
 5   0  0.6788600E-08  0.3408105E+04  0.7818609E-02  0.8135920E-01
       -1   -1    0    0    0  501  0.00000000000E+00  0.00000000000E+00  0.26314832004E+04  0.26314832004E+04  0.50400001928E-02 0. -1.
        1   -1    0    0  501    0  0.00000000000E+00  0.00000000000E+00 -0.11034822098E+04  0.11034822098E+04  0.50400001928E-02 0.  1.
    10030    2    1    2    0    0  0.00000000000E+00  0.00000000000E+00  0.15280009906E+04  0.37349654102E+04  0.34081049850E+04 0.  0.
        2    1    3    3  502    0  0.92023580943E+03 -0.62457418828E+03 -0.65089456005E+03  0.12886390456E+04  0.25500000920E-02 0.  1.
       -2    1    3    3    0  502 -0.92023580943E+03  0.62457418828E+03  0.21788955506E+04  0.24463263646E+04  0.25500000920E-02 0. -1.
</event>
<event>
 5   0  0.6311750E-08  0.3369632E+04  0.7818609E-02  0.8145400E-01
       -1   -1    0    0    0  501  0.00000000000E+00  0.00000000000E+00  0.12460817206E+04  0.12460817206E+04  0.50400001928E-02 0.  1.
        1   -1    0    0  501    0  0.00000000000E+00  0.00000000000E+00 -0.22780240749E+04  0.22780240749E+04  0.50400001928E-02 0. -1.
    10030    2    1    2    0    0  0.00000000000E+00  0.00000000000E+00 -0.10319423543E+04  0.35241057955E+04  0.33696315281E+04 0.  0.
        4    1    3    3  502    0  0.11361362627E+04 -0.54384935168E+03 -0.16862059372E+04  0.21047255879E+04  0.12699999809E+01 0. -1.
       -4    1    3    3    0  502 -0.11361362627E+04  0.54384935168E+03  0.65426358287E+03  0.14193802075E+04  0.12699999809E+01 0.  1.
</event>
<event>
 5   0  0.1897313E-07  0.3385271E+04  0.7818609E-02  0.8141531E-01
        2   -1    0    0  501    0  0.00000000000E+00  0.00000000000E+00  0.28574910602E+04  0.28574910602E+04  0.25500000920E-02 0. -1.
       -2   -1    0    0    0  501  0.00000000000E+00  0.00000000000E+00 -0.10026332643E+04  0.10026332643E+04  0.25500000920E-02 0.  1.
    10030    2    1    2    0    0  0.00000000000E+00  0.00000000000E+00  0.18548577959E+04  0.38601243245E+04  0.33852713861E+04 0.  0.
        3    1    3    3  502    0  0.51200218310E+03 -0.21651202460E+03 -0.89557474910E+03  0.10540767684E+04  0.10100000352E+00 0.  1.
       -3    1    3    3    0  502 -0.51200218310E+03  0.21651202460E+03  0.27504325450E+04  0.28060475561E+04  0.10100000352E+00 0. -1.
</event>
<event>
 5   0  0.1986613E-07  0.3395805E+04  0.7818609E-02  0.8138937E-01
        2   -1    0    0  501    0  0.00000000000E+00  0.00000000000E+00  0.14427223142E+04  0.14427223142E+04  0.25500000920E-02 0.  1.
       -2   -1    0    0    0  501  0.00000000000E+00  0.00000000000E+00 -0.19982172762E+04  0.19982172762E+04  0.25500000920E-02 0. -1.
    10030    2    1    2    0    0  0.00000000000E+00  0.00000000000E+00 -0.55549496195E+03  0.34409395904E+04  0.33958048549E+04 0.  0.
        5    1    3    3  502    0  0.13160325704E+04  0.27118616960E+03 -0.13295062392E+04  0.18902625730E+04  0.46999998093E+01 0. -1.
       -5    1    3    3    0  502 -0.13160325704E+04 -0.27118616960E+03  0.77401127724E+03  0.15506770174E+04  0.46999998093E+01 0.  1.
</event>
<event>
 5   0  0.1986613E-07  0.3396576E+04  0.7818609E-02  0.8138747E-01
        2   -1    0    0  501    0  0.00000000000E+00  0.00000000000E+00  0.26166299984E+04  0.26166299984E+04  0.25500000920E-02 0.  1.
       -2   -1    0    0    0  501  0.00000000000E+00  0.00000000000E+00 -0.11022505922E+04  0.11022505922E+04  0.25500000920E-02 0. -1.
    10030    2    1    2    0    0  0.00000000000E+00  0.00000000000E+00  0.15143794062E+04  0.37188805906E+04  0.33965759025E+04 0.  0.
        5    1    3    3  502    0 -0.41768851570E+03  0.37254846545E+03 -0.99836280861E+03  0.11445551288E+04  0.46999998093E+01 0. -1.
       -5    1    3    3    0  502  0.41768851570E+03 -0.37254846545E+03  0.25127422148E+04  0.25743254618E+04  0.46999998093E+01 0.  1.
</event>
<event>
 5   0  0.1970449E-07  0.3399157E+04  0.7818609E-02  0.8138113E-01
       -2   -1    0    0    0  501  0.00000000000E+00  0.00000000000E+00  0.16317355611E+04  0.16317355611E+04  0.25500000920E-02 0. -1.
        2   -1    0    0  501    0  0.00000000000E+00  0.00000000000E+00 -0.17702421877E+04  0.17702421877E+04  0.25500000920E-02 0.  1.
    10030    2    1    2    0    0  0.00000000000E+00  0.00000000000E+00 -0.13850662659E+03  0.34019777488E+04  0.33991570304E+04 0.  0.
        1    1    3    3  502    0 -0.13354297205E+04  0.45556005780E+03 -0.10174885428E+04  0.17395949067E+04  0.50400001928E-02 0.  1.
       -1    1    3    3    0  502  0.13354297205E+04 -0.45556005780E+03  0.87898191617E+03  0.16623828421E+04  0.50400001928E-02 0. -1.
</event>
<event>
 5   0  0.6311750E-08  0.3401052E+04  0.7818609E-02  0.8137648E-01
        1   -1    0    0  501    0  0.00000000000E+00  0.00000000000E+00  0.92843837422E+03  0.92843837423E+03  0.50400001928E-02 0.  1.
       -1   -1    0    0    0  501  0.00000000000E+00  0.00000000000E+00 -0.31146805454E+04  0.31146805454E+04  0.50400001928E-02 0. -1.
    10030    2    1    2    0    0  0.00000000000E+00  0.00000000000E+00 -0.21862421712E+04  0.40431189196E+04  0.34010521559E+04 0.  0.
        4    1    3    3  502    0  0.12689888262E+04  0.93280597438E+03 -0.18555462166E+04  0.24338268224E+04  0.12699999809E+01 0.  1.
       -4    1    3    3    0  502 -0.12689888262E+04 -0.93280597438E+03 -0.33069595459E+03  0.16092920972E+04  0.12699999809E+01 0. -1.
</event>
<event>
 5   0  0.6341535E-08  0.3403437E+04  0.7818609E-02  0.8137063E-01
        1   -1    0    0  501    0  0.00000000000E+00  0.00000000000E+00  0.23111753113E+04  0.23111753113E+04  0.50400001928E-02 0. -1.
       -1   -1    0    0    0  501  0.00000000000E+00  0.00000000000E+00 -0.12529752998E+04  0.12529752998E+04  0.50400001928E-02 0.  1.
    10030    2    1    2    0    0  0.00000000000E+00  0.00000000000E+00  0.10582000115E+04  0.35641506111E+04  0.34034368386E+04 0.  0.
        5    1    3    3  502    0 -0.15159553395E+04 -0.51156689193E+03  0.11361289799E+04  0.19623028373E+04  0.46999998093E+01 0. -1.
       -5    1    3    3    0  502  0.15159553395E+04  0.51156689193E+03 -0.77928968358E+02  0.16018477738E+04  0.46999998093E+01 0.  1.
</event>
<event>
 5   0  0.1986613E-07  0.3403292E+04  0.7818609E-02  0.8137099E-01
        2   -1    0    0  501    0  0.00000000000E+00  0.00000000000E+00  0.96017706278E+03  0.96017706278E+03  0.25500000920E-02 0.  1.
       -2   -1    0    0    0  501  0.00000000000E+00  0.00000000000E+00 -0.30156928869E+04  0.30156928869E+04  0.25500000920E-02 0. -1.
    10030    2    1    2    0    0  0.00000000000E+00  0.00000000000E+00 -0.20555158241E+04  0.39758699497E+04  0.34032920171E+04 0.  0.
        5    1    3    3  502    0  0.58969961241E+03 -0.12810138975E+04 -0.21402502960E+04  0.25630910359E+04  0.46999998093E+01 0. -1.
       -5    1    3    3    0  502 -0.58969961241E+03  0.12810138975E+04  0.84734471910E+02  0.14127789138E+04  0.46999998093E+01 0.  1.
</event>
<event>
 5   0  0.1928004E-07  0.3412585E+04  0.7818609E-02  0.8134824E-01
        2   -1    0    0  501    0  0.00000000000E+00  0.00000000000E+00  0.19084022178E+04  0.19084022178E+04  0.25500000920E-02 0. -1.
       -2   -1    0    0    0  501  0.00000000000E+00  0.00000000000E+00 -0.15255875157E+04  0.15255875157E+04  0.25500000920E-02 0.  1.
    10030    2    1    2    0    0  0.00000000000E+00  0.00000000000E+00  0.38281470214E+03  0.34339897335E+04  0.34125852947E+04 0.  0.
        2    1    3    3  502    0  0.13142349094E+04 -0.94048052230E+03  0.74230585409E+03  0.17784079934E+04  0.25500000920E-02 0. -1.
       -2    1    3    3    0  502 -0.13142349094E+04  0.94048052230E+03 -0.35949115195E+03  0.16555817401E+04  0.25500000920E-02 0.  1.
</event>
<event>
 5   0  0.1897313E-07  0.3392211E+04  0.7818609E-02  0.8139821E-01
        2   -1    0    0  501    0  0.00000000000E+00  0.00000000000E+00  0.30112613501E+04  0.30112613501E+04  0.25500000920E-02 0.  1.
       -2   -1    0    0    0  501  0.00000000000E+00  0.00000000000E+00 -0.95533867942E+03  0.95533867942E+03  0.25500000920E-02 0. -1.
    10030    2    1    2    0    0  0.00000000000E+00  0.00000000000E+00  0.20559226706E+04  0.39666000295E+04  0.33922113387E+04 0.  0.
        3    1    3    3  502    0 -0.25408537256E+03  0.37253443705E+03  0.29398833487E+04  0.29742655224E+04  0.10100000352E+00 0.  1.
       -3    1    3    3    0  502  0.25408537256E+03 -0.37253443705E+03 -0.88396067809E+03  0.99233450709E+03  0.10100000352E+00 0. -1.
</event>
<event>
 5   0  0.6584420E-08  0.3381896E+04  0.7818609E-02  0.8142364E-01
       -1   -1    0    0    0  501  0.00000000000E+00  0.00000000000E+00  0.32526166206E+04  0.32526166206E+04  0.50400001928E-02 0. -1.
        1   -1    0    0  501    0  0.00000000000E+00  0.00000000000E+00 -0.87907832718E+03  0.87907832720E+03  0.50400001928E-02 0.  1.
    10030    2    1    2    0    0  0.00000000000E+00  0.00000000000E+00  0.23735382935E+04  0.41316949478E+04  0.33818957866E+04 0.  0.
        1    1    3    3  502    0  0.70607031466E+03 -0.77695113071E+03 -0.43268366610E+03  0.11355190459E+04  0.50400001928E-02 0.  1.
       -1    1    3    3    0  502 -0.70607031466E+03  0.77695113071E+03  0.28062219596E+04  0.29961759019E+04  0.50400001928E-02 0. -1.
</event>
<event>
 5   0  0.1897313E-07  0.3397737E+04  0.7818609E-02  0.8138462E-01
        2   -1    0    0  501    0  0.00000000000E+00  0.00000000000E+00  0.22181417471E+04  0.22181417471E+04  0.25500000920E-02 0.  1.
       -2   -1    0    0    0  501  0.00000000000E+00  0.00000000000E+00 -0.13011584894E+04  0.13011584894E+04  0.25500000920E-02 0. -1.
    10030    2    1    2    0    0  0.00000000000E+00  0.00000000000E+00  0.91698325767E+03  0.35193002365E+04  0.33977368733E+04 0.  0.
        3    1    3    3  502    0 -0.12258250075E+04  0.48279150790E+03  0.15694420228E+04  0.20491175814E+04  0.10100000352E+00 0.  1.
       -3    1    3    3    0  502  0.12258250075E+04 -0.48279150790E+03 -0.65245876518E+03  0.14701826552E+04  0.10100000352E+00 0. -1.
</event>
<event>
 5   0  0.1986613E-07  0.3405953E+04  0.7818609E-02  0.8136447E-01
        2   -1    0    0  501    0  0.00000000000E+00  0.00000000000E+00  0.15112345166E+04  0.15112345166E+04  0.25500000920E-02 0. -1.
       -2   -1    0    0    0  501  0.00000000000E+00  0.00000000000E+00 -0.19190459894E+04  0.19190459894E+04  0.25500000920E-02 0.  1.
    10030    2    1    2    0    0  0.00000000000E+00  0.00000000000E+00 -0.40781147280E+03  0.34302805060E+04  0.34059527525E+04 0.  0.
        5    1    3    3  502    0  0.12620671341E+03 -0.42460456291E+03 -0.18600015832E+04  0.19120264509E+04  0.46999998093E+01 0.  1.
       -5    1    3    3    0  502 -0.12620671341E+03  0.42460456291E+03  0.14521901104E+04  0.15182540552E+04  0.46999998093E+01 0. -1.
</event>
<event>
 5   0  0.6584420E-08  0.3400445E+04  0.7818609E-02  0.8137797E-01
        1   -1    0    0  501    0  0.00000000000E+00  0.00000000000E+00  0.17733465747E+04  0.17733465747E+04  0.50400001928E-02 0.  1.
       -1   -1    0    0    0  501  0.00000000000E+00  0.00000000000E+00 -0.16301133121E+04  0.16301133121E+04  0.50400001928E-02 0. -1.
    10030    2    1    2    0    0  0.00000000000E+00  0.00000000000E+00  0.14323326260E+03  0.34034598868E+04  0.34004445935E+04 0.  0.
        1    1    3    3  502    0 -0.77588046605E+03  0.63331704298E+03  0.14467617520E+04  0.17596023817E+04  0.50400001928E-02 0.  1.
       -1    1    3    3    0  502  0.77588046605E+03 -0.63331704298E+03 -0.13035284894E+04  0.16438575051E+04  0.50400001928E-02 0. -1.
</event>
<event>
 5   0  0.6788600E-08  0.3401509E+04  0.7818609E-02  0.8137536E-01
       -1   -1    0    0    0  501  0.00000000000E+00  0.00000000000E+00  0.26371896474E+04  0.26371896474E+04  0.50400001928E-02 0. -1.
        1   -1    0    0  501    0  0.00000000000E+00  0.00000000000E+00 -0.10968366753E+04  0.10968366753E+04  0.50400001928E-02 0.  1.
    10030    2    1    2    0    0  0.00000000000E+00  0.00000000000E+00  0.15403529722E+04  0.37340263227E+04  0.34015092680E+04 0.  0.
        2    1    3    3  502    0  0.94476206568E+03  0.12094422065E+04  0.15747951352E+04  0.21989328161E+04  0.25500000920E-02 0. -1.
       -2    1    3    3    0  502 -0.94476206568E+03 -0.12094422065E+04 -0.34442163089E+02  0.15350935067E+04  0.25500000920E-02 0.  1.
</event>
<event>
 5   0  0.1963852E-07  0.3403919E+04  0.7818609E-02  0.8136945E-01
        2   -1    0    0  501    0  0.00000000000E+00  0.00000000000E+00  0.13174864544E+04  0.13174864544E+04  0.25500000920E-02 0. -1.
       -2   -1    0    0    0  501  0.00000000000E+00  0.00000000000E+00 -0.21986310968E+04  0.21986310968E+04  0.25500000920E-02 0.  1.
    10030    2    1    2    0    0  0.00000000000E+00  0.00000000000E+00 -0.88114464245E+03  0.35161175512E+04  0.34039193223E+04 0.  0.
        4    1    3    3  502    0 -0.33684012999E+03  0.12220436818E+04  0.73256137648E+03  0.14640696078E+04  0.12699999809E+01 0. -1.
       -4    1    3    3    0  502  0.33684012999E+03 -0.12220436818E+04 -0.16137060189E+04  0.20520479433E+04  0.12699999809E+01 0.  1.
</event>
<event>
 5   0  0.1963852E-07  0.3400172E+04  0.7818609E-02  0.8137864E-01
        2   -1    0    0  501    0  0.00000000000E+00  0.00000000000E+00  0.15195534117E+04  0.15195534117E+04  0.25500000920E-02 0. -1.
       -2   -1    0    0    0  501  0.00000000000E+00  0.00000000000E+00 -0.19020673994E+04  0.19020673994E+04  0.25500000920E-02 0.  1.
    10030    2    1    2    0    0  0.00000000000E+00  0.00000000000E+00 -0.38251398770E+03  0.34216208111E+04  0.34001723521E+04 0.  0.
        4    1    3    3  502    0 -0.48965003968E+03  0.11347913874E+04 -0.13660037626E+04  0.18421391225E+04  0.12699999809E+01 0.  1.
       -4    1    3    3    0  502  0.48965003968E+03 -0.11347913874E+04  0.98348977489E+03  0.15794816886E+04  0.12699999809E+01 0. -1.
</event>
<event>
 5   0  0.1928004E-07  0.3375240E+04  0.7818609E-02  0.8144010E-01
        2   -1    0    0  501    0  0.00000000000E+00  0.00000000000E+00  0.11359314339E+04  0.11359314339E+04  0.25500000920E-02 0. -1.
       -2   -1    0    0    0  501  0.00000000000E+00  0.00000000000E+00 -0.25072472583E+04  0.25072472583E+04  0.25500000920E-02 0.  1.
    10030    2    1    2    0    0  0.00000000000E+00  0.00000000000E+00 -0.13713158244E+04  0.36431786922E+04  0.33752398275E+04 0.  0.
        2    1    3    3  502    0  0.50022913690E+03 -0.13532638204E+04  0.25934775595E+03  0.14658831520E+04  0.25500000920E-02 0. -1.
       -2    1    3    3    0  502 -0.50022913690E+03  0.13532638204E+04 -0.16306635804E+04  0.21772955402E+04  0.25500000920E-02 0.  1.
</event>
<event>
 5   0  0.1970449E-07  0.3399671E+04  0.7818609E-02  0.8137987E-01
       -2   -1    0    0    0  501  0.00000000000E+00  0.00000000000E+00  0.14526057407E+04  0.14526057407E+04  0.25500000920E-02 0. -1.
        2   -1    0    0  501    0  0.00000000000E+00  0.00000000000E+00 -0.19891433071E+04  0.19891433071E+04  0.25500000920E-02 0.  1.
    10030    2    1    2    0    0  0.00000000000E+00  0.00000000000E+00 -0.53653756639E+03  0.34417490477E+04  0.33996711528E+04 0.  0.
        1    1    3    3  502    0  0.39841474832E+03 -0.28758581070E+03 -0.19156775373E+04  0.19776906576E+04  0.50400001928E-02 0.  1.
       -1    1    3    3    0  502 -0.39841474832E+03  0.28758581070E+03  0.13791399709E+04  0.14640583901E+04  0.50400001928E-02 0. -1.
</event>
<event>
 5   0  0.1963852E-07  0.3403208E+04  0.7818609E-02  0.8137119E-01
       -2   -1    0    0    0  501  0.00000000000E+00  0.00000000000E+00  0.14391134829E+04  0.14391134829E+04  0.25500000920E-02 0.  1.
        2   -1    0    0  501    0  0.00000000000E+00  0.00000000000E+00 -0.20119725713E+04  0.20119725713E+04  0.25500000920E-02 0. -1.
    10030    2    1    2    0    0  0.00000000000E+00  0.00000000000E+00 -0.57285908834E+03  0.34510860542E+04  0.34032084007E+04 0.  0.
        4    1    3    3  502    0 -0.13146336838E+04  0.96134798842E+02  0.80479079309E+03  0.15444071534E+04  0.12699999809E+01 0.  1.
       -4    1    3    3    0  502  0.13146336838E+04 -0.96134798842E+02 -0.13776498814E+04  0.19066789008E+04  0.12699999809E+01 0. -1.
</event>
<event>
 5   0  0.1897313E-07  0.3401229E+04  0.7818609E-02  0.8137605E-01
        2   -1    0    0  501    0  0.00000000000E+00  0.00000000000E+00  0.22038389995E+04  0.22038389995E+04  0.25500000920E-02 0.  1.
       -2   -1    0    0    0  501  0.00000000000E+00  0.00000000000E+00 -0.13122964735E+04  0.13122964735E+04  0.25500000920E-02 0. -1.
    10030    2    1    2    0    0  0.00000000000E+00  0.00000000000E+00  0.89154252598E+03  0.35161354729E+04  0.34012292761E+04 0.  0.
        3    1    3    3  502    0 -0.16709993432E+04 -0.25528005203E+03  0.25324468512E+03  0.17092511784E+04  0.10100000352E+00 0. -1.
       -3    1    3    3    0  502  0.16709993432E+04  0.25528005203E+03  0.63829784086E+03  0.18068842946E+04  0.10100000352E+00 0.  1.
</event>
<event>
 5   0  0.6367111E-08  0.3393326E+04  0.7818609E-02  0.8139546E-01
       -1   -1    0    0    0  501  0.00000000000E+00  0.00000000000E+00  0.24225272936E+04  0.24225272936E+04  0.50400001928E-02 0.  1.
        1   -1    0    0  501    0  0.00000000000E+00  0.00000000000E+00 -0.11882905049E+04  0.11882905049E+04  0.50400001928E-02 0. -1.
    10030    2    1    2    0    0  0.00000000000E+00  0.00000000000E+00  0.12342367886E+04  0.36108177985E+04  0.33933264982E+04 0.  0.
        3    1    3    3  502    0  0.60362889568E+03  0.10636640792E+04  0.18684660725E+04  0.22331400743E+04  0.10100000352E+00 0.  1.
       -3    1    3    3    0  502 -0.60362889568E+03 -0.10636640792E+04 -0.63422928384E+03  0.13776777242E+04  0.10100000352E+00 0. -1.
</event>
<event>
 5   0  0.6367111E-08  0.3401047E+04  0.7818609E-02  0.8137649E-01
       -1   -1    0    0    0  501  0.00000000000E+00  0.00000000000E+00  0.15332074456E+04  0.15332074456E+04  0.50400001928E-02 0. -1.
        1   -1    0    0  501    0  0.00000000000E+00  0.00000000000E+00 -0.18860989695E+04  0.18860989695E+04  0.50400001928E-02 0.  1.
    10030    2    1    2    0    0  0.00000000000E+00  0.00000000000E+00 -0.35289152391E+03  0.34193064151E+04  0.34010474758E+04 0.  0.
        3    1    3    3  502    0  0.10300169645E+04  0.13517084894E+04 -0.11504262718E+03  0.17033160610E+04  0.10100000352E+00 0.  1.
       -3    1    3    3    0  502 -0.10300169645E+04 -0.13517084894E+04 -0.23784889674E+03  0.17159903541E+04  0.10100000352E+00 0. -1.
</event>
<event>
 5   0  0.6311750E-08  0.3385186E+04  0.7818609E-02  0.8141552E-01
       -1   -1    0    0    0  501  0.00000000000E+00  0.00000000000E+00  0.17031500877E+04  0.17031500878E+04  0.50400001928E-02 0.  1.
        1   -1    0    0  501    0  0.00000000000E+00  0.00000000000E+00 -0.16821017136E+04  0.16821017136E+04  0.50400001928E-02 0. -1.
    10030    2    1    2    0    0  0.00000000000E+00  0.00000000000E+00  0.21048374129E+02  0.33852518014E+04  0.33851863648E+04 0.  0.
        4    1    3    3  502    0  0.76196100679E+03  0.14384670751E+04  0.47431970478E+03  0.16955096276E+04  0.12699999809E+01 0.  1.
       -4    1    3    3    0  502 -0.76196100679E+03 -0.14384670751E+04 -0.45327133065E+03  0.16897421738E+04  0.12699999809E+01 0. -1.
</event>
<event>
 5   0  0.6584420E-08  0.3368049E+04  0.7818609E-02  0.8145793E-01
       -1   -1    0    0    0  501  0.00000000000E+00  0.00000000000E+00  0.12809545278E+04  0.12809545278E+04  0.50400001928E-02 0.  1.
        1   -1    0    0  501    0  0.00000000000E+00  0.00000000000E+00 -0.22139261718E+04  0.22139261718E+04  0.50400001928E-02 0. -1.
    10030    2    1    2    0    0  0.00000000000E+00  0.00000000000E+00 -0.93297164398E+03  0.34948806996E+04  0.33680491410E+04 0.  0.
        1    1    3    3  502    0 -0.14535490628E+02  0.13727108749E+04 -0.14786099039E+04  0.20176307081E+04  0.50400001928E-02 0. -1.
       -1    1    3    3    0  502  0.14535490628E+02 -0.13727108749E+04  0.54563825988E+03  0.14772499915E+04  0.50400001928E-02 0.  1.
</event>
<event>
 5   0  0.1970449E-07  0.3397463E+04  0.7818609E-02  0.8138529E-01
       -2   -1    0    0    0  501  0.00000000000E+00  0.00000000000E+00  0.31118313383E+04  0.31118313383E+04  0.25500000920E-02 0.  1.
        2   -1    0    0  501    0  0.00000000000E+00  0.00000000000E+00 -0.92732794742E+03  0.92732794743E+03  0.25500000920E-02 0. -1.
    10030    2    1    2    0    0  0.00000000000E+00  0.00000000000E+00  0.21845033909E+04  0.40391592857E+04  0.33974626813E+04 0.  0.
        1    1    3    3  502    0  0.34928158975E+03  0.11700894708E+04 -0.31171945372E+03  0.12602682320E+04  0.50400001928E-02 0. -1.
       -1    1    3    3    0  502 -0.34928158975E+03 -0.11700894708E+04  0.24962228446E+04  0.27788910537E+04  0.50400001928E-02 0.  1.
</event>
<event>
 5   0  0.1963852E-07  0.3391782E+04  0.7818609E-02  0.8139926E-01
       -2   -1    0    0    0  501  0.00000000000E+00  0.00000000000E+00  0.10482236459E+04  0.10482236459E+04  0.25500000920E-02 0. -1.
        2   -1    0    0  501    0  0.00000000000E+00  0.00000000000E+00 -0.27437329418E+04  0.27437329418E+04  0.25500000920E-02 0.  1.
    10030    2    1    2    0    0  0.00000000000E+00  0.00000000000E+00 -0.16955092960E+04  0.37919565877E+04  0.33917816837E+04 0.  0.
        4    1    3    3  502    0 -0.21478838620E+03  0.32266422089E+03  0.99803536212E+03  0.10706644886E+04  0.12699999809E+01 0. -1.
       -4    1    3    3    0  502  0.21478838620E+03 -0.32266422089E+03 -0.26935446581E+04  0.27212920990E+04  0.12699999809E+01 0.  1.
</event>
<event>
 5   0  0.1928004E-07  0.3403827E+04  0.7818609E-02  0.8136968E-01
        2   -1    0    0  501    0  0.00000000000E+00  0.00000000000E+00  0.19840719205E+04  0.19840719205E+04  0.25500000920E-02 0. -1.
       -2   -1    0    0    0  501  0.00000000000E+00  0.00000000000E+00 -0.14598811199E+04  0.14598811199E+04  0.25500000920E-02 0.  1.
    10030    2    1    2    0    0  0.00000000000E+00  0.00000000000E+00  0.52419080065E+03  0.34439530404E+04  0.34038267508E+04 0.  0.
        2    1    3    3  502    0  0.47074369121E+03 -0.61360446378E+03  0.17960146345E+04  0.19554484468E+04  0.25500000920E-02 0. -1.
       -2    1    3    3    0  502 -0.47074369121E+03  0.61360446378E+03 -0.12718238339E+04  0.14885045936E+04  0.25500000920E-02 0.  1.
</event>
<event>
 5   0  0.6341535E-08  0.3397467E+04  0.7818609E-02  0.8138528E-01
        1   -1    0    0  501    0  0.00000000000E+00  0.00000000000E+00  0.21020142894E+04  0.21020142894E+04  0.50400001928E-02 0.  1.
       -1   -1    0    0    0  501  0.00000000000E+00  0.00000000000E+00 -0.13728242180E+04  0.13728242180E+04  0.50400001928E-02 0. -1.
    10030    2    1    2    0    0  0.00000000000E+00  0.00000000000E+00  0.72919007134E+03  0.34748385074E+04  0.33974673644E+04 0.  0.
        5    1    3    3  502    0 -0.10270928124E+04 -0.11868982473E+04 -0.29983524774E+03  0.15979894745E+04  0.46999998093E+01 0.  1.
       -5    1    3    3    0  502  0.10270928124E+04  0.11868982473E+04  0.10290253191E+04  0.18768490329E+04  0.46999998093E+01 0. -1.
</event>
<event>
 5   0  0.6367111E-08  0.3409036E+04  0.7818609E-02  0.8135692E-01
        1   -1    0    0  501    0  0.00000000000E+00  0.00000000000E+00  0.21863989698E+04  0.21863989698E+04  0.50400001928E-02 0.  1.
       -1   -1    0    0    0  501  0.00000000000E+00  0.00000000000E+00 -0.13288434763E+04  0.13288434763E+04  0.50400001928E-02 0. -1.
    10030    2    1    2    0    0  0.00000000000E+00  0.00000000000E+00  0.85755549350E+03  0.35152424460E+04  0.34090362319E+04 0.  0.
        3    1    3    3  502    0 -0.68289717784E+03  0.12927654122E+04 -0.47475767656E+03  0.15372006467E+04  0.10100000352E+00 0. -1.
       -3    1    3    3    0  502  0.68289717784E+03 -0.12927654122E+04  0.13323131701E+04  0.19780417993E+04  0.10100000352E+00 0.  1.
</event>
<event>
 5   0  0.1970449E-07  0.3397172E+04  0.7818609E-02  0.8138601E-01
        2   -1    0    0  501    0  0.00000000000E+00  0.00000000000E+00  0.15734056572E+04  0.15734056572E+04  0.25500000920E-02 0.  1.
       -2   -1    0    0    0  501  0.00000000000E+00  0.00000000000E+00 -0.18337259075E+04  0.18337259075E+04  0.25500000920E-02 0. -1.
    10030    2    1    2    0    0  0.00000000000E+00  0.00000000000E+00 -0.26032025029E+03  0.34071315647E+04  0.33971721867E+04 0.  0.
        1    1    3    3  502    0  0.69412020961E+03  0.56790473918E+03  0.13165930724E+04  0.15930272993E+04  0.50400001928E-02 0.  1.
       -1    1    3    3    0  502 -0.69412020961E+03 -0.56790473918E+03 -0.15769133227E+04  0.18141042653E+04  0.50400001928E-02 0. -1.
</event>
<event>
 5   0  0.6311750E-08  0.3400068E+04  0.7818609E-02  0.8137890E-01
       -1   -1    0    0    0  501  0.00000000000E+00  0.00000000000E+00  0.11992462462E+04  0.11992462462E+04  0.50400001928E-02 0.  1.
        1   -1    0    0  501    0  0.00000000000E+00  0.00000000000E+00 -0.24099428140E+04  0.24099428140E+04  0.50400001928E-02 0. -1.
    10030    2    1    2    0    0  0.00000000000E+00  0.00000000000E+00 -0.12106965678E+04  0.36091890601E+04  0.34000675718E+04 0.  0.
        4    1    3    3  502    0  0.98611190510E+03 -0.55991436901E+03 -0.19498158226E+04  0.22555939672E+04  0.12699999809E+01 0. -1.
       -4    1    3    3    0  502 -0.98611190510E+03  0.55991436901E+03  0.73911925478E+03  0.13535950930E+04  0.12699999809E+01 0.  1.
</event>
<event>
 5   0  0.6367111E-08  0.3398271E+04  0.7818609E-02  0.8138331E-01
        1   -1    0    0  501    0  0.00000000000E+00  0.00000000000E+00  0.17625590003E+04  0.17625590004E+04  0.50400001928E-02 0. -1.
       -1   -1    0    0    0  501  0.00000000000E+00  0.00000000000E+00 -0.16379944740E+04  0.16379944740E+04  0.50400001928E-02 0.  1.
    10030    2    1    2    0    0  0.00000000000E+00  0.00000000000E+00  0.12456452632E+03  0.34005534744E+04  0.33982712680E+04 0.  0.
        3    1    3    3  502    0 -0.20990649328E+03  0.14669920112E+04  0.89406585438E+03  0.17307455211E+04  0.10100000352E+00 0. -1.
       -3    1    3    3    0  502  0.20990649328E+03 -0.14669920112E+04 -0.76950132807E+03  0.16698079533E+04  0.10100000352E+00 0.  1.
</event>
<event>
 5   0  0.6584420E-08  0.3387722E+04  0.7818609E-02  0.8140926E-01
        1   -1    0    0  501    0  0.00000000000E+00  0.00000000000E+00  0.18455907782E+04  0.18455907782E+04  0.50400001928E-02 0.  1.
       -1   -1    0    0    0  501  0.00000000000E+00  0.00000000000E+00 -0.15546053296E+04  0.15546053296E+04  0.50400001928E-02 0. -1.
    10030    2    1    2    0    0  0.00000000000E+00  0.00000000000E+00  0.29098544858E+03  0.34001961079E+04  0.33877221020E+04 0.  0.
        1    1    3    3  502    0  0.97907287677E+03  0.56157175195E+03  0.14131630037E+04  0.18085840333E+04  0.50400001928E-02 0.  1.
       -1    1    3    3    0  502 -0.97907287677E+03 -0.56157175195E+03 -0.11221775551E+04  0.15916120745E+04  0.50400001928E-02 0. -1.
</event>
<event>
 5   0  0.6341535E-08  0.3400951E+04  0.7818609E-02  0.8137673E-01
        1   -1    0    0  501    0  0.00000000000E+00  0.00000000000E+00  0.17908093055E+04  0.17908093055E+04  0.50400001928E-02 0. -1.
       -1   -1    0    0    0  501  0.00000000000E+00  0.00000000000E+00 -0.16146987172E+04  0.16146987172E+04  0.50400001928E-02 0.  1.
    10030    2    1    2    0    0  0.00000000000E+00  0.00000000000E+00  0.17611058830E+03  0.34055080227E+04  0.34009513307E+04 0.  0.
        5    1    3    3  502    0 -0.32409376445E+03  0.11574481860E+04  0.12925269818E+04  0.17650414046E+04  0.46999998093E+01 0. -1.
       -5    1    3    3    0  502  0.32409376445E+03 -0.11574481860E+04 -0.11164163935E+04  0.16404666181E+04  0.46999998093E+01 0.  1.
</event>
<event>
 5   0  0.6367111E-08  0.3398178E+04  0.7818609E-02  0.8138354E-01
       -1   -1    0    0    0  501  0.00000000000E+00  0.00000000000E+00  0.14188592144E+04  0.14188592144E+04  0.50400001928E-02 0. -1.
        1   -1    0    0  501    0  0.00000000000E+00  0.00000000000E+00 -0.20346648179E+04  0.20346648179E+04  0.50400001928E-02 0.  1.
    10030    2    1    2    0    0  0.00000000000E+00  0.00000000000E+00 -0.61580560350E+03  0.34535240323E+04  0.33981777028E+04 0.  0.
        3    1    3    3  502    0  0.54024677925E+02  0.10660526550E+04  0.10355641116E+04  0.14872054224E+04  0.10100000352E+00 0. -1.
       -3    1    3    3    0  502 -0.54024677925E+02 -0.10660526550E+04 -0.16513697152E+04  0.19663186098E+04  0.10100000352E+00 0.  1.
</event>
<event>
 5   0  0.1963852E-07  0.3402961E+04  0.7818609E-02  0.8137180E-01
       -2   -1    0    0    0  501  0.00000000000E+00  0.00000000000E+00  0.26427180941E+04  0.26427180941E+04  0.25500000920E-02 0.  1.
        2   -1    0    0  501    0  0.00000000000E+00  0.00000000000E+00 -0.10954766648E+04  0.10954766648E+04  0.25500000920E-02 0. -1.
    10030    2    1    2    0    0  0.00000000000E+00  0.00000000000E+00  0.15472414294E+04  0.37381947589E+04  0.34029610657E+04 0.  0.
        4    1    3    3  502    0 -0.89177469220E+03  0.59650298928E+03  0.22243045261E+04  0.24695364252E+04  0.12699999809E+01 0.  1.
       -4    1    3    3    0  502  0.89177469220E+03 -0.59650298928E+03 -0.67706309669E+03  0.12686583337E+04  0.12699999809E+01 0. -1.
</event>
<event>
 5   0  0.1970449E-07  0.3396893E+04  0.7818609E-02  0.8138669E-01
       -2   -1    0    0    0  501  0.00000000000E+00  0.00000000000E+00  0.24106648912E+04  0.24106648912E+04  0.25500000920E-02 0. -1.
        2   -1    0    0  501    0  0.00000000000E+00  0.00000000000E+00 -0.11966492037E+04  0.11966492037E+04  0.25500000920E-02 0.  1.
    10030    2    1    2    0    0  0.00000000000E+00  0.00000000000E+00  0.12140156875E+04  0.36073140949E+04  0.33968928287E+04 0.  0.
        1    1    3    3  502    0  0.15471754643E+04  0.32576808453E+03 -0.51777864296E+02  0.15819474421E+04  0.50400001928E-02 0. -1.
       -1    1    3    3    0  502 -0.15471754643E+04 -0.32576808453E+03  0.12657935518E+04  0.20253666528E+04  0.50400001928E-02 0.  1.
</event>
<event>
 5   0  0.6311750E-08  0.3397614E+04  0.7818609E-02  0.8138492E-01
        1   -1    0    0  501    0  0.00000000000E+00  0.00000000000E+00  0.28679410800E+04  0.28679410800E+04  0.50400001928E-02 0. -1.
       -1   -1    0    0    0  501  0.00000000000E+00  0.00000000000E+00 -0.10062779494E+04  0.10062779494E+04  0.50400001928E-02 0.  1.
    10030    2    1    2    0    0  0.00000000000E+00  0.00000000000E+00  0.18616631306E+04  0.38742190295E+04  0.33976143802E+04 0.  0.
        4    1    3    3  502    0  0.80614331563E+01 -0.86020772497E+03  0.26012183439E+04  0.27397738597E+04  0.12699999809E+01 0. -1.
       -4    1    3    3    0  502 -0.80614331563E+01  0.86020772497E+03 -0.73955521326E+03  0.11344451698E+04  0.12699999809E+01 0.  1.
</event>
<event>
 5   0  0.1986613E-07  0.3403836E+04  0.7818609E-02  0.8136965E-01
       -2   -1    0    0    0  501  0.00000000000E+00  0.00000000000E+00  0.10629199644E+04  0.10629199644E+04  0.25500000920E-02 0.  1.
        2   -1    0    0  501    0  0.00000000000E+00  0.00000000000E+00 -0.27250640657E+04  0.27250640657E+04  0.25500000920E-02 0. -1.
    10030    2    1    2    0    0  0.00000000000E+00  0.00000000000E+00 -0.16621441013E+04  0.37879840301E+04  0.34038360711E+04 0.  0.
        5    1    3    3  502    0  0.22444746778E+02 -0.39141782872E+03  0.10119726937E+04  0.10852753135E+04  0.46999998093E+01 0.  1.
       -5    1    3    3    0  502 -0.22444746778E+02  0.39141782872E+03 -0.26741167950E+04  0.27027087166E+04  0.46999998093E+01 0. -1.
</event>
<event>
 5   0  0.6311750E-08  0.3401450E+04  0.7818609E-02  0.8137550E-01
        1   -1    0    0  501    0  0.00000000000E+00  0.00000000000E+00  0.28832786466E+04  0.28832786466E+04  0.50400001928E-02 0. -1.
       -1   -1    0    0    0  501  0.00000000000E+00  0.00000000000E+00 -0.10031864588E+04  0.10031864588E+04  0.50400001928E-02 0.  1.
    10030    2    1    2    0    0  0.00000000000E+00  0.00000000000E+00  0.18800921878E+04  0.38864651054E+04  0.34014503348E+04 0.  0.
        4    1    3    3  502    0 -0.12272554567E+04  0.66900213972E+03  0.20470888109E+04  0.24787686523E+04  0.12699999809E+01 0. -1.
       -4    1    3    3    0  502  0.12272554567E+04 -0.66900213972E+03 -0.16699662306E+03  0.14076964531E+04  0.12699999809E+01 0.  1.
</event>
<event>
 5   0  0.6584420E-08  0.3395922E+04  0.7818609E-02  0.8138908E-01
        1   -1    0    0  501    0  0.00000000000E+00  0.00000000000E+00  0.20740128839E+04  0.20740128839E+04  0.50400001928E-02 0. -1.
       -1   -1    0    0    0  501  0.00000000000E+00  0.00000000000E+00 -0.13900930091E+04  0.13900930091E+04  0.50400001928E-02 0.  1.
    10030    2    1    2    0    0  0.00000000000E+00  0.00000000000E+00  0.68391987476E+03  0.34641058930E+04  0.33959215601E+04 0.  0.
        1    1    3    3  502    0 -0.21398227227E+03  0.14622299586E+04  0.11949100731E+04  0.19004512484E+04  0.50400001928E-02 0. -1.
       -1    1    3    3    0  502  0.21398227227E+03 -0.14622299586E+04 -0.51099019833E+03  0.15636546446E+04  0.50400001928E-02 0.  1.
</event>
<event>
 5   0  0.6584420E-08  0.3398227E+04  0.7818609E-02  0.8138342E-01
        1   -1    0    0  501    0  0.00000000000E+00  0.00000000000E+00  0.31004375358E+04  0.31004375358E+04  0.50400001928E-02 0.  1.
       -1   -1    0    0    0  501  0.00000000000E+00  0.00000000000E+00 -0.93115463898E+03  0.93115463899E+03  0.50400001928E-02 0. -1.
    10030    2    1    2    0    0  0.00000000000E+00  0.00000000000E+00  0.21692828968E+04  0.40315921748E+04  0.33982270638E+04 0.  0.
        1    1    3    3  502    0 -0.16980287129E+04  0.15448349942E+02  0.11542915433E+04  0.20532727847E+04  0.50400001928E-02 0. -1.
       -1    1    3    3    0  502  0.16980287129E+04 -0.15448349942E+02  0.10149913535E+04  0.19783193901E+04  0.50400001928E-02 0.  1.
</event>
<event>
 5   0  0.6367111E-08  0.3368087E+04  0.7818609E-02  0.8145783E-01
        1   -1    0    0  501    0  0.00000000000E+00  0.00000000000E+00  0.19309585592E+04  0.19309585592E+04  0.50400001928E-02 0. -1.
       -1   -1    0    0    0  501  0.00000000000E+00  0.00000000000E+00 -0.14687023236E+04  0.14687023236E+04  0.50400001928E-02 0.  1.
    10030    2    1    2    0    0  0.00000000000E+00  0.00000000000E+00  0.46225623560E+03  0.33996608828E+04  0.33680874827E+04 0.  0.
        3    1    3    3  502    0 -0.15340533115E+04 -0.31256798518E+03  0.85741619180E+03  0.17849876313E+04  0.10100000352E+00 0. -1.
       -3    1    3    3    0  502  0.15340533115E+04  0.31256798518E+03 -0.39515995620E+03  0.16146732515E+04  0.10100000352E+00 0.  1.
</event>
<event>
 5   0  0.1986613E-07  0.3397492E+04  0.7818609E-02  0.8138522E-01
       -2   -1    0    0    0  501  0.00000000000E+00  0.00000000000E+00  0.20113250244E+04  0.20113250244E+04  0.25500000920E-02 0. -1.
        2   -1    0    0  501    0  0.00000000000E+00  0.00000000000E+00 -0.14347448959E+04  0.14347448959E+04  0.25500000920E-02 0.  1.
    10030    2    1    2    0    0  0.00000000000E+00  0.00000000000E+00  0.57658012849E+03  0.34460699203E+04  0.33974922003E+04 0.  0.
        5    1    3    3  502    0  0.65642254421E+03 -0.83269615355E+03 -0.10578798703E+04  0.14978001704E+04  0.46999998093E+01 0.  1.
       -5    1    3    3    0  502 -0.65642254421E+03  0.83269615355E+03  0.16344599988E+04  0.19482697499E+04  0.46999998093E+01 0. -1.
</event>
<event>
 5   0  0.1970449E-07  0.3400699E+04  0.7818609E-02  0.8137735E-01
        2   -1    0    0  501    0  0.00000000000E+00  0.00000000000E+00  0.22269634094E+04  0.22269634094E+04  0.25500000920E-02 0. -1.
       -2   -1    0    0    0  501  0.00000000000E+00  0.00000000000E+00 -0.12982646023E+04  0.12982646023E+04  0.25500000920E-02 0.  1.
    10030    2    1    2    0    0  0.00000000000E+00  0.00000000000E+00  0.92869880713E+03  0.35252280117E+04  0.34006986135E+04 0.  0.
        1    1    3    3  502    0 -0.15706497631E+04  0.27285950415E+03  0.10774415157E+04  0.19241292075E+04  0.50400001928E-02 0. -1.
       -1    1    3    3    0  502  0.15706497631E+04 -0.27285950415E+03 -0.14874270854E+03  0.16010988042E+04  0.50400001928E-02 0.  1.
</event>
<event>
 5   0  0.6311750E-08  0.3435148E+04  0.7818609E-02  0.8129333E-01
        1   -1    0    0  501    0  0.00000000000E+00  0.00000000000E+00  0.16204888124E+04  0.16204888124E+04  0.50400001928E-02 0. -1.
       -1   -1    0    0    0  501  0.00000000000E+00  0.00000000000E+00 -0.18204755497E+04  0.18204755497E+04  0.50400001928E-02 0.  1.
    10030    2    1    2    0    0  0.00000000000E+00  0.00000000000E+00 -0.19998673731E+03  0.34409643621E+04  0.34351478929E+04 0.  0.
        4    1    3    3  502    0 -0.27094375359E+03 -0.62540192100E+03  0.14792294694E+04  0.16286987187E+04  0.12699999809E+01 0. -1.
       -4    1    3    3    0  502  0.27094375359E+03  0.62540192100E+03 -0.16792162067E+04  0.18122656433E+04  0.12699999809E+01 0.  1.
</event>
<event>
 5   0  0.6367111E-08  0.3428788E+04  0.7818609E-02  0.8130877E-01
        1   -1    0    0  501    0  0.00000000000E+00  0.00000000000E+00  0.22140140227E+04  0.22140140227E+04  0.50400001928E-02 0. -1.
       -1   -1    0    0    0  501  0.00000000000E+00  0.00000000000E+00 -0.13275191470E+04  0.13275191471E+04  0.50400001928E-02 0.  1.
    10030    2    1    2    0    0  0.00000000000E+00  0.00000000000E+00  0.88649487562E+03  0.35415331697E+04  0.34287875448E+04 0.  0.
        3    1    3    3  502    0 -0.66251823849E+03 -0.15420902891E+04  0.80427351376E+03  0.18611364193E+04  0.10100000352E+00 0. -1.
       -3    1    3    3    0  502  0.66251823849E+03  0.15420902891E+04  0.82221361859E+02  0.16803967504E+04  0.10100000352E+00 0.  1.
</event>
<event>
 5   0  0.1986613E-07  0.3403623E+04  0.7818609E-02  0.8137018E-01
        2   -1    0    0  501    0  0.00000000000E+00  0.00000000000E+00  0.22198195463E+04  0.22198195463E+04  0.25500000920E-02 0. -1.
       -2   -1    0    0    0  501  0.00000000000E+00  0.00000000000E+00 -0.13046837211E+04  0.13046837211E+04  0.25500000920E-02 0.  1.
    10030    2    1    2    0    0  0.00000000000E+00  0.00000000000E+00  0.91513582519E+03  0.35245032673E+04  0.34036230260E+04 0.  0.
        5    1    3    3  502    0 -0.14368870454E+04 -0.36126805542E+03 -0.40941331731E+03  0.15371403136E+04  0.46999998093E+01 0.  1.
       -5    1    3    3    0  502  0.14368870454E+04  0.36126805542E+03  0.13245491425E+04  0.19873629538E+04  0.46999998093E+01 0. -1.
</event>
<event>
 5   0  0.6367111E-08  0.3395447E+04  0.7818609E-02  0.8139025E-01
        1   -1    0    0  501    0  0.00000000000E+00  0.00000000000E+00  0.23095941651E+04  0.23095941651E+04  0.50400001928E-02 0.  1.
       -1   -1    0    0    0  501  0.00000000000E+00  0.00000000000E+00 -0.12479532521E+04  0.12479532521E+04  0.50400001928E-02 0. -1.
    10030    2    1    2    0    0  0.00000000000E+00  0.00000000000E+00  0.10616409131E+04  0.35575474172E+04  0.33954472750E+04 0.  0.
        3    1    3    3  502    0  0.14906348681E+03  0.16822368978E+04  0.34896991038E+03  0.17245059907E+04  0.10100000352E+00 0. -1.
       -3    1    3    3    0  502 -0.14906348681E+03 -0.16822368978E+04  0.71267100268E+03  0.18330414266E+04  0.10100000352E+00 0.  1.
</event>
<event>
 5   0  0.6367111E-08  0.3401462E+04  0.7818609E-02  0.8137548E-01
        1   -1    0    0  501    0  0.00000000000E+00  0.00000000000E+00  0.13814661391E+04  0.13814661391E+04  0.50400001928E-02 0.  1.
       -1   -1    0    0    0  501  0.00000000000E+00  0.00000000000E+00 -0.20937800403E+04  0.20937800403E+04  0.50400001928E-02 0. -1.
    10030    2    1    2    0    0  0.00000000000E+00  0.00000000000E+00 -0.71231390113E+03  0.34752461794E+04  0.34014621729E+04 0.  0.
        3    1    3    3  502    0 -0.33468665493E+03 -0.15783685868E+04 -0.90561791219E+03  0.18502449475E+04  0.10100000352E+00 0.  1.
       -3    1    3    3    0  502  0.33468665493E+03  0.15783685868E+04  0.19330401107E+03  0.16250012319E+04  0.10100000352E+00 0. -1.
</event>
<event>
 5   0  0.1963852E-07  0.3405999E+04  0.7818609E-02  0.8136435E-01
       -2   -1    0    0    0  501  0.00000000000E+00  0.00000000000E+00  0.12224182185E+04  0.12224182185E+04  0.25500000920E-02 0. -1.
        2   -1    0    0  501    0  0.00000000000E+00  0.00000000000E+00 -0.23725169652E+04  0.23725169652E+04  0.25500000920E-02 0.  1.
    10030    2    1    2    0    0  0.00000000000E+00  0.00000000000E+00 -0.11500987467E+04  0.35949351837E+04  0.34059993905E+04 0.  0.
        4    1    3    3  502    0 -0.12064999867E+04  0.53355517982E+03  0.56167086003E+03  0.14338058152E+04  0.12699999809E+01 0. -1.
       -4    1    3    3    0  502  0.12064999867E+04 -0.53355517982E+03 -0.17117696067E+04  0.21611293685E+04  0.12699999809E+01 0.  1.
</event>
<event>
 5   0  0.1928004E-07  0.3410837E+04  0.7818609E-02  0.8135252E-01
        2   -1    0    0  501    0  0.00000000000E+00  0.00000000000E+00  0.12379609384E+04  0.12379609385E+04  0.25500000920E-02 0. -1.
       -2   -1    0    0    0  501  0.00000000000E+00  0.00000000000E+00 -0.23493900346E+04  0.23493900346E+04  0.25500000920E-02 0.  1.
    10030    2    1    2    0    0  0.00000000000E+00  0.00000000000E+00 -0.11114290961E+04  0.35873509730E+04  0.34108374878E+04 0.  0.
        2    1    3    3  502    0 -0.12398931264E+04  0.82748557057E+03 -0.14270732499E+04  0.20636388722E+04  0.25500000920E-02 0.  1.
       -2    1    3    3    0  502  0.12398931264E+04 -0.82748557057E+03  0.31564415374E+03  0.15237121008E+04  0.25500000920E-02 0. -1.
</event>
<event>
 5   0  0.6788600E-08  0.3399572E+04  0.7818609E-02  0.8138011E-01
        1   -1    0    0  501    0  0.00000000000E+00  0.00000000000E+00  0.22152464983E+04  0.22152464983E+04  0.50400001928E-02 0.  1.
       -1   -1    0    0    0  501  0.00000000000E+00  0.00000000000E+00 -0.13042665237E+04  0.13042665237E+04  0.50400001928E-02 0. -1.
    10030    2    1    2    0    0  0.00000000000E+00  0.00000000000E+00  0.91097997464E+03  0.35195130220E+04  0.33995716492E+04 0.  0.
        2    1    3    3  502    0 -0.77168640391E+03  0.92594797923E+03 -0.78529036915E+03  0.14385967225E+04  0.25500000920E-02 0.  1.
       -2    1    3    3    0  502  0.77168640391E+03 -0.92594797923E+03  0.16962703438E+04  0.20809162995E+04  0.25500000920E-02 0. -1.
</event>
<event>
 5   0  0.1928004E-07  0.3400150E+04  0.7818609E-02  0.8137869E-01
       -2   -1    0    0    0  501  0.00000000000E+00  0.00000000000E+00  0.16112539819E+04  0.16112539819E+04  0.25500000920E-02 0.  1.
        2   -1    0    0  501    0  0.00000000000E+00  0.00000000000E+00 -0.17937924854E+04  0.17937924854E+04  0.25500000920E-02 0. -1.
    10030    2    1    2    0    0  0.00000000000E+00  0.00000000000E+00 -0.18253850346E+03  0.34050464674E+04  0.34001501643E+04 0.  0.
        2    1    3    3  502    0  0.50247701895E+03 -0.13141527836E+04 -0.10469886444E+04  0.17537576557E+04  0.25500000920E-02 0. -1.
       -2    1    3    3    0  502 -0.50247701895E+03  0.13141527836E+04  0.86445014097E+03  0.16512888117E+04  0.25500000920E-02 0.  1.
</event>
<event>
 5   0  0.6788600E-08  0.3396484E+04  0.7818609E-02  0.8138770E-01
        1   -1    0    0  501    0  0.00000000000E+00  0.00000000000E+00  0.14595738259E+04  0.14595738259E+04  0.50400001928E-02 0.  1.
       -1   -1    0    0    0  501  0.00000000000E+00  0.00000000000E+00 -0.19759367594E+04  0.19759367595E+04  0.50400001928E-02 0. -1.
    10030    2    1    2    0    0  0.00000000000E+00  0.00000000000E+00 -0.51636293355E+03  0.34355105854E+04  0.33964838146E+04 0.  0.
        2    1    3    3  502    0 -0.16811315127E+04  0.22328302984E+03 -0.16789723463E+03  0.17041854230E+04  0.25500000920E-02 0.  1.
       -2    1    3    3    0  502  0.16811315127E+04 -0.22328302984E+03 -0.34846569892E+03  0.17313251624E+04  0.25500000920E-02 0. -1.
</event>
<event>
 5   0  0.6311750E-08  0.3398873E+04  0.7818609E-02  0.8138183E-01
        3   -1    0    0  501    0  0.00000000000E+00  0.00000000000E+00  0.18645436470E+04  0.18645436497E+04  0.10100000352E+00 0.  1.
       -3   -1    0    0    0  501  0.00000000000E+00  0.00000000000E+00 -0.15489493874E+04  0.15489493907E+04  0.10100000352E+00 0. -1.
    10030    2    1    2    0    0  0.00000000000E+00  0.00000000000E+00  0.31559425959E+03  0.34134930404E+04  0.33988726072E+04 0.  0.
        5    1    3    3  502    0  0.16608758909E+04 -0.20886777084E+02 -0.20307663122E+03  0.16733819619E+04  0.46999998093E+01 0.  1.
       -5    1    3    3    0  502 -0.16608758909E+04  0.20886777084E+02  0.51867089080E+03  0.17401110785E+04  0.46999998093E+01 0. -1.
</event>
<event>
 5   0  0.6584420E-08  0.3395089E+04  0.7818609E-02  0.8139113E-01
       -1   -1    0    0    0  501  0.00000000000E+00  0.00000000000E+00  0.16132731899E+04  0.16132731899E+04  0.50400001928E-02 0. -1.
        1   -1    0    0  501    0  0.00000000000E+00  0.00000000000E+00 -0.17862180578E+04  0.17862180578E+04  0.50400001928E-02 0.  1.
    10030    2    1    2    0    0  0.00000000000E+00  0.00000000000E+00 -0.17294486788E+03  0.33994912477E+04  0.33950892206E+04 0.  0.
        1    1    3    3  502    0  0.15837072711E+04 -0.52048348354E+03 -0.40724061525E+03  0.17160643041E+04  0.50400001928E-02 0.  1.
       -1    1    3    3    0  502 -0.15837072711E+04  0.52048348354E+03  0.23429574737E+03  0.16834269436E+04  0.50400001928E-02 0. -1.
</event>
<event>
 5   0  0.1928004E-07  0.3400978E+04  0.7818609E-02  0.8137666E-01
        2   -1    0    0  501    0  0.00000000000E+00  0.00000000000E+00  0.23228383654E+04  0.23228383654E+04  0.25500000920E-02 0. -1.
       -2   -1    0    0    0  501  0.00000000000E+00  0.00000000000E+00 -0.12448831891E+04  0.12448831892E+04  0.25500000920E-02 0.  1.
    10030    2    1    2    0    0  0.00000000000E+00  0.00000000000E+00  0.10779551762E+04  0.35677215545E+04  0.34009777607E+04 0.  0.
        2    1    3    3  502    0 -0.47713753291E+03 -0.41969276959E+02 -0.11726561035E+04  0.12667059574E+04  0.25500000920E-02 0.  1.
       -2    1    3    3    0  502  0.47713753291E+03  0.41969276959E+02  0.22506112797E+04  0.23010155971E+04  0.25500000920E-02 0. -1.
</event>
<event>
 5   0  0.1963852E-07  0.3401278E+04  0.7818609E-02  0.8137593E-01
       -2   -1    0    0    0  501  0.00000000000E+00  0.00000000000E+00  0.21048508522E+04  0.21048508522E+04  0.25500000920E-02 0. -1.
        2   -1    0    0  501    0  0.00000000000E+00  0.00000000000E+00 -0.13740515707E+04  0.13740515707E+04  0.25500000920E-02 0.  1.
    10030    2    1    2    0    0  0.00000000000E+00  0.00000000000E+00  0.73079928151E+03  0.34789024229E+04  0.34012783594E+04 0.  0.
        4    1    3    3  502    0  0.64069712390E+03 -0.15455863519E+04  0.67705341272E+03  0.18049190875E+04  0.12699999809E+01 0. -1.
       -4    1    3    3    0  502 -0.64069712390E+03  0.15455863519E+04  0.53745868792E+02  0.16739833354E+04  0.12699999809E+01 0.  1.
</event>
<event>
 5   0  0.1970449E-07  0.3400303E+04  0.7818609E-02  0.8137832E-01
       -2   -1    0    0    0  501  0.00000000000E+00  0.00000000000E+00  0.12003233168E+04  0.12003233168E+04  0.25500000920E-02 0. -1.
        2   -1    0    0  501    0  0.00000000000E+00  0.00000000000E+00 -0.24081133145E+04  0.24081133145E+04  0.25500000920E-02 0.  1.
    10030    2    1    2    0    0  0.00000000000E+00  0.00000000000E+00 -0.12077899977E+04  0.36084366312E+04  0.34003026693E+04 0.  0.
        1    1    3    3  502    0  0.23361158813E+03  0.13646975841E+03  0.11773321348E+04  0.12080187601E+04  0.50400001928E-02 0. -1.
       -1    1    3    3    0  502 -0.23361158813E+03 -0.13646975841E+03 -0.23851221325E+04  0.24004178711E+04  0.50400001928E-02 0.  1.
</event>
<event>
 5   0  0.1970449E-07  0.3398700E+04  0.7818609E-02  0.8138225E-01
       -2   -1    0    0    0  501  0.00000000000E+00  0.00000000000E+00  0.12314858774E+04  0.12314858774E+04  0.25500000920E-02 0. -1.
        2   -1    0    0  501    0  0.00000000000E+00  0.00000000000E+00 -0.23449642365E+04  0.23449642365E+04  0.25500000920E-02 0.  1.
    10030    2    1    2    0    0  0.00000000000E+00  0.00000000000E+00 -0.11134783591E+04  0.35764501139E+04  0.33986999516E+04 0.  0.
        1    1    3    3  502    0  0.16327331117E+04  0.15609438478E+03 -0.10245185060E+04  0.19338616911E+04  0.50400001928E-02 0.  1.
       -1    1    3    3    0  502 -0.16327331117E+04 -0.15609438478E+03 -0.88959853076E+02  0.16425884228E+04  0.50400001928E-02 0. -1.
</event>
<event>
 5   0  0.6788600E-08  0.3395547E+04  0.7818609E-02  0.8139000E-01
       -1   -1    0    0    0  501  0.00000000000E+00  0.00000000000E+00  0.23695731888E+04  0.23695731888E+04  0.50400001928E-02 0. -1.
        1   -1    0    0  501    0  0.00000000000E+00  0.00000000000E+00 -0.12164363141E+04  0.12164363141E+04  0.50400001928E-02 0.  1.
    10030    2    1    2    0    0  0.00000000000E+00  0.00000000000E+00  0.11531368747E+04  0.35860095029E+04  0.33955470108E+04 0.  0.
        2    1    3    3  502    0 -0.80957294901E+03 -0.13664480354E+04 -0.56951371254E+02  0.15892866487E+04  0.25500000920E-02 0.  1.
       -2    1    3    3    0  502  0.80957294901E+03  0.13664480354E+04  0.12100882460E+04  0.19967228541E+04  0.25500000920E-02 0. -1.
</event>
<event>
 5   0  0.1986613E-07  0.3396452E+04  0.7818609E-02  0.8138778E-01
        2   -1    0    0  501    0  0.00000000000E+00  0.00000000000E+00  0.27087427440E+04  0.27087427440E+04  0.25500000920E-02 0. -1.
       -2   -1    0    0    0  501  0.00000000000E+00  0.00000000000E+00 -0.10646899136E+04  0.10646899136E+04  0.25500000920E-02 0.  1.
    10030    2    1    2    0    0  0.00000000000E+00  0.00000000000E+00  0.16440528304E+04  0.37734326577E+04  0.33964517239E+04 0.  0.
        5    1    3    3  502    0 -0.75871636752E+02 -0.16721298440E+04  0.11405041524E+04  0.20254743968E+04  0.46999998093E+01 0.  1.
       -5    1    3    3    0  502  0.75871636752E+02  0.16721298440E+04  0.50354867796E+03  0.17479582608E+04  0.46999998093E+01 0. -1.
</event>
<event>
 5   0  0.1970449E-07  0.3423792E+04  0.7818609E-02  0.8132092E-01
        2   -1    0    0  501    0  0.00000000000E+00  0.00000000000E+00  0.26083811141E+04  0.26083811141E+04  0.25500000920E-02 0.  1.
       -2   -1    0    0    0  501  0.00000000000E+00  0.00000000000E+00 -0.11235273220E+04  0.11235273220E+04  0.25500000920E-02 0. -1.
    10030    2    1    2    0    0  0.00000000000E+00  0.00000000000E+00  0.14848537921E+04  0.37319084362E+04  0.34237917273E+04 0.  0.
        1    1    3    3  502    0 -0.10375175358E+04 -0.92347048129E+03 -0.34829984179E+03  0.14319752605E+04  0.50400001928E-02 0. -1.
       -1    1    3    3    0  502  0.10375175358E+04  0.92347048129E+03  0.18331536339E+04  0.22999331756E+04  0.50400001928E-02 0.  1.
</event>
<event>
 5   0  0.1986613E-07  0.3393322E+04  0.7818609E-02  0.8139547E-01
        2   -1    0    0  501    0  0.00000000000E+00  0.00000000000E+00  0.21713869123E+04  0.21713869123E+04  0.25500000920E-02 0. -1.
       -2   -1    0    0    0  501  0.00000000000E+00  0.00000000000E+00 -0.13257235324E+04  0.13257235324E+04  0.25500000920E-02 0.  1.
    10030    2    1    2    0    0  0.00000000000E+00  0.00000000000E+00  0.84566337993E+03  0.34971104447E+04  0.33933221053E+04 0.  0.
        5    1    3    3  502    0  0.44506715276E+03 -0.16321049561E+04  0.55635237338E+03  0.17808428936E+04  0.46999998093E+01 0. -1.
       -5    1    3    3    0  502 -0.44506715276E+03  0.16321049561E+04  0.28931100655E+03  0.17162675511E+04  0.46999998093E+01 0.  1.
</event>
<event>
 5   0  0.1963852E-07  0.3403179E+04  0.7818609E-02  0.8137127E-01
       -2   -1    0    0    0  501  0.00000000000E+00  0.00000000000E+00  0.11414773634E+04  0.11414773634E+04  0.25500000920E-02 0.  1.
        2   -1    0    0  501    0  0.00000000000E+00  0.00000000000E+00 -0.25365428645E+04  0.25365428645E+04  0.25500000920E-02 0. -1.
    10030    2    1    2    0    0  0.00000000000E+00  0.00000000000E+00 -0.13950655010E+04  0.36780202279E+04  0.34031786678E+04 0.  0.
        4    1    3    3  502    0  0.75507489643E+03  0.13589428653E+04  0.50100943870E+02  0.15554341927E+04  0.12699999809E+01 0.  1.
       -4    1    3    3    0  502 -0.75507489643E+03 -0.13589428653E+04 -0.14451664449E+04  0.21225860352E+04  0.12699999809E+01 0. -1.
</event>
<event>
 5   0  0.6584420E-08  0.3389334E+04  0.7818609E-02  0.8140529E-01
       -1   -1    0    0    0  501  0.00000000000E+00  0.00000000000E+00  0.10532831069E+04  0.10532831069E+04  0.50400001928E-02 0.  1.
        1   -1    0    0  501    0  0.00000000000E+00  0.00000000000E+00 -0.27266134711E+04  0.27266134712E+04  0.50400001928E-02 0. -1.
    10030    2    1    2    0    0  0.00000000000E+00  0.00000000000E+00 -0.16733303643E+04  0.37798965781E+04  0.33893338037E+04 0.  0.
        1    1    3    3  502    0  0.12452609195E+02 -0.49268155444E+03  0.97159675275E+03  0.10894450108E+04  0.50400001928E-02 0.  1.
       -1    1    3    3    0  502 -0.12452609195E+02  0.49268155444E+03 -0.26449271170E+04  0.26904515673E+04  0.50400001928E-02 0. -1.
</event>
<event>
 5   0  0.1897313E-07  0.3403841E+04  0.7818609E-02  0.8136964E-01
        2   -1    0    0  501    0  0.00000000000E+00  0.00000000000E+00  0.10222331354E+04  0.10222331354E+04  0.25500000920E-02 0. -1.
       -2   -1    0    0    0  501  0.00000000000E+00  0.00000000000E+00 -0.28335353096E+04  0.28335353096E+04  0.25500000920E-02 0.  1.
    10030    2    1    2    0    0  0.00000000000E+00  0.00000000000E+00 -0.18113021742E+04  0.38557684450E+04  0.34038411736E+04 0.  0.
        3    1    3    3  502    0 -0.72244809282E+03 -0.81097884017E+03 -0.23899321601E+04  0.26251464085E+04  0.10100000352E+00 0.  1.
       -3    1    3    3    0  502  0.72244809282E+03  0.81097884017E+03  0.57862998586E+03  0.12306220365E+04  0.10100000352E+00 0. -1.
</event>
<event>
 5   0  0.1970449E-07  0.3401064E+04  0.7818609E-02  0.8137645E-01
        2   -1    0    0  501    0  0.00000000000E+00  0.00000000000E+00  0.14275441611E+04  0.14275441611E+04  0.25500000920E-02 0. -1.
       -2   -1    0    0    0  501  0.00000000000E+00  0.00000000000E+00 -0.20257228631E+04  0.20257228631E+04  0.25500000920E-02 0.  1.
    10030    2    1    2    0    0  0.00000000000E+00  0.00000000000E+00 -0.59817870199E+03  0.34532670241E+04  0.34010638601E+04 0.  0.
        1    1    3    3  502    0 -0.31335506028E+03 -0.21394706152E+03 -0.19821951645E+04  0.20181829474E+04  0.50400001928E-02 0.  1.
       -1    1    3    3    0  502  0.31335506028E+03  0.21394706152E+03  0.13840164625E+04  0.14350840768E+04  0.50400001928E-02 0. -1.
</event>
<event>
 5   0  0.6311750E-08  0.3415186E+04  0.7818609E-02  0.8134189E-01
        1   -1    0    0  501    0  0.00000000000E+00  0.00000000000E+00  0.26383697791E+04  0.26383697791E+04  0.50400001928E-02 0. -1.
       -1   -1    0    0    0  501  0.00000000000E+00  0.00000000000E+00 -0.11051801872E+04  0.11051801872E+04  0.50400001928E-02 0.  1.
    10030    2    1    2    0    0  0.00000000000E+00  0.00000000000E+00  0.15331895919E+04  0.37435499663E+04  0.34151860894E+04 0.  0.
        4    1    3    3  502    0 -0.15178890744E+04  0.43286008429E+03  0.52399546085E+02  0.15792727504E+04  0.12699999809E+01 0.  1.
       -4    1    3    3    0  502  0.15178890744E+04 -0.43286008429E+03  0.14807900458E+04  0.21642772159E+04  0.12699999809E+01 0. -1.
</event>
<event>
 5   0  0.1897313E-07  0.3400468E+04  0.7818609E-02  0.8137792E-01
       -2   -1    0    0    0  501  0.00000000000E+00  0.00000000000E+00  0.14134039525E+04  0.14134039525E+04  0.25500000920E-02 0. -1.
        2   -1    0    0  501    0  0.00000000000E+00  0.00000000000E+00 -0.20452716533E+04  0.20452716533E+04  0.25500000920E-02 0.  1.
    10030    2    1    2    0    0  0.00000000000E+00  0.00000000000E+00 -0.63186770077E+03  0.34586756058E+04  0.34004676377E+04 0.  0.
        3    1    3    3  502    0 -0.19618287815E+03  0.12826700429E+04  0.80153773710E+03  0.15251861902E+04  0.10100000352E+00 0. -1.
       -3    1    3    3    0  502  0.19618287815E+03 -0.12826700429E+04 -0.14334054379E+04  0.19334894156E+04  0.10100000352E+00 0.  1.
</event>
<event>
 5   0  0.1970449E-07  0.3373547E+04  0.7818609E-02  0.8144429E-01
       -2   -1    0    0    0  501  0.00000000000E+00  0.00000000000E+00  0.15507991709E+04  0.15507991709E+04  0.25500000920E-02 0.  1.
        2   -1    0    0  501    0  0.00000000000E+00  0.00000000000E+00 -0.18346702121E+04  0.18346702121E+04  0.25500000920E-02 0. -1.
    10030    2    1    2    0    0  0.00000000000E+00  0.00000000000E+00 -0.28387104120E+03  0.33854693830E+04  0.33735471207E+04 0.  0.
        1    1    3    3  502    0 -0.15415522111E+03 -0.87509649424E+03  0.12968843103E+04  0.15720898895E+04  0.50400001928E-02 0.  1.
       -1    1    3    3    0  502  0.15415522111E+03  0.87509649424E+03 -0.15807553515E+04  0.18133794935E+04  0.50400001928E-02 0. -1.
</event>
<event>
 5   0  0.6788600E-08  0.3398744E+04  0.7818609E-02  0.8138215E-01
        1   -1    0    0  501    0  0.00000000000E+00  0.00000000000E+00  0.15847269139E+04  0.15847269139E+04  0.50400001928E-02 0.  1.
       -1   -1    0    0    0  501  0.00000000000E+00  0.00000000000E+00 -0.18223104397E+04  0.18223104397E+04  0.50400001928E-02 0. -1.
    10030    2    1    2    0    0  0.00000000000E+00  0.00000000000E+00 -0.23758352575E+03  0.34070373536E+04  0.33987435321E+04 0.  0.
        2    1    3    3  502    0  0.15299347249E+03 -0.12614686755E+04  0.10123030236E+04  0.16246438482E+04  0.25500000920E-02 0.  1.
       -2    1    3    3    0  502 -0.15299347249E+03  0.12614686755E+04 -0.12498865493E+04  0.17823935054E+04  0.25500000920E-02 0. -1.
</event>
<event>
 5   0  0.1986613E-07  0.3397093E+04  0.7818609E-02  0.8138620E-01
        2   -1    0    0  501    0  0.00000000000E+00  0.00000000000E+00  0.19625388905E+04  0.19625388905E+04  0.25500000920E-02 0.  1.
       -2   -1    0    0    0  501  0.00000000000E+00  0.00000000000E+00 -0.14700649090E+04  0.14700649090E+04  0.25500000920E-02 0. -1.
    10030    2    1    2    0    0  0.00000000000E+00  0.00000000000E+00  0.49247398147E+03  0.34326037995E+04  0.33970926130E+04 0.  0.
        5    1    3    3  502    0  0.23955350306E+03 -0.13530741753E+04 -0.76261957662E+03  0.15715617434E+04  0.46999998093E+01 0. -1.
       -5    1    3    3    0  502 -0.23955350306E+03  0.13530741753E+04  0.12550935581E+04  0.18610420560E+04  0.46999998093E+01 0.  1.
</event>
<event>
 5   0  0.6584420E-08  0.3407199E+04  0.7818609E-02  0.8136142E-01
       -1   -1    0    0    0  501  0.00000000000E+00  0.00000000000E+00  0.21407520547E+04  0.21407520548E+04  0.50400001928E-02 0.  1.
        1   -1    0    0  501    0  0.00000000000E+00  0.00000000000E+00 -0.13557156919E+04  0.13557156919E+04  0.50400001928E-02 0. -1.
    10030    2    1    2    0    0  0.00000000000E+00  0.00000000000E+00  0.78503636285E+03  0.34964677467E+04  0.34071989394E+04 0.  0.
        1    1    3    3  502    0 -0.98702973632E+02 -0.29577290232E+02  0.21375514068E+04  0.21400334367E+04  0.50400001928E-02 0.  1.
       -1    1    3    3    0  502  0.98702973632E+02  0.29577290232E+02 -0.13525150440E+04  0.13564343100E+04  0.50400001928E-02 0. -1.
</event>
<event>
 5   0  0.1970449E-07  0.3396636E+04  0.7818609E-02  0.8138732E-01
        2   -1    0    0  501    0  0.00000000000E+00  0.00000000000E+00  0.19496131008E+04  0.19496131008E+04  0.25500000920E-02 0.  1.
       -2   -1    0    0    0  501  0.00000000000E+00  0.00000000000E+00 -0.14794137252E+04  0.14794137252E+04  0.25500000920E-02 0. -1.
    10030    2    1    2    0    0  0.00000000000E+00  0.00000000000E+00  0.47019937560E+03  0.34290268260E+04  0.33966362067E+04 0.  0.
        1    1    3    3  502    0  0.81171591844E+03  0.67509626293E+03  0.15780660390E+04  0.18986653523E+04  0.50400001928E-02 0.  1.
       -1    1    3    3    0  502 -0.81171591844E+03 -0.67509626293E+03 -0.11078666634E+04  0.15303614738E+04  0.50400001928E-02 0. -1.
</event>
<event>
 5   0  0.1928004E-07  0.3396406E+04  0.7818609E-02  0.8138789E-01
       -2   -1    0    0    0  501  0.00000000000E+00  0.00000000000E+00  0.23576602588E+04  0.23576602588E+04  0.25500000920E-02 0.  1.
        2   -1    0    0  501    0  0.00000000000E+00  0.00000000000E+00 -0.12232011497E+04  0.12232011497E+04  0.25500000920E-02 0. -1.
    10030    2    1    2    0    0  0.00000000000E+00  0.00000000000E+00  0.11344591091E+04  0.35808614085E+04  0.33964055936E+04 0.  0.
        2    1    3    3  502    0 -0.14846121915E+04  0.49246556685E+03  0.12644277217E+04  0.20113113029E+04  0.25500000920E-02 0. -1.
       -2    1    3    3    0  502  0.14846121915E+04 -0.49246556685E+03 -0.12996861257E+03  0.15695501056E+04  0.25500000920E-02 0.  1.
</event>
<event>
 5   0  0.6341535E-08  0.3400057E+04  0.7818609E-02  0.8137892E-01
        1   -1    0    0  501    0  0.00000000000E+00  0.00000000000E+00  0.10559029237E+04  0.10559029237E+04  0.50400001928E-02 0.  1.
       -1   -1    0    0    0  501  0.00000000000E+00  0.00000000000E+00 -0.27370863641E+04  0.27370863641E+04  0.50400001928E-02 0. -1.
    10030    2    1    2    0    0  0.00000000000E+00  0.00000000000E+00 -0.16811834404E+04  0.37929892878E+04  0.34000573491E+04 0.  0.
        5    1    3    3  502    0 -0.11287853484E+04  0.62255551861E+03 -0.20769812523E+04  0.24445050519E+04  0.46999998093E+01 0. -1.
       -5    1    3    3    0  502  0.11287853484E+04 -0.62255551861E+03  0.39579781191E+03  0.13484842359E+04  0.46999998093E+01 0.  1.
</event>
<event>
 5   0  0.6367111E-08  0.3413364E+04  0.7818609E-02  0.8134634E-01
        1   -1    0    0  501    0  0.00000000000E+00  0.00000000000E+00  0.24505946869E+04  0.24505946869E+04  0.50400001928E-02 0. -1.
       -1   -1    0    0    0  501  0.00000000000E+00  0.00000000000E+00 -0.11885944101E+04  0.11885944101E+04  0.50400001928E-02 0.  1.
    10030    2    1    2    0    0  0.00000000000E+00  0.00000000000E+00  0.12620002768E+04  0.36391890970E+04  0.34133638226E+04 0.  0.
        3    1    3    3  502    0 -0.11331105814E+04 -0.50781940279E+03 -0.61733656798E+03  0.13866955628E+04  0.10100000352E+00 0.  1.
       -3    1    3    3    0  502  0.11331105814E+04  0.50781940279E+03  0.18793368447E+04  0.22524935342E+04  0.10100000352E+00 0. -1.
</event>
<event>
 5   0  0.1897313E-07  0.3398065E+04  0.7818609E-02  0.8138381E-01
        2   -1    0    0  501    0  0.00000000000E+00  0.00000000000E+00  0.17117992264E+04  0.17117992264E+04  0.25500000920E-02 0.  1.
       -2   -1    0    0    0  501  0.00000000000E+00  0.00000000000E+00 -0.16863614167E+04  0.16863614167E+04  0.25500000920E-02 0. -1.
    10030    2    1    2    0    0  0.00000000000E+00  0.00000000000E+00  0.25437809730E+02  0.33981606431E+04  0.33980654311E+04 0.  0.
        3    1    3    3  502    0  0.15095272582E+04 -0.66704705874E+03 -0.39113376129E+03  0.16960571780E+04  0.10100000352E+00 0.  1.
       -3    1    3    3    0  502 -0.15095272582E+04  0.66704705874E+03  0.41657157102E+03  0.17021034651E+04  0.10100000352E+00 0. -1.
</event>
<event>
 5   0  0.1986613E-07  0.3399163E+04  0.7818609E-02  0.8138112E-01
       -2   -1    0    0    0  501  0.00000000000E+00  0.00000000000E+00  0.12626482782E+04  0.12626482782E+04  0.25500000920E-02 0.  1.
        2   -1    0    0  501    0  0.00000000000E+00  0.00000000000E+00 -0.22877138844E+04  0.22877138844E+04  0.25500000920E-02 0. -1.
    10030    2    1    2    0    0  0.00000000000E+00  0.00000000000E+00 -0.10250656062E+04  0.35503621626E+04  0.33991634249E+04 0.  0.
        5    1    3    3  502    0  0.48444245116E+03 -0.12065090389E+04  0.63078404262E+03  0.14450810178E+04  0.46999998093E+01 0.  1.
       -5    1    3    3    0  502 -0.48444245116E+03  0.12065090389E+04 -0.16558496488E+04  0.21052811449E+04  0.46999998093E+01 0. -1.
</event>
<event>
 5   0  0.6341535E-08  0.3402596E+04  0.7818609E-02  0.8137269E-01
        1   -1    0    0  501    0  0.00000000000E+00  0.00000000000E+00  0.21551302001E+04  0.21551302001E+04  0.50400001928E-02 0. -1.
       -1   -1    0    0    0  501  0.00000000000E+00  0.00000000000E+00 -0.13430347311E+04  0.13430347311E+04  0.50400001928E-02 0.  1.
    10030    2    1    2    0    0  0.00000000000E+00  0.00000000000E+00  0.81209546901E+03  0.34981649312E+04  0.34025958965E+04 0.  0.
        5    1    3    3  502    0  0.57665481322E+02 -0.92211355455E+03 -0.10626328505E+04  0.14081297455E+04  0.46999998093E+01 0.  1.
       -5    1    3    3    0  502 -0.57665481322E+02  0.92211355455E+03  0.18747283195E+04  0.20900351857E+04  0.46999998093E+01 0. -1.
</event>
<event>
 5   0  0.1970449E-07  0.3401708E+04  0.7818609E-02  0.8137487E-01
       -2   -1    0    0    0  501  0.00000000000E+00  0.00000000000E+00  0.11703015690E+04  0.11703015690E+04  0.25500000920E-02 0.  1.
        2   -1    0    0  501    0  0.00000000000E+00  0.00000000000E+00 -0.24719309048E+04  0.24719309048E+04  0.25500000920E-02 0. -1.
    10030    2    1    2    0    0  0.00000000000E+00  0.00000000000E+00 -0.13016293358E+04  0.36422324738E+04  0.34017081688E+04 0.  0.
        1    1    3    3  502    0 -0.11693390088E+04  0.10079222589E+04 -0.14151851451E+04  0.20942803042E+04  0.50400001928E-02 0. -1.
       -1    1    3    3    0  502  0.11693390088E+04 -0.10079222589E+04  0.11355580927E+03  0.15479521696E+04  0.50400001928E-02 0.  1.
</event>
<event>
 5   0  0.6584420E-08  0.3403200E+04  0.7818609E-02  0.8137121E-01
       -1   -1    0    0    0  501  0.00000000000E+00  0.00000000000E+00  0.13510016931E+04  0.13510016931E+04  0.50400001928E-02 0.  1.
        1   -1    0    0  501    0  0.00000000000E+00  0.00000000000E+00 -0.21431823662E+04  0.21431823662E+04  0.50400001928E-02 0. -1.
    10030    2    1    2    0    0  0.00000000000E+00  0.00000000000E+00 -0.79218067312E+03  0.34941840593E+04  0.34032002617E+04 0.  0.
        1    1    3    3  502    0  0.25520471784E+03 -0.28551773100E+03 -0.20983637045E+04  0.21330213452E+04  0.50400001928E-02 0. -1.
       -1    1    3    3    0  502 -0.25520471784E+03  0.28551773100E+03  0.13061830314E+04  0.13611627141E+04  0.50400001928E-02 0.  1.
</event>
<event>
 5   0  0.1897313E-07  0.3402187E+04  0.7818609E-02  0.8137370E-01
       -2   -1    0    0    0  501  0.00000000000E+00  0.00000000000E+00  0.19799841739E+04  0.19799841740E+04  0.25500000920E-02 0. -1.
        2   -1    0    0  501    0  0.00000000000E+00  0.00000000000E+00 -0.14614858657E+04  0.14614858657E+04  0.25500000920E-02 0.  1.
    10030    2    1    2    0    0  0.00000000000E+00  0.00000000000E+00  0.51849830827E+03  0.34414700396E+04  0.34021868758E+04 0.  0.
        3    1    3    3  502    0  0.98736764397E+03 -0.76871635218E+03 -0.90640141344E+03  0.15451159267E+04  0.10100000352E+00 0.  1.
       -3    1    3    3    0  502 -0.98736764397E+03  0.76871635218E+03  0.14248997217E+04  0.18963541129E+04  0.10100000352E+00 0. -1.
</event>
<event>
 5   0  0.1963852E-07  0.3402580E+04  0.7818609E-02  0.8137273E-01
       -2   -1    0    0    0  501  0.00000000000E+00  0.00000000000E+00  0.15546356993E+04  0.15546356993E+04  0.25500000920E-02 0.  1.
        2   -1    0    0  501    0  0.00000000000E+00  0.00000000000E+00 -0.18617786839E+04  0.18617786839E+04  0.25500000920E-02 0. -1.
    10030    2    1    2    0    0  0.00000000000E+00  0.00000000000E+00 -0.30714298464E+03  0.34164143832E+04  0.34025799659E+04 0.  0.
        4    1    3    3  502    0 -0.16449164000E+04  0.56099611218E+02 -0.58600677554E+03  0.17470840515E+04  0.12699999809E+01 0.  1.
       -4    1    3    3    0  502  0.16449164000E+04 -0.56099611218E+02  0.27886379089E+03  0.16693303316E+04  0.12699999809E+01 0. -1.
</event>
<event>
 5   0  0.1928004E-07  0.3397667E+04  0.7818609E-02  0.8138479E-01
        2   -1    0    0  501    0  0.00000000000E+00  0.00000000000E+00  0.22208258365E+04  0.22208258365E+04  0.25500000920E-02 0.  1.
       -2   -1    0    0    0  501  0.00000000000E+00  0.00000000000E+00 -0.12995323069E+04  0.12995323069E+04  0.25500000920E-02 0. -1.
    10030    2    1    2    0    0  0.00000000000E+00  0.00000000000E+00  0.92129352960E+03  0.35203581435E+04  0.33976668010E+04 0.  0.
        2    1    3    3  502    0  0.12619622408E+04 -0.62202375627E+03  0.14471701254E+04  0.20183566639E+04  0.25500000920E-02 0.  1.
       -2    1    3    3    0  502 -0.12619622408E+04  0.62202375627E+03 -0.52587659584E+03  0.15020014796E+04  0.25500000920E-02 0. -1.
</event>
<event>
 5   0  0.1928004E-07  0.3397371E+04  0.7818609E-02  0.8138552E-01
       -2   -1    0    0    0  501  0.00000000000E+00  0.00000000000E+00  0.17004830735E+04  0.17004830735E+04  0.25500000920E-02 0.  1.
        2   -1    0    0  501    0  0.00000000000E+00  0.00000000000E+00 -0.16968894033E+04  0.16968894033E+04  0.25500000920E-02 0. -1.
    10030    2    1    2    0    0  0.00000000000E+00  0.00000000000E+00  0.35936702202E+01  0.33973724769E+04  0.33973705762E+04 0.  0.
        2    1    3    3  502    0  0.14422335913E+04 -0.53755041436E+03  0.72049990733E+03  0.16994464677E+04  0.25500000920E-02 0.  1.
       -2    1    3    3    0  502 -0.14422335913E+04  0.53755041436E+03 -0.71690623711E+03  0.16979260092E+04  0.25500000920E-02 0. -1.
</event>
<event>
 5   0  0.1970449E-07  0.3398395E+04  0.7818609E-02  0.8138300E-01
        2   -1    0    0  501    0  0.00000000000E+00  0.00000000000E+00  0.18878522339E+04  0.18878522340E+04  0.25500000920E-02 0. -1.
       -2   -1    0    0    0  501  0.00000000000E+00  0.00000000000E+00 -0.15293952769E+04  0.15293952769E+04  0.25500000920E-02 0.  1.
    10030    2    1    2    0    0  0.00000000000E+00  0.00000000000E+00  0.35845695704E+03  0.34172475109E+04  0.33983950860E+04 0.  0.
        1    1    3    3  502    0  0.16041078296E+04  0.31396887400E+03 -0.28760325444E+03  0.16596547879E+04  0.50400001928E-02 0.  1.
       -1    1    3    3    0  502 -0.16041078296E+04 -0.31396887400E+03  0.64606021148E+03  0.17575927230E+04  0.50400001928E-02 0. -1.
</event>
<event>
 5   0  0.6341535E-08  0.3405462E+04  0.7818609E-02  0.8136567E-01
       -1   -1    0    0    0  501  0.00000000000E+00  0.00000000000E+00  0.10988872879E+04  0.10988872879E+04  0.50400001928E-02 0. -1.
        1   -1    0    0  501    0  0.00000000000E+00  0.00000000000E+00 -0.26383903734E+04  0.26383903734E+04  0.50400001928E-02 0.  1.
    10030    2    1    2    0    0  0.00000000000E+00  0.00000000000E+00 -0.15395030855E+04  0.37372776613E+04  0.34054624601E+04 0.  0.
        5    1    3    3  502    0  0.30691208247E+03 -0.38946147660E+01  0.10682693786E+04  0.11114997749E+04  0.46999998093E+01 0. -1.
       -5    1    3    3    0  502 -0.30691208247E+03  0.38946147660E+01 -0.26077724641E+04  0.26257778864E+04  0.46999998093E+01 0.  1.
</event>
<event>
 5   0  0.6584420E-08  0.3395673E+04  0.7818609E-02  0.8138969E-01
        1   -1    0    0  501    0  0.00000000000E+00  0.00000000000E+00  0.21839168959E+04  0.21839168959E+04  0.50400001928E-02 0.  1.
       -1   -1    0    0    0  501  0.00000000000E+00  0.00000000000E+00 -0.13199443414E+04  0.13199443414E+04  0.50400001928E-02 0. -1.
    10030    2    1    2    0    0  0.00000000000E+00  0.00000000000E+00  0.86397255449E+03  0.35038612373E+04  0.33956729812E+04 0.  0.
        1    1    3    3  502    0  0.84504638170E+03 -0.69229888840E+03  0.17731143925E+04  0.20826223342E+04  0.50400001928E-02 0.  1.
       -1    1    3    3    0  502 -0.84504638170E+03  0.69229888840E+03 -0.90914183796E+03  0.14212389031E+04  0.50400001928E-02 0. -1.
</event>
<event>
 5   0  0.1970449E-07  0.3396733E+04  0.7818609E-02  0.8138709E-01
       -2   -1    0    0    0  501  0.00000000000E+00  0.00000000000E+00  0.16573054229E+04  0.16573054229E+04  0.25500000920E-02 0. -1.
        2   -1    0    0  501    0  0.00000000000E+00  0.00000000000E+00 -0.17404449332E+04  0.17404449332E+04  0.25500000920E-02 0.  1.
    10030    2    1    2    0    0  0.00000000000E+00  0.00000000000E+00 -0.83139510326E+02  0.33977503561E+04  0.33967330340E+04 0.  0.
        1    1    3    3  502    0 -0.39327873068E+03 -0.19447878701E+02  0.16110153724E+04  0.16584380935E+04  0.50400001928E-02 0. -1.
       -1    1    3    3    0  502  0.39327873068E+03  0.19447878701E+02 -0.16941548827E+04  0.17393122626E+04  0.50400001928E-02 0.  1.
</event>
<event>
 5   0  0.6788600E-08  0.3401689E+04  0.7818609E-02  0.8137492E-01
       -1   -1    0    0    0  501  0.00000000000E+00  0.00000000000E+00  0.12643988924E+04  0.12643988924E+04  0.50400001928E-02 0. -1.
        1   -1    0    0  501    0  0.00000000000E+00  0.00000000000E+00 -0.22879418882E+04  0.22879418882E+04  0.50400001928E-02 0.  1.
    10030    2    1    2    0    0  0.00000000000E+00  0.00000000000E+00 -0.10235429959E+04  0.35523407806E+04  0.34016885156E+04 0.  0.
        2    1    3    3  502    0 -0.11258509466E+04 -0.36437577206E+03  0.76403891269E+03  0.14085686059E+04  0.25500000920E-02 0. -1.
       -2    1    3    3    0  502  0.11258509466E+04  0.36437577206E+03 -0.17875819086E+04  0.21437721747E+04  0.25500000920E-02 0.  1.
</event>
<event>
 5   0  0.6367111E-08  0.3412738E+04  0.7818609E-02  0.8134787E-01
        1   -1    0    0  501    0  0.00000000000E+00  0.00000000000E+00  0.24629604591E+04  0.24629604591E+04  0.50400001928E-02 0. -1.
       -1   -1    0    0    0  501  0.00000000000E+00  0.00000000000E+00 -0.11821928977E+04  0.11821928977E+04  0.50400001928E-02 0.  1.
    10030    2    1    2    0    0  0.00000000000E+00  0.00000000000E+00  0.12807675614E+04  0.36451533569E+04  0.34127375300E+04 0.  0.
        3    1    3    3  502    0 -0.28063526913E+03 -0.79982118655E+03  0.22221942196E+04  0.23783644054E+04  0.10100000352E+00 0.  1.
       -3    1    3    3    0  502  0.28063526913E+03  0.79982118655E+03 -0.94142665822E+03  0.12667889515E+04  0.10100000352E+00 0. -1.
</event>
<event>
 5   0  0.6311750E-08  0.3378699E+04  0.7818609E-02  0.8143154E-01
       -1   -1    0    0    0  501  0.00000000000E+00  0.00000000000E+00  0.11503706526E+04  0.11503706526E+04  0.50400001928E-02 0.  1.
        1   -1    0    0  501    0  0.00000000000E+00  0.00000000000E+00 -0.24808533554E+04  0.24808533554E+04  0.50400001928E-02 0. -1.
    10030    2    1    2    0    0  0.00000000000E+00  0.00000000000E+00 -0.13304827028E+04  0.36312240080E+04  0.33786985030E+04 0.  0.
        4    1    3    3  502    0 -0.10333952257E+04 -0.75434526011E+03  0.52036682460E+03  0.13812044415E+04  0.12699999809E+01 0.  1.
       -4    1    3    3    0  502  0.10333952257E+04  0.75434526011E+03 -0.18508495274E+04  0.22500195666E+04  0.12699999809E+01 0. -1.
</event>
<event>
 5   0  0.1970449E-07  0.3399122E+04  0.7818609E-02  0.8138122E-01
       -2   -1    0    0    0  501  0.00000000000E+00  0.00000000000E+00  0.12848362753E+04  0.12848362753E+04  0.25500000920E-02 0. -1.
        2   -1    0    0  501    0  0.00000000000E+00  0.00000000000E+00 -0.22481521357E+04  0.22481521357E+04  0.25500000920E-02 0.  1.
    10030    2    1    2    0    0  0.00000000000E+00  0.00000000000E+00 -0.96331586046E+03  0.35329884110E+04  0.33991218962E+04 0.  0.
        1    1    3    3  502    0 -0.86447205571E+03 -0.20821062445E+03  0.10237772120E+04  0.13560174700E+04  0.50400001928E-02 0. -1.
       -1    1    3    3    0  502  0.86447205571E+03  0.20821062445E+03 -0.19870930724E+04  0.21769709410E+04  0.50400001928E-02 0.  1.
</event>
<event>
 5   0  0.6788600E-08  0.3404745E+04  0.7818609E-02  0.8136743E-01
        1   -1    0    0  501    0  0.00000000000E+00  0.00000000000E+00  0.14828741929E+04  0.14828741929E+04  0.50400001928E-02 0.  1.
       -1   -1    0    0    0  501  0.00000000000E+00  0.00000000000E+00 -0.19543615909E+04  0.19543615909E+04  0.50400001928E-02 0. -1.
    10030    2    1    2    0    0  0.00000000000E+00  0.00000000000E+00 -0.47148739803E+03  0.34372357838E+04  0.34047451398E+04 0.  0.
        2    1    3    3  502    0 -0.86972985312E+03  0.11750233257E+04  0.64491241198E+03  0.15978178408E+04  0.25500000920E-02 0.  1.
       -2    1    3    3    0  502  0.86972985312E+03 -0.11750233257E+04 -0.11163998100E+04  0.18394179430E+04  0.25500000920E-02 0. -1.
</event>
<event>
 5   0  0.6341535E-08  0.3399878E+04  0.7818609E-02  0.8137936E-01
        1   -1    0    0  501    0  0.00000000000E+00  0.00000000000E+00  0.17629315076E+04  0.17629315076E+04  0.50400001928E-02 0.  1.
       -1   -1    0    0    0  501  0.00000000000E+00  0.00000000000E+00 -0.16391973202E+04  0.16391973202E+04  0.50400001928E-02 0. -1.
    10030    2    1    2    0    0  0.00000000000E+00  0.00000000000E+00  0.12373418733E+03  0.34021288278E+04  0.33998779996E+04 0.  0.
        5    1    3    3  502    0 -0.62859578500E+03  0.15784336201E+04  0.11834166902E+03  0.17031183737E+04  0.46999998093E+01 0.  1.
       -5    1    3    3    0  502  0.62859578500E+03 -0.15784336201E+04  0.53925183086E+01  0.16990104541E+04  0.46999998093E+01 0. -1.
</event>
<event>
 5   0  0.6341535E-08  0.3408531E+04  0.7818609E-02  0.8135816E-01
       -1   -1    0    0    0  501  0.00000000000E+00  0.00000000000E+00  0.11457916042E+04  0.11457916043E+04  0.50400001928E-02 0. -1.
        1   -1    0    0  501    0  0.00000000000E+00  0.00000000000E+00 -0.25349475316E+04  0.25349475316E+04  0.50400001928E-02 0.  1.
    10030    2    1    2    0    0  0.00000000000E+00  0.00000000000E+00 -0.13891559274E+04  0.36807391359E+04  0.34085314134E+04 0.  0.
        5    1    3    3  502    0  0.43635269718E+03  0.16290289691E+04 -0.95988207144E+03  0.19404985801E+04  0.46999998093E+01 0.  1.
       -5    1    3    3    0  502 -0.43635269718E+03 -0.16290289691E+04 -0.42927385594E+03  0.17402405557E+04  0.46999998093E+01 0. -1.
</event>
<event>
 5   0  0.1970449E-07  0.3395559E+04  0.7818609E-02  0.8138997E-01
        2   -1    0    0  501    0  0.00000000000E+00  0.00000000000E+00  0.18344736933E+04  0.18344736933E+04  0.25500000920E-02 0.  1.
       -2   -1    0    0    0  501  0.00000000000E+00  0.00000000000E+00 -0.15712707556E+04  0.15712707556E+04  0.25500000920E-02 0. -1.
    10030    2    1    2    0    0  0.00000000000E+00  0.00000000000E+00  0.26320293779E+03  0.34057444489E+04  0.33955587853E+04 0.  0.
        1    1    3    3  502    0 -0.56720846133E+03  0.12768502668E+04 -0.83585547451E+03  0.16281051615E+04  0.50400001928E-02 0. -1.
       -1    1    3    3    0  502  0.56720846133E+03 -0.12768502668E+04  0.10990584123E+04  0.17776392874E+04  0.50400001928E-02 0.  1.
</event>
<event>
 5   0  0.6341535E-08  0.3398252E+04  0.7818609E-02  0.8138335E-01
       -1   -1    0    0    0  501  0.00000000000E+00  0.00000000000E+00  0.18107358602E+04  0.18107358602E+04  0.50400001928E-02 0.  1.
        1   -1    0    0  501    0  0.00000000000E+00  0.00000000000E+00 -0.15943958168E+04  0.15943958168E+04  0.50400001928E-02 0. -1.
    10030    2    1    2    0    0  0.00000000000E+00  0.00000000000E+00  0.21634004336E+03  0.34051316770E+04  0.33982523042E+04 0.  0.
        5    1    3    3  502    0 -0.99628131718E+02 -0.71042541008E+03 -0.14352004778E+04  0.16045100590E+04  0.46999998093E+01 0. -1.
       -5    1    3    3    0  502  0.99628131718E+02  0.71042541008E+03  0.16515405212E+04  0.18006216180E+04  0.46999998093E+01 0.  1.
</event>
<event>
 5   0  0.1928004E-07  0.3399658E+04  0.7818609E-02  0.8137990E-01
        2   -1    0    0  501    0  0.00000000000E+00  0.00000000000E+00  0.21047765806E+04  0.21047765806E+04  0.25500000920E-02 0. -1.
       -2   -1    0    0    0  501  0.00000000000E+00  0.00000000000E+00 -0.13727912566E+04  0.13727912566E+04  0.25500000920E-02 0.  1.
    10030    2    1    2    0    0  0.00000000000E+00  0.00000000000E+00  0.73198532396E+03  0.34775678372E+04  0.33996581516E+04 0.  0.
        2    1    3    3  502    0  0.16363985709E+04 -0.45967883539E+03  0.38411799535E+03  0.17425990787E+04  0.25500000920E-02 0. -1.
       -2    1    3    3    0  502 -0.16363985709E+04  0.45967883539E+03  0.34786732861E+03  0.17349687585E+04  0.25500000920E-02 0.  1.
</event>
<event>
 5   0  0.6788600E-08  0.3399955E+04  0.7818609E-02  0.8137917E-01
       -1   -1    0    0    0  501  0.00000000000E+00  0.00000000000E+00  0.13467570135E+04  0.13467570135E+04  0.50400001928E-02 0.  1.
        1   -1    0    0  501    0  0.00000000000E+00  0.00000000000E+00 -0.21458392540E+04  0.21458392540E+04  0.50400001928E-02 0. -1.
    10030    2    1    2    0    0  0.00000000000E+00  0.00000000000E+00 -0.79908224048E+03  0.34925962675E+04  0.33999553322E+04 0.  0.
        2    1    3    3  502    0 -0.13879835182E+04  0.91408536261E+03 -0.32203078844E+02  0.16622536916E+04  0.25500000920E-02 0.  1.
       -2    1    3    3    0  502  0.13879835182E+04 -0.91408536261E+03 -0.76687916164E+03  0.18303425760E+04  0.25500000920E-02 0. -1.
</event>
<event>
 5   0  0.1986613E-07  0.3393767E+04  0.7818609E-02  0.8139438E-01
       -2   -1    0    0    0  501  0.00000000000E+00  0.00000000000E+00  0.25274842925E+04  0.25274842925E+04  0.25500000920E-02 0.  1.
        2   -1    0    0  501    0  0.00000000000E+00  0.00000000000E+00 -0.11392407058E+04  0.11392407058E+04  0.25500000920E-02 0. -1.
    10030    2    1    2    0    0  0.00000000000E+00  0.00000000000E+00  0.13882435867E+04  0.36667249984E+04  0.33937666328E+04 0.  0.
        5    1    3    3  502    0  0.15581690197E+04 -0.38730452659E+03  0.10087320171E+03  0.16087551035E+04  0.46999998093E+01 0. -1.
       -5    1    3    3    0  502 -0.15581690197E+04  0.38730452659E+03  0.12873703850E+04  0.20579698949E+04  0.46999998093E+01 0.  1.
</event>
<event>
 5   0  0.1963852E-07  0.3401298E+04  0.7818609E-02  0.8137588E-01
       -2   -1    0    0    0  501  0.00000000000E+00  0.00000000000E+00  0.18004078098E+04  0.18004078098E+04  0.25500000920E-02 0. -1.
        2   -1    0    0  501    0  0.00000000000E+00  0.00000000000E+00 -0.16064176146E+04  0.16064176146E+04  0.25500000920E-02 0.  1.
    10030    2    1    2    0    0  0.00000000000E+00  0.00000000000E+00  0.19399019521E+03  0.34068254244E+04  0.34012978812E+04 0.  0.
        4    1    3    3  502    0  0.12175257472E+03  0.13421095219E+04 -0.94205449999E+03  0.16442475337E+04  0.12699999809E+01 0.  1.
       -4    1    3    3    0  502 -0.12175257472E+03 -0.13421095219E+04  0.11360446952E+04  0.17625778907E+04  0.12699999809E+01 0. -1.
</event>
<event>
 5   0  0.1963852E-07  0.3409631E+04  0.7818609E-02  0.8135547E-01
        2   -1    0    0  501    0  0.00000000000E+00  0.00000000000E+00  0.19590320389E+04  0.19590320389E+04  0.25500000920E-02 0. -1.
       -2   -1    0    0    0  501  0.00000000000E+00  0.00000000000E+00 -0.14835878409E+04  0.14835878409E+04  0.25500000920E-02 0.  1.
    10030    2    1    2    0    0  0.00000000000E+00  0.00000000000E+00  0.47544419801E+03  0.34426198798E+04  0.34096311312E+04 0.  0.
        4    1    3    3  502    0  0.12681206467E+04 -0.15215139561E+03 -0.90241286214E+03  0.15638512104E+04  0.12699999809E+01 0.  1.
       -4    1    3    3    0  502 -0.12681206467E+04  0.15215139561E+03  0.13778570602E+04  0.18787686693E+04  0.12699999809E+01 0. -1.
</event>
<event>
 5   0  0.6341535E-08  0.3396102E+04  0.7818609E-02  0.8138864E-01
        1   -1    0    0  501    0  0.00000000000E+00  0.00000000000E+00  0.19679353315E+04  0.19679353315E+04  0.50400001928E-02 0. -1.
       -1   -1    0    0    0  501  0.00000000000E+00  0.00000000000E+00 -0.14651787094E+04  0.14651787094E+04  0.50400001928E-02 0.  1.
    10030    2    1    2    0    0  0.00000000000E+00  0.00000000000E+00  0.50275662206E+03  0.34331140409E+04  0.33961018531E+04 0.  0.
        5    1    3    3  502    0 -0.69689626257E+02  0.15097074893E+04 -0.53119127100E+03  0.16019549318E+04  0.46999998093E+01 0.  1.
       -5    1    3    3    0  502  0.69689626257E+02 -0.15097074893E+04  0.10339478931E+04  0.18311591091E+04  0.46999998093E+01 0. -1.
</event>
<event>
 5   0  0.6311750E-08  0.3415166E+04  0.7818609E-02  0.8134194E-01
        3   -1    0    0  501    0  0.00000000000E+00  0.00000000000E+00  0.20103687244E+04  0.20103687270E+04  0.10100000352E+00 0. -1.
       -3   -1    0    0    0  501  0.00000000000E+00  0.00000000000E+00 -0.14504004092E+04  0.14504004127E+04  0.10100000352E+00 0.  1.
    10030    2    1    2    0    0  0.00000000000E+00  0.00000000000E+00  0.55996831520E+03  0.34607691397E+04  0.34151659585E+04 0.  0.
        4    1    3    3  502    0  0.12802437998E+04  0.63319705681E+03  0.12283632274E+04  0.18838366519E+04  0.12699999809E+01 0. -1.
       -4    1    3    3    0  502 -0.12802437998E+04 -0.63319705681E+03 -0.66839491217E+03  0.15769324878E+04  0.12699999809E+01 0.  1.
</event>
<event>
 5   0  0.6341535E-08  0.3396669E+04  0.7818609E-02  0.8138724E-01
       -1   -1    0    0    0  501  0.00000000000E+00  0.00000000000E+00  0.18968011063E+04  0.18968011063E+04  0.50400001928E-02 0. -1.
        1   -1    0    0  501    0  0.00000000000E+00  0.00000000000E+00 -0.15206340739E+04  0.15206340739E+04  0.50400001928E-02 0.  1.
    10030    2    1    2    0    0  0.00000000000E+00  0.00000000000E+00  0.37616703238E+03  0.34174351803E+04  0.33966691884E+04 0.  0.
        5    1    3    3  502    0  0.92145942696E+03 -0.11646167149E+04 -0.64090694647E+03  0.16174681982E+04  0.46999998093E+01 0.  1.
       -5    1    3    3    0  502 -0.92145942696E+03  0.11646167149E+04  0.10170739789E+04  0.17999669821E+04  0.46999998093E+01 0. -1.
</event>
<event>
 5   0  0.1963852E-07  0.3400634E+04  0.7818609E-02  0.8137751E-01
       -2   -1    0    0    0  501  0.00000000000E+00  0.00000000000E+00  0.16860994175E+04  0.16860994175E+04  0.25500000920E-02 0.  1.
        2   -1    0    0  501    0  0.00000000000E+00  0.00000000000E+00 -0.17146539819E+04  0.17146539819E+04  0.25500000920E-02 0. -1.
    10030    2    1    2    0    0  0.00000000000E+00  0.00000000000E+00 -0.28554564415E+02  0.34007533994E+04  0.34006335175E+04 0.  0.
        4    1    3    3  502    0  0.14230786842E+04  0.19290210577E+03 -0.92464519317E+03  0.17080206410E+04  0.12699999809E+01 0. -1.
       -4    1    3    3    0  502 -0.14230786842E+04 -0.19290210577E+03  0.89609062876E+03  0.16927327585E+04  0.12699999809E+01 0.  1.
</event>
<event>
 5   0  0.1986613E-07  0.3398796E+04  0.7818609E-02  0.8138202E-01
        2   -1    0    0  501    0  0.00000000000E+00  0.00000000000E+00  0.20783263480E+04  0.20783263480E+04  0.25500000920E-02 0. -1.
       -2   -1    0    0    0  501  0.00000000000E+00  0.00000000000E+00 -0.13895572146E+04  0.13895572146E+04  0.25500000920E-02 0.  1.
    10030    2    1    2    0    0  0.00000000000E+00  0.00000000000E+00  0.68876913343E+03  0.34678835626E+04  0.33987958875E+04 0.  0.
        5    1    3    3  502    0 -0.78156799115E+03  0.11295974421E+04  0.13652688079E+04  0.19367033624E+04  0.46999998093E+01 0. -1.
       -5    1    3    3    0  502  0.78156799115E+03 -0.11295974421E+04 -0.67649967449E+03  0.15311802002E+04  0.46999998093E+01 0.  1.
</event>
<event>
 5   0  0.6367111E-08  0.3400678E+04  0.7818609E-02  0.8137740E-01
        1   -1    0    0  501    0  0.00000000000E+00  0.00000000000E+00  0.11983831314E+04  0.11983831314E+04  0.50400001928E-02 0.  1.
       -1   -1    0    0    0  501  0.00000000000E+00  0.00000000000E+00 -0.24125441976E+04  0.24125441976E+04  0.50400001928E-02 0. -1.
    10030    2    1    2    0    0  0.00000000000E+00  0.00000000000E+00 -0.12141610661E+04  0.36109273290E+04  0.34006777385E+04 0.  0.
        3    1    3    3  502    0  0.16578907597E+04 -0.35568169230E+03 -0.47259694242E+03  0.17602440506E+04  0.10100000352E+00 0.  1.
       -3    1    3    3    0  502 -0.16578907597E+04  0.35568169230E+03 -0.74156412371E+03  0.18506832784E+04  0.10100000352E+00 0. -1.
</event>
<event>
 5   0  0.1963852E-07  0.3393366E+04  0.7818609E-02  0.8139536E-01
        2   -1    0    0  501    0  0.00000000000E+00  0.00000000000E+00  0.31674001693E+04  0.31674001693E+04  0.25500000920E-02 0.  1.
       -2   -1    0    0    0  501  0.00000000000E+00  0.00000000000E+00 -0.90886312797E+03  0.90886312797E+03  0.25500000920E-02 0. -1.
    10030    2    1    2    0    0  0.00000000000E+00  0.00000000000E+00  0.22585370413E+04  0.40762632973E+04  0.33933660135E+04 0.  0.
        4    1    3    3  502    0  0.14383523972E+04  0.52338190737E+03  0.20086793021E+04  0.25253871765E+04  0.12699999809E+01 0. -1.
       -4    1    3    3    0  502 -0.14383523972E+04 -0.52338190737E+03  0.24985773921E+03  0.15508761208E+04  0.12699999809E+01 0.  1.
</event>
<event>
 5   0  0.1970449E-07  0.3404517E+04  0.7818609E-02  0.8136799E-01
       -2   -1    0    0    0  501  0.00000000000E+00  0.00000000000E+00  0.13453195619E+04  0.13453195619E+04  0.25500000920E-02 0.  1.
        2   -1    0    0  501    0  0.00000000000E+00  0.00000000000E+00 -0.21539000139E+04  0.21539000139E+04  0.25500000920E-02 0. -1.
    10030    2    1    2    0    0  0.00000000000E+00  0.00000000000E+00 -0.80858045201E+03  0.34992195759E+04  0.34045168957E+04 0.  0.
        1    1    3    3  502    0 -0.29196947849E+03  0.35739511161E+03 -0.20883755803E+04  0.21387589875E+04  0.50400001928E-02 0. -1.
       -1    1    3    3    0  502  0.29196947849E+03 -0.35739511161E+03  0.12797951283E+04  0.13604605884E+04  0.50400001928E-02 0.  1.
</event>
<event>
 5   0  0.6367111E-08  0.3402670E+04  0.7818609E-02  0.8137251E-01
       -1   -1    0    0    0  501  0.00000000000E+00  0.00000000000E+00  0.24196312850E+04  0.24196312850E+04  0.50400001928E-02 0.  1.
        1   -1    0    0  501    0  0.00000000000E+00  0.00000000000E+00 -0.11962737615E+04  0.11962737615E+04  0.50400001928E-02 0. -1.
    10030    2    1    2    0    0  0.00000000000E+00  0.00000000000E+00  0.12233575236E+04  0.36159050465E+04  0.34026703741E+04 0.  0.
        3    1    3    3  502    0  0.82160458812E+03  0.14887464515E+04  0.67123848879E+03  0.18281031741E+04  0.10100000352E+00 0.  1.
       -3    1    3    3    0  502 -0.82160458812E+03 -0.14887464515E+04  0.55211903478E+03  0.17878018724E+04  0.10100000352E+00 0. -1.
</event>
<event>
 5   0  0.1897313E-07  0.3400755E+04  0.7818609E-02  0.8137721E-01
        2   -1    0    0  501    0  0.00000000000E+00  0.00000000000E+00  0.29554427359E+04  0.29554427359E+04  0.25500000920E-02 0.  1.
       -2   -1    0    0    0  501  0.00000000000E+00  0.00000000000E+00 -0.97829119909E+03  0.97829119909E+03  0.25500000920E-02 0. -1.
    10030    2    1    2    0    0  0.00000000000E+00  0.00000000000E+00  0.19771515368E+04  0.39337339349E+04  0.34007549855E+04 0.  0.
        3    1    3    3  502    0 -0.73214249856E+03 -0.42422188523E+02 -0.78594975124E+03  0.10749647910E+04  0.10100000352E+00 0. -1.
       -3    1    3    3    0  502  0.73214249856E+03  0.42422188523E+02  0.27631012880E+04  0.28587691439E+04  0.10100000352E+00 0.  1.
</event>
<event>
 5   0  0.6367111E-08  0.3407059E+04  0.7818609E-02  0.8136176E-01
       -1   -1    0    0    0  501  0.00000000000E+00  0.00000000000E+00  0.13943178746E+04  0.13943178746E+04  0.50400001928E-02 0.  1.
        1   -1    0    0  501    0  0.00000000000E+00  0.00000000000E+00 -0.20813133291E+04  0.20813133292E+04  0.50400001928E-02 0. -1.
    10030    2    1    2    0    0  0.00000000000E+00  0.00000000000E+00 -0.68699545454E+03  0.34756312038E+04  0.34070587770E+04 0.  0.
        3    1    3    3  502    0 -0.27605819419E+03 -0.91301981112E+03 -0.17833582602E+04  0.20224193424E+04  0.10100000352E+00 0. -1.
       -3    1    3    3    0  502  0.27605819419E+03  0.91301981112E+03  0.10963628057E+04  0.14532118613E+04  0.10100000352E+00 0.  1.
</event>
<event>
 5   0  0.6341535E-08  0.3401058E+04  0.7818609E-02  0.8137647E-01
        1   -1    0    0  501    0  0.00000000000E+00  0.00000000000E+00  0.25018609346E+04  0.25018609346E+04  0.50400001928E-02 0.  1.
       -1   -1    0    0    0  501  0.00000000000E+00  0.00000000000E+00 -0.11558589265E+04  0.11558589265E+04  0.50400001928E-02 0. -1.
    10030    2    1    2    0    0  0.00000000000E+00  0.00000000000E+00  0.13460020081E+04  0.36577198612E+04  0.34010576556E+04 0.  0.
        5    1    3    3  502    0 -0.15207574993E+04  0.65099536579E+03  0.10967915106E+04  0.19848103299E+04  0.46999998093E+01 0. -1.
       -5    1    3    3    0  502  0.15207574993E+04 -0.65099536579E+03  0.24921049749E+03  0.16729095313E+04  0.46999998093E+01 0.  1.
</event>
<event>
 5   0  0.6584420E-08  0.3401414E+04  0.7818609E-02  0.8137559E-01
        1   -1    0    0  501    0  0.00000000000E+00  0.00000000000E+00  0.18384648030E+04  0.18384648030E+04  0.50400001928E-02 0.  1.
       -1   -1    0    0    0  501  0.00000000000E+00  0.00000000000E+00 -0.15732713143E+04  0.15732713143E+04  0.50400001928E-02 0. -1.
    10030    2    1    2    0    0  0.00000000000E+00  0.00000000000E+00  0.26519348876E+03  0.34117361173E+04  0.34014137866E+04 0.  0.
        1    1    3    3  502    0  0.77793602975E+03 -0.12927635400E+04 -0.65463018308E+03  0.16446770849E+04  0.50400001928E-02 0. -1.
       -1    1    3    3    0  502 -0.77793602975E+03  0.12927635400E+04  0.91982367184E+03  0.17670590324E+04  0.50400001928E-02 0.  1.
</event>
<event>
 5   0  0.6584420E-08  0.3424385E+04  0.7818609E-02  0.8131947E-01
        1   -1    0    0  501    0  0.00000000000E+00  0.00000000000E+00  0.21276933850E+04  0.21276933850E+04  0.50400001928E-02 0. -1.
       -1   -1    0    0    0  501  0.00000000000E+00  0.00000000000E+00 -0.13778319751E+04  0.13778319751E+04  0.50400001928E-02 0.  1.
    10030    2    1    2    0    0  0.00000000000E+00  0.00000000000E+00  0.74986140990E+03  0.35055253601E+04  0.34243854801E+04 0.  0.
        1    1    3    3  502    0 -0.65627987554E+03  0.24691923866E+03 -0.12241091621E+04  0.14107145800E+04  0.50400001928E-02 0.  1.
       -1    1    3    3    0  502  0.65627987554E+03 -0.24691923866E+03  0.19739705720E+04  0.20948107801E+04  0.50400001928E-02 0. -1.
</event>
<event>
 5   0  0.1897313E-07  0.3385534E+04  0.7818609E-02  0.8141466E-01
        2   -1    0    0  501    0  0.00000000000E+00  0.00000000000E+00  0.10260025907E+04  0.10260025907E+04  0.25500000920E-02 0. -1.
       -2   -1    0    0    0  501  0.00000000000E+00  0.00000000000E+00 -0.27928387003E+04  0.27928387003E+04  0.25500000920E-02 0.  1.
    10030    2    1    2    0    0  0.00000000000E+00  0.00000000000E+00 -0.17668361096E+04  0.38188412909E+04  0.33855337788E+04 0.  0.
        3    1    3    3  502    0 -0.47647864595E+03  0.13337942408E+04  0.16228259331E+03  0.14256137721E+04  0.10100000352E+00 0. -1.
       -3    1    3    3    0  502  0.47647864595E+03 -0.13337942408E+04 -0.19291187029E+04  0.23932275188E+04  0.10100000352E+00 0.  1.
</event>
<event>
 5   0  0.6584420E-08  0.3401411E+04  0.7818609E-02  0.8137560E-01
        1   -1    0    0  501    0  0.00000000000E+00  0.00000000000E+00  0.15695489889E+04  0.15695489889E+04  0.50400001928E-02 0. -1.
       -1   -1    0    0    0  501  0.00000000000E+00  0.00000000000E+00 -0.18428214038E+04  0.18428214039E+04  0.50400001928E-02 0.  1.
    10030    2    1    2    0    0  0.00000000000E+00  0.00000000000E+00 -0.27327241493E+03  0.34123703928E+04  0.34014105728E+04 0.  0.
        1    1    3    3  502    0 -0.27066493347E+03  0.33554912032E+03  0.15138229982E+04  0.15740116862E+04  0.50400001928E-02 0. -1.
       -1    1    3    3    0  502  0.27066493347E+03 -0.33554912032E+03 -0.17870954131E+04  0.18383587066E+04  0.50400001928E-02 0.  1.
</event>
<event>
 5   0  0.6788600E-08  0.3399891E+04  0.7818609E-02  0.8137933E-01
       -1   -1    0    0    0  501  0.00000000000E+00  0.00000000000E+00  0.14146306863E+04  0.14146306864E+04  0.50400001928E-02 0.  1.
        1   -1    0    0  501    0  0.00000000000E+00  0.00000000000E+00 -0.20428045796E+04  0.20428045796E+04  0.50400001928E-02 0. -1.
    10030    2    1    2    0    0  0.00000000000E+00  0.00000000000E+00 -0.62817389327E+03  0.34574352660E+04  0.33998906127E+04 0.  0.
        2    1    3    3  502    0  0.20660669224E+03 -0.66905325500E+03  0.12611615707E+04  0.14425141562E+04  0.25500000920E-02 0.  1.
       -2    1    3    3    0  502 -0.20660669224E+03  0.66905325500E+03 -0.18893354640E+04  0.20149211098E+04  0.25500000920E-02 0. -1.
</event>
<event>
 5   0  0.6341535E-08  0.3400508E+04  0.7818609E-02  0.8137782E-01
       -1   -1    0    0    0  501  0.00000000000E+00  0.00000000000E+00  0.19322797220E+04  0.19322797220E+04  0.50400001928E-02 0. -1.
        1   -1    0    0  501    0  0.00000000000E+00  0.00000000000E+00 -0.14960899291E+04  0.14960899292E+04  0.50400001928E-02 0.  1.
    10030    2    1    2    0    0  0.00000000000E+00  0.00000000000E+00  0.43618979286E+03  0.34283696512E+04  0.34005083340E+04 0.  0.
        5    1    3    3  502    0  0.12300105066E+03  0.71942994485E+03 -0.13301083961E+04  0.15172076784E+04  0.46999998093E+01 0.  1.
       -5    1    3    3    0  502 -0.12300105066E+03 -0.71942994485E+03  0.17662981889E+04  0.19111619728E+04  0.46999998093E+01 0. -1.
</event>
<event>
 5   0  0.1963852E-07  0.3398113E+04  0.7818609E-02  0.8138369E-01
        2   -1    0    0  501    0  0.00000000000E+00  0.00000000000E+00  0.18843793298E+04  0.18843793298E+04  0.25500000920E-02 0. -1.
       -2   -1    0    0    0  501  0.00000000000E+00  0.00000000000E+00 -0.15319599829E+04  0.15319599829E+04  0.25500000920E-02 0.  1.
    10030    2    1    2    0    0  0.00000000000E+00  0.00000000000E+00  0.35241934688E+03  0.34163393128E+04  0.33981134330E+04 0.  0.
        4    1    3    3  502    0 -0.12677328731E+04 -0.87734884252E+03  0.89411560563E+03  0.17822266854E+04  0.12699999809E+01 0. -1.
       -4    1    3    3    0  502  0.12677328731E+04  0.87734884252E+03 -0.54169625875E+03  0.16341126273E+04  0.12699999809E+01 0.  1.
</event>
<event>
 5   0  0.1897313E-07  0.3389130E+04  0.7818609E-02  0.8140579E-01
       -2   -1    0    0    0  501  0.00000000000E+00  0.00000000000E+00  0.13094937183E+04  0.13094937183E+04  0.25500000920E-02 0. -1.
        2   -1    0    0  501    0  0.00000000000E+00  0.00000000000E+00 -0.21928701725E+04  0.21928701725E+04  0.25500000920E-02 0.  1.
    10030    2    1    2    0    0  0.00000000000E+00  0.00000000000E+00 -0.88337645421E+03  0.35023638908E+04  0.33891295142E+04 0.  0.
        3    1    3    3  502    0 -0.11646223313E+04  0.43582554793E+03  0.74797420728E+03  0.14511218101E+04  0.10100000352E+00 0. -1.
       -3    1    3    3    0  502  0.11646223313E+04 -0.43582554793E+03 -0.16313506615E+04  0.20512420807E+04  0.10100000352E+00 0.  1.
</event>
<event>
 5   0  0.6311750E-08  0.3354934E+04  0.7818609E-02  0.8149057E-01
        1   -1    0    0  501    0  0.00000000000E+00  0.00000000000E+00  0.30005868776E+04  0.30005868776E+04  0.50400001928E-02 0.  1.
       -1   -1    0    0    0  501  0.00000000000E+00  0.00000000000E+00 -0.93778151555E+03  0.93778151556E+03  0.50400001928E-02 0. -1.
    10030    2    1    2    0    0  0.00000000000E+00  0.00000000000E+00  0.20628053621E+04  0.39383683932E+04  0.33549336266E+04 0.  0.
        4    1    3    3  502    0  0.15381794442E+04  0.49185198632E+03  0.49862773874E+03  0.16901318333E+04  0.12699999809E+01 0. -1.
       -4    1    3    3    0  502 -0.15381794442E+04 -0.49185198632E+03  0.15641776233E+04  0.22482365599E+04  0.12699999809E+01 0.  1.
</event>
<event>
 5   0  0.6788600E-08  0.3399473E+04  0.7818609E-02  0.8138036E-01
       -1   -1    0    0    0  501  0.00000000000E+00  0.00000000000E+00  0.34202239039E+04  0.34202239039E+04  0.50400001928E-02 0. -1.
        1   -1    0    0  501    0  0.00000000000E+00  0.00000000000E+00 -0.84471208651E+03  0.84471208652E+03  0.50400001928E-02 0.  1.
    10030    2    1    2    0    0  0.00000000000E+00  0.00000000000E+00  0.25755118174E+04  0.42649359904E+04  0.33994731770E+04 0.  0.
        2    1    3    3  502    0  0.48376406626E+03  0.22578739535E+03 -0.73679855693E+03  0.90987896624E+03  0.25500000920E-02 0.  1.
       -2    1    3    3    0  502 -0.48376406626E+03 -0.22578739535E+03  0.33123103743E+04  0.33550570242E+04  0.25500000920E-02 0. -1.
</event>
<event>
 5   0  0.6311750E-08  0.3401552E+04  0.7818609E-02  0.8137526E-01
       -1   -1    0    0    0  501  0.00000000000E+00  0.00000000000E+00  0.32589650518E+04  0.32589650518E+04  0.50400001928E-02 0. -1.
        1   -1    0    0  501    0  0.00000000000E+00  0.00000000000E+00 -0.88759416766E+03  0.88759416767E+03  0.50400001928E-02 0.  1.
    10030    2    1    2    0    0  0.00000000000E+00  0.00000000000E+00  0.23713708842E+04  0.41465592195E+04  0.34015516299E+04 0.  0.
        4    1    3    3  502    0  0.39095382655E+03  0.81053880076E+02  0.32010251856E+04  0.32258298897E+04  0.12699999809E+01 0. -1.
       -4    1    3    3    0  502 -0.39095382655E+03 -0.81053880076E+02 -0.82965430140E+03  0.92072932977E+03  0.12699999809E+01 0.  1.
</event>
<event>
 5   0  0.6367111E-08  0.3392851E+04  0.7818609E-02  0.8139663E-01
       -1   -1    0    0    0  501  0.00000000000E+00  0.00000000000E+00  0.13102593072E+04  0.13102593072E+04  0.50400001928E-02 0. -1.
        1   -1    0    0  501    0  0.00000000000E+00  0.00000000000E+00 -0.21964049800E+04  0.21964049800E+04  0.50400001928E-02 0.  1.
    10030    2    1    2    0    0  0.00000000000E+00  0.00000000000E+00 -0.88614567281E+03  0.35066642873E+04  0.33928513481E+04 0.  0.
        3    1    3    3  502    0 -0.88337443551E+03 -0.37186009292E+03  0.10036057061E+04  0.13877516873E+04  0.10100000352E+00 0. -1.
       -3    1    3    3    0  502  0.88337443551E+03  0.37186009292E+03 -0.18897513789E+04  0.21189126000E+04  0.10100000352E+00 0.  1.
</event>
<event>
 5   0  0.6311750E-08  0.3427686E+04  0.7818609E-02  0.8131145E-01
        3   -1    0    0  501    0  0.00000000000E+00  0.00000000000E+00  0.17558514172E+04  0.17558514201E+04  0.10100000352E+00 0.  1.
       -3   -1    0    0    0  501  0.00000000000E+00  0.00000000000E+00 -0.16728392780E+04  0.16728392810E+04  0.10100000352E+00 0. -1.
    10030    2    1    2    0    0  0.00000000000E+00  0.00000000000E+00  0.83012139243E+02  0.34286907011E+04  0.34276856490E+04 0.  0.
        5    1    3    3  502    0  0.54294228620E+03 -0.28983080496E+03  0.16414896603E+04  0.17530826040E+04  0.46999998093E+01 0.  1.
       -5    1    3    3    0  502 -0.54294228620E+03  0.28983080496E+03 -0.15584775210E+04  0.16756080971E+04  0.46999998093E+01 0. -1.
</event>
<event>
 5   0  0.6584420E-08  0.3399558E+04  0.7818609E-02  0.8138015E-01
        1   -1    0    0  501    0  0.00000000000E+00  0.00000000000E+00  0.18880057194E+04  0.18880057194E+04  0.50400001928E-02 0. -1.
       -1   -1    0    0    0  501  0.00000000000E+00  0.00000000000E+00 -0.15303173983E+04  0.15303173983E+04  0.50400001928E-02 0.  1.
    10030    2    1    2    0    0  0.00000000000E+00  0.00000000000E+00  0.35768832105E+03  0.34183231177E+04  0.33995576186E+04 0.  0.
        1    1    3    3  502    0 -0.16662939102E+04  0.29352158979E+03  0.34270900377E+03  0.17263081359E+04  0.50400001928E-02 0.  1.
       -1    1    3    3    0  502  0.16662939102E+04 -0.29352158979E+03  0.14979317273E+02  0.16920149818E+04  0.50400001928E-02 0. -1.
</event>
<event>
 5   0  0.1963852E-07  0.3396981E+04  0.7818609E-02  0.8138648E-01
        2   -1    0    0  501    0  0.00000000000E+00  0.00000000000E+00  0.24477445927E+04  0.24477445927E+04  0.25500000920E-02 0. -1.
       -2   -1    0    0    0  501  0.00000000000E+00  0.00000000000E+00 -0.11785829926E+04  0.11785829926E+04  0.25500000920E-02 0.  1.
    10030    2    1    2    0    0  0.00000000000E+00  0.00000000000E+00  0.12691616001E+04  0.36263275854E+04  0.33969810993E+04 0.  0.
        4    1    3    3  502    0  0.10013200355E+04 -0.79123598538E+03  0.18310417142E+04  0.22319076079E+04  0.12699999809E+01 0. -1.
       -4    1    3    3    0  502 -0.10013200355E+04  0.79123598538E+03 -0.56188011410E+03  0.13944199775E+04  0.12699999809E+01 0.  1.
</event>
<event>
 5   0  0.1963852E-07  0.3401607E+04  0.7818609E-02  0.8137512E-01
       -2   -1    0    0    0  501  0.00000000000E+00  0.00000000000E+00  0.11792785134E+04  0.11792785134E+04  0.25500000920E-02 0. -1.
        2   -1    0    0  501    0  0.00000000000E+00  0.00000000000E+00 -0.24529686594E+04  0.24529686594E+04  0.25500000920E-02 0.  1.
    10030    2    1    2    0    0  0.00000000000E+00  0.00000000000E+00 -0.12736901461E+04  0.36322471728E+04  0.34016074048E+04 0.  0.
        4    1    3    3  502    0 -0.15078346703E+04 -0.38163537941E+03  0.97940591596E+02  0.15584623602E+04  0.12699999809E+01 0. -1.
       -4    1    3    3    0  502  0.15078346703E+04  0.38163537941E+03 -0.13716307377E+04  0.20737848126E+04  0.12699999809E+01 0.  1.
</event>
<event>
 5   0  0.6584420E-08  0.3390701E+04  0.7818609E-02  0.8140192E-01
       -1   -1    0    0    0  501  0.00000000000E+00  0.00000000000E+00  0.20991952592E+04  0.20991952592E+04  0.50400001928E-02 0. -1.
        1   -1    0    0  501    0  0.00000000000E+00  0.00000000000E+00 -0.13691977608E+04  0.13691977608E+04  0.50400001928E-02 0.  1.
    10030    2    1    2    0    0  0.00000000000E+00  0.00000000000E+00  0.72999749845E+03  0.34683930200E+04  0.33907010770E+04 0.  0.
        1    1    3    3  502    0  0.15081043801E+04 -0.60334745881E+03 -0.13172698316E+03  0.16296499549E+04  0.50400001928E-02 0.  1.
       -1    1    3    3    0  502 -0.15081043801E+04  0.60334745881E+03  0.86172448161E+03  0.18387430651E+04  0.50400001928E-02 0. -1.
</event>
<event>
 5   0  0.6311750E-08  0.3393158E+04  0.7818609E-02  0.8139588E-01
        1   -1    0    0  501    0  0.00000000000E+00  0.00000000000E+00  0.24664240404E+04  0.24664240404E+04  0.50400001928E-02 0.  1.
       -1   -1    0    0    0  501  0.00000000000E+00  0.00000000000E+00 -0.11670259707E+04  0.11670259707E+04  0.50400001928E-02 0. -1.
    10030    2    1    2    0    0  0.00000000000E+00  0.00000000000E+00  0.12993980697E+04  0.36334500111E+04  0.33931583576E+04 0.  0.
        4    1    3    3  502    0  0.10003571418E+04 -0.74259467581E+03 -0.58346975747E+03  0.13757179342E+04  0.12699999809E+01 0. -1.
       -4    1    3    3    0  502 -0.10003571418E+04  0.74259467581E+03  0.18828678272E+04  0.22577320769E+04  0.12699999809E+01 0.  1.
</event>
<event>
 5   0  0.1963852E-07  0.3400324E+04  0.7818609E-02  0.8137827E-01
        2   -1    0    0  501    0  0.00000000000E+00  0.00000000000E+00  0.19011151631E+04  0.19011151631E+04  0.25500000920E-02 0.  1.
       -2   -1    0    0    0  501  0.00000000000E+00  0.00000000000E+00 -0.15204505199E+04  0.15204505199E+04  0.25500000920E-02 0. -1.
    10030    2    1    2    0    0  0.00000000000E+00  0.00000000000E+00  0.38066464323E+03  0.34215656830E+04  0.34003244188E+04 0.  0.
        4    1    3    3  502    0 -0.13244164230E+04 -0.19347151025E+02  0.12628690820E+04  0.18301074026E+04  0.12699999809E+01 0.  1.
       -4    1    3    3    0  502  0.13244164230E+04  0.19347151025E+02 -0.88220443879E+03  0.15914582805E+04  0.12699999809E+01 0. -1.
</event>
<event>
 5   0  0.1963852E-07  0.3389083E+04  0.7818609E-02  0.8140591E-01
       -2   -1    0    0    0  501  0.00000000000E+00  0.00000000000E+00  0.14296967242E+04  0.14296967242E+04  0.25500000920E-02 0.  1.
        2   -1    0    0  501    0  0.00000000000E+00  0.00000000000E+00 -0.20084471865E+04  0.20084471865E+04  0.25500000920E-02 0. -1.
    10030    2    1    2    0    0  0.00000000000E+00  0.00000000000E+00 -0.57875046233E+03  0.34381439107E+04  0.33890826860E+04 0.  0.
        4    1    3    3  502    0 -0.54348678766E+03  0.55994011745E+03  0.12365798151E+04  0.14622045259E+04  0.12699999809E+01 0.  1.
       -4    1    3    3    0  502  0.54348678766E+03 -0.55994011745E+03 -0.18153302774E+04  0.19759393848E+04  0.12699999809E+01 0. -1.
</event>
<event>
 5   0  0.1986613E-07  0.3403927E+04  0.7818609E-02  0.8136943E-01
        2   -1    0    0  501    0  0.00000000000E+00  0.00000000000E+00  0.23737148890E+04  0.23737148890E+04  0.25500000920E-02 0.  1.
       -2   -1    0    0    0  501  0.00000000000E+00  0.00000000000E+00 -0.12203152403E+04  0.12203152403E+04  0.25500000920E-02 0. -1.
    10030    2    1    2    0    0  0.00000000000E+00  0.00000000000E+00  0.11533996487E+04  0.35940301293E+04  0.34039274112E+04 0.  0.
        5    1    3    3  502    0  0.12171996035E+04  0.11044077859E+04  0.11001148202E+03  0.16472449874E+04  0.46999998093E+01 0. -1.
       -5    1    3    3    0  502 -0.12171996035E+04 -0.11044077859E+04  0.10433881667E+04  0.19467851419E+04  0.46999998093E+01 0.  1.
</event>
<event>
 5   0  0.1970449E-07  0.3422637E+04  0.7818609E-02  0.8132373E-01
       -2   -1    0    0    0  501  0.00000000000E+00  0.00000000000E+00  0.19568125903E+04  0.19568125903E+04  0.25500000920E-02 0. -1.
        2   -1    0    0  501    0  0.00000000000E+00  0.00000000000E+00 -0.14966235162E+04  0.14966235162E+04  0.25500000920E-02 0.  1.
    10030    2    1    2    0    0  0.00000000000E+00  0.00000000000E+00  0.46018907409E+03  0.34534361064E+04  0.34226374271E+04 0.  0.
        1    1    3    3  502    0  0.16022113392E+04 -0.51502811831E+03 -0.82982276829E+02  0.16849988713E+04  0.50400001928E-02 0.  1.
       -1    1    3    3    0  502 -0.16022113392E+04  0.51502811831E+03  0.54317135092E+03  0.17684372351E+04  0.50400001928E-02 0. -1.
</event>
<event>
 5   0  0.6341535E-08  0.3424585E+04  0.7818609E-02  0.8131899E-01
        1   -1    0    0  501    0  0.00000000000E+00  0.00000000000E+00  0.19998241287E+04  0.19998241287E+04  0.50400001928E-02 0.  1.
       -1   -1    0    0    0  501  0.00000000000E+00  0.00000000000E+00 -0.14661019456E+04  0.14661019456E+04  0.50400001928E-02 0. -1.
    10030    2    1    2    0    0  0.00000000000E+00  0.00000000000E+00  0.53372218311E+03  0.34659260743E+04  0.34245852572E+04 0.  0.
        5    1    3    3  502    0  0.40078006389E+03 -0.10616587221E+04 -0.10308738562E+04  0.15331232499E+04  0.46999998093E+01 0. -1.
       -5    1    3    3    0  502 -0.40078006389E+03  0.10616587221E+04  0.15645960393E+04  0.19328028244E+04  0.46999998093E+01 0.  1.
</event>
<event>
 5   0  0.1986613E-07  0.3399827E+04  0.7818609E-02  0.8137949E-01
       -2   -1    0    0    0  501  0.00000000000E+00  0.00000000000E+00  0.10663251126E+04  0.10663251126E+04  0.25500000920E-02 0. -1.
        2   -1    0    0  501    0  0.00000000000E+00  0.00000000000E+00 -0.27099669923E+04  0.27099669923E+04  0.25500000920E-02 0.  1.
    10030    2    1    2    0    0  0.00000000000E+00  0.00000000000E+00 -0.16436418797E+04  0.37762921050E+04  0.33998269711E+04 0.  0.
        5    1    3    3  502    0 -0.39210277759E+03 -0.15027413980E+04 -0.15895178320E+04  0.22222883084E+04  0.46999998093E+01 0.  1.
       -5    1    3    3    0  502  0.39210277759E+03  0.15027413980E+04 -0.54124047718E+02  0.15540037966E+04  0.46999998093E+01 0. -1.
</event>
<event>
 5   0  0.6788600E-08  0.3406663E+04  0.7818609E-02  0.8136273E-01
       -1   -1    0    0    0  501  0.00000000000E+00  0.00000000000E+00  0.16617627626E+04  0.16617627626E+04  0.50400001928E-02 0. -1.
        1   -1    0    0  501    0  0.00000000000E+00  0.00000000000E+00 -0.17459405648E+04  0.17459405648E+04  0.50400001928E-02 0.  1.
    10030    2    1    2    0    0  0.00000000000E+00  0.00000000000E+00 -0.84177802210E+02  0.34077033275E+04  0.34066634800E+04 0.  0.
        2    1    3    3  502    0  0.16640689155E+04  0.33028564386E+03 -0.19420456107E+03  0.17076092567E+04  0.25500000920E-02 0.  1.
       -2    1    3    3    0  502 -0.16640689155E+04 -0.33028564386E+03  0.11002675886E+03  0.17000940708E+04  0.25500000920E-02 0. -1.
</event>
<event>
 5   0  0.1986613E-07  0.3400323E+04  0.7818609E-02  0.8137827E-01
       -2   -1    0    0    0  501  0.00000000000E+00  0.00000000000E+00  0.11257901485E+04  0.11257901485E+04  0.25500000920E-02 0.  1.
        2   -1    0    0  501    0  0.00000000000E+00  0.00000000000E+00 -0.25675742235E+04  0.25675742235E+04  0.25500000920E-02 0. -1.
    10030    2    1    2    0    0  0.00000000000E+00  0.00000000000E+00 -0.14417840750E+04  0.36933643720E+04  0.34003233766E+04 0.  0.
        5    1    3    3  502    0 -0.12985045766E+04  0.17660380301E+03 -0.18973936360E+04  0.23059548431E+04  0.46999998093E+01 0. -1.
       -5    1    3    3    0  502  0.12985045766E+04 -0.17660380301E+03  0.45560956101E+03  0.13874095289E+04  0.46999998093E+01 0.  1.
</event>
<event>
 5   0  0.6367111E-08  0.3397798E+04  0.7818609E-02  0.8138447E-01
        1   -1    0    0  501    0  0.00000000000E+00  0.00000000000E+00  0.18961135917E+04  0.18961135917E+04  0.50400001928E-02 0.  1.
       -1   -1    0    0    0  501  0.00000000000E+00  0.00000000000E+00 -0.15221962669E+04  0.15221962669E+04  0.50400001928E-02 0. -1.
    10030    2    1    2    0    0  0.00000000000E+00  0.00000000000E+00  0.37391732482E+03  0.34183098586E+04  0.33977975401E+04 0.  0.
        3    1    3    3  502    0  0.27833006684E+03  0.31410917271E+03 -0.14692253079E+04  0.15279905805E+04  0.10100000352E+00 0. -1.
       -3    1    3    3    0  502 -0.27833006684E+03 -0.31410917271E+03  0.18431426327E+04  0.18903192781E+04  0.10100000352E+00 0.  1.
</event>
<event>
 5   0  0.6311750E-08  0.3398653E+04  0.7818609E-02  0.8138237E-01
       -1   -1    0    0    0  501  0.00000000000E+00  0.00000000000E+00  0.12576126228E+04  0.12576126228E+04  0.50400001928E-02 0. -1.
        1   -1    0    0  501    0  0.00000000000E+00  0.00000000000E+00 -0.22961840959E+04  0.22961840959E+04  0.50400001928E-02 0.  1.
    10030    2    1    2    0    0  0.00000000000E+00  0.00000000000E+00 -0.10385714731E+04  0.35537967188E+04  0.33986527350E+04 0.  0.
        4    1    3    3  502    0  0.82010943410E+03 -0.14816950310E+04 -0.37248902021E+03  0.17339980772E+04  0.12699999809E+01 0. -1.
       -4    1    3    3    0  502 -0.82010943410E+03  0.14816950310E+04 -0.66608245289E+03  0.18197986415E+04  0.12699999809E+01 0.  1.
</event>
<event>
 5   0  0.6367111E-08  0.3367631E+04  0.7818609E-02  0.8145897E-01
        1   -1    0    0  501    0  0.00000000000E+00  0.00000000000E+00  0.15914789035E+04  0.15914789035E+04  0.50400001928E-02 0. -1.
       -1   -1    0    0    0  501  0.00000000000E+00  0.00000000000E+00 -0.17815099112E+04  0.17815099112E+04  0.50400001928E-02 0.  1.
    10030    2    1    2    0    0  0.00000000000E+00  0.00000000000E+00 -0.19003100769E+03  0.33729888146E+04  0.33676314762E+04 0.  0.
        3    1    3    3  502    0 -0.99959087061E+03 -0.53925127836E+03 -0.13400785528E+04  0.17566400849E+04  0.10100000352E+00 0.  1.
       -3    1    3    3    0  502  0.99959087061E+03  0.53925127836E+03  0.11500475452E+04  0.16163487297E+04  0.10100000352E+00 0. -1.
</event>
<event>
 5   0  0.6367111E-08  0.3399808E+04  0.7818609E-02  0.8137953E-01
        1   -1    0    0  501    0  0.00000000000E+00  0.00000000000E+00  0.31327996784E+04  0.31327996784E+04  0.50400001928E-02 0. -1.
       -1   -1    0    0    0  501  0.00000000000E+00  0.00000000000E+00 -0.92239350309E+03  0.92239350310E+03  0.50400001928E-02 0.  1.
    10030    2    1    2    0    0  0.00000000000E+00  0.00000000000E+00  0.22104061754E+04  0.40551931815E+04  0.33998082710E+04 0.  0.
        3    1    3    3  502    0 -0.55800374154E+03 -0.10048203775E+04 -0.38868831033E+03  0.12133057238E+04  0.10100000352E+00 0.  1.
       -3    1    3    3    0  502  0.55800374154E+03  0.10048203775E+04  0.25990944857E+04  0.28418874577E+04  0.10100000352E+00 0. -1.
</event>
<event>
 5   0  0.1928004E-07  0.3400695E+04  0.7818609E-02  0.8137736E-01
       -2   -1    0    0    0  501  0.00000000000E+00  0.00000000000E+00  0.28392945168E+04  0.28392945168E+04  0.25500000920E-02 0.  1.
        2   -1    0    0  501    0  0.00000000000E+00  0.00000000000E+00 -0.10182745830E+04  0.10182745830E+04  0.25500000920E-02 0. -1.
    10030    2    1    2    0    0  0.00000000000E+00  0.00000000000E+00  0.18210199337E+04  0.38575690998E+04  0.34006948938E+04 0.  0.
        2    1    3    3  502    0  0.30655106075E+03 -0.12340117225E+04  0.21910785352E+04  0.25332950147E+04  0.25500000920E-02 0.  1.
       -2    1    3    3    0  502 -0.30655106075E+03  0.12340117225E+04 -0.37005860145E+03  0.13242740851E+04  0.25500000920E-02 0. -1.
</event>
<event>
 5   0  0.6341535E-08  0.3429868E+04  0.7818609E-02  0.8130614E-01
       -1   -1    0    0    0  501  0.00000000000E+00  0.00000000000E+00  0.16835087952E+04  0.16835087952E+04  0.50400001928E-02 0.  1.
        1   -1    0    0  501    0  0.00000000000E+00  0.00000000000E+00 -0.17469456288E+04  0.17469456288E+04  0.50400001928E-02 0. -1.
    10030    2    1    2    0    0  0.00000000000E+00  0.00000000000E+00 -0.63436833574E+02  0.34304544240E+04  0.34298678288E+04 0.  0.
        5    1    3    3  502    0 -0.13680984267E+04 -0.29923518963E+03  0.95826965743E+03  0.16969201013E+04  0.46999998093E+01 0.  1.
       -5    1    3    3    0  502  0.13680984267E+04  0.29923518963E+03 -0.10217064910E+04  0.17335343226E+04  0.46999998093E+01 0. -1.
</event>
<event>
 5   0  0.6788600E-08  0.3399079E+04  0.7818609E-02  0.8138132E-01
        1   -1    0    0  501    0  0.00000000000E+00  0.00000000000E+00  0.15489848469E+04  0.15489848469E+04  0.50400001928E-02 0. -1.
       -1   -1    0    0    0  501  0.00000000000E+00  0.00000000000E+00 -0.18647275262E+04  0.18647275262E+04  0.50400001928E-02 0.  1.
    10030    2    1    2    0    0  0.00000000000E+00  0.00000000000E+00 -0.31574267925E+03  0.34137123731E+04  0.33990790998E+04 0.  0.
        2    1    3    3  502    0 -0.77109143254E+02 -0.88921906450E+03 -0.16103958968E+04  0.18412037663E+04  0.25500000920E-02 0.  1.
       -2    1    3    3    0  502  0.77109143254E+02  0.88921906450E+03  0.12946532176E+04  0.15725086068E+04  0.25500000920E-02 0. -1.
</event>
<event>
 5   0  0.6367111E-08  0.3402016E+04  0.7818609E-02  0.8137412E-01
        1   -1    0    0  501    0  0.00000000000E+00  0.00000000000E+00  0.14237316953E+04  0.14237316953E+04  0.50400001928E-02 0.  1.
       -1   -1    0    0    0  501  0.00000000000E+00  0.00000000000E+00 -0.20322842107E+04  0.20322842107E+04  0.50400001928E-02 0. -1.
    10030    2    1    2    0    0  0.00000000000E+00  0.00000000000E+00 -0.60855251547E+03  0.34560159060E+04  0.34020155465E+04 0.  0.
        3    1    3    3  502    0  0.25229402683E+03  0.12964239732E+04  0.78468091440E+03  0.15362589436E+04  0.10100000352E+00 0.  1.
       -3    1    3    3    0  502 -0.25229402683E+03 -0.12964239732E+04 -0.13932334299E+04  0.19197569624E+04  0.10100000352E+00 0. -1.
</event>
<event>
 5   0  0.1970449E-07  0.3393974E+04  0.7818609E-02  0.8139387E-01
       -2   -1    0    0    0  501  0.00000000000E+00  0.00000000000E+00  0.12619860677E+04  0.12619860677E+04  0.25500000920E-02 0.  1.
        2   -1    0    0  501    0  0.00000000000E+00  0.00000000000E+00 -0.22819307588E+04  0.22819307588E+04  0.25500000920E-02 0. -1.
    10030    2    1    2    0    0  0.00000000000E+00  0.00000000000E+00 -0.10199446911E+04  0.35439168265E+04  0.33939739687E+04 0.  0.
        1    1    3    3  502    0 -0.78295603972E+03  0.33272992361E+03  0.10232423162E+04  0.13306968851E+04  0.50400001928E-02 0.  1.
       -1    1    3    3    0  502  0.78295603972E+03 -0.33272992361E+03 -0.20431870073E+04  0.22132199414E+04  0.50400001928E-02 0. -1.
</event>
<event>
 5   0  0.1928004E-07  0.3393632E+04  0.7818609E-02  0.8139471E-01
       -2   -1    0    0    0  501  0.00000000000E+00  0.00000000000E+00  0.18606267126E+04  0.18606267126E+04  0.25500000920E-02 0.  1.
        2   -1    0    0  501    0  0.00000000000E+00  0.00000000000E+00 -0.15474272062E+04  0.15474272062E+04  0.25500000920E-02 0. -1.
    10030    2    1    2    0    0  0.00000000000E+00  0.00000000000E+00  0.31319950640E+03  0.34080539189E+04  0.33936319163E+04 0.  0.
        2    1    3    3  502    0 -0.14471951162E+04  0.12781470137E+03  0.10369517167E+04  0.17849311373E+04  0.25500000920E-02 0.  1.
       -2    1    3    3    0  502  0.14471951162E+04 -0.12781470137E+03 -0.72375221034E+03  0.16231227816E+04  0.25500000920E-02 0. -1.
</event>
<event>
 5   0  0.6367111E-08  0.3394894E+04  0.7818609E-02  0.8139161E-01
        1   -1    0    0  501    0  0.00000000000E+00  0.00000000000E+00  0.21802793827E+04  0.21802793827E+04  0.50400001928E-02 0.  1.
       -1   -1    0    0    0  501  0.00000000000E+00  0.00000000000E+00 -0.13215396578E+04  0.13215396578E+04  0.50400001928E-02 0. -1.
    10030    2    1    2    0    0  0.00000000000E+00  0.00000000000E+00  0.85873972498E+03  0.35018190405E+04  0.33948936179E+04 0.  0.
        3    1    3    3  502    0 -0.79226706721E+03 -0.22925737651E+02 -0.11189440392E+04  0.13712215242E+04  0.10100000352E+00 0. -1.
       -3    1    3    3    0  502  0.79226706721E+03  0.22925737651E+02  0.19776837642E+04  0.21305975163E+04  0.10100000352E+00 0.  1.
</event>
<event>
 5   0  0.1970449E-07  0.3388197E+04  0.7818609E-02  0.8140809E-01
       -2   -1    0    0    0  501  0.00000000000E+00  0.00000000000E+00  0.10415475563E+04  0.10415475563E+04  0.25500000920E-02 0. -1.
        2   -1    0    0  501    0  0.00000000000E+00  0.00000000000E+00 -0.27554855180E+04  0.27554855180E+04  0.25500000920E-02 0.  1.
    10030    2    1    2    0    0  0.00000000000E+00  0.00000000000E+00 -0.17139379617E+04  0.37970330743E+04  0.33881966930E+04 0.  0.
        1    1    3    3  502    0 -0.91360481644E+03 -0.22875887509E+03 -0.24350644431E+04  0.26108510539E+04  0.50400001928E-02 0.  1.
       -1    1    3    3    0  502  0.91360481644E+03  0.22875887509E+03  0.72112648132E+03  0.11861820205E+04  0.50400001928E-02 0. -1.
</event>
<event>
 5   0  0.6584420E-08  0.3413858E+04  0.7818609E-02  0.8134513E-01
        1   -1    0    0  501    0  0.00000000000E+00  0.00000000000E+00  0.12075719168E+04  0.12075719168E+04  0.50400001928E-02 0.  1.
       -1   -1    0    0    0  501  0.00000000000E+00  0.00000000000E+00 -0.24127816916E+04  0.24127816916E+04  0.50400001928E-02 0. -1.
    10030    2    1    2    0    0  0.00000000000E+00  0.00000000000E+00 -0.12052097748E+04  0.36203536085E+04  0.34138584694E+04 0.  0.
        1    1    3    3  502    0  0.16895443005E+04 -0.79898952539E+01 -0.34504915019E+03  0.17244369220E+04  0.50400001928E-02 0. -1.
       -1    1    3    3    0  502 -0.16895443005E+04  0.79898952539E+01 -0.86016062464E+03  0.18959166865E+04  0.50400001928E-02 0.  1.
</event>
<event>
 5   0  0.6367111E-08  0.3394634E+04  0.7818609E-02  0.8139225E-01
        1   -1    0    0  501    0  0.00000000000E+00  0.00000000000E+00  0.23399621950E+04  0.23399621950E+04  0.50400001928E-02 0.  1.
       -1   -1    0    0    0  501  0.00000000000E+00  0.00000000000E+00 -0.12311672658E+04  0.12311672658E+04  0.50400001928E-02 0. -1.
    10030    2    1    2    0    0  0.00000000000E+00  0.00000000000E+00  0.11087949292E+04  0.35711294608E+04  0.33946339170E+04 0.  0.
        3    1    3    3  502    0  0.16190646509E+03 -0.35873654555E+03 -0.11824989556E+04  0.12462782205E+04  0.10100000352E+00 0. -1.
       -3    1    3    3    0  502 -0.16190646509E+03  0.35873654555E+03  0.22912938849E+04  0.23248512403E+04  0.10100000352E+00 0.  1.
</event>
<event>
 5   0  0.1963852E-07  0.3392941E+04  0.7818609E-02  0.8139641E-01
        2   -1    0    0  501    0  0.00000000000E+00  0.00000000000E+00  0.29445145142E+04  0.29445145142E+04  0.25500000920E-02 0.  1.
       -2   -1    0    0    0  501  0.00000000000E+00  0.00000000000E+00 -0.97741487084E+03  0.97741487084E+03  0.25500000920E-02 0. -1.
    10030    2    1    2    0    0  0.00000000000E+00  0.00000000000E+00  0.19670996434E+04  0.39219293851E+04  0.33929410685E+04 0.  0.
        4    1    3    3  502    0  0.59687054257E+03  0.13600121122E+04  0.35899925445E+02  0.14856573655E+04  0.12699999809E+01 0.  1.
       -4    1    3    3    0  502 -0.59687054257E+03 -0.13600121122E+04  0.19311997179E+04  0.24362720196E+04  0.12699999809E+01 0. -1.
</event>
<event>
 5   0  0.1986613E-07  0.3398670E+04  0.7818609E-02  0.8138233E-01
        2   -1    0    0  501    0  0.00000000000E+00  0.00000000000E+00  0.20781394715E+04  0.20781394715E+04  0.25500000920E-02 0. -1.
       -2   -1    0    0    0  501  0.00000000000E+00  0.00000000000E+00 -0.13895794260E+04  0.13895794261E+04  0.25500000920E-02 0.  1.
    10030    2    1    2    0    0  0.00000000000E+00  0.00000000000E+00  0.68856004542E+03  0.34677188975E+04  0.33986702423E+04 0.  0.
        5    1    3    3  502    0 -0.91979250425E+02 -0.16394718062E+04  0.79064922855E+03  0.18224917773E+04  0.46999998093E+01 0.  1.
       -5    1    3    3    0  502  0.91979250425E+02  0.16394718062E+04 -0.10208918312E+03  0.16452271202E+04  0.46999998093E+01 0. -1.
</event>
<event>
 5   0  0.1970449E-07  0.3398936E+04  0.7818609E-02  0.8138167E-01
        2   -1    0    0  501    0  0.00000000000E+00  0.00000000000E+00  0.20105184966E+04  0.20105184966E+04  0.25500000920E-02 0.  1.
       -2   -1    0    0    0  501  0.00000000000E+00  0.00000000000E+00 -0.14365407229E+04  0.14365407229E+04  0.25500000920E-02 0. -1.
    10030    2    1    2    0    0  0.00000000000E+00  0.00000000000E+00  0.57397777367E+03  0.34470592196E+04  0.33989361245E+04 0.  0.
        1    1    3    3  502    0 -0.13451580267E+04  0.35202331211E+03 -0.70399538150E+03  0.15585185357E+04  0.50400001928E-02 0. -1.
       -1    1    3    3    0  502  0.13451580267E+04 -0.35202331211E+03  0.12779731552E+04  0.18885406838E+04  0.50400001928E-02 0.  1.
</event>
<event>
 5   0  0.1986613E-07  0.3390621E+04  0.7818609E-02  0.8140212E-01
       -2   -1    0    0    0  501  0.00000000000E+00  0.00000000000E+00  0.16733047571E+04  0.16733047571E+04  0.25500000920E-02 0.  1.
        2   -1    0    0  501    0  0.00000000000E+00  0.00000000000E+00 -0.17176055273E+04  0.17176055273E+04  0.25500000920E-02 0. -1.
    10030    2    1    2    0    0  0.00000000000E+00  0.00000000000E+00 -0.44300770173E+02  0.33909102844E+04  0.33906208869E+04 0.  0.
        5    1    3    3  502    0 -0.94446534936E+03  0.12655856517E+04  0.59461415607E+03  0.16873973813E+04  0.46999998093E+01 0. -1.
       -5    1    3    3    0  502  0.94446534936E+03 -0.12655856517E+04 -0.63891492624E+03  0.17035129031E+04  0.46999998093E+01 0.  1.
</event>
<event>
 5   0  0.1963852E-07  0.3404428E+04  0.7818609E-02  0.8136820E-01
        2   -1    0    0  501    0  0.00000000000E+00  0.00000000000E+00  0.27978972222E+04  0.27978972222E+04  0.25500000920E-02 0.  1.
       -2   -1    0    0    0  501  0.00000000000E+00  0.00000000000E+00 -0.10356108071E+04  0.10356108071E+04  0.25500000920E-02 0. -1.
    10030    2    1    2    0    0  0.00000000000E+00  0.00000000000E+00  0.17622864151E+04  0.38335080293E+04  0.34044280580E+04 0.  0.
        4    1    3    3  502    0  0.12562793276E+04  0.10525489740E+04  0.13989163538E+04  0.21547774060E+04  0.12699999809E+01 0.  1.
       -4    1    3    3    0  502 -0.12562793276E+04 -0.10525489740E+04  0.36337006131E+03  0.16787306234E+04  0.12699999809E+01 0. -1.
</event>
<event>
 5   0  0.6367111E-08  0.3402759E+04  0.7818609E-02  0.8137229E-01
        1   -1    0    0  501    0  0.00000000000E+00  0.00000000000E+00  0.21782742754E+04  0.21782742754E+04  0.50400001928E-02 0. -1.
       -1   -1    0    0    0  501  0.00000000000E+00  0.00000000000E+00 -0.13288928092E+04  0.13288928092E+04  0.50400001928E-02 0.  1.
    10030    2    1    2    0    0  0.00000000000E+00  0.00000000000E+00  0.84938146615E+03  0.35071670846E+04  0.34027594808E+04 0.  0.
        3    1    3    3  502    0 -0.16711264174E+04 -0.17088144415E+03  0.70283972895E+03  0.18209469146E+04  0.10100000352E+00 0. -1.
       -3    1    3    3    0  502  0.16711264174E+04  0.17088144415E+03  0.14654173720E+03  0.16862201700E+04  0.10100000352E+00 0.  1.
</event>
<event>
 5   0  0.6367111E-08  0.3407504E+04  0.7818609E-02  0.8136067E-01
       -1   -1    0    0    0  501  0.00000000000E+00  0.00000000000E+00  0.14802057796E+04  0.14802057796E+04  0.50400001928E-02 0.  1.
        1   -1    0    0  501    0  0.00000000000E+00  0.00000000000E+00 -0.19610587842E+04  0.19610587842E+04  0.50400001928E-02 0. -1.
    10030    2    1    2    0    0  0.00000000000E+00  0.00000000000E+00 -0.48085300456E+03  0.34412645638E+04  0.34075038057E+04 0.  0.
        3    1    3    3  502    0 -0.11942947294E+04 -0.11865582359E+04 -0.50476431614E+03  0.17575685969E+04  0.10100000352E+00 0. -1.
       -3    1    3    3    0  502  0.11942947294E+04  0.11865582359E+04  0.23911311577E+02  0.16836959669E+04  0.10100000352E+00 0.  1.
</event>
<event>
 5   0  0.1897313E-07  0.3403947E+04  0.7818609E-02  0.8136938E-01
        2   -1    0    0  501    0  0.00000000000E+00  0.00000000000E+00  0.21602757461E+04  0.21602757461E+04  0.25500000920E-02 0.  1.
       -2   -1    0    0    0  501  0.00000000000E+00  0.00000000000E+00 -0.13408996804E+04  0.13408996804E+04  0.25500000920E-02 0. -1.
    10030    2    1    2    0    0  0.00000000000E+00  0.00000000000E+00  0.81937606572E+03  0.35011754265E+04  0.34039465669E+04 0.  0.
        3    1    3    3  502    0  0.98136741376E+03  0.23725985886E+03  0.18189848341E+04  0.20804038258E+04  0.10100000352E+00 0.  1.
       -3    1    3    3    0  502 -0.98136741376E+03 -0.23725985886E+03 -0.99960876840E+03  0.14207716007E+04  0.10100000352E+00 0. -1.
</event>
<event>
 5   0  0.1963852E-07  0.3410223E+04  0.7818609E-02  0.8135402E-01
       -2   -1    0    0    0  501  0.00000000000E+00  0.00000000000E+00  0.10095093137E+04  0.10095093137E+04  0.25500000920E-02 0. -1.
        2   -1    0    0  501    0  0.00000000000E+00  0.00000000000E+00 -0.28800179890E+04  0.28800179890E+04  0.25500000920E-02 0.  1.
    10030    2    1    2    0    0  0.00000000000E+00  0.00000000000E+00 -0.18705086753E+04  0.38895273027E+04  0.34102228569E+04 0.  0.
        4    1    3    3  502    0 -0.15607921836E+04 -0.68027112396E+03 -0.82971606206E+03  0.18940093450E+04  0.12699999809E+01 0. -1.
       -4    1    3    3    0  502  0.15607921836E+04  0.68027112396E+03 -0.10407926133E+04  0.19955179576E+04  0.12699999809E+01 0.  1.
</event>
<event>
 5   0  0.6788600E-08  0.3404581E+04  0.7818609E-02  0.8136783E-01
       -1   -1    0    0    0  501  0.00000000000E+00  0.00000000000E+00  0.11582000531E+04  0.11582000531E+04  0.50400001928E-02 0.  1.
        1   -1    0    0  501    0  0.00000000000E+00  0.00000000000E+00 -0.25019798969E+04  0.25019798969E+04  0.50400001928E-02 0. -1.
    10030    2    1    2    0    0  0.00000000000E+00  0.00000000000E+00 -0.13437798438E+04  0.36601799499E+04  0.34045811780E+04 0.  0.
        2    1    3    3  502    0 -0.11108308763E+04 -0.11212510652E+04  0.13670853838E+02  0.15783966799E+04  0.25500000920E-02 0.  1.
       -2    1    3    3    0  502  0.11108308763E+04  0.11212510652E+04 -0.13574506976E+04  0.20817832700E+04  0.25500000920E-02 0. -1.
</event>
<event>
 5   0  0.6584420E-08  0.3397731E+04  0.7818609E-02  0.8138463E-01
       -1   -1    0    0    0  501  0.00000000000E+00  0.00000000000E+00  0.22746978581E+04  0.22746978582E+04  0.50400001928E-02 0. -1.
        1   -1    0    0  501    0  0.00000000000E+00  0.00000000000E+00 -0.12688030115E+04  0.12688030115E+04  0.50400001928E-02 0.  1.
    10030    2    1    2    0    0  0.00000000000E+00  0.00000000000E+00  0.10058948467E+04  0.35435008696E+04  0.33977307089E+04 0.  0.
        1    1    3    3  502    0 -0.86083241035E+03 -0.12581266137E+04 -0.27904043159E+03  0.15497672655E+04  0.50400001928E-02 0. -1.
       -1    1    3    3    0  502  0.86083241035E+03  0.12581266137E+04  0.12849352783E+04  0.19937336041E+04  0.50400001928E-02 0.  1.
</event>
<event>
 5   0  0.6788600E-08  0.3382817E+04  0.7818609E-02  0.8142137E-01
        1   -1    0    0  501    0  0.00000000000E+00  0.00000000000E+00  0.16306846833E+04  0.16306846833E+04  0.50400001928E-02 0.  1.
       -1   -1    0    0    0  501  0.00000000000E+00  0.00000000000E+00 -0.17543930619E+04  0.17543930619E+04  0.50400001928E-02 0. -1.
    10030    2    1    2    0    0  0.00000000000E+00  0.00000000000E+00 -0.12370837860E+03  0.33850777452E+04  0.33828165156E+04 0.  0.
        2    1    3    3  502    0  0.15313711556E+04  0.51231020205E+03  0.44177393385E+03  0.16741336769E+04  0.25500000920E-02 0.  1.
       -2    1    3    3    0  502 -0.15313711556E+04 -0.51231020205E+03 -0.56548231244E+03  0.17109440684E+04  0.25500000920E-02 0. -1.
</event>
<event>
 5   0  0.1963852E-07  0.3401220E+04  0.7818609E-02  0.8137607E-01
       -2   -1    0    0    0  501  0.00000000000E+00  0.00000000000E+00  0.17200368073E+04  0.17200368073E+04  0.25500000920E-02 0.  1.
        2   -1    0    0  501    0  0.00000000000E+00  0.00000000000E+00 -0.16814030991E+04  0.16814030991E+04  0.25500000920E-02 0. -1.
    10030    2    1    2    0    0  0.00000000000E+00  0.00000000000E+00  0.38633708245E+02  0.34014399064E+04  0.34012204977E+04 0.  0.
        4    1    3    3  502    0  0.84440885615E+03 -0.18601414285E+01  0.14955705496E+04  0.17174873094E+04  0.12699999809E+01 0.  1.
       -4    1    3    3    0  502 -0.84440885615E+03  0.18601414285E+01 -0.14569368413E+04  0.16839525970E+04  0.12699999809E+01 0. -1.
</event>
<event>
 5   0  0.1963852E-07  0.3393294E+04  0.7818609E-02  0.8139554E-01
        2   -1    0    0  501    0  0.00000000000E+00  0.00000000000E+00  0.16595729764E+04  0.16595729764E+04  0.25500000920E-02 0.  1.
       -2   -1    0    0    0  501  0.00000000000E+00  0.00000000000E+00 -0.17345494892E+04  0.17345494892E+04  0.25500000920E-02 0. -1.
    10030    2    1    2    0    0  0.00000000000E+00  0.00000000000E+00 -0.74976512771E+02  0.33941224656E+04  0.33932942451E+04 0.  0.
        4    1    3    3  502    0 -0.68765241496E+03 -0.15192615843E+04  0.27497915621E+03  0.16901587957E+04  0.12699999809E+01 0. -1.
       -4    1    3    3    0  502  0.68765241496E+03  0.15192615843E+04 -0.34995566898E+03  0.17039636699E+04  0.12699999809E+01 0.  1.
</event>
<event>
 5   0  0.1986613E-07  0.3403021E+04  0.7818609E-02  0.8137165E-01
       -2   -1    0    0    0  501  0.00000000000E+00  0.00000000000E+00  0.13572561605E+04  0.13572561605E+04  0.25500000920E-02 0. -1.
        2   -1    0    0  501    0  0.00000000000E+00  0.00000000000E+00 -0.21330819375E+04  0.21330819375E+04  0.25500000920E-02 0.  1.
    10030    2    1    2    0    0  0.00000000000E+00  0.00000000000E+00 -0.77582577700E+03  0.34903380980E+04  0.34030213637E+04 0.  0.
        5    1    3    3  502    0  0.14095858443E+04 -0.60338131201E+03  0.36865563938E+03  0.15770004219E+04  0.46999998093E+01 0. -1.
       -5    1    3    3    0  502 -0.14095858443E+04  0.60338131201E+03 -0.11444814164E+04  0.19133376761E+04  0.46999998093E+01 0.  1.
</event>
<event>
 5   0  0.6367111E-08  0.3395093E+04  0.7818609E-02  0.8139112E-01
       -1   -1    0    0    0  501  0.00000000000E+00  0.00000000000E+00  0.12486221564E+04  0.12486221564E+04  0.50400001928E-02 0.  1.
        1   -1    0    0  501    0  0.00000000000E+00  0.00000000000E+00 -0.23078749816E+04  0.23078749816E+04  0.50400001928E-02 0. -1.
    10030    2    1    2    0    0  0.00000000000E+00  0.00000000000E+00 -0.10592528252E+04  0.35564971380E+04  0.33950928330E+04 0.  0.
        3    1    3    3  502    0 -0.12374388133E+04  0.10993045286E+04 -0.13496832095E+03  0.16607051879E+04  0.10100000352E+00 0.  1.
       -3    1    3    3    0  502  0.12374388133E+04 -0.10993045286E+04 -0.92428450427E+03  0.18957919501E+04  0.10100000352E+00 0. -1.
</event>
<event>
 5   0  0.6788600E-08  0.3412342E+04  0.7818609E-02  0.8134884E-01
        1   -1    0    0  501    0  0.00000000000E+00  0.00000000000E+00  0.98459327613E+03  0.98459327614E+03  0.50400001928E-02 0. -1.
       -1   -1    0    0    0  501  0.00000000000E+00  0.00000000000E+00 -0.29565713533E+04  0.29565713533E+04  0.50400001928E-02 0.  1.
    10030    2    1    2    0    0  0.00000000000E+00  0.00000000000E+00 -0.19719780772E+04  0.39411646295E+04  0.34123424652E+04 0.  0.
        2    1    3    3  502    0 -0.30468626634E+03 -0.58654405171E+02  0.95173348576E+03  0.10010348086E+04  0.25500000920E-02 0. -1.
       -2    1    3    3    0  502  0.30468626634E+03  0.58654405171E+02 -0.29237115630E+04  0.29401298209E+04  0.25500000920E-02 0.  1.
</event>
<event>
 5   0  0.1970449E-07  0.3402260E+04  0.7818609E-02  0.8137352E-01
        2   -1    0    0  501    0  0.00000000000E+00  0.00000000000E+00  0.28381505777E+04  0.28381505777E+04  0.25500000920E-02 0.  1.
       -2   -1    0    0    0  501  0.00000000000E+00  0.00000000000E+00 -0.10196226734E+04  0.10196226734E+04  0.25500000920E-02 0. -1.
    10030    2    1    2    0    0  0.00000000000E+00  0.00000000000E+00  0.18185279043E+04  0.38577732512E+04  0.34022596489E+04 0.  0.
        1    1    3    3  502    0  0.10360983334E+04 -0.53152449146E+03 -0.49685690553E+03  0.12660508781E+04  0.50400001928E-02 0. -1.
       -1    1    3    3    0  502 -0.10360983334E+04  0.53152449146E+03  0.23153848098E+04  0.25917223730E+04  0.50400001928E-02 0.  1.
</event>
<event>
 5   0  0.6311750E-08  0.3401604E+04  0.7818609E-02  0.8137513E-01
        1   -1    0    0  501    0  0.00000000000E+00  0.00000000000E+00  0.14589111709E+04  0.14589111709E+04  0.50400001928E-02 0. -1.
       -1   -1    0    0    0  501  0.00000000000E+00  0.00000000000E+00 -0.19827988150E+04  0.19827988150E+04  0.50400001928E-02 0.  1.
    10030    2    1    2    0    0  0.00000000000E+00  0.00000000000E+00 -0.52388764412E+03  0.34417099860E+04  0.34016039399E+04 0.  0.
        4    1    3    3  502    0  0.42459689046E+03  0.16248945168E+04 -0.53373906539E+03  0.17622269186E+04  0.12699999809E+01 0. -1.
       -4    1    3    3    0  502 -0.42459689046E+03 -0.16248945168E+04  0.98514212716E+01  0.16794830673E+04  0.12699999809E+01 0.  1.
</event>
<event>
 5   0  0.1963852E-07  0.3405299E+04  0.7818609E-02  0.8136607E-01
       -2   -1    0    0    0  501  0.00000000000E+00  0.00000000000E+00  0.15296032561E+04  0.15296032561E+04  0.25500000920E-02 0. -1.
        2   -1    0    0  501    0  0.00000000000E+00  0.00000000000E+00 -0.18952730418E+04  0.18952730418E+04  0.25500000920E-02 0.  1.
    10030    2    1    2    0    0  0.00000000000E+00  0.00000000000E+00 -0.36566978574E+03  0.34248762979E+04  0.34052992914E+04 0.  0.
        4    1    3    3  502    0  0.10897498138E+03  0.24336182640E+03 -0.18741427880E+04  0.18930169909E+04  0.12699999809E+01 0.  1.
       -4    1    3    3    0  502 -0.10897498138E+03 -0.24336182640E+03  0.15084730023E+04  0.15318593070E+04  0.12699999809E+01 0. -1.
</event>
<event>
 5   0  0.1928004E-07  0.3359838E+04  0.7818609E-02  0.8147834E-01
       -2   -1    0    0    0  501  0.00000000000E+00  0.00000000000E+00  0.11403360372E+04  0.11403360372E+04  0.25500000920E-02 0.  1.
        2   -1    0    0  501    0  0.00000000000E+00  0.00000000000E+00 -0.24748206088E+04  0.24748206088E+04  0.25500000920E-02 0. -1.
    10030    2    1    2    0    0  0.00000000000E+00  0.00000000000E+00 -0.13344845716E+04  0.36151566460E+04  0.33598375710E+04 0.  0.
        2    1    3    3  502    0  0.42657056267E+03  0.55053123852E+03  0.97768093244E+03  0.12003778968E+04  0.25500000920E-02 0.  1.
       -2    1    3    3    0  502 -0.42657056267E+03 -0.55053123852E+03 -0.23121655040E+04  0.24147787492E+04  0.25500000920E-02 0. -1.
</event>
<event>
 5   0  0.6311750E-08  0.3396300E+04  0.7818609E-02  0.8138815E-01
       -1   -1    0    0    0  501  0.00000000000E+00  0.00000000000E+00  0.25494377930E+04  0.25494377930E+04  0.50400001928E-02 0. -1.
        1   -1    0    0  501    0  0.00000000000E+00  0.00000000000E+00 -0.11311177131E+04  0.11311177132E+04  0.50400001928E-02 0.  1.
    10030    2    1    2    0    0  0.00000000000E+00  0.00000000000E+00  0.14183200799E+04  0.36805555062E+04  0.33963004851E+04 0.  0.
        4    1    3    3  502    0  0.99953309882E+02  0.15116703794E+04 -0.12223615942E+03  0.15198951582E+04  0.12699999809E+01 0.  1.
       -4    1    3    3    0  502 -0.99953309882E+02 -0.15116703794E+04  0.15405562393E+04  0.21606603480E+04  0.12699999809E+01 0. -1.
</event>
<event>
 5   0  0.1963852E-07  0.3397538E+04  0.7818609E-02  0.8138511E-01
       -2   -1    0    0    0  501  0.00000000000E+00  0.00000000000E+00  0.20137636831E+04  0.20137636831E+04  0.25500000920E-02 0. -1.
        2   -1    0    0  501    0  0.00000000000E+00  0.00000000000E+00 -0.14330457662E+04  0.14330457662E+04  0.25500000920E-02 0.  1.
    10030    2    1    2    0    0  0.00000000000E+00  0.00000000000E+00  0.58071791682E+03  0.34468094493E+04  0.33975376497E+04 0.  0.
        4    1    3    3  502    0  0.59297849363E+03  0.10173480299E+04  0.15325312217E+04  0.19326857133E+04  0.12699999809E+01 0. -1.
       -4    1    3    3    0  502 -0.59297849363E+03 -0.10173480299E+04 -0.95181330490E+03  0.15141237360E+04  0.12699999809E+01 0.  1.
</event>
<event>
 5   0  0.6367111E-08  0.3389199E+04  0.7818609E-02  0.8140562E-01
       -1   -1    0    0    0  501  0.00000000000E+00  0.00000000000E+00  0.17874092329E+04  0.17874092329E+04  0.50400001928E-02 0. -1.
        1   -1    0    0  501    0  0.00000000000E+00  0.00000000000E+00 -0.16066087294E+04  0.16066087294E+04  0.50400001928E-02 0.  1.
    10030    2    1    2    0    0  0.00000000000E+00  0.00000000000E+00  0.18080050346E+03  0.33940179623E+04  0.33891988886E+04 0.  0.
        3    1    3    3  502    0 -0.15066455067E+04  0.39629212626E+03 -0.57736055155E+03  0.16614371336E+04  0.10100000352E+00 0.  1.
       -3    1    3    3    0  502  0.15066455067E+04 -0.39629212626E+03  0.75816105501E+03  0.17325808287E+04  0.10100000352E+00 0. -1.
</event>
<event>
 5   0  0.1986613E-07  0.3405562E+04  0.7818609E-02  0.8136543E-01
        2   -1    0    0  501    0  0.00000000000E+00  0.00000000000E+00  0.13934767495E+04  0.13934767495E+04  0.25500000920E-02 0.  1.
       -2   -1    0    0    0  501  0.00000000000E+00  0.00000000000E+00 -0.20807404531E+04  0.20807404531E+04  0.25500000920E-02 0. -1.
    10030    2    1    2    0    0  0.00000000000E+00  0.00000000000E+00 -0.68726370364E+03  0.34742172026E+04  0.34055621816E+04 0.  0.
        5    1    3    3  502    0 -0.10836757837E+04 -0.68756965438E+03 -0.14852703491E+04  0.19629455758E+04  0.46999998093E+01 0. -1.
       -5    1    3    3    0  502  0.10836757837E+04  0.68756965438E+03  0.79800664542E+03  0.15112716268E+04  0.46999998093E+01 0.  1.
</event>
<event>
 5   0  0.1986613E-07  0.3387069E+04  0.7818609E-02  0.8141087E-01
        2   -1    0    0  501    0  0.00000000000E+00  0.00000000000E+00  0.20443408934E+04  0.20443408934E+04  0.25500000920E-02 0. -1.
       -2   -1    0    0    0  501  0.00000000000E+00  0.00000000000E+00 -0.14029261413E+04  0.14029261413E+04  0.25500000920E-02 0.  1.
    10030    2    1    2    0    0  0.00000000000E+00  0.00000000000E+00  0.64141475215E+03  0.34472670347E+04  0.33870691054E+04 0.  0.
        5    1    3    3  502    0  0.16824236319E+04  0.27288794706E+02  0.51579942368E+03  0.17599332632E+04  0.46999998093E+01 0.  1.
       -5    1    3    3    0  502 -0.16824236319E+04 -0.27288794706E+02  0.12561532847E+03  0.16873337715E+04  0.46999998093E+01 0. -1.
</event>
<event>
 5   0  0.1970449E-07  0.3396315E+04  0.7818609E-02  0.8138811E-01
       -2   -1    0    0    0  501  0.00000000000E+00  0.00000000000E+00  0.21195838945E+04  0.21195838945E+04  0.25500000920E-02 0. -1.
        2   -1    0    0  501    0  0.00000000000E+00  0.00000000000E+00 -0.13605211452E+04  0.13605211452E+04  0.25500000920E-02 0.  1.
    10030    2    1    2    0    0  0.00000000000E+00  0.00000000000E+00  0.75906274932E+03  0.34801050397E+04  0.33963148897E+04 0.  0.
        1    1    3    3  502    0 -0.16727148838E+04 -0.18841036613E+02  0.67898895231E+03  0.18053686783E+04  0.50400001928E-02 0.  1.
       -1    1    3    3    0  502  0.16727148838E+04  0.18841036613E+02  0.80073797006E+02  0.16747363614E+04  0.50400001928E-02 0. -1.
</event>
<event>
 5   0  0.6311750E-08  0.3399475E+04  0.7818609E-02  0.8138035E-01
       -1   -1    0    0    0  501  0.00000000000E+00  0.00000000000E+00  0.20162607310E+04  0.20162607310E+04  0.50400001928E-02 0. -1.
        1   -1    0    0  501    0  0.00000000000E+00  0.00000000000E+00 -0.14329039654E+04  0.14329039654E+04  0.50400001928E-02 0.  1.
    10030    2    1    2    0    0  0.00000000000E+00  0.00000000000E+00  0.58335676556E+03  0.34491646964E+04  0.33994752517E+04 0.  0.
        4    1    3    3  502    0  0.77861980875E+02  0.44415136547E+03  0.19544658307E+04  0.20058093677E+04  0.12699999809E+01 0. -1.
       -4    1    3    3    0  502 -0.77861980875E+02 -0.44415136547E+03 -0.13711090651E+04  0.14433553287E+04  0.12699999809E+01 0.  1.
</event>
<event>
 5   0  0.6367111E-08  0.3392583E+04  0.7818609E-02  0.8139729E-01
       -1   -1    0    0    0  501  0.00000000000E+00  0.00000000000E+00  0.93191113111E+03  0.93191113112E+03  0.50400001928E-02 0.  1.
        1   -1    0    0  501    0  0.00000000000E+00  0.00000000000E+00 -0.30876387078E+04  0.30876387078E+04  0.50400001928E-02 0. -1.
    10030    2    1    2    0    0  0.00000000000E+00  0.00000000000E+00 -0.21557275767E+04  0.40195498389E+04  0.33925830163E+04 0.  0.
        3    1    3    3  502    0 -0.14659160105E+03  0.10132519422E+04 -0.26803040081E+04  0.28691807510E+04  0.10100000352E+00 0. -1.
       -3    1    3    3    0  502  0.14659160105E+03 -0.10132519422E+04  0.52457643138E+03  0.11503690879E+04  0.10100000352E+00 0.  1.
</event>
<event>
 5   0  0.6367111E-08  0.3395559E+04  0.7818609E-02  0.8138997E-01
        1   -1    0    0  501    0  0.00000000000E+00  0.00000000000E+00  0.97004438479E+03  0.97004438480E+03  0.50400001928E-02 0.  1.
       -1   -1    0    0    0  501  0.00000000000E+00  0.00000000000E+00 -0.29714667280E+04  0.29714667280E+04  0.50400001928E-02 0. -1.
    10030    2    1    2    0    0  0.00000000000E+00  0.00000000000E+00 -0.20014223432E+04  0.39415111128E+04  0.33955586369E+04 0.  0.
        3    1    3    3  502    0 -0.87582025113E+03 -0.13535275134E+04 -0.38281100617E+03  0.16569979235E+04  0.10100000352E+00 0.  1.
       -3    1    3    3    0  502  0.87582025113E+03  0.13535275134E+04 -0.16186113371E+04  0.22845131894E+04  0.10100000352E+00 0. -1.
</event>
<event>
 5   0  0.1963852E-07  0.3399954E+04  0.7818609E-02  0.8137918E-01
        2   -1    0    0  501    0  0.00000000000E+00  0.00000000000E+00  0.24098595175E+04  0.24098595175E+04  0.25500000920E-02 0. -1.
       -2   -1    0    0    0  501  0.00000000000E+00  0.00000000000E+00 -0.11992076882E+04  0.11992076882E+04  0.25500000920E-02 0.  1.
    10030    2    1    2    0    0  0.00000000000E+00  0.00000000000E+00  0.12106518293E+04  0.36090672057E+04  0.33999541531E+04 0.  0.
        4    1    3    3  502    0  0.14153864196E+04  0.14852108522E+03  0.15923216195E+04  0.21356186416E+04  0.12699999809E+01 0. -1.
       -4    1    3    3    0  502 -0.14153864196E+04 -0.14852108522E+03 -0.38166979019E+03  0.14734485641E+04  0.12699999809E+01 0.  1.
</event>
<event>
 5   0  0.6341535E-08  0.3401797E+04  0.7818609E-02  0.8137466E-01
       -1   -1    0    0    0  501  0.00000000000E+00  0.00000000000E+00  0.12032891387E+04  0.12032891387E+04  0.50400001928E-02 0.  1.
        1   -1    0    0  501    0  0.00000000000E+00  0.00000000000E+00 -0.24042891403E+04  0.24042891403E+04  0.50400001928E-02 0. -1.
    10030    2    1    2    0    0  0.00000000000E+00  0.00000000000E+00 -0.12010000016E+04  0.36075782789E+04  0.34017965893E+04 0.  0.
        5    1    3    3  502    0 -0.99545748857E+02 -0.88172525019E+03 -0.21393774504E+04  0.23160973076E+04  0.46999998093E+01 0. -1.
       -5    1    3    3    0  502  0.99545748857E+02  0.88172525019E+03  0.93837744881E+03  0.12914809714E+04  0.46999998093E+01 0.  1.
</event>
<event>
 5   0  0.6311750E-08  0.3400784E+04  0.7818609E-02  0.8137714E-01
       -1   -1    0    0    0  501  0.00000000000E+00  0.00000000000E+00  0.11998396996E+04  0.11998396996E+04  0.50400001928E-02 0.  1.
        1   -1    0    0  501    0  0.00000000000E+00  0.00000000000E+00 -0.24097664913E+04  0.24097664913E+04  0.50400001928E-02 0. -1.
    10030    2    1    2    0    0  0.00000000000E+00  0.00000000000E+00 -0.12099267918E+04  0.36096061909E+04  0.34007843231E+04 0.  0.
        4    1    3    3  502    0  0.74912654389E+03 -0.14542760105E+04 -0.11255588800E+03  0.16397499000E+04  0.12699999809E+01 0.  1.
       -4    1    3    3    0  502 -0.74912654389E+03  0.14542760105E+04 -0.10973709038E+04  0.19698562909E+04  0.12699999809E+01 0. -1.
</event>
<event>
 5   0  0.6788600E-08  0.3389395E+04  0.7818609E-02  0.8140514E-01
        1   -1    0    0  501    0  0.00000000000E+00  0.00000000000E+00  0.22425680866E+04  0.22425680866E+04  0.50400001928E-02 0. -1.
       -1   -1    0    0    0  501  0.00000000000E+00  0.00000000000E+00 -0.12806745077E+04  0.12806745077E+04  0.50400001928E-02 0.  1.
    10030    2    1    2    0    0  0.00000000000E+00  0.00000000000E+00  0.96189357898E+03  0.35232425943E+04  0.33893950966E+04 0.  0.
        2    1    3    3  502    0  0.13186073861E+04  0.82210627430E+03 -0.22208642604E+03  0.15696835813E+04  0.25500000920E-02 0.  1.
       -2    1    3    3    0  502 -0.13186073861E+04 -0.82210627430E+03  0.11839800050E+04  0.19535590130E+04  0.25500000920E-02 0. -1.
</event>
<event>
 5   0  0.1897313E-07  0.3403665E+04  0.7818609E-02  0.8137007E-01
        2   -1    0    0  501    0  0.00000000000E+00  0.00000000000E+00  0.22278556547E+04  0.22278556547E+04  0.25500000920E-02 0. -1.
       -2   -1    0    0    0  501  0.00000000000E+00  0.00000000000E+00 -0.13000097769E+04  0.13000097769E+04  0.25500000920E-02 0.  1.
    10030    2    1    2    0    0  0.00000000000E+00  0.00000000000E+00  0.92784587784E+03  0.35278654316E+04  0.34036651613E+04 0.  0.
        3    1    3    3  502    0 -0.91057167970E+03 -0.14296017063E+04  0.30559995860E+03  0.17222929969E+04  0.10100000352E+00 0. -1.
       -3    1    3    3    0  502  0.91057167970E+03  0.14296017063E+04  0.62224591924E+03  0.18055724346E+04  0.10100000352E+00 0.  1.
</event>
<event>
 5   0  0.1963852E-07  0.3399665E+04  0.7818609E-02  0.8137988E-01
        2   -1    0    0  501    0  0.00000000000E+00  0.00000000000E+00  0.10453457182E+04  0.10453457182E+04  0.25500000920E-02 0. -1.
       -2   -1    0    0    0  501  0.00000000000E+00  0.00000000000E+00 -0.27640912066E+04  0.27640912066E+04  0.25500000920E-02 0.  1.
    10030    2    1    2    0    0  0.00000000000E+00  0.00000000000E+00 -0.17187454884E+04  0.38094369248E+04  0.33996652232E+04 0.  0.
        4    1    3    3  502    0 -0.12891622163E+04  0.24498950346E+02  0.38178627014E+03  0.13447311208E+04  0.12699999809E+01 0. -1.
       -4    1    3    3    0  502  0.12891622163E+04 -0.24498950346E+02 -0.21005317586E+04  0.24647058040E+04  0.12699999809E+01 0.  1.
</event>
<event>
 5   0  0.1970449E-07  0.3393987E+04  0.7818609E-02  0.8139384E-01
        2   -1    0    0  501    0  0.00000000000E+00  0.00000000000E+00  0.19183972575E+04  0.19183972575E+04  0.25500000920E-02 0. -1.
       -2   -1    0    0    0  501  0.00000000000E+00  0.00000000000E+00 -0.15011424250E+04  0.15011424250E+04  0.25500000920E-02 0.  1.
    10030    2    1    2    0    0  0.00000000000E+00  0.00000000000E+00  0.41725483253E+03  0.34195396825E+04  0.33939873371E+04 0.  0.
        1    1    3    3  502    0  0.18142871688E+03  0.15735465035E+04 -0.40490920225E+03  0.16349056365E+04  0.50400001928E-02 0.  1.
       -1    1    3    3    0  502 -0.18142871688E+03 -0.15735465035E+04  0.82216403478E+03  0.17846340460E+04  0.50400001928E-02 0. -1.
</event>
<event>
 5   0  0.1897313E-07  0.3396092E+04  0.7818609E-02  0.8138866E-01
       -2   -1    0    0    0  501  0.00000000000E+00  0.00000000000E+00  0.11303108658E+04  0.11303108658E+04  0.25500000920E-02 0.  1.
        2   -1    0    0  501    0  0.00000000000E+00  0.00000000000E+00 -0.25509444502E+04  0.25509444502E+04  0.25500000920E-02 0. -1.
    10030    2    1    2    0    0  0.00000000000E+00  0.00000000000E+00 -0.14206335844E+04  0.36812553160E+04  0.33960920071E+04 0.  0.
        3    1    3    3  502    0 -0.16598235510E+04  0.35475784737E+03 -0.65619573992E+03  0.18197417976E+04  0.10100000352E+00 0.  1.
       -3    1    3    3    0  502  0.16598235510E+04 -0.35475784737E+03 -0.76443784443E+03  0.18615135184E+04  0.10100000352E+00 0. -1.
</event>
<event>
 5   0  0.6341535E-08  0.3412724E+04  0.7818609E-02  0.8134790E-01
        1   -1    0    0  501    0  0.00000000000E+00  0.00000000000E+00  0.18086411741E+04  0.18086411742E+04  0.50400001928E-02 0.  1.
       -1   -1    0    0    0  501  0.00000000000E+00  0.00000000000E+00 -0.16098670864E+04  0.16098670864E+04  0.50400001928E-02 0. -1.
    10030    2    1    2    0    0  0.00000000000E+00  0.00000000000E+00  0.19877408772E+03  0.34185082606E+04  0.34127243647E+04 0.  0.
        5    1    3    3  502    0  0.54009271713E+02  0.15113680252E+04  0.89097917344E+03  0.17552823951E+04  0.46999998093E+01 0.  1.
       -5    1    3    3    0  502 -0.54009271713E+02 -0.15113680252E+04 -0.69220508571E+03  0.16632258655E+04  0.46999998093E+01 0. -1.
</event>
<event>
 5   0  0.6311750E-08  0.3401556E+04  0.7818609E-02  0.8137525E-01
       -1   -1    0    0    0  501  0.00000000000E+00  0.00000000000E+00  0.17966296697E+04  0.17966296697E+04  0.50400001928E-02 0. -1.
        1   -1    0    0  501    0  0.00000000000E+00  0.00000000000E+00 -0.16100397097E+04  0.16100397097E+04  0.50400001928E-02 0.  1.
    10030    2    1    2    0    0  0.00000000000E+00  0.00000000000E+00  0.18658995993E+03  0.34066693794E+04  0.34015555923E+04 0.  0.
        4    1    3    3  502    0  0.60245420896E+03  0.12821055293E+04 -0.84934148153E+03  0.16517046429E+04  0.12699999809E+01 0. -1.
       -4    1    3    3    0  502 -0.60245420896E+03 -0.12821055293E+04  0.10359314415E+04  0.17549647365E+04  0.12699999809E+01 0.  1.
</event>
<event>
 5   0  0.6341535E-08  0.3397036E+04  0.7818609E-02  0.8138634E-01
        1   -1    0    0  501    0  0.00000000000E+00  0.00000000000E+00  0.24260710784E+04  0.24260710784E+04  0.50400001928E-02 0.  1.
       -1   -1    0    0    0  501  0.00000000000E+00  0.00000000000E+00 -0.11891501662E+04  0.11891501662E+04  0.50400001928E-02 0. -1.
    10030    2    1    2    0    0  0.00000000000E+00  0.00000000000E+00  0.12369209123E+04  0.36152212446E+04  0.33970356643E+04 0.  0.
        5    1    3    3  502    0  0.84748019703E+03  0.41185278516E+03 -0.88549222633E+03  0.12930444594E+04  0.46999998093E+01 0. -1.
       -5    1    3    3    0  502 -0.84748019703E+03 -0.41185278516E+03  0.21224131386E+04  0.23221767852E+04  0.46999998093E+01 0.  1.
</event>
<event>
 5   0  0.6584420E-08  0.3401016E+04  0.7818609E-02  0.8137657E-01
       -1   -1    0    0    0  501  0.00000000000E+00  0.00000000000E+00  0.15394252170E+04  0.15394252170E+04  0.50400001928E-02 0. -1.
        1   -1    0    0  501    0  0.00000000000E+00  0.00000000000E+00 -0.18784456853E+04  0.18784456853E+04  0.50400001928E-02 0.  1.
    10030    2    1    2    0    0  0.00000000000E+00  0.00000000000E+00 -0.33902046831E+03  0.34178709022E+04  0.34010155287E+04 0.  0.
        1    1    3    3  502    0 -0.57227770738E+03  0.32623185431E+03  0.14059959168E+04  0.15526601416E+04  0.50400001928E-02 0. -1.
       -1    1    3    3    0  502  0.57227770738E+03 -0.32623185431E+03 -0.17450163852E+04  0.18652107606E+04  0.50400001928E-02 0.  1.
</event>
<event>
 5   0  0.1963852E-07  0.3399384E+04  0.7818609E-02  0.8138058E-01
       -2   -1    0    0    0  501  0.00000000000E+00  0.00000000000E+00  0.12791969590E+04  0.12791969590E+04  0.25500000920E-02 0.  1.
        2   -1    0    0  501    0  0.00000000000E+00  0.00000000000E+00 -0.22584112681E+04  0.22584112681E+04  0.25500000920E-02 0. -1.
    10030    2    1    2    0    0  0.00000000000E+00  0.00000000000E+00 -0.97921430909E+03  0.35376082271E+04  0.33993839597E+04 0.  0.
        4    1    3    3  502    0  0.15137983575E+04 -0.11175388406E+03 -0.12854763907E+04  0.19891016972E+04  0.12699999809E+01 0. -1.
       -4    1    3    3    0  502 -0.15137983575E+04  0.11175388406E+03  0.30626208164E+03  0.15485065300E+04  0.12699999809E+01 0.  1.
</event>
<event>
 5   0  0.1970449E-07  0.3396500E+04  0.7818609E-02  0.8138766E-01
       -2   -1    0    0    0  501  0.00000000000E+00  0.00000000000E+00  0.17701464774E+04  0.17701464774E+04  0.25500000920E-02 0.  1.
        2   -1    0    0  501    0  0.00000000000E+00  0.00000000000E+00 -0.16292738729E+04  0.16292738729E+04  0.25500000920E-02 0. -1.
    10030    2    1    2    0    0  0.00000000000E+00  0.00000000000E+00  0.14087260450E+03  0.33994203502E+04  0.33965002027E+04 0.  0.
        1    1    3    3  502    0  0.28414786571E+03  0.13619925797E+04  0.10450751576E+04  0.17400993885E+04  0.50400001928E-02 0.  1.
       -1    1    3    3    0  502 -0.28414786571E+03 -0.13619925797E+04 -0.90420255312E+03  0.16593209617E+04  0.50400001928E-02 0. -1.
</event>
<event>
 5   0  0.1928004E-07  0.3406530E+04  0.7818609E-02  0.8136305E-01
        2   -1    0    0  501    0  0.00000000000E+00  0.00000000000E+00  0.19284777988E+04  0.19284777988E+04  0.25500000920E-02 0.  1.
       -2   -1    0    0    0  501  0.00000000000E+00  0.00000000000E+00 -0.15043532670E+04  0.15043532670E+04  0.25500000920E-02 0. -1.
    10030    2    1    2    0    0  0.00000000000E+00  0.00000000000E+00  0.42412453179E+03  0.34328310658E+04  0.34065301273E+04 0.  0.
        2    1    3    3  502    0 -0.79178159687E+03 -0.13131565944E+04  0.95928127604E+03  0.18087340615E+04  0.25500000920E-02 0.  1.
       -2    1    3    3    0  502  0.79178159687E+03  0.13131565944E+04 -0.53515674425E+03  0.16240970044E+04  0.25500000920E-02 0. -1.
</event>
<event>
 5   0  0.6367111E-08  0.3390331E+04  0.7818609E-02  0.8140283E-01
       -1   -1    0    0    0  501  0.00000000000E+00  0.00000000000E+00  0.20498910939E+04  0.20498910939E+04  0.50400001928E-02 0.  1.
        1   -1    0    0  501    0  0.00000000000E+00  0.00000000000E+00 -0.14018241741E+04  0.14018241741E+04  0.50400001928E-02 0. -1.
    10030    2    1    2    0    0  0.00000000000E+00  0.00000000000E+00  0.64806691979E+03  0.34517152681E+04  0.33903314822E+04 0.  0.
        3    1    3    3  502    0  0.38607735458E+03  0.15560305968E+03 -0.13489834271E+04  0.14117451373E+04  0.10100000352E+00 0. -1.
       -3    1    3    3    0  502 -0.38607735458E+03 -0.15560305968E+03  0.19970503469E+04  0.20399701307E+04  0.10100000352E+00 0.  1.
</event>
<event>
 5   0  0.1897313E-07  0.3392233E+04  0.7818609E-02  0.8139815E-01
        2   -1    0    0  501    0  0.00000000000E+00  0.00000000000E+00  0.33926908410E+04  0.33926908410E+04  0.25500000920E-02 0. -1.
       -2   -1    0    0    0  501  0.00000000000E+00  0.00000000000E+00 -0.84794395832E+03  0.84794395832E+03  0.25500000920E-02 0.  1.
    10030    2    1    2    0    0  0.00000000000E+00  0.00000000000E+00  0.25447468827E+04  0.42406347993E+04  0.33922333063E+04 0.  0.
        3    1    3    3  502    0 -0.56191054266E+03 -0.42764560640E+03  0.32002010792E+04  0.32771803704E+04  0.10100000352E+00 0. -1.
       -3    1    3    3    0  502  0.56191054266E+03  0.42764560640E+03 -0.65545419653E+03  0.96345442891E+03  0.10100000352E+00 0.  1.
</event>
<event>
 5   0  0.1986613E-07  0.3401904E+04  0.7818609E-02  0.8137439E-01
       -2   -1    0    0    0  501  0.00000000000E+00  0.00000000000E+00  0.17373439294E+04  0.17373439294E+04  0.25500000920E-02 0.  1.
        2   -1    0    0  501    0  0.00000000000E+00  0.00000000000E+00 -0.16653225101E+04  0.16653225101E+04  0.25500000920E-02 0. -1.
    10030    2    1    2    0    0  0.00000000000E+00  0.00000000000E+00  0.72021419305E+02  0.34026664396E+04  0.34019041453E+04 0.  0.
        5    1    3    3  502    0 -0.11153138793E+04  0.90181411586E+03  0.95055804357E+03  0.17206906849E+04  0.46999998093E+01 0.  1.
       -5    1    3    3    0  502  0.11153138793E+04 -0.90181411586E+03 -0.87853662427E+03  0.16819757546E+04  0.46999998093E+01 0. -1.
</event>
<event>
 5   0  0.1970449E-07  0.3395673E+04  0.7818609E-02  0.8138969E-01
       -2   -1    0    0    0  501  0.00000000000E+00  0.00000000000E+00  0.15492142013E+04  0.15492142013E+04  0.25500000920E-02 0.  1.
        2   -1    0    0  501    0  0.00000000000E+00  0.00000000000E+00 -0.18607168320E+04  0.18607168320E+04  0.25500000920E-02 0. -1.
    10030    2    1    2    0    0  0.00000000000E+00  0.00000000000E+00 -0.31150263068E+03  0.34099310332E+04  0.33956730942E+04 0.  0.
        1    1    3    3  502    0 -0.66210620999E+02  0.28104198655E+03 -0.18358814872E+04  0.18584480837E+04  0.50400001928E-02 0. -1.
       -1    1    3    3    0  502  0.66210620999E+02 -0.28104198655E+03  0.15243788565E+04  0.15514829496E+04  0.50400001928E-02 0.  1.
</event>
<event>
 5   0  0.6367111E-08  0.3402576E+04  0.7818609E-02  0.8137274E-01
        1   -1    0    0  501    0  0.00000000000E+00  0.00000000000E+00  0.14065658266E+04  0.14065658266E+04  0.50400001928E-02 0. -1.
       -1   -1    0    0    0  501  0.00000000000E+00  0.00000000000E+00 -0.20577640197E+04  0.20577640197E+04  0.50400001928E-02 0.  1.
    10030    2    1    2    0    0  0.00000000000E+00  0.00000000000E+00 -0.65119819304E+03  0.34643298463E+04  0.34025758180E+04 0.  0.
        3    1    3    3  502    0  0.15864193363E+04 -0.51441613979E+03  0.16702397247E+02  0.16678217099E+04  0.10100000352E+00 0.  1.
       -3    1    3    3    0  502 -0.15864193363E+04  0.51441613979E+03 -0.66790059029E+03  0.17965081364E+04  0.10100000352E+00 0. -1.
</event>
<event>
 5   0  0.6311750E-08  0.3396637E+04  0.7818609E-02  0.8138732E-01
       -1   -1    0    0    0  501  0.00000000000E+00  0.00000000000E+00  0.27460086894E+04  0.27460086894E+04  0.50400001928E-02 0.  1.
        1   -1    0    0  501    0  0.00000000000E+00  0.00000000000E+00 -0.10503555265E+04  0.10503555266E+04  0.50400001928E-02 0. -1.
    10030    2    1    2    0    0  0.00000000000E+00  0.00000000000E+00  0.16956531629E+04  0.37963642160E+04  0.33966368089E+04 0.  0.
        4    1    3    3  502    0 -0.38233963593E+03  0.96975473812E+03 -0.65073454476E+03  0.12288469840E+04  0.12699999809E+01 0. -1.
       -4    1    3    3    0  502  0.38233963593E+03 -0.96975473812E+03  0.23463877076E+04  0.25675172320E+04  0.12699999809E+01 0.  1.
</event>
<event>
 5   0  0.6367111E-08  0.3372216E+04  0.7818609E-02  0.8144759E-01
        1   -1    0    0  501    0  0.00000000000E+00  0.00000000000E+00  0.21797710393E+04  0.21797710393E+04  0.50400001928E-02 0.  1.
       -1   -1    0    0    0  501  0.00000000000E+00  0.00000000000E+00 -0.13042468112E+04  0.13042468112E+04  0.50400001928E-02 0. -1.
    10030    2    1    2    0    0  0.00000000000E+00  0.00000000000E+00  0.87552422809E+03  0.34840178505E+04  0.33722155489E+04 0.  0.
        3    1    3    3  502    0 -0.72005818279E+03 -0.53561382155E+03 -0.10370062555E+04  0.13714036374E+04  0.10100000352E+00 0. -1.
       -3    1    3    3    0  502  0.72005818279E+03  0.53561382155E+03  0.19125304836E+04  0.21126142131E+04  0.10100000352E+00 0.  1.
</event>
<event>
 5   0  0.1963852E-07  0.3420209E+04  0.7818609E-02  0.8132964E-01
        2   -1    0    0  501    0  0.00000000000E+00  0.00000000000E+00  0.11315091857E+04  0.11315091857E+04  0.25500000920E-02 0. -1.
       -2   -1    0    0    0  501  0.00000000000E+00  0.00000000000E+00 -0.25845633452E+04  0.25845633452E+04  0.25500000920E-02 0.  1.
    10030    2    1    2    0    0  0.00000000000E+00  0.00000000000E+00 -0.14530541594E+04  0.37160725309E+04  0.34202088627E+04 0.  0.
        4    1    3    3  502    0 -0.14253090690E+04  0.35776530310E+03 -0.16768016338E+04  0.22296114653E+04  0.12699999809E+01 0.  1.
       -4    1    3    3    0  502  0.14253090690E+04 -0.35776530310E+03  0.22374747439E+03  0.14864610656E+04  0.12699999809E+01 0. -1.
</event>
<event>
 5   0  0.1986613E-07  0.3402543E+04  0.7818609E-02  0.8137282E-01
        2   -1    0    0  501    0  0.00000000000E+00  0.00000000000E+00  0.34184089567E+04  0.34184089567E+04  0.25500000920E-02 0. -1.
       -2   -1    0    0    0  501  0.00000000000E+00  0.00000000000E+00 -0.84668760988E+03  0.84668760989E+03  0.25500000920E-02 0.  1.
    10030    2    1    2    0    0  0.00000000000E+00  0.00000000000E+00  0.25717213468E+04  0.42650965666E+04  0.34025428780E+04 0.  0.
        5    1    3    3  502    0  0.66083742101E+03  0.15360848943E+04  0.89337315616E+03  0.18958904467E+04  0.46999998093E+01 0. -1.
       -5    1    3    3    0  502 -0.66083742101E+03 -0.15360848943E+04  0.16783481907E+04  0.23692061199E+04  0.46999998093E+01 0.  1.
</event>
<event>
 5   0  0.1928004E-07  0.3402061E+04  0.7818609E-02  0.8137401E-01
       -2   -1    0    0    0  501  0.00000000000E+00  0.00000000000E+00  0.11484740414E+04  0.11484740414E+04  0.25500000920E-02 0. -1.
        2   -1    0    0  501    0  0.00000000000E+00  0.00000000000E+00 -0.25194344030E+04  0.25194344030E+04  0.25500000920E-02 0.  1.
    10030    2    1    2    0    0  0.00000000000E+00  0.00000000000E+00 -0.13709603616E+04  0.36679084444E+04  0.34020611463E+04 0.  0.
        2    1    3    3  502    0  0.53103948984E+03  0.40157604301E+03  0.10021627855E+04  0.12031610477E+04  0.25500000920E-02 0. -1.
       -2    1    3    3    0  502 -0.53103948984E+03 -0.40157604301E+03 -0.23731231471E+04  0.24647473967E+04  0.25500000920E-02 0.  1.
</event>
<event>
 5   0  0.1897313E-07  0.3398319E+04  0.7818609E-02  0.8138319E-01
       -2   -1    0    0    0  501  0.00000000000E+00  0.00000000000E+00  0.12402856195E+04  0.12402856195E+04  0.25500000920E-02 0. -1.
        2   -1    0    0  501    0  0.00000000000E+00  0.00000000000E+00 -0.23278049439E+04  0.23278049439E+04  0.25500000920E-02 0.  1.
    10030    2    1    2    0    0  0.00000000000E+00  0.00000000000E+00 -0.10875193244E+04  0.35680905635E+04  0.33983189945E+04 0.  0.
        3    1    3    3  502    0  0.11170146190E+04  0.75835477365E+03 -0.16269573093E+04  0.21141933967E+04  0.10100000352E+00 0.  1.
       -3    1    3    3    0  502 -0.11170146190E+04 -0.75835477365E+03  0.53943798493E+03  0.14538971668E+04  0.10100000352E+00 0. -1.
</event>
<event>
 5   0  0.1928004E-07  0.3464757E+04  0.7818609E-02  0.8122193E-01
       -2   -1    0    0    0  501  0.00000000000E+00  0.00000000000E+00  0.16720153117E+04  0.16720153117E+04  0.25500000920E-02 0.  1.
        2   -1    0    0  501    0  0.00000000000E+00  0.00000000000E+00 -0.17949208187E+04  0.17949208187E+04  0.25500000920E-02 0. -1.
    10030    2    1    2    0    0  0.00000000000E+00  0.00000000000E+00 -0.12290550701E+03  0.34669361305E+04  0.34647568990E+04 0.  0.
        2    1    3    3  502    0  0.10977033591E+04 -0.12144565016E+04  0.50571751137E+03  0.17133614505E+04  0.25500000920E-02 0. -1.
       -2    1    3    3    0  502 -0.10977033591E+04  0.12144565016E+04 -0.62862301838E+03  0.17535746799E+04  0.25500000920E-02 0.  1.
</event>
<event>
 5   0  0.1897313E-07  0.3385944E+04  0.7818609E-02  0.8141365E-01
       -2   -1    0    0    0  501  0.00000000000E+00  0.00000000000E+00  0.15432456939E+04  0.15432456939E+04  0.25500000920E-02 0.  1.
        2   -1    0    0  501    0  0.00000000000E+00  0.00000000000E+00 -0.18572244741E+04  0.18572244741E+04  0.25500000920E-02 0. -1.
    10030    2    1    2    0    0  0.00000000000E+00  0.00000000000E+00 -0.31397878020E+03  0.34004701679E+04  0.33859436925E+04 0.  0.
        3    1    3    3  502    0  0.94891748007E+03  0.75502171241E+03 -0.13434347157E+04  0.18097842456E+04  0.10100000352E+00 0. -1.
       -3    1    3    3    0  502 -0.94891748007E+03 -0.75502171241E+03  0.10294559355E+04  0.15906859223E+04  0.10100000352E+00 0.  1.
</event>
<event>
 5   0  0.1897313E-07  0.3401366E+04  0.7818609E-02  0.8137571E-01
        2   -1    0    0  501    0  0.00000000000E+00  0.00000000000E+00  0.24471628730E+04  0.24471628730E+04  0.25500000920E-02 0.  1.
       -2   -1    0    0    0  501  0.00000000000E+00  0.00000000000E+00 -0.11819085678E+04  0.11819085678E+04  0.25500000920E-02 0. -1.
    10030    2    1    2    0    0  0.00000000000E+00  0.00000000000E+00  0.12652543053E+04  0.36290714408E+04  0.34013660588E+04 0.  0.
        3    1    3    3  502    0  0.47449241684E+03  0.33602802034E+03 -0.10725720046E+04  0.12200281142E+04  0.10100000352E+00 0. -1.
       -3    1    3    3    0  502 -0.47449241684E+03 -0.33602802034E+03  0.23378263099E+04  0.24090433266E+04  0.10100000352E+00 0.  1.
</event>
<event>
 5   0  0.1963852E-07  0.3398264E+04  0.7818609E-02  0.8138333E-01
        2   -1    0    0  501    0  0.00000000000E+00  0.00000000000E+00  0.24650727599E+04  0.24650727599E+04  0.25500000920E-02 0. -1.
       -2   -1    0    0    0  501  0.00000000000E+00  0.00000000000E+00 -0.11711823243E+04  0.11711823243E+04  0.25500000920E-02 0.  1.
    10030    2    1    2    0    0  0.00000000000E+00  0.00000000000E+00  0.12938904356E+04  0.36362550842E+04  0.33982640536E+04 0.  0.
        4    1    3    3  502    0 -0.23125935545E+03 -0.35463806929E+03  0.24077265703E+04  0.24446672371E+04  0.12699999809E+01 0. -1.
       -4    1    3    3    0  502  0.23125935545E+03  0.35463806929E+03 -0.11138361347E+04  0.11915878472E+04  0.12699999809E+01 0.  1.
</event>
<event>
 5   0  0.6341535E-08  0.3344587E+04  0.7818609E-02  0.8151642E-01
       -1   -1    0    0    0  501  0.00000000000E+00  0.00000000000E+00  0.21076636436E+04  0.21076636436E+04  0.50400001928E-02 0. -1.
        1   -1    0    0  501    0  0.00000000000E+00  0.00000000000E+00 -0.13268557564E+04  0.13268557564E+04  0.50400001928E-02 0.  1.
    10030    2    1    2    0    0  0.00000000000E+00  0.00000000000E+00  0.78080788722E+03  0.34345194000E+04  0.33445870526E+04 0.  0.
        5    1    3    3  502    0  0.23399810879E+03  0.15881017591E+04  0.87175229229E+03  0.18266900288E+04  0.46999998093E+01 0.  1.
       -5    1    3    3    0  502 -0.23399810879E+03 -0.15881017591E+04 -0.90944405062E+02  0.16078293712E+04  0.46999998093E+01 0. -1.
</event>
<event>
 5   0  0.6788600E-08  0.3396224E+04  0.7818609E-02  0.8138834E-01
       -1   -1    0    0    0  501  0.00000000000E+00  0.00000000000E+00  0.14835182527E+04  0.14835182527E+04  0.50400001928E-02 0.  1.
        1   -1    0    0  501    0  0.00000000000E+00  0.00000000000E+00 -0.19437469211E+04  0.19437469211E+04  0.50400001928E-02 0. -1.
    10030    2    1    2    0    0  0.00000000000E+00  0.00000000000E+00 -0.46022866831E+03  0.34272651738E+04  0.33962238066E+04 0.  0.
        2    1    3    3  502    0 -0.14266297670E+04 -0.44821329644E+03  0.58186177122E+03  0.16045967631E+04  0.25500000920E-02 0.  1.
       -2    1    3    3    0  502  0.14266297670E+04  0.44821329644E+03 -0.10420904395E+04  0.18226684107E+04  0.25500000920E-02 0. -1.
</event>
<event>
 5   0  0.6788600E-08  0.3400368E+04  0.7818609E-02  0.8137816E-01
        1   -1    0    0  501    0  0.00000000000E+00  0.00000000000E+00  0.17567411979E+04  0.17567411979E+04  0.50400001928E-02 0.  1.
       -1   -1    0    0    0  501  0.00000000000E+00  0.00000000000E+00 -0.16454477787E+04  0.16454477787E+04  0.50400001928E-02 0. -1.
    10030    2    1    2    0    0  0.00000000000E+00  0.00000000000E+00  0.11129341919E+03  0.34021889766E+04  0.34003681576E+04 0.  0.
        2    1    3    3  502    0  0.99317496272E+03  0.12438808903E+04  0.65345282201E+03  0.17206500999E+04  0.25500000920E-02 0.  1.
       -2    1    3    3    0  502 -0.99317496272E+03 -0.12438808903E+04 -0.54215940282E+03  0.16815388767E+04  0.25500000920E-02 0. -1.
</event>
<event>
 5   0  0.6367111E-08  0.3400495E+04  0.7818609E-02  0.8137785E-01
        1   -1    0    0  501    0  0.00000000000E+00  0.00000000000E+00  0.20580638780E+04  0.20580638780E+04  0.50400001928E-02 0. -1.
       -1   -1    0    0    0  501  0.00000000000E+00  0.00000000000E+00 -0.14046411510E+04  0.14046411510E+04  0.50400001928E-02 0.  1.
    10030    2    1    2    0    0  0.00000000000E+00  0.00000000000E+00  0.65342272699E+03  0.34627050291E+04  0.34004947961E+04 0.  0.
        3    1    3    3  502    0  0.10768576533E+04  0.10220575107E+04 -0.51707156837E+03  0.15721281683E+04  0.10100000352E+00 0. -1.
       -3    1    3    3    0  502 -0.10768576533E+04 -0.10220575107E+04  0.11704942954E+04  0.18905768607E+04  0.10100000352E+00 0.  1.
</event>
<event>
 5   0  0.1970449E-07  0.3385015E+04  0.7818609E-02  0.8141594E-01
       -2   -1    0    0    0  501  0.00000000000E+00  0.00000000000E+00  0.16133278680E+04  0.16133278680E+04  0.25500000920E-02 0.  1.
        2   -1    0    0  501    0  0.00000000000E+00  0.00000000000E+00 -0.17755733275E+04  0.17755733275E+04  0.25500000920E-02 0. -1.
    10030    2    1    2    0    0  0.00000000000E+00  0.00000000000E+00 -0.16224545953E+03  0.33889011955E+04  0.33850151734E+04 0.  0.
        1    1    3    3  502    0 -0.11384358675E+04  0.11402004601E+04  0.43763099308E+03  0.16696149855E+04  0.50400001928E-02 0. -1.
       -1    1    3    3    0  502  0.11384358675E+04 -0.11402004601E+04 -0.59987645261E+03  0.17192862100E+04  0.50400001928E-02 0.  1.
</event>
<event>
 5   0  0.6367111E-08  0.3402813E+04  0.7818609E-02  0.8137216E-01
       -1   -1    0    0    0  501  0.00000000000E+00  0.00000000000E+00  0.10259322078E+04  0.10259322078E+04  0.50400001928E-02 0. -1.
        1   -1    0    0  501    0  0.00000000000E+00  0.00000000000E+00 -0.28216127216E+04  0.28216127216E+04  0.50400001928E-02 0.  1.
    10030    2    1    2    0    0  0.00000000000E+00  0.00000000000E+00 -0.17956805138E+04  0.38475449295E+04  0.34028125832E+04 0.  0.
        3    1    3    3  502    0  0.55594090833E+03  0.13754414296E+02  0.92026886859E+03  0.10752461477E+04  0.10100000352E+00 0. -1.
       -3    1    3    3    0  502 -0.55594090833E+03 -0.13754414296E+02 -0.27159493824E+04  0.27722987818E+04  0.10100000352E+00 0.  1.
</event>
<event>
 5   0  0.1897313E-07  0.3399712E+04  0.7818609E-02  0.8137977E-01
       -2   -1    0    0    0  501  0.00000000000E+00  0.00000000000E+00  0.15513138294E+04  0.15513138294E+04  0.25500000920E-02 0. -1.
        2   -1    0    0  501    0  0.00000000000E+00  0.00000000000E+00 -0.18626219401E+04  0.18626219401E+04  0.25500000920E-02 0.  1.
    10030    2    1    2    0    0  0.00000000000E+00  0.00000000000E+00 -0.31130811070E+03  0.34139357696E+04  0.33997124436E+04 0.  0.
        3    1    3    3  502    0 -0.99957183874E+03 -0.26559069693E+02  0.12247467905E+04  0.15810926463E+04  0.10100000352E+00 0. -1.
       -3    1    3    3    0  502  0.99957183874E+03  0.26559069693E+02 -0.15360549012E+04  0.18328431233E+04  0.10100000352E+00 0.  1.
</event>
<event>
 5   0  0.6584420E-08  0.3394816E+04  0.7818609E-02  0.8139180E-01
        1   -1    0    0  501    0  0.00000000000E+00  0.00000000000E+00  0.95704130134E+03  0.95704130135E+03  0.50400001928E-02 0. -1.
       -1   -1    0    0    0  501  0.00000000000E+00  0.00000000000E+00 -0.30105213904E+04  0.30105213904E+04  0.50400001928E-02 0.  1.
    10030    2    1    2    0    0  0.00000000000E+00  0.00000000000E+00 -0.20534800890E+04  0.39675626917E+04  0.33948156411E+04 0.  0.
        1    1    3    3  502    0  0.72775897020E+03  0.67209994197E+02  0.76373440200E+03  0.10570906011E+04  0.50400001928E-02 0. -1.
       -1    1    3    3    0  502 -0.72775897020E+03 -0.67209994197E+02 -0.28172144910E+04  0.29104720907E+04  0.50400001928E-02 0.  1.
</event>
<event>
 5   0  0.1963852E-07  0.3406671E+04  0.7818609E-02  0.8136271E-01
       -2   -1    0    0    0  501  0.00000000000E+00  0.00000000000E+00  0.15547501745E+04  0.15547501745E+04  0.25500000920E-02 0.  1.
        2   -1    0    0  501    0  0.00000000000E+00  0.00000000000E+00 -0.18661204417E+04  0.18661204417E+04  0.25500000920E-02 0. -1.
    10030    2    1    2    0    0  0.00000000000E+00  0.00000000000E+00 -0.31137026715E+03  0.34208706162E+04  0.34066705637E+04 0.  0.
        4    1    3    3  502    0  0.10915405090E+04  0.38873844627E+02 -0.14681825172E+04  0.18298998266E+04  0.12699999809E+01 0. -1.
       -4    1    3    3    0  502 -0.10915405090E+04 -0.38873844627E+02  0.11568122501E+04  0.15909707896E+04  0.12699999809E+01 0.  1.
</event>
<event>
 5   0  0.1963852E-07  0.3438120E+04  0.7818609E-02  0.8128613E-01
        2   -1    0    0  501    0  0.00000000000E+00  0.00000000000E+00  0.23300006936E+04  0.23300006936E+04  0.25500000920E-02 0.  1.
       -2   -1    0    0    0  501  0.00000000000E+00  0.00000000000E+00 -0.12683119235E+04  0.12683119235E+04  0.25500000920E-02 0. -1.
    10030    2    1    2    0    0  0.00000000000E+00  0.00000000000E+00  0.10616887701E+04  0.35983126171E+04  0.34381202197E+04 0.  0.
        4    1    3    3  502    0 -0.67401862433E+03 -0.48587666087E+03 -0.10441959814E+04  0.13344377453E+04  0.12699999809E+01 0. -1.
       -4    1    3    3    0  502  0.67401862433E+03  0.48587666087E+03  0.21058847515E+04  0.22638748718E+04  0.12699999809E+01 0.  1.
</event>
<event>
 5   0  0.6341535E-08  0.3399565E+04  0.7818609E-02  0.8138013E-01
       -1   -1    0    0    0  501  0.00000000000E+00  0.00000000000E+00  0.29861064914E+04  0.29861064914E+04  0.50400001928E-02 0.  1.
        1   -1    0    0  501    0  0.00000000000E+00  0.00000000000E+00 -0.96756757015E+03  0.96756757016E+03  0.50400001928E-02 0. -1.
    10030    2    1    2    0    0  0.00000000000E+00  0.00000000000E+00  0.20185389212E+04  0.39536740615E+04  0.33995645616E+04 0.  0.
        5    1    3    3  502    0 -0.99188981914E+03  0.66498213958E+03 -0.39751670426E+03  0.12586056886E+04  0.46999998093E+01 0. -1.
       -5    1    3    3    0  502  0.99188981914E+03 -0.66498213958E+03  0.24160556255E+04  0.26950683729E+04  0.46999998093E+01 0.  1.
</event>
<event>
 5   0  0.6367111E-08  0.3394905E+04  0.7818609E-02  0.8139158E-01
        1   -1    0    0  501    0  0.00000000000E+00  0.00000000000E+00  0.24443472046E+04  0.24443472046E+04  0.50400001928E-02 0.  1.
       -1   -1    0    0    0  501  0.00000000000E+00  0.00000000000E+00 -0.11787790225E+04  0.11787790225E+04  0.50400001928E-02 0. -1.
    10030    2    1    2    0    0  0.00000000000E+00  0.00000000000E+00  0.12655681821E+04  0.36231262271E+04  0.33949051289E+04 0.  0.
        3    1    3    3  502    0  0.21928395219E+03 -0.94464756001E+03 -0.85403279419E+03  0.12922137935E+04  0.10100000352E+00 0. -1.
       -3    1    3    3    0  502 -0.21928395219E+03  0.94464756001E+03  0.21196009763E+04  0.23309124336E+04  0.10100000352E+00 0.  1.
</event>
<event>
 5   0  0.6788600E-08  0.3397298E+04  0.7818609E-02  0.8138570E-01
       -1   -1    0    0    0  501  0.00000000000E+00  0.00000000000E+00  0.13109094198E+04  0.13109094198E+04  0.50400001928E-02 0. -1.
        1   -1    0    0  501    0  0.00000000000E+00  0.00000000000E+00 -0.22010741684E+04  0.22010741684E+04  0.50400001928E-02 0.  1.
    10030    2    1    2    0    0  0.00000000000E+00  0.00000000000E+00 -0.89016474865E+03  0.35119835882E+04  0.33972982566E+04 0.  0.
        2    1    3    3  502    0 -0.34531730398E+03 -0.16552903335E+04 -0.61234276593E+03  0.17983864411E+04  0.25500000920E-02 0.  1.
       -2    1    3    3    0  502  0.34531730398E+03  0.16552903335E+04 -0.27782198272E+03  0.17135971471E+04  0.25500000920E-02 0. -1.
</event>
<event>
 5   0  0.1963852E-07  0.3394313E+04  0.7818609E-02  0.8139303E-01
        2   -1    0    0  501    0  0.00000000000E+00  0.00000000000E+00  0.11707555881E+04  0.11707555881E+04  0.25500000920E-02 0.  1.
       -2   -1    0    0    0  501  0.00000000000E+00  0.00000000000E+00 -0.24602406055E+04  0.24602406055E+04  0.25500000920E-02 0. -1.
    10030    2    1    2    0    0  0.00000000000E+00  0.00000000000E+00 -0.12894850175E+04  0.36309961936E+04  0.33943131481E+04 0.  0.
        4    1    3    3  502    0 -0.57147099299E+03 -0.67016245507E+03 -0.21966399065E+04  0.23666274113E+04  0.12699999809E+01 0. -1.
       -4    1    3    3    0  502  0.57147099299E+03  0.67016245507E+03  0.90715488905E+03  0.12643687823E+04  0.12699999809E+01 0.  1.
</event>
<event>
 5   0  0.6367111E-08  0.3401392E+04  0.7818609E-02  0.8137565E-01
        1   -1    0    0  501    0  0.00000000000E+00  0.00000000000E+00  0.11060438905E+04  0.11060438905E+04  0.50400001928E-02 0.  1.
       -1   -1    0    0    0  501  0.00000000000E+00  0.00000000000E+00 -0.26150565813E+04  0.26150565813E+04  0.50400001928E-02 0. -1.
    10030    2    1    2    0    0  0.00000000000E+00  0.00000000000E+00 -0.15090126909E+04  0.37211004718E+04  0.34013922767E+04 0.  0.
        3    1    3    3  502    0  0.32218321532E+02  0.95006240988E+03  0.78826116690E+03  0.12349138757E+04  0.10100000352E+00 0.  1.
       -3    1    3    3    0  502 -0.32218321532E+02 -0.95006240988E+03 -0.22972738578E+04  0.24861865961E+04  0.10100000352E+00 0. -1.
</event>
<event>
 5   0  0.1928004E-07  0.3393992E+04  0.7818609E-02  0.8139382E-01
       -2   -1    0    0    0  501  0.00000000000E+00  0.00000000000E+00  0.20271691878E+04  0.20271691878E+04  0.25500000920E-02 0.  1.
        2   -1    0    0  501    0  0.00000000000E+00  0.00000000000E+00 -0.14205993066E+04  0.14205993066E+04  0.25500000920E-02 0. -1.
    10030    2    1    2    0    0  0.00000000000E+00  0.00000000000E+00  0.60656988125E+03  0.34477684944E+04  0.33939918341E+04 0.  0.
        2    1    3    3  502    0  0.28711484355E+03  0.63946138210E+03  0.18732331350E+04  0.20000870408E+04  0.25500000920E-02 0.  1.
       -2    1    3    3    0  502 -0.28711484355E+03 -0.63946138210E+03 -0.12666632538E+04  0.14476814536E+04  0.25500000920E-02 0. -1.
</event>
<event>
 5   0  0.1963852E-07  0.3397231E+04  0.7818609E-02  0.8138586E-01
        2   -1    0    0  501    0  0.00000000000E+00  0.00000000000E+00  0.24440006992E+04  0.24440006992E+04  0.25500000920E-02 0. -1.
       -2   -1    0    0    0  501  0.00000000000E+00  0.00000000000E+00 -0.11805621796E+04  0.11805621796E+04  0.25500000920E-02 0.  1.
    10030    2    1    2    0    0  0.00000000000E+00  0.00000000000E+00  0.12634385196E+04  0.36245628788E+04  0.33972311033E+04 0.  0.
        4    1    3    3  502    0 -0.92683703193E+02 -0.86057192923E+03  0.21910680025E+04  0.23558342299E+04  0.12699999809E+01 0. -1.
       -4    1    3    3    0  502  0.92683703193E+02  0.86057192923E+03 -0.92762948285E+03  0.12687286489E+04  0.12699999809E+01 0.  1.
</event>
<event>
 5   0  0.6341535E-08  0.3406810E+04  0.7818609E-02  0.8136237E-01
       -1   -1    0    0    0  501  0.00000000000E+00  0.00000000000E+00  0.23387819433E+04  0.23387819433E+04  0.50400001928E-02 0. -1.
        1   -1    0    0  501    0  0.00000000000E+00  0.00000000000E+00 -0.12406410419E+04  0.12406410419E+04  0.50400001928E-02 0.  1.
    10030    2    1    2    0    0  0.00000000000E+00  0.00000000000E+00  0.10981409014E+04  0.35794229851E+04  0.34068101601E+04 0.  0.
        5    1    3    3  502    0  0.16921833709E+04 -0.16696640329E+03  0.65520568863E+03  0.18222730105E+04  0.46999998093E+01 0.  1.
       -5    1    3    3    0  502 -0.16921833709E+04  0.16696640329E+03  0.44293521278E+03  0.17571499746E+04  0.46999998093E+01 0. -1.
</event>
<event>
 5   0  0.6788600E-08  0.3400431E+04  0.7818609E-02  0.8137801E-01
        1   -1    0    0  501    0  0.00000000000E+00  0.00000000000E+00  0.17082846667E+04  0.17082846667E+04  0.50400001928E-02 0. -1.
       -1   -1    0    0    0  501  0.00000000000E+00  0.00000000000E+00 -0.16921843619E+04  0.16921843619E+04  0.50400001928E-02 0.  1.
    10030    2    1    2    0    0  0.00000000000E+00  0.00000000000E+00  0.16100304818E+02  0.34004690286E+04  0.34004309131E+04 0.  0.
        2    1    3    3  502    0  0.72496471670E+03  0.84110958817E+03 -0.12794787138E+04  0.16941384120E+04  0.25500000920E-02 0.  1.
       -2    1    3    3    0  502 -0.72496471670E+03 -0.84110958817E+03  0.12955790186E+04  0.17063306166E+04  0.25500000920E-02 0. -1.
</event>
<event>
 5   0  0.1928004E-07  0.3424422E+04  0.7818609E-02  0.8131938E-01
        2   -1    0    0  501    0  0.00000000000E+00  0.00000000000E+00  0.12762742301E+04  0.12762742301E+04  0.25500000920E-02 0.  1.
       -2   -1    0    0    0  501  0.00000000000E+00  0.00000000000E+00 -0.22970508321E+04  0.22970508321E+04  0.25500000920E-02 0. -1.
    10030    2    1    2    0    0  0.00000000000E+00  0.00000000000E+00 -0.10207766020E+04  0.35733250622E+04  0.34244221599E+04 0.  0.
        2    1    3    3  502    0 -0.14765555870E+04  0.79964490931E+03 -0.85963306880E+03  0.18864298014E+04  0.25500000920E-02 0. -1.
       -2    1    3    3    0  502  0.14765555870E+04 -0.79964490931E+03 -0.16114353316E+03  0.16868952608E+04  0.25500000920E-02 0.  1.
</event>
<event>
 5   0  0.1897313E-07  0.3401152E+04  0.7818609E-02  0.8137624E-01
       -2   -1    0    0    0  501  0.00000000000E+00  0.00000000000E+00  0.12299778435E+04  0.12299778435E+04  0.25500000920E-02 0.  1.
        2   -1    0    0  501    0  0.00000000000E+00  0.00000000000E+00 -0.23512284280E+04  0.23512284280E+04  0.25500000920E-02 0. -1.
    10030    2    1    2    0    0  0.00000000000E+00  0.00000000000E+00 -0.11212505845E+04  0.35812062715E+04  0.34011520821E+04 0.  0.
        3    1    3    3  502    0  0.13179996814E+04  0.11550725310E+03 -0.16855930057E+04  0.21428226424E+04  0.10100000352E+00 0. -1.
       -3    1    3    3    0  502 -0.13179996814E+04 -0.11550725310E+03  0.56434242123E+03  0.14383836291E+04  0.10100000352E+00 0.  1.
</event>
<event>
 5   0  0.1986613E-07  0.3401634E+04  0.7818609E-02  0.8137505E-01
       -2   -1    0    0    0  501  0.00000000000E+00  0.00000000000E+00  0.11941349241E+04  0.11941349241E+04  0.25500000920E-02 0. -1.
        2   -1    0    0  501    0  0.00000000000E+00  0.00000000000E+00 -0.24224886540E+04  0.24224886540E+04  0.25500000920E-02 0.  1.
    10030    2    1    2    0    0  0.00000000000E+00  0.00000000000E+00 -0.12283537299E+04  0.36166235781E+04  0.34016339045E+04 0.  0.
        5    1    3    3  502    0  0.32974489427E+03  0.57305800212E+03  0.10519079979E+04  0.12424410228E+04  0.46999998093E+01 0. -1.
       -5    1    3    3    0  502 -0.32974489427E+03 -0.57305800212E+03 -0.22802617277E+04  0.23741825553E+04  0.46999998093E+01 0.  1.
</event>
<event>
 5   0  0.6788600E-08  0.3398679E+04  0.7818609E-02  0.8138231E-01
        1   -1    0    0  501    0  0.00000000000E+00  0.00000000000E+00  0.16091378626E+04  0.16091378626E+04  0.50400001928E-02 0. -1.
       -1   -1    0    0    0  501  0.00000000000E+00  0.00000000000E+00 -0.17945973338E+04  0.17945973338E+04  0.50400001928E-02 0.  1.
    10030    2    1    2    0    0  0.00000000000E+00  0.00000000000E+00 -0.18545947124E+03  0.34037351964E+04  0.33986788716E+04 0.  0.
        2    1    3    3  502    0  0.13249014204E+03  0.43703973415E+03  0.15465307495E+04  0.16125491392E+04  0.25500000920E-02 0. -1.
       -2    1    3    3    0  502 -0.13249014204E+03 -0.43703973415E+03 -0.17319902208E+04  0.17911860573E+04  0.25500000920E-02 0.  1.
</event>
<event>
 5   0  0.1928004E-07  0.3406879E+04  0.7818609E-02  0.8136220E-01
       -2   -1    0    0    0  501  0.00000000000E+00  0.00000000000E+00  0.18366788372E+04  0.18366788372E+04  0.25500000920E-02 0. -1.
        2   -1    0    0  501    0  0.00000000000E+00  0.00000000000E+00 -0.15798659715E+04  0.15798659715E+04  0.25500000920E-02 0.  1.
    10030    2    1    2    0    0  0.00000000000E+00  0.00000000000E+00  0.25681286575E+03  0.34165448087E+04  0.34068791557E+04 0.  0.
        2    1    3    3  502    0 -0.17989077347E+03 -0.51489101899E+03  0.17467484357E+04  0.18299190008E+04  0.25500000920E-02 0. -1.
       -2    1    3    3    0  502  0.17989077347E+03  0.51489101899E+03 -0.14899355699E+04  0.15866258079E+04  0.25500000920E-02 0.  1.
</event>
<event>
 5   0  0.6788600E-08  0.3402557E+04  0.7818609E-02  0.8137279E-01
        1   -1    0    0  501    0  0.00000000000E+00  0.00000000000E+00  0.13146624988E+04  0.13146624988E+04  0.50400001928E-02 0.  1.
       -1   -1    0    0    0  501  0.00000000000E+00  0.00000000000E+00 -0.22015899682E+04  0.22015899682E+04  0.50400001928E-02 0. -1.
    10030    2    1    2    0    0  0.00000000000E+00  0.00000000000E+00 -0.88692746943E+03  0.35162524670E+04  0.34025565499E+04 0.  0.
        2    1    3    3  502    0  0.89046326559E+02 -0.43130698367E+03  0.12547336559E+04  0.13297787447E+04  0.25500000920E-02 0.  1.
       -2    1    3    3    0  502 -0.89046326559E+02  0.43130698367E+03 -0.21416611254E+04  0.21864737223E+04  0.25500000920E-02 0. -1.
</event>
<event>
 5   0  0.1986613E-07  0.3328889E+04  0.7818609E-02  0.8155583E-01
        2   -1    0    0  501    0  0.00000000000E+00  0.00000000000E+00  0.25697770062E+04  0.25697770062E+04  0.25500000920E-02 0.  1.
       -2   -1    0    0    0  501  0.00000000000E+00  0.00000000000E+00 -0.10780604993E+04  0.10780604994E+04  0.25500000920E-02 0. -1.
    10030    2    1    2    0    0  0.00000000000E+00  0.00000000000E+00  0.14917165069E+04  0.36478375056E+04  0.33288887531E+04 0.  0.
        5    1    3    3  502    0 -0.15591825838E+04 -0.61468150697E+01  0.13841300499E+04  0.20849283436E+04  0.46999998093E+01 0.  1.
       -5    1    3    3    0  502  0.15591825838E+04  0.61468150697E+01  0.10758645695E+03  0.15629091620E+04  0.46999998093E+01 0. -1.
</event>
<event>
 5   0  0.6584420E-08  0.3401676E+04  0.7818609E-02  0.8137495E-01
       -1   -1    0    0    0  501  0.00000000000E+00  0.00000000000E+00  0.17007046506E+04  0.17007046506E+04  0.50400001928E-02 0. -1.
        1   -1    0    0  501    0  0.00000000000E+00  0.00000000000E+00 -0.17009717992E+04  0.17009717992E+04  0.50400001928E-02 0.  1.
    10030    2    1    2    0    0  0.00000000000E+00  0.00000000000E+00 -0.26714856580E+00  0.34016764498E+04  0.34016764394E+04 0.  0.
        1    1    3    3  502    0 -0.67927682524E+03  0.25546552868E+03 -0.15383699093E+04  0.17009590294E+04  0.50400001928E-02 0.  1.
       -1    1    3    3    0  502  0.67927682524E+03 -0.25546552868E+03  0.15381027608E+04  0.17007174205E+04  0.50400001928E-02 0. -1.
</event>
<event>
 5   0  0.6788600E-08  0.3393151E+04  0.7818609E-02  0.8139589E-01
        1   -1    0    0  501    0  0.00000000000E+00  0.00000000000E+00  0.14397144612E+04  0.14397144612E+04  0.50400001928E-02 0.  1.
       -1   -1    0    0    0  501  0.00000000000E+00  0.00000000000E+00 -0.19992630272E+04  0.19992630272E+04  0.50400001928E-02 0. -1.
    10030    2    1    2    0    0  0.00000000000E+00  0.00000000000E+00 -0.55954856595E+03  0.34389774884E+04  0.33931506846E+04 0.  0.
        2    1    3    3  502    0  0.14204951121E+04 -0.26381355647E+03 -0.11811472471E+04  0.18661491836E+04  0.25500000920E-02 0. -1.
       -2    1    3    3    0  502 -0.14204951121E+04  0.26381355647E+03  0.62159868118E+03  0.15728283048E+04  0.25500000920E-02 0.  1.
</event>
<event>
 5   0  0.6584420E-08  0.3406691E+04  0.7818609E-02  0.8136266E-01
       -1   -1    0    0    0  501  0.00000000000E+00  0.00000000000E+00  0.22573716147E+04  0.22573716147E+04  0.50400001928E-02 0.  1.
        1   -1    0    0  501    0  0.00000000000E+00  0.00000000000E+00 -0.12852935528E+04  0.12852935528E+04  0.50400001928E-02 0. -1.
    10030    2    1    2    0    0  0.00000000000E+00  0.00000000000E+00  0.97207806191E+03  0.35426651674E+04  0.34066905833E+04 0.  0.
        1    1    3    3  502    0 -0.18742349906E+03  0.47529327516E+03  0.21758125090E+04  0.22349924697E+04  0.50400001928E-02 0.  1.
       -1    1    3    3    0  502  0.18742349906E+03 -0.47529327516E+03 -0.12037344470E+04  0.13076726977E+04  0.50400001928E-02 0. -1.
</event>
<event>
 5   0  0.1986613E-07  0.3392636E+04  0.7818609E-02  0.8139716E-01
       -2   -1    0    0    0  501  0.00000000000E+00  0.00000000000E+00  0.21366544220E+04  0.21366544220E+04  0.25500000920E-02 0. -1.
        2   -1    0    0  501    0  0.00000000000E+00  0.00000000000E+00 -0.13467293186E+04  0.13467293186E+04  0.25500000920E-02 0.  1.
    10030    2    1    2    0    0  0.00000000000E+00  0.00000000000E+00  0.78992510341E+03  0.34833837406E+04  0.33926362338E+04 0.  0.
        5    1    3    3  502    0  0.14056773269E+04 -0.86279858503E+03 -0.12027498878E+02  0.16493989500E+04  0.46999998093E+01 0. -1.
       -5    1    3    3    0  502 -0.14056773269E+04  0.86279858503E+03  0.80195260229E+03  0.18339847906E+04  0.46999998093E+01 0.  1.
</event>
<event>
 5   0  0.6341535E-08  0.3401569E+04  0.7818609E-02  0.8137521E-01
       -1   -1    0    0    0  501  0.00000000000E+00  0.00000000000E+00  0.15987726745E+04  0.15987726745E+04  0.50400001928E-02 0. -1.
        1   -1    0    0  501    0  0.00000000000E+00  0.00000000000E+00 -0.18093048511E+04  0.18093048511E+04  0.50400001928E-02 0.  1.
    10030    2    1    2    0    0  0.00000000000E+00  0.00000000000E+00 -0.21053217654E+03  0.34080775256E+04  0.34015685534E+04 0.  0.
        5    1    3    3  502    0 -0.57642855056E+03  0.14711751705E+04  0.52523834474E+03  0.16650896868E+04  0.46999998093E+01 0.  1.
       -5    1    3    3    0  502  0.57642855056E+03 -0.14711751705E+04 -0.73577052128E+03  0.17429878388E+04  0.46999998093E+01 0. -1.
</event>
<event>
 5   0  0.6367111E-08  0.3351350E+04  0.7818609E-02  0.8149951E-01
       -1   -1    0    0    0  501  0.00000000000E+00  0.00000000000E+00  0.14659473262E+04  0.14659473262E+04  0.50400001928E-02 0. -1.
        1   -1    0    0  501    0  0.00000000000E+00  0.00000000000E+00 -0.19154071964E+04  0.19154071964E+04  0.50400001928E-02 0.  1.
    10030    2    1    2    0    0  0.00000000000E+00  0.00000000000E+00 -0.44945987026E+03  0.33813545226E+04  0.33513496136E+04 0.  0.
        3    1    3    3  502    0 -0.13530108312E+04  0.96073810204E+03  0.10228437160E+02  0.16594458838E+04  0.10100000352E+00 0. -1.
       -3    1    3    3    0  502  0.13530108312E+04 -0.96073810204E+03 -0.45968830742E+03  0.17219086388E+04  0.10100000352E+00 0.  1.
</event>
<event>
 5   0  0.1970449E-07  0.3392752E+04  0.7818609E-02  0.8139688E-01
       -2   -1    0    0    0  501  0.00000000000E+00  0.00000000000E+00  0.16700065171E+04  0.16700065171E+04  0.25500000920E-02 0.  1.
        2   -1    0    0  501    0  0.00000000000E+00  0.00000000000E+00 -0.17231615336E+04  0.17231615336E+04  0.25500000920E-02 0. -1.
    10030    2    1    2    0    0  0.00000000000E+00  0.00000000000E+00 -0.53155016501E+02  0.33931680507E+04  0.33927516803E+04 0.  0.
        1    1    3    3  502    0 -0.12855913843E+04  0.52721738752E+03 -0.99982981858E+03  0.17118303208E+04  0.50400001928E-02 0. -1.
       -1    1    3    3    0  502  0.12855913843E+04 -0.52721738752E+03  0.94667480208E+03  0.16813377299E+04  0.50400001928E-02 0.  1.
</event>
<event>
 5   0  0.6367111E-08  0.3405766E+04  0.7818609E-02  0.8136493E-01
       -1   -1    0    0    0  501  0.00000000000E+00  0.00000000000E+00  0.25131248855E+04  0.25131248855E+04  0.50400001928E-02 0. -1.
        1   -1    0    0  501    0  0.00000000000E+00  0.00000000000E+00 -0.11538666845E+04  0.11538666845E+04  0.50400001928E-02 0.  1.
    10030    2    1    2    0    0  0.00000000000E+00  0.00000000000E+00  0.13592582010E+04  0.36669915700E+04  0.34057663334E+04 0.  0.
        3    1    3    3  502    0  0.15069393443E+04 -0.65892129909E+03  0.20445427529E+03  0.16573608620E+04  0.10100000352E+00 0.  1.
       -3    1    3    3    0  502 -0.15069393443E+04  0.65892129909E+03  0.11548039257E+04  0.20096307081E+04  0.10100000352E+00 0. -1.
</event>
<event>
 5   0  0.1897313E-07  0.3492592E+04  0.7818609E-02  0.8115548E-01
       -2   -1    0    0    0  501  0.00000000000E+00  0.00000000000E+00  0.19295206403E+04  0.19295206403E+04  0.25500000920E-02 0.  1.
        2   -1    0    0  501    0  0.00000000000E+00  0.00000000000E+00 -0.15804703165E+04  0.15804703165E+04  0.25500000920E-02 0. -1.
    10030    2    1    2    0    0  0.00000000000E+00  0.00000000000E+00  0.34905032389E+03  0.35099909568E+04  0.34925922161E+04 0.  0.
        3    1    3    3  502    0  0.16879771470E+04 -0.43967518427E+03  0.25842138894E+03  0.17633385213E+04  0.10100000352E+00 0.  1.
       -3    1    3    3    0  502 -0.16879771470E+04  0.43967518427E+03  0.90628934949E+02  0.17466524355E+04  0.10100000352E+00 0. -1.
</event>
<event>
 5   0  0.6584420E-08  0.3401006E+04  0.7818609E-02  0.8137659E-01
       -1   -1    0    0    0  501  0.00000000000E+00  0.00000000000E+00  0.10402264003E+04  0.10402264003E+04  0.50400001928E-02 0.  1.
        1   -1    0    0  501    0  0.00000000000E+00  0.00000000000E+00 -0.27798853811E+04  0.27798853811E+04  0.50400001928E-02 0. -1.
    10030    2    1    2    0    0  0.00000000000E+00  0.00000000000E+00 -0.17396589808E+04  0.38201117814E+04  0.34010058296E+04 0.  0.
        1    1    3    3  502    0  0.58227325922E+03  0.11614404038E+04  0.36251518003E+03  0.13488525553E+04  0.50400001928E-02 0.  1.
       -1    1    3    3    0  502 -0.58227325922E+03 -0.11614404038E+04 -0.21021741609E+04  0.24712592261E+04  0.50400001928E-02 0. -1.
</event>
<event>
 5   0  0.6584420E-08  0.3397573E+04  0.7818609E-02  0.8138502E-01
       -1   -1    0    0    0  501  0.00000000000E+00  0.00000000000E+00  0.14545707666E+04  0.14545707666E+04  0.50400001928E-02 0.  1.
        1   -1    0    0  501    0  0.00000000000E+00  0.00000000000E+00 -0.19840049492E+04  0.19840049492E+04  0.50400001928E-02 0. -1.
    10030    2    1    2    0    0  0.00000000000E+00  0.00000000000E+00 -0.52943418268E+03  0.34385757158E+04  0.33975730161E+04 0.  0.
        1    1    3    3  502    0 -0.22196126211E+03  0.10835656371E+04  0.10402209040E+04  0.15183678148E+04  0.50400001928E-02 0.  1.
       -1    1    3    3    0  502  0.22196126211E+03 -0.10835656371E+04 -0.15696550867E+04  0.19202079010E+04  0.50400001928E-02 0. -1.
</event>
<event>
 5   0  0.1970449E-07  0.3397723E+04  0.7818609E-02  0.8138465E-01
        2   -1    0    0  501    0  0.00000000000E+00  0.00000000000E+00  0.25584266003E+04  0.25584266003E+04  0.25500000920E-02 0. -1.
       -2   -1    0    0    0  501  0.00000000000E+00  0.00000000000E+00 -0.11280882275E+04  0.11280882275E+04  0.25500000920E-02 0.  1.
    10030    2    1    2    0    0  0.00000000000E+00  0.00000000000E+00  0.14303383727E+04  0.36865148278E+04  0.33977233135E+04 0.  0.
        1    1    3    3  502    0 -0.95082733473E+03 -0.16285997542E+03  0.22324318277E+04  0.24319432266E+04  0.50400001928E-02 0. -1.
       -1    1    3    3    0  502  0.95082733473E+03  0.16285997542E+03 -0.80209345497E+03  0.12545716012E+04  0.50400001928E-02 0.  1.
</event>
<event>
 5   0  0.6367111E-08  0.3399339E+04  0.7818609E-02  0.8138069E-01
       -1   -1    0    0    0  501  0.00000000000E+00  0.00000000000E+00  0.16236492214E+04  0.16236492214E+04  0.50400001928E-02 0.  1.
        1   -1    0    0  501    0  0.00000000000E+00  0.00000000000E+00 -0.17792491772E+04  0.17792491772E+04  0.50400001928E-02 0. -1.
    10030    2    1    2    0    0  0.00000000000E+00  0.00000000000E+00 -0.15559995579E+03  0.34028983987E+04  0.33993390777E+04 0.  0.
        3    1    3    3  502    0 -0.15359396961E+04  0.71994414419E+03  0.29299008388E+02  0.16965520218E+04  0.10100000352E+00 0. -1.
       -3    1    3    3    0  502  0.15359396961E+04 -0.71994414419E+03 -0.18489896417E+03  0.17063463769E+04  0.10100000352E+00 0.  1.
</event>
<event>
 5   0  0.6584420E-08  0.3400248E+04  0.7818609E-02  0.8137845E-01
        1   -1    0    0  501    0  0.00000000000E+00  0.00000000000E+00  0.13189840572E+04  0.13189840572E+04  0.50400001928E-02 0.  1.
       -1   -1    0    0    0  501  0.00000000000E+00  0.00000000000E+00 -0.21914005907E+04  0.21914005907E+04  0.50400001928E-02 0. -1.
    10030    2    1    2    0    0  0.00000000000E+00  0.00000000000E+00 -0.87241653353E+03  0.35103846480E+04  0.34002484863E+04 0.  0.
        1    1    3    3  502    0 -0.27426553027E+03  0.13785480575E+03  0.12901380663E+04  0.13261529922E+04  0.50400001928E-02 0.  1.
       -1    1    3    3    0  502  0.27426553027E+03 -0.13785480575E+03 -0.21625545999E+04  0.21842316557E+04  0.50400001928E-02 0. -1.
</event>
<event>
 5   0  0.1897313E-07  0.3398277E+04  0.7818609E-02  0.8138329E-01
       -2   -1    0    0    0  501  0.00000000000E+00  0.00000000000E+00  0.18156109391E+04  0.18156109391E+04  0.25500000920E-02 0.  1.
        2   -1    0    0  501    0  0.00000000000E+00  0.00000000000E+00 -0.15901380269E+04  0.15901380269E+04  0.25500000920E-02 0. -1.
    10030    2    1    2    0    0  0.00000000000E+00  0.00000000000E+00  0.22547291227E+03  0.34057489660E+04  0.33982772084E+04 0.  0.
        3    1    3    3  502    0  0.12845805956E+04 -0.72030669991E+02 -0.99953987131E+03  0.16292377631E+04  0.10100000352E+00 0. -1.
       -3    1    3    3    0  502 -0.12845805956E+04  0.72030669991E+02  0.12250127836E+04  0.17765112029E+04  0.10100000352E+00 0.  1.
</event>
<event>
 5   0  0.1986613E-07  0.3383897E+04  0.7818609E-02  0.8141870E-01
       -2   -1    0    0    0  501  0.00000000000E+00  0.00000000000E+00  0.10494842247E+04  0.10494842247E+04  0.25500000920E-02 0. -1.
        2   -1    0    0  501    0  0.00000000000E+00  0.00000000000E+00 -0.27277116920E+04  0.27277116920E+04  0.25500000920E-02 0.  1.
    10030    2    1    2    0    0  0.00000000000E+00  0.00000000000E+00 -0.16782274673E+04  0.37771959168E+04  0.33838973923E+04 0.  0.
        5    1    3    3  502    0 -0.73231884762E+03  0.10474822715E+04  0.39841768663E+03  0.13387564180E+04  0.46999998093E+01 0. -1.
       -5    1    3    3    0  502  0.73231884762E+03 -0.10474822715E+04 -0.20766451539E+04  0.24384394987E+04  0.46999998093E+01 0.  1.
</event>
<event>
 5   0  0.1928004E-07  0.3411896E+04  0.7818609E-02  0.8134993E-01
       -2   -1    0    0    0  501  0.00000000000E+00  0.00000000000E+00  0.94599838518E+03  0.94599838519E+03  0.25500000920E-02 0.  1.
        2   -1    0    0  501    0  0.00000000000E+00  0.00000000000E+00 -0.30763876413E+04  0.30763876413E+04  0.25500000920E-02 0. -1.
    10030    2    1    2    0    0  0.00000000000E+00  0.00000000000E+00 -0.21303892561E+04  0.40223860265E+04  0.34118955089E+04 0.  0.
        2    1    3    3  502    0  0.14786047630E+04  0.66261677295E+03 -0.16944878889E+04  0.23444876282E+04  0.25500000920E-02 0. -1.
       -2    1    3    3    0  502 -0.14786047630E+04 -0.66261677295E+03 -0.43590136721E+03  0.16778983983E+04  0.25500000920E-02 0.  1.
</event>
<event>
 5   0  0.1928004E-07  0.3401836E+04  0.7818609E-02  0.8137456E-01
       -2   -1    0    0    0  501  0.00000000000E+00  0.00000000000E+00  0.15261873404E+04  0.15261873404E+04  0.25500000920E-02 0. -1.
        2   -1    0    0  501    0  0.00000000000E+00  0.00000000000E+00 -0.18956538368E+04  0.18956538368E+04  0.25500000920E-02 0.  1.
    10030    2    1    2    0    0  0.00000000000E+00  0.00000000000E+00 -0.36946649646E+03  0.34218411772E+04  0.34018364966E+04 0.  0.
        2    1    3    3  502    0 -0.72659188823E+03  0.29766523522E+03  0.13329743583E+04  0.15470491279E+04  0.25500000920E-02 0. -1.
       -2    1    3    3    0  502  0.72659188823E+03 -0.29766523522E+03 -0.17024408547E+04  0.18747920493E+04  0.25500000920E-02 0.  1.
</event>
<event>
 5   0  0.1897313E-07  0.3400006E+04  0.7818609E-02  0.8137905E-01
        2   -1    0    0  501    0  0.00000000000E+00  0.00000000000E+00  0.22082185940E+04  0.22082185940E+04  0.25500000920E-02 0.  1.
       -2   -1    0    0    0  501  0.00000000000E+00  0.00000000000E+00 -0.13087521495E+04  0.13087521495E+04  0.25500000920E-02 0. -1.
    10030    2    1    2    0    0  0.00000000000E+00  0.00000000000E+00  0.89946644453E+03  0.35169707435E+04  0.34000063714E+04 0.  0.
        3    1    3    3  502    0 -0.14444798736E+04  0.39590017143E+03  0.12816077721E+04  0.19712375662E+04  0.10100000352E+00 0. -1.
       -3    1    3    3    0  502  0.14444798736E+04 -0.39590017143E+03 -0.38214132753E+03  0.15457331773E+04  0.10100000352E+00 0.  1.
</event>
<event>
 5   0  0.6788600E-08  0.3401308E+04  0.7818609E-02  0.8137585E-01
        1   -1    0    0  501    0  0.00000000000E+00  0.00000000000E+00  0.89420209099E+03  0.89420209100E+03  0.50400001928E-02 0. -1.
       -1   -1    0    0    0  501  0.00000000000E+00  0.00000000000E+00 -0.32344193911E+04  0.32344193911E+04  0.50400001928E-02 0.  1.
    10030    2    1    2    0    0  0.00000000000E+00  0.00000000000E+00 -0.23402173001E+04  0.41286214821E+04  0.34013083263E+04 0.  0.
        2    1    3    3  502    0  0.68079606146E+03 -0.13297584502E+04 -0.18362443446E+03  0.15051440948E+04  0.25500000920E-02 0. -1.
       -2    1    3    3    0  502 -0.68079606146E+03  0.13297584502E+04 -0.21565928656E+04  0.26234773873E+04  0.25500000920E-02 0.  1.
</event>
<event>
 5   0  0.1970449E-07  0.3407215E+04  0.7818609E-02  0.8136138E-01
       -2   -1    0    0    0  501  0.00000000000E+00  0.00000000000E+00  0.20119741122E+04  0.20119741122E+04  0.25500000920E-02 0.  1.
        2   -1    0    0  501    0  0.00000000000E+00  0.00000000000E+00 -0.14425028033E+04  0.14425028033E+04  0.25500000920E-02 0. -1.
    10030    2    1    2    0    0  0.00000000000E+00  0.00000000000E+00  0.56947130894E+03  0.34544769155E+04  0.34072148726E+04 0.  0.
        1    1    3    3  502    0  0.86817835594E+03  0.95755475772E+03  0.14099195900E+04  0.19127252866E+04  0.50400001928E-02 0.  1.
       -1    1    3    3    0  502 -0.86817835594E+03 -0.95755475772E+03 -0.84044828110E+03  0.15417516288E+04  0.50400001928E-02 0. -1.
</event>
<event>
 5   0  0.6367111E-08  0.3381318E+04  0.7818609E-02  0.8142507E-01
       -1   -1    0    0    0  501  0.00000000000E+00  0.00000000000E+00  0.12118876888E+04  0.12118876888E+04  0.50400001928E-02 0.  1.
        1   -1    0    0  501    0  0.00000000000E+00  0.00000000000E+00 -0.23585747516E+04  0.23585747516E+04  0.50400001928E-02 0. -1.
    10030    2    1    2    0    0  0.00000000000E+00  0.00000000000E+00 -0.11466870628E+04  0.35704624404E+04  0.33813179114E+04 0.  0.
        3    1    3    3  502    0 -0.79166574047E+03 -0.74726136995E+03 -0.19392203915E+04  0.22238952171E+04  0.10100000352E+00 0. -1.
       -3    1    3    3    0  502  0.79166574047E+03  0.74726136995E+03  0.79253332866E+03  0.13465672233E+04  0.10100000352E+00 0.  1.
</event>
<event>
 5   0  0.6367111E-08  0.3349646E+04  0.7818609E-02  0.8150377E-01
        1   -1    0    0  501    0  0.00000000000E+00  0.00000000000E+00  0.25692098343E+04  0.25692098343E+04  0.50400001928E-02 0. -1.
       -1   -1    0    0    0  501  0.00000000000E+00  0.00000000000E+00 -0.10917880953E+04  0.10917880953E+04  0.50400001928E-02 0.  1.
    10030    2    1    2    0    0  0.00000000000E+00  0.00000000000E+00  0.14774217389E+04  0.36609979296E+04  0.33496463762E+04 0.  0.
        3    1    3    3  502    0 -0.46240485315E+03  0.72078477605E+03  0.23118323210E+04  0.24653433092E+04  0.10100000352E+00 0. -1.
       -3    1    3    3    0  502  0.46240485315E+03 -0.72078477605E+03 -0.83441058207E+03  0.11956546204E+04  0.10100000352E+00 0.  1.
</event>
<event>
 5   0  0.6311750E-08  0.3362018E+04  0.7818609E-02  0.8147292E-01
       -1   -1    0    0    0  501  0.00000000000E+00  0.00000000000E+00  0.21388976633E+04  0.21388976633E+04  0.50400001928E-02 0. -1.
        1   -1    0    0  501    0  0.00000000000E+00  0.00000000000E+00 -0.13211434743E+04  0.13211434744E+04  0.50400001928E-02 0.  1.
    10030    2    1    2    0    0  0.00000000000E+00  0.00000000000E+00  0.81775418891E+03  0.34600411376E+04  0.33620176621E+04 0.  0.
        4    1    3    3  502    0  0.15421200434E+04 -0.66600687774E+03  0.34306187280E+03  0.17144656459E+04  0.12699999809E+01 0.  1.
       -4    1    3    3    0  502 -0.15421200434E+04  0.66600687774E+03  0.47469231611E+03  0.17455754917E+04  0.12699999809E+01 0. -1.
</event>
<event>
 5   0  0.1963852E-07  0.3399902E+04  0.7818609E-02  0.8137930E-01
       -2   -1    0    0    0  501  0.00000000000E+00  0.00000000000E+00  0.17138360240E+04  0.17138360240E+04  0.25500000920E-02 0. -1.
        2   -1    0    0  501    0  0.00000000000E+00  0.00000000000E+00 -0.16861789246E+04  0.16861789246E+04  0.25500000920E-02 0.  1.
    10030    2    1    2    0    0  0.00000000000E+00  0.00000000000E+00  0.27657099396E+02  0.34000149487E+04  0.33999024598E+04 0.  0.
        4    1    3    3  502    0  0.74260665638E+03  0.15102302635E+04  0.25377914014E+03  0.17019593297E+04  0.12699999809E+01 0. -1.
       -4    1    3    3    0  502 -0.74260665638E+03 -0.15102302635E+04 -0.22612204074E+03  0.16980556190E+04  0.12699999809E+01 0.  1.
</event>
<event>
 5   0  0.6367111E-08  0.3395129E+04  0.7818609E-02  0.8139103E-01
       -1   -1    0    0    0  501  0.00000000000E+00  0.00000000000E+00  0.17652538401E+04  0.17652538401E+04  0.50400001928E-02 0.  1.
        1   -1    0    0  501    0  0.00000000000E+00  0.00000000000E+00 -0.16324707761E+04  0.16324707761E+04  0.50400001928E-02 0. -1.
    10030    2    1    2    0    0  0.00000000000E+00  0.00000000000E+00  0.13278306400E+03  0.33977246162E+04  0.33951290440E+04 0.  0.
        3    1    3    3  502    0  0.15560475365E+04 -0.12350285199E+03  0.73412602870E+03  0.17249573695E+04  0.10100000352E+00 0.  1.
       -3    1    3    3    0  502 -0.15560475365E+04  0.12350285199E+03 -0.60134296470E+03  0.16727672467E+04  0.10100000352E+00 0. -1.
</event>
<event>
 5   0  0.1986613E-07  0.3400547E+04  0.7818609E-02  0.8137772E-01
       -2   -1    0    0    0  501  0.00000000000E+00  0.00000000000E+00  0.18529159918E+04  0.18529159918E+04  0.25500000920E-02 0. -1.
        2   -1    0    0  501    0  0.00000000000E+00  0.00000000000E+00 -0.15602052240E+04  0.15602052240E+04  0.25500000920E-02 0.  1.
    10030    2    1    2    0    0  0.00000000000E+00  0.00000000000E+00  0.29271076780E+03  0.34131212157E+04  0.34005465501E+04 0.  0.
        5    1    3    3  502    0 -0.11570979991E+04 -0.90235117252E+03 -0.71577005451E+03  0.16326243533E+04  0.46999998093E+01 0.  1.
       -5    1    3    3    0  502  0.11570979991E+04  0.90235117252E+03  0.10084808223E+04  0.17804968624E+04  0.46999998093E+01 0. -1.
</event>
<event>
 5   0  0.6367111E-08  0.3399199E+04  0.7818609E-02  0.8138103E-01
       -1   -1    0    0    0  501  0.00000000000E+00  0.00000000000E+00  0.12314204764E+04  0.12314204764E+04  0.50400001928E-02 0. -1.
        1   -1    0    0  501    0  0.00000000000E+00  0.00000000000E+00 -0.23457771036E+04  0.23457771036E+04  0.50400001928E-02 0.  1.
    10030    2    1    2    0    0  0.00000000000E+00  0.00000000000E+00 -0.11143566272E+04  0.35771975800E+04  0.33991987046E+04 0.  0.
        3    1    3    3  502    0 -0.45570262032E+03 -0.11169559974E+04 -0.18171111798E+04  0.21810888630E+04  0.10100000352E+00 0. -1.
       -3    1    3    3    0  502  0.45570262032E+03  0.11169559974E+04  0.70275455260E+03  0.13961087170E+04  0.10100000352E+00 0.  1.
</event>
<event>
 5   0  0.1970449E-07  0.3411431E+04  0.7818609E-02  0.8135107E-01
       -2   -1    0    0    0  501  0.00000000000E+00  0.00000000000E+00  0.16933085696E+04  0.16933085696E+04  0.25500000920E-02 0.  1.
        2   -1    0    0  501    0  0.00000000000E+00  0.00000000000E+00 -0.17182131098E+04  0.17182131098E+04  0.25500000920E-02 0. -1.
    10030    2    1    2    0    0  0.00000000000E+00  0.00000000000E+00 -0.24904540190E+02  0.34115216794E+04  0.34114307750E+04 0.  0.
        1    1    3    3  502    0 -0.18893517749E+03 -0.16523706356E+04  0.36629224654E+03  0.17029959568E+04  0.50400001928E-02 0.  1.
       -1    1    3    3    0  502  0.18893517749E+03  0.16523706356E+04 -0.39119678673E+03  0.17085257226E+04  0.50400001928E-02 0. -1.
</event>
<event>
 5   0  0.6367111E-08  0.3408721E+04  0.7818609E-02  0.8135769E-01
       -1   -1    0    0    0  501  0.00000000000E+00  0.00000000000E+00  0.11368806239E+04  0.11368806240E+04  0.50400001928E-02 0.  1.
        1   -1    0    0  501    0  0.00000000000E+00  0.00000000000E+00 -0.25551007204E+04  0.25551007204E+04  0.50400001928E-02 0. -1.
    10030    2    1    2    0    0  0.00000000000E+00  0.00000000000E+00 -0.14182200964E+04  0.36919813444E+04  0.34087208752E+04 0.  0.
        3    1    3    3  502    0 -0.11569829731E+04  0.44464156304E+03 -0.19761637549E+04  0.23327106370E+04  0.10100000352E+00 0.  1.
       -3    1    3    3    0  502  0.11569829731E+04 -0.44464156304E+03  0.55794365846E+03  0.13592707073E+04  0.10100000352E+00 0. -1.
</event>
<event>
 5   0  0.1986613E-07  0.3401903E+04  0.7818609E-02  0.8137439E-01
        2   -1    0    0  501    0  0.00000000000E+00  0.00000000000E+00  0.10346771527E+04  0.10346771527E+04  0.25500000920E-02 0.  1.
       -2   -1    0    0    0  501  0.00000000000E+00  0.00000000000E+00 -0.27962688043E+04  0.27962688043E+04  0.25500000920E-02 0. -1.
    10030    2    1    2    0    0  0.00000000000E+00  0.00000000000E+00 -0.17615916515E+04  0.38309459570E+04  0.34019026704E+04 0.  0.
        5    1    3    3  502    0 -0.81403167646E+03 -0.10000386613E+04  0.36837810965E+03  0.13410627935E+04  0.46999998093E+01 0.  1.
       -5    1    3    3    0  502  0.81403167646E+03  0.10000386613E+04 -0.21299697612E+04  0.24898831635E+04  0.46999998093E+01 0. -1.
</event>
<event>
 5   0  0.1897313E-07  0.3429425E+04  0.7818609E-02  0.8130722E-01
        2   -1    0    0  501    0  0.00000000000E+00  0.00000000000E+00  0.18956546613E+04  0.18956546613E+04  0.25500000920E-02 0.  1.
       -2   -1    0    0    0  501  0.00000000000E+00  0.00000000000E+00 -0.15510414168E+04  0.15510414168E+04  0.25500000920E-02 0. -1.
    10030    2    1    2    0    0  0.00000000000E+00  0.00000000000E+00  0.34461324441E+03  0.34466960781E+04  0.34294249615E+04 0.  0.
        3    1    3    3  502    0 -0.12386329375E+04  0.15354095863E+03 -0.10093921784E+04  0.16051974832E+04  0.10100000352E+00 0. -1.
       -3    1    3    3    0  502  0.12386329375E+04 -0.15354095863E+03  0.13540054228E+04  0.18414985949E+04  0.10100000352E+00 0.  1.
</event>
<event>
 5   0  0.1897313E-07  0.3407348E+04  0.7818609E-02  0.8136105E-01
        2   -1    0    0  501    0  0.00000000000E+00  0.00000000000E+00  0.19899328551E+04  0.19899328551E+04  0.25500000920E-02 0. -1.
       -2   -1    0    0    0  501  0.00000000000E+00  0.00000000000E+00 -0.14585947600E+04  0.14585947600E+04  0.25500000920E-02 0.  1.
    10030    2    1    2    0    0  0.00000000000E+00  0.00000000000E+00  0.53133809508E+03  0.34485276151E+04  0.34073483151E+04 0.  0.
        3    1    3    3  502    0  0.65229851199E+03 -0.87280598630E+03 -0.10598236643E+04  0.15200361338E+04  0.10100000352E+00 0.  1.
       -3    1    3    3    0  502 -0.65229851199E+03  0.87280598630E+03  0.15911617594E+04  0.19284914812E+04  0.10100000352E+00 0. -1.
</event>
<event>
 5   0  0.6584420E-08  0.3399356E+04  0.7818609E-02  0.8138064E-01
       -1   -1    0    0    0  501  0.00000000000E+00  0.00000000000E+00  0.17912051053E+04  0.17912051053E+04  0.50400001928E-02 0. -1.
        1   -1    0    0  501    0  0.00000000000E+00  0.00000000000E+00 -0.16128276926E+04  0.16128276926E+04  0.50400001928E-02 0.  1.
    10030    2    1    2    0    0  0.00000000000E+00  0.00000000000E+00  0.17837741277E+03  0.34040327979E+04  0.33993559372E+04 0.  0.
        1    1    3    3  502    0  0.16547804933E+04 -0.14077666754E+03 -0.27295597928E+03  0.16830393691E+04  0.50400001928E-02 0.  1.
       -1    1    3    3    0  502 -0.16547804933E+04  0.14077666754E+03  0.45133339205E+03  0.17209934288E+04  0.50400001928E-02 0. -1.
</event>
<event>
 5   0  0.6311750E-08  0.3401054E+04  0.7818609E-02  0.8137648E-01
        1   -1    0    0  501    0  0.00000000000E+00  0.00000000000E+00  0.21428397742E+04  0.21428397742E+04  0.50400001928E-02 0.  1.
       -1   -1    0    0    0  501  0.00000000000E+00  0.00000000000E+00 -0.13495136878E+04  0.13495136878E+04  0.50400001928E-02 0. -1.
    10030    2    1    2    0    0  0.00000000000E+00  0.00000000000E+00  0.79332608635E+03  0.34923534620E+04  0.34010537226E+04 0.  0.
        4    1    3    3  502    0 -0.65811725808E+03 -0.14899103570E+04  0.89849363972E+03  0.18601730110E+04  0.12699999809E+01 0.  1.
       -4    1    3    3    0  502  0.65811725808E+03  0.14899103570E+04 -0.10516755337E+03  0.16321804510E+04  0.12699999809E+01 0. -1.
</event>
<event>
 5   0  0.6584420E-08  0.3396502E+04  0.7818609E-02  0.8138765E-01
       -1   -1    0    0    0  501  0.00000000000E+00  0.00000000000E+00  0.21380565523E+04  0.21380565523E+04  0.50400001928E-02 0.  1.
        1   -1    0    0  501    0  0.00000000000E+00  0.00000000000E+00 -0.13489152992E+04  0.13489152992E+04  0.50400001928E-02 0. -1.
    10030    2    1    2    0    0  0.00000000000E+00  0.00000000000E+00  0.78914125302E+03  0.34869718515E+04  0.33965024328E+04 0.  0.
        1    1    3    3  502    0  0.86657470030E+03 -0.91959510739E+03 -0.77031088270E+03  0.14798600369E+04  0.50400001928E-02 0. -1.
       -1    1    3    3    0  502 -0.86657470030E+03  0.91959510739E+03  0.15594521357E+04  0.20071118146E+04  0.50400001928E-02 0.  1.
</event>
<event>
 5   0  0.6311750E-08  0.3404401E+04  0.7818609E-02  0.8136827E-01
       -3   -1    0    0    0  501  0.00000000000E+00  0.00000000000E+00  0.17256632536E+04  0.17256632566E+04  0.10100000352E+00 0. -1.
        3   -1    0    0  501    0  0.00000000000E+00  0.00000000000E+00 -0.16790563758E+04  0.16790563789E+04  0.10100000352E+00 0.  1.
    10030    2    1    2    0    0  0.00000000000E+00  0.00000000000E+00  0.46606877791E+02  0.34047196355E+04  0.34044006220E+04 0.  0.
        4    1    3    3  502    0  0.13978391983E+04 -0.96702522166E+03  0.11492033142E+03  0.17036139525E+04  0.12699999809E+01 0. -1.
       -4    1    3    3    0  502 -0.13978391983E+04  0.96702522166E+03 -0.68313453625E+02  0.17011056830E+04  0.12699999809E+01 0.  1.
</event>
<event>
 5   0  0.6367111E-08  0.3400525E+04  0.7818609E-02  0.8137777E-01
        1   -1    0    0  501    0  0.00000000000E+00  0.00000000000E+00  0.24659179093E+04  0.24659179093E+04  0.50400001928E-02 0. -1.
       -1   -1    0    0    0  501  0.00000000000E+00  0.00000000000E+00 -0.11723394431E+04  0.11723394432E+04  0.50400001928E-02 0.  1.
    10030    2    1    2    0    0  0.00000000000E+00  0.00000000000E+00  0.12935784661E+04  0.36382573524E+04  0.34005251527E+04 0.  0.
        3    1    3    3  502    0 -0.67286081545E+03  0.13145279321E+04 -0.25483963368E+03  0.14985555079E+04  0.10100000352E+00 0.  1.
       -3    1    3    3    0  502  0.67286081545E+03 -0.13145279321E+04  0.15484180998E+04  0.21397018445E+04  0.10100000352E+00 0. -1.
</event>
<event>
 5   0  0.6311750E-08  0.3401831E+04  0.7818609E-02  0.8137457E-01
       -1   -1    0    0    0  501  0.00000000000E+00  0.00000000000E+00  0.14458390968E+04  0.14458390968E+04  0.50400001928E-02 0.  1.
        1   -1    0    0  501    0  0.00000000000E+00  0.00000000000E+00 -0.20009923907E+04  0.20009923907E+04  0.50400001928E-02 0. -1.
    10030    2    1    2    0    0  0.00000000000E+00  0.00000000000E+00 -0.55515329382E+03  0.34468314875E+04  0.34018307018E+04 0.  0.
        4    1    3    3  502    0  0.46211568588E+03  0.12490717355E+04  0.79442681300E+03  0.15507568093E+04  0.12699999809E+01 0.  1.
       -4    1    3    3    0  502 -0.46211568588E+03 -0.12490717355E+04 -0.13495801068E+04  0.18960746782E+04  0.12699999809E+01 0. -1.
</event>
<event>
 5   0  0.6788600E-08  0.3394207E+04  0.7818609E-02  0.8139330E-01
        1   -1    0    0  501    0  0.00000000000E+00  0.00000000000E+00  0.20930391073E+04  0.20930391073E+04  0.50400001928E-02 0. -1.
       -1   -1    0    0    0  501  0.00000000000E+00  0.00000000000E+00 -0.13760662180E+04  0.13760662180E+04  0.50400001928E-02 0.  1.
    10030    2    1    2    0    0  0.00000000000E+00  0.00000000000E+00  0.71697288930E+03  0.34691053252E+04  0.33942070699E+04 0.  0.
        2    1    3    3  502    0  0.10929315986E+04 -0.83252988854E+02  0.16827351614E+04  0.20082400660E+04  0.25500000920E-02 0. -1.
       -2    1    3    3    0  502 -0.10929315986E+04  0.83252988854E+02 -0.96576227207E+03  0.14608652592E+04  0.25500000920E-02 0.  1.
</event>
<event>
 5   0  0.1928004E-07  0.3397552E+04  0.7818609E-02  0.8138507E-01
       -2   -1    0    0    0  501  0.00000000000E+00  0.00000000000E+00  0.11604228580E+04  0.11604228580E+04  0.25500000920E-02 0.  1.
        2   -1    0    0  501    0  0.00000000000E+00  0.00000000000E+00 -0.24868868474E+04  0.24868868474E+04  0.25500000920E-02 0. -1.
    10030    2    1    2    0    0  0.00000000000E+00  0.00000000000E+00 -0.13264639894E+04  0.36473097054E+04  0.33975522618E+04 0.  0.
        2    1    3    3  502    0  0.13926905002E+04  0.62970323797E+03 -0.14591716946E+04  0.21131244714E+04  0.25500000920E-02 0. -1.
       -2    1    3    3    0  502 -0.13926905002E+04 -0.62970323797E+03  0.13270770512E+03  0.15341852340E+04  0.25500000920E-02 0.  1.
</event>
<event>
 5   0  0.6341535E-08  0.3399793E+04  0.7818609E-02  0.8137957E-01
        1   -1    0    0  501    0  0.00000000000E+00  0.00000000000E+00  0.24102228999E+04  0.24102229000E+04  0.50400001928E-02 0.  1.
       -1   -1    0    0    0  501  0.00000000000E+00  0.00000000000E+00 -0.11989129892E+04  0.11989129892E+04  0.50400001928E-02 0. -1.
    10030    2    1    2    0    0  0.00000000000E+00  0.00000000000E+00  0.12113099108E+04  0.36091358891E+04  0.33997926652E+04 0.  0.
        5    1    3    3  502    0 -0.39025589857E+03  0.15257934514E+04  0.12847978032E+04  0.20325040732E+04  0.46999998093E+01 0.  1.
       -5    1    3    3    0  502  0.39025589857E+03 -0.15257934514E+04 -0.73487892385E+02  0.15766318159E+04  0.46999998093E+01 0. -1.
</event>
<event>
 5   0  0.6367111E-08  0.3401757E+04  0.7818609E-02  0.8137475E-01
        1   -1    0    0  501    0  0.00000000000E+00  0.00000000000E+00  0.24772079590E+04  0.24772079590E+04  0.50400001928E-02 0. -1.
       -1   -1    0    0    0  501  0.00000000000E+00  0.00000000000E+00 -0.11678422676E+04  0.11678422677E+04  0.50400001928E-02 0.  1.
    10030    2    1    2    0    0  0.00000000000E+00  0.00000000000E+00  0.13093656913E+04  0.36450502266E+04  0.34017572872E+04 0.  0.
        3    1    3    3  502    0 -0.14134123430E+04  0.37641691109E+03 -0.27548273869E+03  0.14883933928E+04  0.10100000352E+00 0. -1.
       -3    1    3    3    0  502  0.14134123430E+04 -0.37641691109E+03  0.15848484300E+04  0.21566568338E+04  0.10100000352E+00 0.  1.
</event>
<event>
 5   0  0.1928004E-07  0.3395976E+04  0.7818609E-02  0.8138895E-01
       -2   -1    0    0    0  501  0.00000000000E+00  0.00000000000E+00  0.15027013899E+04  0.15027013899E+04  0.25500000920E-02 0.  1.
        2   -1    0    0  501    0  0.00000000000E+00  0.00000000000E+00 -0.19186537656E+04  0.19186537656E+04  0.25500000920E-02 0. -1.
    10030    2    1    2    0    0  0.00000000000E+00  0.00000000000E+00 -0.41595237569E+03  0.34213551554E+04  0.33959762545E+04 0.  0.
        2    1    3    3  502    0  0.16762934312E+04  0.20310116027E+03 -0.27883672350E+02  0.16887827711E+04  0.25500000920E-02 0. -1.
       -2    1    3    3    0  502 -0.16762934312E+04 -0.20310116027E+03 -0.38806870334E+03  0.17325723844E+04  0.25500000920E-02 0.  1.
</event>
<event>
 5   0  0.6788600E-08  0.3404069E+04  0.7818609E-02  0.8136908E-01
       -1   -1    0    0    0  501  0.00000000000E+00  0.00000000000E+00  0.22972861471E+04  0.22972861471E+04  0.50400001928E-02 0. -1.
        1   -1    0    0  501    0  0.00000000000E+00  0.00000000000E+00 -0.12610190588E+04  0.12610190588E+04  0.50400001928E-02 0.  1.
    10030    2    1    2    0    0  0.00000000000E+00  0.00000000000E+00  0.10362670883E+04  0.35583052059E+04  0.34040691033E+04 0.  0.
        2    1    3    3  502    0 -0.81560232995E+03  0.10111879668E+04  0.16675999811E+04  0.21139058545E+04  0.25500000920E-02 0. -1.
       -2    1    3    3    0  502  0.81560232995E+03 -0.10111879668E+04 -0.63133289276E+03  0.14443993514E+04  0.25500000920E-02 0.  1.
</event>
<event>
 5   0  0.6341535E-08  0.3398882E+04  0.7818609E-02  0.8138181E-01
       -1   -1    0    0    0  501  0.00000000000E+00  0.00000000000E+00  0.19692445274E+04  0.19692445274E+04  0.50400001928E-02 0. -1.
        1   -1    0    0  501    0  0.00000000000E+00  0.00000000000E+00 -0.14666030060E+04  0.14666030060E+04  0.50400001928E-02 0.  1.
    10030    2    1    2    0    0  0.00000000000E+00  0.00000000000E+00  0.50264152141E+03  0.34358475334E+04  0.33988821359E+04 0.  0.
        5    1    3    3  502    0  0.23453219745E+03 -0.49237414048E+03 -0.13757308525E+04  0.14798969945E+04  0.46999998093E+01 0.  1.
       -5    1    3    3    0  502 -0.23453219745E+03  0.49237414048E+03  0.18783723739E+04  0.19559505389E+04  0.46999998093E+01 0. -1.
</event>
<event>
 5   0  0.1970449E-07  0.3395064E+04  0.7818609E-02  0.8139119E-01
        2   -1    0    0  501    0  0.00000000000E+00  0.00000000000E+00  0.24318408835E+04  0.24318408835E+04  0.25500000920E-02 0. -1.
       -2   -1    0    0    0  501  0.00000000000E+00  0.00000000000E+00 -0.11849521379E+04  0.11849521379E+04  0.25500000920E-02 0.  1.
    10030    2    1    2    0    0  0.00000000000E+00  0.00000000000E+00  0.12468887456E+04  0.36167930214E+04  0.33950640960E+04 0.  0.
        1    1    3    3  502    0  0.82614869727E+02 -0.65042640838E+03 -0.10446187088E+04  0.12333320625E+04  0.50400001928E-02 0.  1.
       -1    1    3    3    0  502 -0.82614869727E+02  0.65042640838E+03  0.22915074544E+04  0.23834609590E+04  0.50400001928E-02 0. -1.
</event>
<event>
 5   0  0.1928004E-07  0.3404735E+04  0.7818609E-02  0.8136745E-01
        2   -1    0    0  501    0  0.00000000000E+00  0.00000000000E+00  0.14581005038E+04  0.14581005038E+04  0.25500000920E-02 0. -1.
       -2   -1    0    0    0  501  0.00000000000E+00  0.00000000000E+00 -0.19875551286E+04  0.19875551286E+04  0.25500000920E-02 0.  1.
    10030    2    1    2    0    0  0.00000000000E+00  0.00000000000E+00 -0.52945462483E+03  0.34456556324E+04  0.34047350172E+04 0.  0.
        2    1    3    3  502    0 -0.50242579891E+03 -0.95156013199E+03 -0.15997318462E+04  0.19279627455E+04  0.25500000920E-02 0.  1.
       -2    1    3    3    0  502  0.50242579891E+03  0.95156013199E+03  0.10702772214E+04  0.15176928869E+04  0.25500000920E-02 0. -1.
</event>
<event>
 5   0  0.1963852E-07  0.3395249E+04  0.7818609E-02  0.8139073E-01
        2   -1    0    0  501    0  0.00000000000E+00  0.00000000000E+00  0.19872829086E+04  0.19872829086E+04  0.25500000920E-02 0. -1.
       -2   -1    0    0    0  501  0.00000000000E+00  0.00000000000E+00 -0.14501857716E+04  0.14501857716E+04  0.25500000920E-02 0.  1.
    10030    2    1    2    0    0  0.00000000000E+00  0.00000000000E+00  0.53709713708E+03  0.34374686802E+04  0.33952492681E+04 0.  0.
        4    1    3    3  502    0  0.50665604834E+02  0.45593425611E+03 -0.13862435133E+04  0.14601766128E+04  0.12699999809E+01 0.  1.
       -4    1    3    3    0  502 -0.50665604834E+02 -0.45593425611E+03  0.19233406504E+04  0.19772920674E+04  0.12699999809E+01 0. -1.
</event>
<event>
 5   0  0.1986613E-07  0.3467235E+04  0.7818609E-02  0.8121599E-01
       -2   -1    0    0    0  501  0.00000000000E+00  0.00000000000E+00  0.11939320467E+04  0.11939320467E+04  0.25500000920E-02 0. -1.
        2   -1    0    0  501    0  0.00000000000E+00  0.00000000000E+00 -0.25172537821E+04  0.25172537821E+04  0.25500000920E-02 0.  1.
    10030    2    1    2    0    0  0.00000000000E+00  0.00000000000E+00 -0.13233217354E+04  0.37111858288E+04  0.34672351868E+04 0.  0.
        5    1    3    3  502    0  0.25511049773E+03  0.16528035789E+04 -0.17283742681E+03  0.16812899520E+04  0.46999998093E+01 0.  1.
       -5    1    3    3    0  502 -0.25511049773E+03 -0.16528035789E+04 -0.11504843085E+04  0.20298958768E+04  0.46999998093E+01 0. -1.
</event>
<event>
 5   0  0.1963852E-07  0.3397854E+04  0.7818609E-02  0.8138433E-01
        2   -1    0    0  501    0  0.00000000000E+00  0.00000000000E+00  0.17356816534E+04  0.17356816534E+04  0.25500000920E-02 0.  1.
       -2   -1    0    0    0  501  0.00000000000E+00  0.00000000000E+00 -0.16629503670E+04  0.16629503670E+04  0.25500000920E-02 0. -1.
    10030    2    1    2    0    0  0.00000000000E+00  0.00000000000E+00  0.72731286366E+02  0.33986320205E+04  0.33978537006E+04 0.  0.
        4    1    3    3  502    0 -0.13189557651E+03 -0.16232492190E+04 -0.44749754051E+03  0.16889612582E+04  0.12699999809E+01 0. -1.
       -4    1    3    3    0  502  0.13189557651E+03  0.16232492190E+04  0.52022882688E+03  0.17096707622E+04  0.12699999809E+01 0.  1.
</event>
<event>
 5   0  0.1970449E-07  0.3401215E+04  0.7818609E-02  0.8137608E-01
        2   -1    0    0  501    0  0.00000000000E+00  0.00000000000E+00  0.19685826066E+04  0.19685826066E+04  0.25500000920E-02 0. -1.
       -2   -1    0    0    0  501  0.00000000000E+00  0.00000000000E+00 -0.14691105991E+04  0.14691105991E+04  0.25500000920E-02 0.  1.
    10030    2    1    2    0    0  0.00000000000E+00  0.00000000000E+00  0.49947200751E+03  0.34376932058E+04  0.34012148257E+04 0.  0.
        1    1    3    3  502    0  0.10377369378E+04  0.10308929093E+04 -0.62699297602E+03  0.15914642109E+04  0.50400001928E-02 0.  1.
       -1    1    3    3    0  502 -0.10377369378E+04 -0.10308929093E+04  0.11264649835E+04  0.18462289949E+04  0.50400001928E-02 0. -1.
</event>
<event>
 5   0  0.6311750E-08  0.3390801E+04  0.7818609E-02  0.8140168E-01
        1   -1    0    0  501    0  0.00000000000E+00  0.00000000000E+00  0.21708210768E+04  0.21708210768E+04  0.50400001928E-02 0. -1.
       -1   -1    0    0    0  501  0.00000000000E+00  0.00000000000E+00 -0.13240991875E+04  0.13240991875E+04  0.50400001928E-02 0.  1.
    10030    2    1    2    0    0  0.00000000000E+00  0.00000000000E+00  0.84672188927E+03  0.34949202643E+04  0.33908007456E+04 0.  0.
        4    1    3    3  502    0 -0.15371370914E+04 -0.26880988967E+03 -0.25981290031E+03  0.15819461276E+04  0.12699999809E+01 0.  1.
       -4    1    3    3    0  502  0.15371370914E+04  0.26880988967E+03  0.11065347896E+04  0.19129741368E+04  0.12699999809E+01 0. -1.
</event>
<event>
 5   0  0.1928004E-07  0.3403765E+04  0.7818609E-02  0.8136983E-01
       -2   -1    0    0    0  501  0.00000000000E+00  0.00000000000E+00  0.18299670659E+04  0.18299670659E+04  0.25500000920E-02 0.  1.
        2   -1    0    0  501    0  0.00000000000E+00  0.00000000000E+00 -0.15827633993E+04  0.15827633993E+04  0.25500000920E-02 0. -1.
    10030    2    1    2    0    0  0.00000000000E+00  0.00000000000E+00  0.24720366665E+03  0.34127304652E+04  0.34037654994E+04 0.  0.
        2    1    3    3  502    0  0.16795104379E+04 -0.23201479871E+03  0.27170247919E+03  0.17170930129E+04  0.25500000920E-02 0.  1.
       -2    1    3    3    0  502 -0.16795104379E+04  0.23201479871E+03 -0.24498812539E+02  0.16956374523E+04  0.25500000920E-02 0. -1.
</event>
<event>
 5   0  0.1897313E-07  0.3395884E+04  0.7818609E-02  0.8138917E-01
       -2   -1    0    0    0  501  0.00000000000E+00  0.00000000000E+00  0.12325905450E+04  0.12325905450E+04  0.25500000920E-02 0. -1.
        2   -1    0    0  501    0  0.00000000000E+00  0.00000000000E+00 -0.23389818670E+04  0.23389818670E+04  0.25500000920E-02 0.  1.
    10030    2    1    2    0    0  0.00000000000E+00  0.00000000000E+00 -0.11063913220E+04  0.35715724120E+04  0.33958839404E+04 0.  0.
        3    1    3    3  502    0  0.25603059374E+03  0.23366561506E+03  0.11949826075E+04  0.12442406226E+04  0.10100000352E+00 0. -1.
       -3    1    3    3    0  502 -0.25603059374E+03 -0.23366561506E+03 -0.23013739295E+04  0.23273317894E+04  0.10100000352E+00 0.  1.
</event>
<event>
 5   0  0.1986613E-07  0.3398628E+04  0.7818609E-02  0.8138243E-01
       -2   -1    0    0    0  501  0.00000000000E+00  0.00000000000E+00  0.22303730129E+04  0.22303730129E+04  0.25500000920E-02 0. -1.
        2   -1    0    0  501    0  0.00000000000E+00  0.00000000000E+00 -0.12947020363E+04  0.12947020363E+04  0.25500000920E-02 0.  1.
    10030    2    1    2    0    0  0.00000000000E+00  0.00000000000E+00  0.93567097659E+03  0.35250750491E+04  0.33986282417E+04 0.  0.
        5    1    3    3  502    0 -0.11984538438E+03 -0.26886875136E+03 -0.12680486019E+04  0.13017767353E+04  0.46999998093E+01 0.  1.
       -5    1    3    3    0  502  0.11984538438E+03  0.26886875136E+03  0.22037195785E+04  0.22232983139E+04  0.46999998093E+01 0. -1.
</event>
<event>
 5   0  0.1970449E-07  0.3431559E+04  0.7818609E-02  0.8130204E-01
       -2   -1    0    0    0  501  0.00000000000E+00  0.00000000000E+00  0.20471720974E+04  0.20471720974E+04  0.25500000920E-02 0. -1.
        2   -1    0    0  501    0  0.00000000000E+00  0.00000000000E+00 -0.14380323636E+04  0.14380323636E+04  0.25500000920E-02 0.  1.
    10030    2    1    2    0    0  0.00000000000E+00  0.00000000000E+00  0.60913973374E+03  0.34852044610E+04  0.34315592549E+04 0.  0.
        1    1    3    3  502    0  0.15527914460E+04  0.56071153040E+03 -0.17000467888E+03  0.16596566772E+04  0.50400001928E-02 0. -1.
       -1    1    3    3    0  502 -0.15527914460E+04 -0.56071153040E+03  0.77914441263E+03  0.18255477838E+04  0.50400001928E-02 0.  1.
</event>
<event>
 5   0  0.6584420E-08  0.3404748E+04  0.7818609E-02  0.8136742E-01
       -1   -1    0    0    0  501  0.00000000000E+00  0.00000000000E+00  0.28535823140E+04  0.28535823140E+04  0.50400001928E-02 0. -1.
        1   -1    0    0  501    0  0.00000000000E+00  0.00000000000E+00 -0.10155929316E+04  0.10155929317E+04  0.50400001928E-02 0.  1.
    10030    2    1    2    0    0  0.00000000000E+00  0.00000000000E+00  0.18379893823E+04  0.38691752456E+04  0.34047484653E+04 0.  0.
        1    1    3    3  502    0  0.12572555024E+04  0.11160296746E+04  0.12236370254E+04  0.20793030571E+04  0.50400001928E-02 0. -1.
       -1    1    3    3    0  502 -0.12572555024E+04 -0.11160296746E+04  0.61435235686E+03  0.17898721886E+04  0.50400001928E-02 0.  1.
</event>
<event>
 5   0  0.1928004E-07  0.3396845E+04  0.7818609E-02  0.8138681E-01
        2   -1    0    0  501    0  0.00000000000E+00  0.00000000000E+00  0.16668744306E+04  0.16668744306E+04  0.25500000920E-02 0.  1.
       -2   -1    0    0    0  501  0.00000000000E+00  0.00000000000E+00 -0.17305671553E+04  0.17305671553E+04  0.25500000920E-02 0. -1.
    10030    2    1    2    0    0  0.00000000000E+00  0.00000000000E+00 -0.63692724726E+02  0.33974415859E+04  0.33968445014E+04 0.  0.
        2    1    3    3  502    0 -0.13569381724E+04  0.19975002855E+03  0.97005665827E+03  0.16799378554E+04  0.25500000920E-02 0.  1.
       -2    1    3    3    0  502  0.13569381724E+04 -0.19975002855E+03 -0.10337493830E+04  0.17175037306E+04  0.25500000920E-02 0. -1.
</event>
<event>
 5   0  0.6341535E-08  0.3401244E+04  0.7818609E-02  0.8137601E-01
       -1   -1    0    0    0  501  0.00000000000E+00  0.00000000000E+00  0.11243522627E+04  0.11243522627E+04  0.50400001928E-02 0.  1.
        1   -1    0    0  501    0  0.00000000000E+00  0.00000000000E+00 -0.25722504789E+04  0.25722504789E+04  0.50400001928E-02 0. -1.
    10030    2    1    2    0    0  0.00000000000E+00  0.00000000000E+00 -0.14478982163E+04  0.36966027416E+04  0.34012442701E+04 0.  0.
        5    1    3    3  502    0 -0.56608406048E+03  0.16033615674E+04 -0.75608125376E+03  0.18608870013E+04  0.46999998093E+01 0.  1.
       -5    1    3    3    0  502  0.56608406048E+03 -0.16033615674E+04 -0.69181696250E+03  0.18357157403E+04  0.46999998093E+01 0. -1.
</event>
<event>
 5   0  0.1986613E-07  0.3431036E+04  0.7818609E-02  0.8130331E-01
       -2   -1    0    0    0  501  0.00000000000E+00  0.00000000000E+00  0.13226964288E+04  0.13226964288E+04  0.25500000920E-02 0. -1.
        2   -1    0    0  501    0  0.00000000000E+00  0.00000000000E+00 -0.22250012134E+04  0.22250012134E+04  0.25500000920E-02 0.  1.
    10030    2    1    2    0    0  0.00000000000E+00  0.00000000000E+00 -0.90230478464E+03  0.35476976422E+04  0.34310355049E+04 0.  0.
        5    1    3    3  502    0  0.24842293312E+03 -0.59264227513E+03  0.11935415855E+04  0.13555450661E+04  0.46999998093E+01 0. -1.
       -5    1    3    3    0  502 -0.24842293312E+03  0.59264227513E+03 -0.20958463701E+04  0.21921525761E+04  0.46999998093E+01 0.  1.
</event>
<event>
 5   0  0.6311750E-08  0.3396782E+04  0.7818609E-02  0.8138697E-01
       -1   -1    0    0    0  501  0.00000000000E+00  0.00000000000E+00  0.15222700966E+04  0.15222700966E+04  0.50400001928E-02 0. -1.
        1   -1    0    0  501    0  0.00000000000E+00  0.00000000000E+00 -0.18948881586E+04  0.18948881586E+04  0.50400001928E-02 0.  1.
    10030    2    1    2    0    0  0.00000000000E+00  0.00000000000E+00 -0.37261806199E+03  0.34171582551E+04  0.33967817593E+04 0.  0.
        4    1    3    3  502    0  0.57220981747E+03  0.15310245822E+04  0.27805461655E+03  0.16579434035E+04  0.12699999809E+01 0. -1.
       -4    1    3    3    0  502 -0.57220981747E+03 -0.15310245822E+04 -0.65067267854E+03  0.17592148516E+04  0.12699999809E+01 0.  1.
</event>
<event>
 5   0  0.1963852E-07  0.3405839E+04  0.7818609E-02  0.8136475E-01
       -2   -1    0    0    0  501  0.00000000000E+00  0.00000000000E+00  0.16232189199E+04  0.16232189199E+04  0.25500000920E-02 0.  1.
        2   -1    0    0  501    0  0.00000000000E+00  0.00000000000E+00 -0.17865335887E+04  0.17865335887E+04  0.25500000920E-02 0. -1.
    10030    2    1    2    0    0  0.00000000000E+00  0.00000000000E+00 -0.16331466879E+03  0.34097525085E+04  0.34058391753E+04 0.  0.
        4    1    3    3  502    0 -0.92114781016E+03  0.72311273518E+03 -0.13194144958E+04  0.17641602933E+04  0.12699999809E+01 0.  1.
       -4    1    3    3    0  502  0.92114781016E+03 -0.72311273518E+03  0.11560998270E+04  0.16455922152E+04  0.12699999809E+01 0. -1.
</event>
<event>
 5   0  0.6584420E-08  0.3397747E+04  0.7818609E-02  0.8138460E-01
       -1   -1    0    0    0  501  0.00000000000E+00  0.00000000000E+00  0.26568213285E+04  0.26568213285E+04  0.50400001928E-02 0.  1.
        1   -1    0    0  501    0  0.00000000000E+00  0.00000000000E+00 -0.10863247994E+04  0.10863247994E+04  0.50400001928E-02 0. -1.
    10030    2    1    2    0    0  0.00000000000E+00  0.00000000000E+00  0.15704965291E+04  0.37431461280E+04  0.33977468398E+04 0.  0.
        1    1    3    3  502    0  0.80918108956E+03  0.12703394221E+04 -0.80539767262E+02  0.15083179165E+04  0.50400001928E-02 0. -1.
       -1    1    3    3    0  502 -0.80918108956E+03 -0.12703394221E+04  0.16510362964E+04  0.22348282115E+04  0.50400001928E-02 0.  1.
</event>
<event>
 5   0  0.1970449E-07  0.3397798E+04  0.7818609E-02  0.8138447E-01
       -2   -1    0    0    0  501  0.00000000000E+00  0.00000000000E+00  0.15159449279E+04  0.15159449279E+04  0.25500000920E-02 0.  1.
        2   -1    0    0  501    0  0.00000000000E+00  0.00000000000E+00 -0.19039326308E+04  0.19039326308E+04  0.25500000920E-02 0. -1.
    10030    2    1    2    0    0  0.00000000000E+00  0.00000000000E+00 -0.38798770296E+03  0.34198775587E+04  0.33977975306E+04 0.  0.
        1    1    3    3  502    0 -0.30585195547E+03  0.69196999636E+03 -0.17250260808E+04  0.18836355470E+04  0.50400001928E-02 0. -1.
       -1    1    3    3    0  502  0.30585195547E+03 -0.69196999636E+03  0.13370383779E+04  0.15362420117E+04  0.50400001928E-02 0.  1.
</event>
<event>
 5   0  0.6311750E-08  0.3395400E+04  0.7818609E-02  0.8139036E-01
        1   -1    0    0  501    0  0.00000000000E+00  0.00000000000E+00  0.11282013248E+04  0.11282013249E+04  0.50400001928E-02 0.  1.
       -1   -1    0    0    0  501  0.00000000000E+00  0.00000000000E+00 -0.25546735764E+04  0.25546735764E+04  0.50400001928E-02 0. -1.
    10030    2    1    2    0    0  0.00000000000E+00  0.00000000000E+00 -0.14264722515E+04  0.36828749013E+04  0.33954004851E+04 0.  0.
        4    1    3    3  502    0  0.97152206267E+03  0.10705271835E+04  0.25223889964E+03  0.14674841206E+04  0.12699999809E+01 0. -1.
       -4    1    3    3    0  502 -0.97152206267E+03 -0.10705271835E+04 -0.16787111512E+04  0.22153907806E+04  0.12699999809E+01 0.  1.
</event>
<event>
 5   0  0.1897313E-07  0.3395320E+04  0.7818609E-02  0.8139056E-01
       -2   -1    0    0    0  501  0.00000000000E+00  0.00000000000E+00  0.14844993472E+04  0.14844993472E+04  0.25500000920E-02 0. -1.
        2   -1    0    0  501    0  0.00000000000E+00  0.00000000000E+00 -0.19414283336E+04  0.19414283336E+04  0.25500000920E-02 0.  1.
    10030    2    1    2    0    0  0.00000000000E+00  0.00000000000E+00 -0.45692898638E+03  0.34259276808E+04  0.33953197752E+04 0.  0.
        3    1    3    3  502    0  0.10394750091E+04 -0.25173314422E+03 -0.15587467076E+04  0.18903886317E+04  0.10100000352E+00 0.  1.
       -3    1    3    3    0  502 -0.10394750091E+04  0.25173314422E+03  0.11018177212E+04  0.15355390491E+04  0.10100000352E+00 0. -1.
</event>
<event>
 5   0  0.6367111E-08  0.3396051E+04  0.7818609E-02  0.8138876E-01
       -1   -1    0    0    0  501  0.00000000000E+00  0.00000000000E+00  0.15051403731E+04  0.15051403731E+04  0.50400001928E-02 0.  1.
        1   -1    0    0  501    0  0.00000000000E+00  0.00000000000E+00 -0.19156286999E+04  0.19156286999E+04  0.50400001928E-02 0. -1.
    10030    2    1    2    0    0  0.00000000000E+00  0.00000000000E+00 -0.41048832677E+03  0.34207690731E+04  0.33960507041E+04 0.  0.
        3    1    3    3  502    0 -0.66935250217E+03  0.50638147865E+03  0.12815874069E+04  0.15319664702E+04  0.10100000352E+00 0.  1.
       -3    1    3    3    0  502  0.66935250217E+03 -0.50638147865E+03 -0.16920757336E+04  0.18888026029E+04  0.10100000352E+00 0. -1.
</event>
<event>
 5   0  0.1970449E-07  0.3406877E+04  0.7818609E-02  0.8136221E-01
       -2   -1    0    0    0  501  0.00000000000E+00  0.00000000000E+00  0.10894085938E+04  0.10894085938E+04  0.25500000920E-02 0. -1.
        2   -1    0    0  501    0  0.00000000000E+00  0.00000000000E+00 -0.26635579953E+04  0.26635579953E+04  0.25500000920E-02 0.  1.
    10030    2    1    2    0    0  0.00000000000E+00  0.00000000000E+00 -0.15741494015E+04  0.37529665891E+04  0.34068771449E+04 0.  0.
        1    1    3    3  502    0 -0.12326056706E+04  0.11694393570E+04 -0.92107850071E+03  0.19326900303E+04  0.50400001928E-02 0.  1.
       -1    1    3    3    0  502  0.12326056706E+04 -0.11694393570E+04 -0.65307090078E+03  0.18202765588E+04  0.50400001928E-02 0. -1.
</event>
<event>
 5   0  0.6311750E-08  0.3404729E+04  0.7818609E-02  0.8136747E-01
       -1   -1    0    0    0  501  0.00000000000E+00  0.00000000000E+00  0.16645327390E+04  0.16645327390E+04  0.50400001928E-02 0.  1.
        1   -1    0    0  501    0  0.00000000000E+00  0.00000000000E+00 -0.17410564006E+04  0.17410564006E+04  0.50400001928E-02 0. -1.
    10030    2    1    2    0    0  0.00000000000E+00  0.00000000000E+00 -0.76523661582E+02  0.34055891397E+04  0.34047292870E+04 0.  0.
        4    1    3    3  502    0 -0.32161454069E+03 -0.16584734112E+04 -0.24825245508E+03  0.17075130637E+04  0.12699999809E+01 0. -1.
       -4    1    3    3    0  502  0.32161454069E+03  0.16584734112E+04  0.17172879350E+03  0.16980760760E+04  0.12699999809E+01 0.  1.
</event>
<event>
 5   0  0.1897313E-07  0.3405892E+04  0.7818609E-02  0.8136462E-01
       -2   -1    0    0    0  501  0.00000000000E+00  0.00000000000E+00  0.10877123742E+04  0.10877123742E+04  0.25500000920E-02 0.  1.
        2   -1    0    0  501    0  0.00000000000E+00  0.00000000000E+00 -0.26661697934E+04  0.26661697934E+04  0.25500000920E-02 0. -1.
    10030    2    1    2    0    0  0.00000000000E+00  0.00000000000E+00 -0.15784574192E+04  0.37538821677E+04  0.34058924681E+04 0.  0.
        3    1    3    3  502    0 -0.67583832619E+03  0.95838515252E+01 -0.25119980404E+04  0.26013426261E+04  0.10100000352E+00 0. -1.
       -3    1    3    3    0  502  0.67583832619E+03 -0.95838515252E+01  0.93354062116E+03  0.11525395416E+04  0.10100000352E+00 0.  1.
</event>
<event>
 5   0  0.6311750E-08  0.3401696E+04  0.7818609E-02  0.8137490E-01
       -1   -1    0    0    0  501  0.00000000000E+00  0.00000000000E+00  0.31719114926E+04  0.31719114926E+04  0.50400001928E-02 0.  1.
        1   -1    0    0  501    0  0.00000000000E+00  0.00000000000E+00 -0.91203187803E+03  0.91203187804E+03  0.50400001928E-02 0. -1.
    10030    2    1    2    0    0  0.00000000000E+00  0.00000000000E+00  0.22598796146E+04  0.40839433707E+04  0.34016962802E+04 0.  0.
        4    1    3    3  502    0 -0.18969498244E+03 -0.13268126146E+04  0.23870748589E+04  0.27376164625E+04  0.12699999809E+01 0.  1.
       -4    1    3    3    0  502  0.18969498244E+03  0.13268126146E+04 -0.12719524434E+03  0.13463269082E+04  0.12699999809E+01 0. -1.
</event>
<event>
 5   0  0.6311750E-08  0.3401967E+04  0.7818609E-02  0.8137424E-01
       -3   -1    0    0    0  501  0.00000000000E+00  0.00000000000E+00  0.18623714287E+04  0.18623714314E+04  0.10100000352E+00 0. -1.
        3   -1    0    0  501    0  0.00000000000E+00  0.00000000000E+00 -0.15535814196E+04  0.15535814229E+04  0.10100000352E+00 0.  1.
    10030    2    1    2    0    0  0.00000000000E+00  0.00000000000E+00  0.30879000910E+03  0.34159528543E+04  0.34019674650E+04 0.  0.
        4    1    3    3  502    0 -0.63702712292E+03  0.88706058267E+02 -0.14267758744E+04  0.15650441939E+04  0.12699999809E+01 0.  1.
       -4    1    3    3    0  502  0.63702712292E+03 -0.88706058267E+02  0.17355658835E+04  0.18509086604E+04  0.12699999809E+01 0. -1.
</event>
<event>
 5   0  0.6311750E-08  0.3406649E+04  0.7818609E-02  0.8136276E-01
        1   -1    0    0  501    0  0.00000000000E+00  0.00000000000E+00  0.15998648235E+04  0.15998648235E+04  0.50400001928E-02 0.  1.
       -1   -1    0    0    0  501  0.00000000000E+00  0.00000000000E+00 -0.18134741928E+04  0.18134741928E+04  0.50400001928E-02 0. -1.
    10030    2    1    2    0    0  0.00000000000E+00  0.00000000000E+00 -0.21360936929E+03  0.34133390163E+04  0.34066485404E+04 0.  0.
        4    1    3    3  502    0  0.53864426100E+03  0.39619630102E+03 -0.16764709296E+04  0.18049004237E+04  0.12699999809E+01 0. -1.
       -4    1    3    3    0  502 -0.53864426100E+03 -0.39619630102E+03  0.14628615603E+04  0.16084385926E+04  0.12699999809E+01 0.  1.
</event>
<event>
 5   0  0.6341535E-08  0.3405543E+04  0.7818609E-02  0.8136547E-01
       -1   -1    0    0    0  501  0.00000000000E+00  0.00000000000E+00  0.19246455413E+04  0.19246455413E+04  0.50400001928E-02 0. -1.
        1   -1    0    0  501    0  0.00000000000E+00  0.00000000000E+00 -0.15064755526E+04  0.15064755526E+04  0.50400001928E-02 0.  1.
    10030    2    1    2    0    0  0.00000000000E+00  0.00000000000E+00  0.41816998870E+03  0.34311210938E+04  0.34055433959E+04 0.  0.
        5    1    3    3  502    0 -0.20076383416E+02  0.10762111793E+04  0.15383790037E+04  0.18775690700E+04  0.46999998093E+01 0. -1.
       -5    1    3    3    0  502  0.20076383416E+02 -0.10762111793E+04 -0.11202090150E+04  0.15535520239E+04  0.46999998093E+01 0.  1.
</event>
<event>
 5   0  0.1928004E-07  0.3394839E+04  0.7818609E-02  0.8139174E-01
       -2   -1    0    0    0  501  0.00000000000E+00  0.00000000000E+00  0.12689867918E+04  0.12689867918E+04  0.25500000920E-02 0. -1.
        2   -1    0    0  501    0  0.00000000000E+00  0.00000000000E+00 -0.22704982492E+04  0.22704982492E+04  0.25500000920E-02 0.  1.
    10030    2    1    2    0    0  0.00000000000E+00  0.00000000000E+00 -0.10015114575E+04  0.35394850410E+04  0.33948386053E+04 0.  0.
        2    1    3    3  502    0  0.86217899706E+02 -0.91303240054E+03  0.98844826155E+03  0.13483662916E+04  0.25500000920E-02 0. -1.
       -2    1    3    3    0  502 -0.86217899706E+02  0.91303240054E+03 -0.19899597190E+04  0.21911187494E+04  0.25500000920E-02 0.  1.
</event>
<event>
 5   0  0.1963852E-07  0.3402202E+04  0.7818609E-02  0.8137366E-01
       -2   -1    0    0    0  501  0.00000000000E+00  0.00000000000E+00  0.12266659176E+04  0.12266659176E+04  0.25500000920E-02 0.  1.
        2   -1    0    0  501    0  0.00000000000E+00  0.00000000000E+00 -0.23590326415E+04  0.23590326415E+04  0.25500000920E-02 0. -1.
    10030    2    1    2    0    0  0.00000000000E+00  0.00000000000E+00 -0.11323667239E+04  0.35856985592E+04  0.34022021927E+04 0.  0.
        4    1    3    3  502    0  0.11460793609E+03  0.14255467858E+02  0.12225287362E+04  0.12279724431E+04  0.12699999809E+01 0.  1.
       -4    1    3    3    0  502 -0.11460793609E+03 -0.14255467858E+02 -0.23548954601E+04  0.23577261160E+04  0.12699999809E+01 0. -1.
</event>
<event>
 5   0  0.1897313E-07  0.3381268E+04  0.7818609E-02  0.8142519E-01
        2   -1    0    0  501    0  0.00000000000E+00  0.00000000000E+00  0.10967333616E+04  0.10967333616E+04  0.25500000920E-02 0.  1.
       -2   -1    0    0    0  501  0.00000000000E+00  0.00000000000E+00 -0.26061420342E+04  0.26061420342E+04  0.25500000920E-02 0. -1.
    10030    2    1    2    0    0  0.00000000000E+00  0.00000000000E+00 -0.15094086726E+04  0.37028753958E+04  0.33812677586E+04 0.  0.
        3    1    3    3  502    0  0.82737587449E+03  0.58415080724E+03 -0.22371431404E+04  0.24557264596E+04  0.10100000352E+00 0. -1.
       -3    1    3    3    0  502 -0.82737587449E+03 -0.58415080724E+03  0.72773446778E+03  0.12471489362E+04  0.10100000352E+00 0.  1.
</event>
<event>
 5   0  0.1986613E-07  0.3399682E+04  0.7818609E-02  0.8137984E-01
       -2   -1    0    0    0  501  0.00000000000E+00  0.00000000000E+00  0.16817534901E+04  0.16817534901E+04  0.25500000920E-02 0.  1.
        2   -1    0    0  501    0  0.00000000000E+00  0.00000000000E+00 -0.17181232039E+04  0.17181232039E+04  0.25500000920E-02 0. -1.
    10030    2    1    2    0    0  0.00000000000E+00  0.00000000000E+00 -0.36369713861E+02  0.33998766940E+04  0.33996821584E+04 0.  0.
        5    1    3    3  502    0 -0.12307072910E+04 -0.55517983693E+02  0.11530845015E+04  0.16874088539E+04  0.46999998093E+01 0.  1.
       -5    1    3    3    0  502  0.12307072910E+04  0.55517983693E+02 -0.11894542154E+04  0.17124678401E+04  0.46999998093E+01 0. -1.
</event>
<event>
 5   0  0.6311750E-08  0.3395727E+04  0.7818609E-02  0.8138956E-01
       -1   -1    0    0    0  501  0.00000000000E+00  0.00000000000E+00  0.21512420916E+04  0.21512420916E+04  0.50400001928E-02 0. -1.
        1   -1    0    0  501    0  0.00000000000E+00  0.00000000000E+00 -0.13400356821E+04  0.13400356821E+04  0.50400001928E-02 0.  1.
    10030    2    1    2    0    0  0.00000000000E+00  0.00000000000E+00  0.81120640953E+03  0.34912777736E+04  0.33957274116E+04 0.  0.
        4    1    3    3  502    0  0.11037962531E+04 -0.64626322535E+03  0.15535864860E+04  0.20123754389E+04  0.12699999809E+01 0. -1.
       -4    1    3    3    0  502 -0.11037962531E+04  0.64626322535E+03 -0.74238007645E+03  0.14789023347E+04  0.12699999809E+01 0.  1.
</event>
<event>
 5   0  0.6584420E-08  0.3395773E+04  0.7818609E-02  0.8138945E-01
       -1   -1    0    0    0  501  0.00000000000E+00  0.00000000000E+00  0.26022872930E+04  0.26022872930E+04  0.50400001928E-02 0. -1.
        1   -1    0    0  501    0  0.00000000000E+00  0.00000000000E+00 -0.11078015926E+04  0.11078015926E+04  0.50400001928E-02 0.  1.
    10030    2    1    2    0    0  0.00000000000E+00  0.00000000000E+00  0.14944857005E+04  0.37100888856E+04  0.33957726706E+04 0.  0.
        1    1    3    3  502    0 -0.49540469072E+03  0.16226613858E+04  0.67508229975E+03  0.18259769692E+04  0.50400001928E-02 0. -1.
       -1    1    3    3    0  502  0.49540469072E+03 -0.16226613858E+04  0.81940340071E+03  0.18841119164E+04  0.50400001928E-02 0.  1.
</event>
<event>
 5   0  0.1897313E-07  0.3413354E+04  0.7818609E-02  0.8134637E-01
       -2   -1    0    0    0  501  0.00000000000E+00  0.00000000000E+00  0.16698987881E+04  0.16698987881E+04  0.25500000920E-02 0.  1.
        2   -1    0    0  501    0  0.00000000000E+00  0.00000000000E+00 -0.17442648721E+04  0.17442648721E+04  0.25500000920E-02 0. -1.
    10030    2    1    2    0    0  0.00000000000E+00  0.00000000000E+00 -0.74366083982E+02  0.34141636602E+04  0.34133536565E+04 0.  0.
        3    1    3    3  502    0  0.87283105608E+03  0.10185345052E+04  0.10182920805E+04  0.16840918509E+04  0.10100000352E+00 0.  1.
       -3    1    3    3    0  502 -0.87283105608E+03 -0.10185345052E+04 -0.10926581645E+04  0.17300718093E+04  0.10100000352E+00 0. -1.
</event>
<event>
 5   0  0.1970449E-07  0.3403849E+04  0.7818609E-02  0.8136962E-01
        2   -1    0    0  501    0  0.00000000000E+00  0.00000000000E+00  0.22692203518E+04  0.22692203518E+04  0.25500000920E-02 0. -1.
       -2   -1    0    0    0  501  0.00000000000E+00  0.00000000000E+00 -0.12764503055E+04  0.12764503055E+04  0.25500000920E-02 0.  1.
    10030    2    1    2    0    0  0.00000000000E+00  0.00000000000E+00  0.99277004630E+03  0.35456706573E+04  0.34038490045E+04 0.  0.
        1    1    3    3  502    0 -0.13255967963E+03 -0.16058170492E+04 -0.74468871567E+02  0.16129990939E+04  0.50400001928E-02 0. -1.
       -1    1    3    3    0  502  0.13255967963E+03  0.16058170492E+04  0.10672389179E+04  0.19326715634E+04  0.50400001928E-02 0.  1.
</event>
<event>
 5   0  0.1897313E-07  0.3398773E+04  0.7818609E-02  0.8138208E-01
        2   -1    0    0  501    0  0.00000000000E+00  0.00000000000E+00  0.30457586777E+04  0.30457586777E+04  0.25500000920E-02 0. -1.
       -2   -1    0    0    0  501  0.00000000000E+00  0.00000000000E+00 -0.94817552945E+03  0.94817552946E+03  0.25500000920E-02 0.  1.
    10030    2    1    2    0    0  0.00000000000E+00  0.00000000000E+00  0.20975831482E+04  0.39939342071E+04  0.33987726295E+04 0.  0.
        3    1    3    3  502    0  0.35794142148E+03 -0.12892998680E+04 -0.18227230530E+03  0.13504219393E+04  0.10100000352E+00 0.  1.
       -3    1    3    3    0  502 -0.35794142148E+03  0.12892998680E+04  0.22798554535E+04  0.26435122678E+04  0.10100000352E+00 0. -1.
</event>
<event>
 5   0  0.6367111E-08  0.3392458E+04  0.7818609E-02  0.8139760E-01
       -1   -1    0    0    0  501  0.00000000000E+00  0.00000000000E+00  0.15540692477E+04  0.15540692477E+04  0.50400001928E-02 0. -1.
        1   -1    0    0  501    0  0.00000000000E+00  0.00000000000E+00 -0.18513925382E+04  0.18513925382E+04  0.50400001928E-02 0.  1.
    10030    2    1    2    0    0  0.00000000000E+00  0.00000000000E+00 -0.29732329052E+03  0.34054617858E+04  0.33924576395E+04 0.  0.
        3    1    3    3  502    0  0.54438022036E+03 -0.12190713364E+04 -0.11989549930E+04  0.17944296680E+04  0.10100000352E+00 0.  1.
       -3    1    3    3    0  502 -0.54438022036E+03  0.12190713364E+04  0.90163170253E+03  0.16110321179E+04  0.10100000352E+00 0. -1.
</event>
<event>
 5   0  0.1928004E-07  0.3404071E+04  0.7818609E-02  0.8136908E-01
       -2   -1    0    0    0  501  0.00000000000E+00  0.00000000000E+00  0.96188817182E+03  0.96188817183E+03  0.25500000920E-02 0.  1.
        2   -1    0    0  501    0  0.00000000000E+00  0.00000000000E+00 -0.30117058922E+04  0.30117058922E+04  0.25500000920E-02 0. -1.
    10030    2    1    2    0    0  0.00000000000E+00  0.00000000000E+00 -0.20498177203E+04  0.39735940640E+04  0.34040706660E+04 0.  0.
        2    1    3    3  502    0 -0.71610259452E+02  0.72356477981E+02 -0.30081489132E+04  0.30098709895E+04  0.25500000920E-02 0. -1.
       -2    1    3    3    0  502  0.71610259452E+02 -0.72356477981E+02  0.95833119286E+03  0.96372307453E+03  0.25500000920E-02 0.  1.
</event>
<event>
 5   0  0.6584420E-08  0.3393441E+04  0.7818609E-02  0.8139518E-01
       -1   -1    0    0    0  501  0.00000000000E+00  0.00000000000E+00  0.16792929795E+04  0.16792929795E+04  0.50400001928E-02 0. -1.
        1   -1    0    0  501    0  0.00000000000E+00  0.00000000000E+00 -0.17143290174E+04  0.17143290174E+04  0.50400001928E-02 0.  1.
    10030    2    1    2    0    0  0.00000000000E+00  0.00000000000E+00 -0.35036037881E+02  0.33936219969E+04  0.33934411346E+04 0.  0.
        1    1    3    3  502    0  0.40149398351E+03 -0.16204785255E+04  0.28533902574E+03  0.16936842770E+04  0.50400001928E-02 0.  1.
       -1    1    3    3    0  502 -0.40149398351E+03  0.16204785255E+04 -0.32037506362E+03  0.16999377200E+04  0.50400001928E-02 0. -1.
</event>
<event>
 5   0  0.1897313E-07  0.3412633E+04  0.7818609E-02  0.8134813E-01
       -2   -1    0    0    0  501  0.00000000000E+00  0.00000000000E+00  0.15801948265E+04  0.15801948265E+04  0.25500000920E-02 0. -1.
        2   -1    0    0  501    0  0.00000000000E+00  0.00000000000E+00 -0.18425039533E+04  0.18425039533E+04  0.25500000920E-02 0.  1.
    10030    2    1    2    0    0  0.00000000000E+00  0.00000000000E+00 -0.26230912677E+03  0.34226987798E+04  0.34126325409E+04 0.  0.
        3    1    3    3  502    0 -0.15997867398E+04  0.18369983863E+03 -0.69713460434E+03  0.17547250241E+04  0.10100000352E+00 0.  1.
       -3    1    3    3    0  502  0.15997867398E+04 -0.18369983863E+03  0.43482547757E+03  0.16679737557E+04  0.10100000352E+00 0. -1.
</event>
<event>
 5   0  0.1928004E-07  0.3395110E+04  0.7818609E-02  0.8139107E-01
        2   -1    0    0  501    0  0.00000000000E+00  0.00000000000E+00  0.16758064423E+04  0.16758064423E+04  0.25500000920E-02 0. -1.
       -2   -1    0    0    0  501  0.00000000000E+00  0.00000000000E+00 -0.17195861045E+04  0.17195861045E+04  0.25500000920E-02 0.  1.
    10030    2    1    2    0    0  0.00000000000E+00  0.00000000000E+00 -0.43779662256E+02  0.33953925468E+04  0.33951102910E+04 0.  0.
        2    1    3    3  502    0 -0.94162527035E+03 -0.14105020354E+04  0.52408540873E+02  0.16967382818E+04  0.25500000920E-02 0. -1.
       -2    1    3    3    0  502  0.94162527035E+03  0.14105020354E+04 -0.96188203129E+02  0.16986542650E+04  0.25500000920E-02 0.  1.
</event>
<event>
 5   0  0.6584420E-08  0.3403427E+04  0.7818609E-02  0.8137066E-01
        1   -1    0    0  501    0  0.00000000000E+00  0.00000000000E+00  0.25469423004E+04  0.25469423004E+04  0.50400001928E-02 0. -1.
       -1   -1    0    0    0  501  0.00000000000E+00  0.00000000000E+00 -0.11369825442E+04  0.11369825442E+04  0.50400001928E-02 0.  1.
    10030    2    1    2    0    0  0.00000000000E+00  0.00000000000E+00  0.14099597562E+04  0.36839248446E+04  0.34034270591E+04 0.  0.
        1    1    3    3  502    0 -0.79362629522E+03  0.14955465916E+04  0.51961586982E+03  0.17710174918E+04  0.50400001928E-02 0.  1.
       -1    1    3    3    0  502  0.79362629522E+03 -0.14955465916E+04  0.89034388638E+03  0.19129073528E+04  0.50400001928E-02 0. -1.
</event>
<event>
 5   0  0.1986613E-07  0.3401503E+04  0.7818609E-02  0.8137538E-01
        2   -1    0    0  501    0  0.00000000000E+00  0.00000000000E+00  0.19457013441E+04  0.19457013441E+04  0.25500000920E-02 0. -1.
       -2   -1    0    0    0  501  0.00000000000E+00  0.00000000000E+00 -0.14866390478E+04  0.14866390478E+04  0.25500000920E-02 0.  1.
    10030    2    1    2    0    0  0.00000000000E+00  0.00000000000E+00  0.45906229635E+03  0.34323403919E+04  0.34015029581E+04 0.  0.
        5    1    3    3  502    0 -0.92616473455E+03 -0.12242916874E+04 -0.50913140137E+03  0.16173769274E+04  0.46999998093E+01 0.  1.
       -5    1    3    3    0  502  0.92616473455E+03  0.12242916874E+04  0.96819369772E+03  0.18149634645E+04  0.46999998093E+01 0. -1.
</event>
<event>
 5   0  0.1928004E-07  0.3405384E+04  0.7818609E-02  0.8136586E-01
       -2   -1    0    0    0  501  0.00000000000E+00  0.00000000000E+00  0.15335628966E+04  0.15335628966E+04  0.25500000920E-02 0. -1.
        2   -1    0    0  501    0  0.00000000000E+00  0.00000000000E+00 -0.18904730156E+04  0.18904730156E+04  0.25500000920E-02 0.  1.
    10030    2    1    2    0    0  0.00000000000E+00  0.00000000000E+00 -0.35691011902E+03  0.34240359123E+04  0.34053835460E+04 0.  0.
        2    1    3    3  502    0 -0.47988925402E+03  0.12331331198E+03  0.14594731704E+04  0.15412857633E+04  0.25500000920E-02 0. -1.
       -2    1    3    3    0  502  0.47988925402E+03 -0.12331331198E+03 -0.18163832895E+04  0.18827501489E+04  0.25500000920E-02 0.  1.
</event>
<event>
 5   0  0.1986613E-07  0.3364376E+04  0.7818609E-02  0.8146705E-01
       -2   -1    0    0    0  501  0.00000000000E+00  0.00000000000E+00  0.21293880725E+04  0.21293880725E+04  0.25500000920E-02 0.  1.
        2   -1    0    0  501    0  0.00000000000E+00  0.00000000000E+00 -0.13289062873E+04  0.13289062873E+04  0.25500000920E-02 0. -1.
    10030    2    1    2    0    0  0.00000000000E+00  0.00000000000E+00  0.80048178515E+03  0.34582943598E+04  0.33643764341E+04 0.  0.
        5    1    3    3  502    0 -0.16753185680E+04 -0.13200058752E+03  0.47729100808E+03  0.17469817560E+04  0.46999998093E+01 0.  1.
       -5    1    3    3    0  502  0.16753185680E+04  0.13200058752E+03  0.32319077707E+03  0.17113126038E+04  0.46999998093E+01 0. -1.
</event>
<event>
 5   0  0.6584420E-08  0.3401225E+04  0.7818609E-02  0.8137606E-01
       -1   -1    0    0    0  501  0.00000000000E+00  0.00000000000E+00  0.15042783793E+04  0.15042783793E+04  0.50400001928E-02 0. -1.
        1   -1    0    0  501    0  0.00000000000E+00  0.00000000000E+00 -0.19225712799E+04  0.19225712799E+04  0.50400001928E-02 0.  1.
    10030    2    1    2    0    0  0.00000000000E+00  0.00000000000E+00 -0.41829290057E+03  0.34268496592E+04  0.34012247260E+04 0.  0.
        1    1    3    3  502    0 -0.50830290459E+03 -0.10283165720E+04  0.10558106577E+04  0.15590198716E+04  0.50400001928E-02 0. -1.
       -1    1    3    3    0  502  0.50830290459E+03  0.10283165720E+04 -0.14741035583E+04  0.18678297877E+04  0.50400001928E-02 0.  1.
</event>
<event>
 5   0  0.1963852E-07  0.3394527E+04  0.7818609E-02  0.8139251E-01
       -2   -1    0    0    0  501  0.00000000000E+00  0.00000000000E+00  0.13467897706E+04  0.13467897706E+04  0.25500000920E-02 0. -1.
        2   -1    0    0  501    0  0.00000000000E+00  0.00000000000E+00 -0.21389406484E+04  0.21389406484E+04  0.25500000920E-02 0.  1.
    10030    2    1    2    0    0  0.00000000000E+00  0.00000000000E+00 -0.79215087776E+03  0.34857304190E+04  0.33945269981E+04 0.  0.
        4    1    3    3  502    0 -0.32700321327E+03 -0.26602932178E+03 -0.20843282342E+04  0.21265296852E+04  0.12699999809E+01 0.  1.
       -4    1    3    3    0  502  0.32700321327E+03  0.26602932178E+03  0.12921773564E+04  0.13592007338E+04  0.12699999809E+01 0. -1.
</event>
<event>
 5   0  0.1897313E-07  0.3401130E+04  0.7818609E-02  0.8137629E-01
        2   -1    0    0  501    0  0.00000000000E+00  0.00000000000E+00  0.14601303390E+04  0.14601303390E+04  0.25500000920E-02 0.  1.
       -2   -1    0    0    0  501  0.00000000000E+00  0.00000000000E+00 -0.19805916899E+04  0.19805916900E+04  0.25500000920E-02 0. -1.
    10030    2    1    2    0    0  0.00000000000E+00  0.00000000000E+00 -0.52046135091E+03  0.34407220290E+04  0.34011304096E+04 0.  0.
        3    1    3    3  502    0 -0.14285477298E+04  0.82165055461E+03 -0.68471463547E+03  0.17845706465E+04  0.10100000352E+00 0. -1.
       -3    1    3    3    0  502  0.14285477298E+04 -0.82165055461E+03  0.16425328456E+03  0.16561513825E+04  0.10100000352E+00 0.  1.
</event>
<event>
 5   0  0.1986613E-07  0.3396845E+04  0.7818609E-02  0.8138681E-01
        2   -1    0    0  501    0  0.00000000000E+00  0.00000000000E+00  0.25889520405E+04  0.25889520405E+04  0.25500000920E-02 0.  1.
       -2   -1    0    0    0  501  0.00000000000E+00  0.00000000000E+00 -0.11142110540E+04  0.11142110540E+04  0.25500000920E-02 0. -1.
    10030    2    1    2    0    0  0.00000000000E+00  0.00000000000E+00  0.14747409865E+04  0.37031630945E+04  0.33968449961E+04 0.  0.
        5    1    3    3  502    0 -0.14463074935E+03 -0.42547776577E+03  0.25229555166E+04  0.25626697040E+04  0.46999998093E+01 0.  1.
       -5    1    3    3    0  502  0.14463074935E+03  0.42547776577E+03 -0.10482145301E+04  0.11404933906E+04  0.46999998093E+01 0. -1.
</event>
<event>
 5   0  0.1897313E-07  0.3375420E+04  0.7818609E-02  0.8143966E-01
       -2   -1    0    0    0  501  0.00000000000E+00  0.00000000000E+00  0.13575520240E+04  0.13575520241E+04  0.25500000920E-02 0. -1.
        2   -1    0    0  501    0  0.00000000000E+00  0.00000000000E+00 -0.20981626287E+04  0.20981626287E+04  0.25500000920E-02 0.  1.
    10030    2    1    2    0    0  0.00000000000E+00  0.00000000000E+00 -0.74061060466E+03  0.34557146528E+04  0.33754199285E+04 0.  0.
        3    1    3    3  502    0 -0.13194100677E+04  0.35225931043E+03 -0.13855786257E+04  0.19454453698E+04  0.10100000352E+00 0.  1.
       -3    1    3    3    0  502  0.13194100677E+04 -0.35225931043E+03  0.64496802105E+03  0.15102692830E+04  0.10100000352E+00 0. -1.
</event>
<event>
 5   0  0.6367111E-08  0.3396462E+04  0.7818609E-02  0.8138775E-01
        1   -1    0    0  501    0  0.00000000000E+00  0.00000000000E+00  0.20626041323E+04  0.20626041323E+04  0.50400001928E-02 0.  1.
       -1   -1    0    0    0  501  0.00000000000E+00  0.00000000000E+00 -0.13982265030E+04  0.13982265030E+04  0.50400001928E-02 0. -1.
    10030    2    1    2    0    0  0.00000000000E+00  0.00000000000E+00  0.66437762933E+03  0.34608306353E+04  0.33964615488E+04 0.  0.
        3    1    3    3  502    0  0.66634918823E+02 -0.11045933453E+03 -0.13932267685E+04  0.13991863049E+04  0.10100000352E+00 0. -1.
       -3    1    3    3    0  502 -0.66634918823E+02  0.11045933453E+03  0.20576043979E+04  0.20616443305E+04  0.10100000352E+00 0.  1.
</event>
<event>
 5   0  0.6367111E-08  0.3395134E+04  0.7818609E-02  0.8139102E-01
        1   -1    0    0  501    0  0.00000000000E+00  0.00000000000E+00  0.18117723237E+04  0.18117723237E+04  0.50400001928E-02 0.  1.
       -1   -1    0    0    0  501  0.00000000000E+00  0.00000000000E+00 -0.15905606375E+04  0.15905606375E+04  0.50400001928E-02 0. -1.
    10030    2    1    2    0    0  0.00000000000E+00  0.00000000000E+00  0.22121168618E+03  0.34023329612E+04  0.33951340134E+04 0.  0.
        3    1    3    3  502    0  0.94676713574E+03 -0.61353502864E+03 -0.11605239027E+04  0.16185206145E+04  0.10100000352E+00 0. -1.
       -3    1    3    3    0  502 -0.94676713574E+03  0.61353502864E+03  0.13817355889E+04  0.17838123467E+04  0.10100000352E+00 0.  1.
</event>
<event>
 5   0  0.1963852E-07  0.3395722E+04  0.7818609E-02  0.8138957E-01
       -2   -1    0    0    0  501  0.00000000000E+00  0.00000000000E+00  0.91037718702E+03  0.91037718702E+03  0.25500000920E-02 0.  1.
        2   -1    0    0  501    0  0.00000000000E+00  0.00000000000E+00 -0.31665255901E+04  0.31665255901E+04  0.25500000920E-02 0. -1.
    10030    2    1    2    0    0  0.00000000000E+00  0.00000000000E+00 -0.22561484031E+04  0.40769027772E+04  0.33957224029E+04 0.  0.
        4    1    3    3  502    0  0.82074438454E+03  0.14730326354E+04 -0.13660370202E+04  0.21701394524E+04  0.12699999809E+01 0.  1.
       -4    1    3    3    0  502 -0.82074438454E+03 -0.14730326354E+04 -0.89011138295E+03  0.19067633247E+04  0.12699999809E+01 0. -1.
</event>
<event>
 5   0  0.6341535E-08  0.3395795E+04  0.7818609E-02  0.8138939E-01
       -1   -1    0    0    0  501  0.00000000000E+00  0.00000000000E+00  0.16900884544E+04  0.16900884544E+04  0.50400001928E-02 0.  1.
        1   -1    0    0  501    0  0.00000000000E+00  0.00000000000E+00 -0.17057425250E+04  0.17057425250E+04  0.50400001928E-02 0. -1.
    10030    2    1    2    0    0  0.00000000000E+00  0.00000000000E+00 -0.15654070556E+02  0.33958309794E+04  0.33957948982E+04 0.  0.
        5    1    3    3  502    0 -0.55269315318E+03 -0.61827020441E+03 -0.14894317524E+04  0.17047453775E+04  0.46999998093E+01 0. -1.
       -5    1    3    3    0  502  0.55269315318E+03  0.61827020441E+03  0.14737776818E+04  0.16910856018E+04  0.46999998093E+01 0.  1.
</event>
<event>
 5   0  0.6367111E-08  0.3400675E+04  0.7818609E-02  0.8137741E-01
       -1   -1    0    0    0  501  0.00000000000E+00  0.00000000000E+00  0.16844350587E+04  0.16844350587E+04  0.50400001928E-02 0.  1.
        1   -1    0    0  501    0  0.00000000000E+00  0.00000000000E+00 -0.17163897354E+04  0.17163897355E+04  0.50400001928E-02 0. -1.
    10030    2    1    2    0    0  0.00000000000E+00  0.00000000000E+00 -0.31954676725E+02  0.34008247942E+04  0.34006746653E+04 0.  0.
        3    1    3    3  502    0  0.81003991237E+03  0.79359931056E+03  0.12510365683E+04  0.16885073381E+04  0.10100000352E+00 0.  1.
       -3    1    3    3    0  502 -0.81003991237E+03 -0.79359931056E+03 -0.12829912450E+04  0.17123174561E+04  0.10100000352E+00 0. -1.
</event>
<event>
 5   0  0.6311750E-08  0.3397895E+04  0.7818609E-02  0.8138423E-01
       -3   -1    0    0    0  501  0.00000000000E+00  0.00000000000E+00  0.10444024748E+04  0.10444024796E+04  0.10100000352E+00 0.  1.
        3   -1    0    0  501    0  0.00000000000E+00  0.00000000000E+00 -0.27637074430E+04  0.27637074449E+04  0.10100000352E+00 0. -1.
    10030    2    1    2    0    0  0.00000000000E+00  0.00000000000E+00 -0.17193049683E+04  0.38081099245E+04  0.33978951754E+04 0.  0.
        1    1    3    3  502    0 -0.14696959198E+04 -0.80616084070E+03 -0.11696735891E+04  0.20440248782E+04  0.50400001928E-02 0.  1.
       -1    1    3    3    0  502  0.14696959198E+04  0.80616084070E+03 -0.54963137917E+03  0.17640850463E+04  0.50400001928E-02 0. -1.
</event>
<event>
 5   0  0.6367111E-08  0.3409994E+04  0.7818609E-02  0.8135458E-01
        1   -1    0    0  501    0  0.00000000000E+00  0.00000000000E+00  0.16706910833E+04  0.16706910833E+04  0.50400001928E-02 0. -1.
       -1   -1    0    0    0  501  0.00000000000E+00  0.00000000000E+00 -0.17400073976E+04  0.17400073977E+04  0.50400001928E-02 0.  1.
    10030    2    1    2    0    0  0.00000000000E+00  0.00000000000E+00 -0.69316314383E+02  0.34106984809E+04  0.34099940434E+04 0.  0.
        3    1    3    3  502    0  0.16841235536E+04 -0.25051005440E+03 -0.12404888942E+03  0.17071659464E+04  0.10100000352E+00 0.  1.
       -3    1    3    3    0  502 -0.16841235536E+04  0.25051005440E+03  0.54732575039E+02  0.17035325345E+04  0.10100000352E+00 0. -1.
</event>
<event>
 5   0  0.1970449E-07  0.3409862E+04  0.7818609E-02  0.8135490E-01
        2   -1    0    0  501    0  0.00000000000E+00  0.00000000000E+00  0.18284903922E+04  0.18284903922E+04  0.25500000920E-02 0.  1.
       -2   -1    0    0    0  501  0.00000000000E+00  0.00000000000E+00 -0.15897209379E+04  0.15897209379E+04  0.25500000920E-02 0. -1.
    10030    2    1    2    0    0  0.00000000000E+00  0.00000000000E+00  0.23876945432E+03  0.34182113301E+04  0.34098618512E+04 0.  0.
        1    1    3    3  502    0  0.76829905851E+03  0.15188054214E+04  0.21829806435E+03  0.17160149756E+04  0.50400001928E-02 0. -1.
       -1    1    3    3    0  502 -0.76829905851E+03 -0.15188054214E+04  0.20471389970E+02  0.17021963545E+04  0.50400001928E-02 0.  1.
</event>
<event>
 5   0  0.6788600E-08  0.3412402E+04  0.7818609E-02  0.8134869E-01
        1   -1    0    0  501    0  0.00000000000E+00  0.00000000000E+00  0.24715856975E+04  0.24715856975E+04  0.50400001928E-02 0. -1.
       -1   -1    0    0    0  501  0.00000000000E+00  0.00000000000E+00 -0.11778357913E+04  0.11778357913E+04  0.50400001928E-02 0.  1.
    10030    2    1    2    0    0  0.00000000000E+00  0.00000000000E+00  0.12937499062E+04  0.36494214888E+04  0.34124021426E+04 0.  0.
        2    1    3    3  502    0  0.89421777991E+03 -0.10363414369E+04  0.17361973279E+04  0.22108844775E+04  0.25500000920E-02 0. -1.
       -2    1    3    3    0  502 -0.89421777991E+03  0.10363414369E+04 -0.44244742167E+03  0.14385370112E+04  0.25500000920E-02 0.  1.
</event>
<event>
 5   0  0.6367111E-08  0.3418711E+04  0.7818609E-02  0.8133329E-01
        1   -1    0    0  501    0  0.00000000000E+00  0.00000000000E+00  0.24685510698E+04  0.24685510698E+04  0.50400001928E-02 0. -1.
       -1   -1    0    0    0  501  0.00000000000E+00  0.00000000000E+00 -0.11836481247E+04  0.11836481247E+04  0.50400001928E-02 0.  1.
    10030    2    1    2    0    0  0.00000000000E+00  0.00000000000E+00  0.12849029451E+04  0.36521991945E+04  0.34187107772E+04 0.  0.
        3    1    3    3  502    0  0.17371844835E+03 -0.11951724491E+04  0.19347293079E+04  0.22807439110E+04  0.10100000352E+00 0. -1.
       -3    1    3    3    0  502 -0.17371844835E+03  0.11951724491E+04 -0.64982636287E+03  0.13714552835E+04  0.10100000352E+00 0.  1.
</event>
<event>
 5   0  0.6788600E-08  0.3401512E+04  0.7818609E-02  0.8137535E-01
       -1   -1    0    0    0  501  0.00000000000E+00  0.00000000000E+00  0.12105876198E+04  0.12105876198E+04  0.50400001928E-02 0.  1.
        1   -1    0    0  501    0  0.00000000000E+00  0.00000000000E+00 -0.23893939139E+04  0.23893939139E+04  0.50400001928E-02 0. -1.
    10030    2    1    2    0    0  0.00000000000E+00  0.00000000000E+00 -0.11788062941E+04  0.35999815337E+04  0.34015118350E+04 0.  0.
        2    1    3    3  502    0 -0.11638716248E+04 -0.12332376754E+04 -0.72779343612E+03  0.18453063726E+04  0.25500000920E-02 0.  1.
       -2    1    3    3    0  502  0.11638716248E+04  0.12332376754E+04 -0.45101285803E+03  0.17546751611E+04  0.25500000920E-02 0. -1.
</event>
<event>
 5   0  0.6367111E-08  0.3397585E+04  0.7818609E-02  0.8138499E-01
       -1   -1    0    0    0  501  0.00000000000E+00  0.00000000000E+00  0.16461842630E+04  0.16461842630E+04  0.50400001928E-02 0. -1.
        1   -1    0    0  501    0  0.00000000000E+00  0.00000000000E+00 -0.17530819472E+04  0.17530819472E+04  0.50400001928E-02 0.  1.
    10030    2    1    2    0    0  0.00000000000E+00  0.00000000000E+00 -0.10689768420E+03  0.33992662101E+04  0.33975849736E+04 0.  0.
        3    1    3    3  502    0  0.15339437833E+04  0.23163384109E+03  0.63917844510E+03  0.16778518592E+04  0.10100000352E+00 0. -1.
       -3    1    3    3    0  502 -0.15339437833E+04 -0.23163384109E+03 -0.74607612931E+03  0.17214143509E+04  0.10100000352E+00 0.  1.
</event>
<event>
 5   0  0.1986613E-07  0.3393063E+04  0.7818609E-02  0.8139611E-01
       -2   -1    0    0    0  501  0.00000000000E+00  0.00000000000E+00  0.23111654740E+04  0.23111654740E+04  0.25500000920E-02 0.  1.
        2   -1    0    0  501    0  0.00000000000E+00  0.00000000000E+00 -0.12453543217E+04  0.12453543217E+04  0.25500000920E-02 0. -1.
    10030    2    1    2    0    0  0.00000000000E+00  0.00000000000E+00  0.10658111523E+04  0.35565197957E+04  0.33930634602E+04 0.  0.
        5    1    3    3  502    0  0.14782930859E+04  0.49218873362E+03 -0.17069744673E+03  0.15674054695E+04  0.46999998093E+01 0. -1.
       -5    1    3    3    0  502 -0.14782930859E+04 -0.49218873362E+03  0.12365085990E+04  0.19891143262E+04  0.46999998093E+01 0.  1.
</event>
<event>
 5   0  0.1970449E-07  0.3405907E+04  0.7818609E-02  0.8136458E-01
       -2   -1    0    0    0  501  0.00000000000E+00  0.00000000000E+00  0.11712733192E+04  0.11712733192E+04  0.25500000920E-02 0. -1.
        2   -1    0    0  501    0  0.00000000000E+00  0.00000000000E+00 -0.24759815865E+04  0.24759815865E+04  0.25500000920E-02 0.  1.
    10030    2    1    2    0    0  0.00000000000E+00  0.00000000000E+00 -0.13047082673E+04  0.36472549057E+04  0.34059073218E+04 0.  0.
        1    1    3    3  502    0 -0.13037911974E+03 -0.98926452173E+03 -0.21301461228E+04  0.23522681636E+04  0.50400001928E-02 0.  1.
       -1    1    3    3    0  502  0.13037911974E+03  0.98926452173E+03  0.82543785557E+03  0.12949867421E+04  0.50400001928E-02 0. -1.
</event>
<event>
 5   0  0.6584420E-08  0.3402652E+04  0.7818609E-02  0.8137256E-01
       -1   -1    0    0    0  501  0.00000000000E+00  0.00000000000E+00  0.12951398908E+04  0.12951398908E+04  0.50400001928E-02 0.  1.
        1   -1    0    0  501    0  0.00000000000E+00  0.00000000000E+00 -0.22349013409E+04  0.22349013409E+04  0.50400001928E-02 0. -1.
    10030    2    1    2    0    0  0.00000000000E+00  0.00000000000E+00 -0.93976145007E+03  0.35300412317E+04  0.34026518356E+04 0.  0.
        1    1    3    3  502    0  0.50686462028E+03 -0.68562954340E+03  0.10574843149E+04  0.13584081458E+04  0.50400001928E-02 0.  1.
       -1    1    3    3    0  502 -0.50686462028E+03  0.68562954340E+03 -0.19972457650E+04  0.21716330859E+04  0.50400001928E-02 0. -1.
</event>
<event>
 5   0  0.1928004E-07  0.3410959E+04  0.7818609E-02  0.8135222E-01
        2   -1    0    0  501    0  0.00000000000E+00  0.00000000000E+00  0.18499191098E+04  0.18499191098E+04  0.25500000920E-02 0.  1.
       -2   -1    0    0    0  501  0.00000000000E+00  0.00000000000E+00 -0.15723175941E+04  0.15723175941E+04  0.25500000920E-02 0. -1.
    10030    2    1    2    0    0  0.00000000000E+00  0.00000000000E+00  0.27760151575E+03  0.34222367039E+04  0.34109590229E+04 0.  0.
        2    1    3    3  502    0  0.10816948990E+04 -0.83008245966E+02 -0.11814932165E+04  0.16040200884E+04  0.25500000920E-02 0. -1.
       -2    1    3    3    0  502 -0.10816948990E+04  0.83008245966E+02  0.14590947322E+04  0.18182166155E+04  0.25500000920E-02 0.  1.
</event>
<event>
 5   0  0.1986613E-07  0.3397301E+04  0.7818609E-02  0.8138569E-01
       -2   -1    0    0    0  501  0.00000000000E+00  0.00000000000E+00  0.13225343507E+04  0.13225343507E+04  0.25500000920E-02 0.  1.
        2   -1    0    0  501    0  0.00000000000E+00  0.00000000000E+00 -0.21817307460E+04  0.21817307460E+04  0.25500000920E-02 0. -1.
    10030    2    1    2    0    0  0.00000000000E+00  0.00000000000E+00 -0.85919639528E+03  0.35042650967E+04  0.33973011969E+04 0.  0.
        5    1    3    3  502    0  0.59526934738E+03 -0.10447370213E+04 -0.16671956428E+04  0.20555739931E+04  0.46999998093E+01 0. -1.
       -5    1    3    3    0  502 -0.59526934738E+03  0.10447370213E+04  0.80799924754E+03  0.14486911036E+04  0.46999998093E+01 0.  1.
</event>
<event>
 5   0  0.6788600E-08  0.3393398E+04  0.7818609E-02  0.8139528E-01
        1   -1    0    0  501    0  0.00000000000E+00  0.00000000000E+00  0.24771853302E+04  0.24771853302E+04  0.50400001928E-02 0.  1.
       -1   -1    0    0    0  501  0.00000000000E+00  0.00000000000E+00 -0.11621206915E+04  0.11621206915E+04  0.50400001928E-02 0. -1.
    10030    2    1    2    0    0  0.00000000000E+00  0.00000000000E+00  0.13150646387E+04  0.36393060217E+04  0.33933984905E+04 0.  0.
        2    1    3    3  502    0 -0.61137926501E+03  0.90893412075E+02 -0.10370807710E+04  0.12073039152E+04  0.25500000920E-02 0. -1.
       -2    1    3    3    0  502  0.61137926501E+03 -0.90893412075E+02  0.23521454097E+04  0.24320021066E+04  0.25500000920E-02 0.  1.
</event>
<event>
 5   0  0.1928004E-07  0.3408940E+04  0.7818609E-02  0.8135716E-01
        2   -1    0    0  501    0  0.00000000000E+00  0.00000000000E+00  0.22494964571E+04  0.22494964571E+04  0.25500000920E-02 0. -1.
       -2   -1    0    0    0  501  0.00000000000E+00  0.00000000000E+00 -0.12914968169E+04  0.12914968169E+04  0.25500000920E-02 0.  1.
    10030    2    1    2    0    0  0.00000000000E+00  0.00000000000E+00  0.95799964020E+03  0.35409932739E+04  0.34089397260E+04 0.  0.
        2    1    3    3  502    0  0.92978956019E+03 -0.11090051345E+04  0.14143345666E+04  0.20235472025E+04  0.25500000920E-02 0. -1.
       -2    1    3    3    0  502 -0.92978956019E+03  0.11090051345E+04 -0.45633492642E+03  0.15174460714E+04  0.25500000920E-02 0.  1.
</event>
<event>
 5   0  0.1897313E-07  0.3386793E+04  0.7818609E-02  0.8141155E-01
       -2   -1    0    0    0  501  0.00000000000E+00  0.00000000000E+00  0.14801015769E+04  0.14801015769E+04  0.25500000920E-02 0.  1.
        2   -1    0    0  501    0  0.00000000000E+00  0.00000000000E+00 -0.19374291532E+04  0.19374291532E+04  0.25500000920E-02 0. -1.
    10030    2    1    2    0    0  0.00000000000E+00  0.00000000000E+00 -0.45732757632E+03  0.34175307301E+04  0.33867931409E+04 0.  0.
        3    1    3    3  502    0 -0.29162409535E+01 -0.56496514280E+03  0.13821946229E+04  0.14932033025E+04  0.10100000352E+00 0.  1.
       -3    1    3    3    0  502  0.29162409535E+01  0.56496514280E+03 -0.18395221992E+04  0.19243274276E+04  0.10100000352E+00 0. -1.
</event>
<event>
 5   0  0.6311750E-08  0.3433942E+04  0.7818609E-02  0.8129626E-01
       -3   -1    0    0    0  501  0.00000000000E+00  0.00000000000E+00  0.11849043697E+04  0.11849043740E+04  0.10100000352E+00 0. -1.
        3   -1    0    0  501    0  0.00000000000E+00  0.00000000000E+00 -0.24879560478E+04  0.24879560498E+04  0.10100000352E+00 0.  1.
    10030    2    1    2    0    0  0.00000000000E+00  0.00000000000E+00 -0.13030516781E+04  0.36728604238E+04  0.34339423433E+04 0.  0.
        2    1    3    3  502    0 -0.56169569956E+02 -0.10714545093E+04 -0.20852438414E+04  0.23450824429E+04  0.25500000920E-02 0.  1.
       -2    1    3    3    0  502  0.56169569956E+02  0.10714545093E+04  0.78219216337E+03  0.13277779809E+04  0.25500000920E-02 0. -1.
</event>
<event>
 5   0  0.6341535E-08  0.3313968E+04  0.7818609E-02  0.8159350E-01
        1   -1    0    0  501    0  0.00000000000E+00  0.00000000000E+00  0.15311549168E+04  0.15311549168E+04  0.50400001928E-02 0.  1.
       -1   -1    0    0    0  501  0.00000000000E+00  0.00000000000E+00 -0.17931531138E+04  0.17931531138E+04  0.50400001928E-02 0. -1.
    10030    2    1    2    0    0  0.00000000000E+00  0.00000000000E+00 -0.26199819700E+03  0.33243080306E+04  0.33139675356E+04 0.  0.
        5    1    3    3  502    0  0.34593857076E+03 -0.36093365111E+03  0.14536853839E+04  0.15372605117E+04  0.46999998093E+01 0.  1.
       -5    1    3    3    0  502 -0.34593857076E+03  0.36093365111E+03 -0.17156835809E+04  0.17870475190E+04  0.46999998093E+01 0. -1.
</event>
<event>
 5   0  0.1970449E-07  0.3393214E+04  0.7818609E-02  0.8139574E-01
        2   -1    0    0  501    0  0.00000000000E+00  0.00000000000E+00  0.17018973244E+04  0.17018973244E+04  0.25500000920E-02 0. -1.
       -2   -1    0    0    0  501  0.00000000000E+00  0.00000000000E+00 -0.16913328117E+04  0.16913328117E+04  0.25500000920E-02 0.  1.
    10030    2    1    2    0    0  0.00000000000E+00  0.00000000000E+00  0.10564512785E+02  0.33932301361E+04  0.33932136902E+04 0.  0.
        1    1    3    3  502    0 -0.37757842423E+03  0.16372885788E+04 -0.22965595953E+03  0.16958836093E+04  0.50400001928E-02 0. -1.
       -1    1    3    3    0  502  0.37757842423E+03 -0.16372885788E+04  0.24022047231E+03  0.16973465268E+04  0.50400001928E-02 0.  1.
</event>
<event>
 5   0  0.6311750E-08  0.3401040E+04  0.7818609E-02  0.8137651E-01
       -1   -1    0    0    0  501  0.00000000000E+00  0.00000000000E+00  0.17958347487E+04  0.17958347488E+04  0.50400001928E-02 0.  1.
        1   -1    0    0  501    0  0.00000000000E+00  0.00000000000E+00 -0.16102644236E+04  0.16102644236E+04  0.50400001928E-02 0. -1.
    10030    2    1    2    0    0  0.00000000000E+00  0.00000000000E+00  0.18557032511E+03  0.34060991724E+04  0.34010403153E+04 0.  0.
        4    1    3    3  502    0 -0.69232612955E+03 -0.11567291960E+04  0.11308737788E+04  0.17596064955E+04  0.12699999809E+01 0.  1.
       -4    1    3    3    0  502  0.69232612955E+03  0.11567291960E+04 -0.94530345372E+03  0.16464926769E+04  0.12699999809E+01 0. -1.
</event>
<event>
 5   0  0.6788600E-08  0.3401525E+04  0.7818609E-02  0.8137532E-01
        1   -1    0    0  501    0  0.00000000000E+00  0.00000000000E+00  0.13904011237E+04  0.13904011237E+04  0.50400001928E-02 0.  1.
       -1   -1    0    0    0  501  0.00000000000E+00  0.00000000000E+00 -0.20804018008E+04  0.20804018008E+04  0.50400001928E-02 0. -1.
    10030    2    1    2    0    0  0.00000000000E+00  0.00000000000E+00 -0.69000067712E+03  0.34708029246E+04  0.34015249531E+04 0.  0.
        2    1    3    3  502    0  0.31983856607E+03  0.16238221741E+04 -0.74476778676E+03  0.18148758133E+04  0.25500000920E-02 0. -1.
       -2    1    3    3    0  502 -0.31983856607E+03 -0.16238221741E+04  0.54767109637E+02  0.16559271113E+04  0.25500000920E-02 0.  1.
</event>
<event>
 5   0  0.1963852E-07  0.3402849E+04  0.7818609E-02  0.8137207E-01
       -2   -1    0    0    0  501  0.00000000000E+00  0.00000000000E+00  0.16105120370E+04  0.16105120370E+04  0.25500000920E-02 0. -1.
        2   -1    0    0  501    0  0.00000000000E+00  0.00000000000E+00 -0.17974686680E+04  0.17974686680E+04  0.25500000920E-02 0.  1.
    10030    2    1    2    0    0  0.00000000000E+00  0.00000000000E+00 -0.18695663092E+03  0.34079807050E+04  0.34028487630E+04 0.  0.
        4    1    3    3  502    0  0.51372782545E+03 -0.44068433872E+03  0.14698769512E+04  0.16182270636E+04  0.12699999809E+01 0. -1.
       -4    1    3    3    0  502 -0.51372782545E+03  0.44068433872E+03 -0.16568335821E+04  0.17897536413E+04  0.12699999809E+01 0.  1.
</event>
<event>
 5   0  0.1928004E-07  0.3404899E+04  0.7818609E-02  0.8136705E-01
       -2   -1    0    0    0  501  0.00000000000E+00  0.00000000000E+00  0.19733834132E+04  0.19733834132E+04  0.25500000920E-02 0.  1.
        2   -1    0    0  501    0  0.00000000000E+00  0.00000000000E+00 -0.14687134528E+04  0.14687134528E+04  0.25500000920E-02 0. -1.
    10030    2    1    2    0    0  0.00000000000E+00  0.00000000000E+00  0.50466996045E+03  0.34420968660E+04  0.34048992740E+04 0.  0.
        2    1    3    3  502    0  0.29403514329E+03 -0.10718409218E+04  0.15560105644E+04  0.19121894529E+04  0.25500000920E-02 0.  1.
       -2    1    3    3    0  502 -0.29403514329E+03  0.10718409218E+04 -0.10513406039E+04  0.15299074131E+04  0.25500000920E-02 0. -1.
</event>
<event>
 5   0  0.1897313E-07  0.3398277E+04  0.7818609E-02  0.8138329E-01
        2   -1    0    0  501    0  0.00000000000E+00  0.00000000000E+00  0.30996876148E+04  0.30996876148E+04  0.25500000920E-02 0. -1.
       -2   -1    0    0    0  501  0.00000000000E+00  0.00000000000E+00 -0.93140748262E+03  0.93140748263E+03  0.25500000920E-02 0.  1.
    10030    2    1    2    0    0  0.00000000000E+00  0.00000000000E+00  0.21682801321E+04  0.40310950974E+04  0.33982773508E+04 0.  0.
        3    1    3    3  502    0  0.75591600033E+03 -0.70715228173E+02  0.28872926925E+04  0.29854428056E+04  0.10100000352E+00 0. -1.
       -3    1    3    3    0  502 -0.75591600033E+03  0.70715228173E+02 -0.71901256040E+03  0.10456522918E+04  0.10100000352E+00 0.  1.
</event>
<event>
 5   0  0.6788600E-08  0.3396987E+04  0.7818609E-02  0.8138646E-01
        1   -1    0    0  501    0  0.00000000000E+00  0.00000000000E+00  0.12326809416E+04  0.12326809416E+04  0.50400001928E-02 0.  1.
       -1   -1    0    0    0  501  0.00000000000E+00  0.00000000000E+00 -0.23403305086E+04  0.23403305086E+04  0.50400001928E-02 0. -1.
    10030    2    1    2    0    0  0.00000000000E+00  0.00000000000E+00 -0.11076495670E+04  0.35730114503E+04  0.33969873801E+04 0.  0.
        2    1    3    3  502    0 -0.12745286767E+03  0.31900014934E+03  0.11957611660E+04  0.12441262376E+04  0.25500000920E-02 0.  1.
       -2    1    3    3    0  502  0.12745286767E+03 -0.31900014934E+03 -0.23034107331E+04  0.23288852127E+04  0.25500000920E-02 0. -1.
</event>
<event>
 5   0  0.1963852E-07  0.3399347E+04  0.7818609E-02  0.8138067E-01
        2   -1    0    0  501    0  0.00000000000E+00  0.00000000000E+00  0.14909300740E+04  0.14909300740E+04  0.25500000920E-02 0. -1.
       -2   -1    0    0    0  501  0.00000000000E+00  0.00000000000E+00 -0.19376427977E+04  0.19376427977E+04  0.25500000920E-02 0.  1.
    10030    2    1    2    0    0  0.00000000000E+00  0.00000000000E+00 -0.44671272368E+03  0.34285728717E+04  0.33993469489E+04 0.  0.
        4    1    3    3  502    0 -0.46830236576E+03  0.49863752906E+03 -0.17926711526E+04  0.19187542744E+04  0.12699999809E+01 0.  1.
       -4    1    3    3    0  502  0.46830236576E+03 -0.49863752906E+03  0.13459584290E+04  0.15098185972E+04  0.12699999809E+01 0. -1.
</event>
<event>
 5   0  0.1897313E-07  0.3396700E+04  0.7818609E-02  0.8138717E-01
        2   -1    0    0  501    0  0.00000000000E+00  0.00000000000E+00  0.15807053095E+04  0.15807053095E+04  0.25500000920E-02 0. -1.
       -2   -1    0    0    0  501  0.00000000000E+00  0.00000000000E+00 -0.18247504017E+04  0.18247504017E+04  0.25500000920E-02 0.  1.
    10030    2    1    2    0    0  0.00000000000E+00  0.00000000000E+00 -0.24404509219E+03  0.34054557112E+04  0.33966999564E+04 0.  0.
        3    1    3    3  502    0 -0.32259338912E+03 -0.74656137579E+03  0.13727842790E+04  0.15956055494E+04  0.10100000352E+00 0. -1.
       -3    1    3    3    0  502  0.32259338912E+03  0.74656137579E+03 -0.16168293711E+04  0.18098501618E+04  0.10100000352E+00 0.  1.
</event>
<event>
 5   0  0.6367111E-08  0.3398318E+04  0.7818609E-02  0.8138319E-01
        1   -1    0    0  501    0  0.00000000000E+00  0.00000000000E+00  0.24895211152E+04  0.24895211152E+04  0.50400001928E-02 0.  1.
       -1   -1    0    0    0  501  0.00000000000E+00  0.00000000000E+00 -0.11597172138E+04  0.11597172138E+04  0.50400001928E-02 0. -1.
    10030    2    1    2    0    0  0.00000000000E+00  0.00000000000E+00  0.13298039014E+04  0.36492383290E+04  0.33983175199E+04 0.  0.
        3    1    3    3  502    0  0.11126825760E+04 -0.87832280289E+03  0.16708910298E+04  0.21912074993E+04  0.10100000352E+00 0.  1.
       -3    1    3    3    0  502 -0.11126825760E+04  0.87832280289E+03 -0.34108712841E+03  0.14580308297E+04  0.10100000352E+00 0. -1.
</event>
<event>
 5   0  0.1897313E-07  0.3398067E+04  0.7818609E-02  0.8138381E-01
        2   -1    0    0  501    0  0.00000000000E+00  0.00000000000E+00  0.25207111769E+04  0.25207111769E+04  0.25500000920E-02 0. -1.
       -2   -1    0    0    0  501  0.00000000000E+00  0.00000000000E+00 -0.11451988202E+04  0.11451988202E+04  0.25500000920E-02 0.  1.
    10030    2    1    2    0    0  0.00000000000E+00  0.00000000000E+00  0.13755123568E+04  0.36659099971E+04  0.33980673718E+04 0.  0.
        3    1    3    3  502    0  0.11571946932E+04 -0.11178804775E+04  0.98874332403E+02  0.16119964217E+04  0.10100000352E+00 0.  1.
       -3    1    3    3    0  502 -0.11571946932E+04  0.11178804775E+04  0.12766380243E+04  0.20539135754E+04  0.10100000352E+00 0. -1.
</event>
<event>
 5   0  0.6788600E-08  0.3396033E+04  0.7818609E-02  0.8138881E-01
       -1   -1    0    0    0  501  0.00000000000E+00  0.00000000000E+00  0.21658267443E+04  0.21658267443E+04  0.50400001928E-02 0. -1.
        1   -1    0    0  501    0  0.00000000000E+00  0.00000000000E+00 -0.13312516652E+04  0.13312516652E+04  0.50400001928E-02 0.  1.
    10030    2    1    2    0    0  0.00000000000E+00  0.00000000000E+00  0.83457507911E+03  0.34970784095E+04  0.33960332507E+04 0.  0.
        2    1    3    3  502    0 -0.23577794097E+03  0.28553025647E+03  0.21237428028E+04  0.21557834440E+04  0.25500000920E-02 0. -1.
       -2    1    3    3    0  502  0.23577794097E+03 -0.28553025647E+03 -0.12891677237E+04  0.13412949656E+04  0.25500000920E-02 0.  1.
</event>
<event>
 5   0  0.6584420E-08  0.3402464E+04  0.7818609E-02  0.8137302E-01
       -1   -1    0    0    0  501  0.00000000000E+00  0.00000000000E+00  0.21710309659E+04  0.21710309659E+04  0.50400001928E-02 0.  1.
        1   -1    0    0  501    0  0.00000000000E+00  0.00000000000E+00 -0.13330949965E+04  0.13330949966E+04  0.50400001928E-02 0. -1.
    10030    2    1    2    0    0  0.00000000000E+00  0.00000000000E+00  0.83793596936E+03  0.35041259625E+04  0.34024641177E+04 0.  0.
        1    1    3    3  502    0  0.11333532743E+04 -0.11744436185E+04 -0.75355708912E+02  0.16338561565E+04  0.50400001928E-02 0. -1.
       -1    1    3    3    0  502 -0.11333532743E+04  0.11744436185E+04  0.91329167827E+03  0.18702698059E+04  0.50400001928E-02 0.  1.
</event>
<event>
 5   0  0.1963852E-07  0.3397379E+04  0.7818609E-02  0.8138550E-01
       -2   -1    0    0    0  501  0.00000000000E+00  0.00000000000E+00  0.11765140064E+04  0.11765140064E+04  0.25500000920E-02 0.  1.
        2   -1    0    0  501    0  0.00000000000E+00  0.00000000000E+00 -0.24526241219E+04  0.24526241219E+04  0.25500000920E-02 0. -1.
    10030    2    1    2    0    0  0.00000000000E+00  0.00000000000E+00 -0.12761101155E+04  0.36291381283E+04  0.33973793617E+04 0.  0.
        4    1    3    3  502    0 -0.13499580487E+04 -0.27599897951E+03 -0.16992966362E+04  0.21877323512E+04  0.12699999809E+01 0. -1.
       -4    1    3    3    0  502  0.13499580487E+04  0.27599897951E+03  0.42318652074E+03  0.14414057770E+04  0.12699999809E+01 0.  1.
</event>
<event>
 5   0  0.1963852E-07  0.3402234E+04  0.7818609E-02  0.8137358E-01
        2   -1    0    0  501    0  0.00000000000E+00  0.00000000000E+00  0.16807734408E+04  0.16807734408E+04  0.25500000920E-02 0. -1.
       -2   -1    0    0    0  501  0.00000000000E+00  0.00000000000E+00 -0.17217065294E+04  0.17217065294E+04  0.25500000920E-02 0.  1.
    10030    2    1    2    0    0  0.00000000000E+00  0.00000000000E+00 -0.40933088524E+02  0.34024799702E+04  0.34022337412E+04 0.  0.
        4    1    3    3  502    0  0.10542295010E+03  0.30305233698E+03  0.16502357792E+04  0.16811408202E+04  0.12699999809E+01 0. -1.
       -4    1    3    3    0  502 -0.10542295010E+03 -0.30305233698E+03 -0.16911688677E+04  0.17213391500E+04  0.12699999809E+01 0.  1.
</event>
<event>
 5   0  0.1963852E-07  0.3392394E+04  0.7818609E-02  0.8139776E-01
       -2   -1    0    0    0  501  0.00000000000E+00  0.00000000000E+00  0.14236691141E+04  0.14236691141E+04  0.25500000920E-02 0. -1.
        2   -1    0    0  501    0  0.00000000000E+00  0.00000000000E+00 -0.20208940870E+04  0.20208940870E+04  0.25500000920E-02 0.  1.
    10030    2    1    2    0    0  0.00000000000E+00  0.00000000000E+00 -0.59722497296E+03  0.34445632011E+04  0.33923941366E+04 0.  0.
        4    1    3    3  502    0  0.33084948205E+01  0.15919993726E+03 -0.20132876272E+04  0.20195752644E+04  0.12699999809E+01 0.  1.
       -4    1    3    3    0  502 -0.33084948205E+01 -0.15919993726E+03  0.14160626542E+04  0.14249879367E+04  0.12699999809E+01 0. -1.
</event>
<event>
 5   0  0.6584420E-08  0.3402113E+04  0.7818609E-02  0.8137388E-01
       -1   -1    0    0    0  501  0.00000000000E+00  0.00000000000E+00  0.11777876375E+04  0.11777876375E+04  0.50400001928E-02 0.  1.
        1   -1    0    0  501    0  0.00000000000E+00  0.00000000000E+00 -0.24568037567E+04  0.24568037567E+04  0.50400001928E-02 0. -1.
    10030    2    1    2    0    0  0.00000000000E+00  0.00000000000E+00 -0.12790161192E+04  0.36345913941E+04  0.34021129272E+04 0.  0.
        1    1    3    3  502    0  0.19090964395E+03 -0.41449836580E+03  0.11111701400E+04  0.12012303973E+04  0.50400001928E-02 0.  1.
       -1    1    3    3    0  502 -0.19090964395E+03  0.41449836580E+03 -0.23901862592E+04  0.24333609968E+04  0.50400001928E-02 0. -1.
</event>
<event>
 5   0  0.1897313E-07  0.3394839E+04  0.7818609E-02  0.8139174E-01
       -2   -1    0    0    0  501  0.00000000000E+00  0.00000000000E+00  0.14270350628E+04  0.14270350628E+04  0.25500000920E-02 0.  1.
        2   -1    0    0  501    0  0.00000000000E+00  0.00000000000E+00 -0.20190345807E+04  0.20190345807E+04  0.25500000920E-02 0. -1.
    10030    2    1    2    0    0  0.00000000000E+00  0.00000000000E+00 -0.59199951785E+03  0.34460696435E+04  0.33948391064E+04 0.  0.
        3    1    3    3  502    0 -0.34929436571E+03 -0.16536102651E+04 -0.45585532996E+03  0.17504963738E+04  0.10100000352E+00 0.  1.
       -3    1    3    3    0  502  0.34929436571E+03  0.16536102651E+04 -0.13614418789E+03  0.16955732697E+04  0.10100000352E+00 0. -1.
</event>
<event>
 5   0  0.1970449E-07  0.3402505E+04  0.7818609E-02  0.8137292E-01
        2   -1    0    0  501    0  0.00000000000E+00  0.00000000000E+00  0.14599431392E+04  0.14599431392E+04  0.25500000920E-02 0.  1.
       -2   -1    0    0    0  501  0.00000000000E+00  0.00000000000E+00 -0.19824466948E+04  0.19824466948E+04  0.25500000920E-02 0. -1.
    10030    2    1    2    0    0  0.00000000000E+00  0.00000000000E+00 -0.52250355559E+03  0.34423898340E+04  0.34025046368E+04 0.  0.
        1    1    3    3  502    0  0.10536437565E+04 -0.71460856954E+02 -0.16106737864E+04  0.19260170991E+04  0.50400001928E-02 0. -1.
       -1    1    3    3    0  502 -0.10536437565E+04  0.71460856954E+02  0.10881702308E+04  0.15163727349E+04  0.50400001928E-02 0.  1.
</event>
<event>
 5   0  0.6788600E-08  0.3401489E+04  0.7818609E-02  0.8137541E-01
       -1   -1    0    0    0  501  0.00000000000E+00  0.00000000000E+00  0.24740209711E+04  0.24740209711E+04  0.50400001928E-02 0. -1.
        1   -1    0    0  501    0  0.00000000000E+00  0.00000000000E+00 -0.11691621963E+04  0.11691621963E+04  0.50400001928E-02 0.  1.
    10030    2    1    2    0    0  0.00000000000E+00  0.00000000000E+00  0.13048587748E+04  0.36431831674E+04  0.34014889635E+04 0.  0.
        2    1    3    3  502    0  0.94324118107E+03  0.85545237237E+03  0.18599364742E+04  0.22540777216E+04  0.25500000920E-02 0. -1.
       -2    1    3    3    0  502 -0.94324118107E+03 -0.85545237237E+03 -0.55507769943E+03  0.13891054458E+04  0.25500000920E-02 0.  1.
</event>
<event>
 5   0  0.6584420E-08  0.3401090E+04  0.7818609E-02  0.8137639E-01
        1   -1    0    0  501    0  0.00000000000E+00  0.00000000000E+00  0.16422129964E+04  0.16422129964E+04  0.50400001928E-02 0. -1.
       -1   -1    0    0    0  501  0.00000000000E+00  0.00000000000E+00 -0.17609494149E+04  0.17609494149E+04  0.50400001928E-02 0.  1.
    10030    2    1    2    0    0  0.00000000000E+00  0.00000000000E+00 -0.11873641855E+03  0.34031624113E+04  0.34010904223E+04 0.  0.
        1    1    3    3  502    0 -0.11434023626E+04 -0.83106453076E+02  0.11974138395E+04  0.16577320497E+04  0.50400001928E-02 0. -1.
       -1    1    3    3    0  502  0.11434023626E+04  0.83106453076E+02 -0.13161502581E+04  0.17454303616E+04  0.50400001928E-02 0.  1.
</event>
<event>
 5   0  0.6788600E-08  0.3405584E+04  0.7818609E-02  0.8136537E-01
       -1   -1    0    0    0  501  0.00000000000E+00  0.00000000000E+00  0.15515930230E+04  0.15515930230E+04  0.50400001928E-02 0. -1.
        1   -1    0    0  501    0  0.00000000000E+00  0.00000000000E+00 -0.18687245100E+04  0.18687245100E+04  0.50400001928E-02 0.  1.
    10030    2    1    2    0    0  0.00000000000E+00  0.00000000000E+00 -0.31713148703E+03  0.34203175330E+04  0.34055835985E+04 0.  0.
        2    1    3    3  502    0 -0.69803267361E+03 -0.13688964502E+04  0.57834763118E+03  0.16418322348E+04  0.25500000920E-02 0. -1.
       -2    1    3    3    0  502  0.69803267361E+03  0.13688964502E+04 -0.89547911821E+03  0.17784852982E+04  0.25500000920E-02 0.  1.
</event>
<event>
 5   0  0.1897313E-07  0.3399679E+04  0.7818609E-02  0.8137985E-01
        2   -1    0    0  501    0  0.00000000000E+00  0.00000000000E+00  0.13838716565E+04  0.13838716565E+04  0.25500000920E-02 0. -1.
       -2   -1    0    0    0  501  0.00000000000E+00  0.00000000000E+00 -0.20879494151E+04  0.20879494151E+04  0.25500000920E-02 0.  1.
    10030    2    1    2    0    0  0.00000000000E+00  0.00000000000E+00 -0.70407775860E+03  0.34718210715E+04  0.33996788176E+04 0.  0.
        3    1    3    3  502    0 -0.59783904707E+03  0.44807580703E+03 -0.19112889922E+04  0.20521230657E+04  0.10100000352E+00 0.  1.
       -3    1    3    3    0  502  0.59783904707E+03 -0.44807580703E+03  0.12072112336E+04  0.14196980058E+04  0.10100000352E+00 0. -1.
</event>
<event>
 5   0  0.6788600E-08  0.3396753E+04  0.7818609E-02  0.8138704E-01
       -1   -1    0    0    0  501  0.00000000000E+00  0.00000000000E+00  0.21629491724E+04  0.21629491724E+04  0.50400001928E-02 0. -1.
        1   -1    0    0  501    0  0.00000000000E+00  0.00000000000E+00 -0.13335881129E+04  0.13335881129E+04  0.50400001928E-02 0.  1.
    10030    2    1    2    0    0  0.00000000000E+00  0.00000000000E+00  0.82936105951E+03  0.34965372853E+04  0.33967533353E+04 0.  0.
        2    1    3    3  502    0 -0.69066586921E+03  0.15033670083E+04  0.19539996161E+02  0.16545432953E+04  0.25500000920E-02 0. -1.
       -2    1    3    3    0  502  0.69066586921E+03 -0.15033670083E+04  0.80982106335E+03  0.18419939900E+04  0.25500000920E-02 0.  1.
</event>
<event>
 5   0  0.1928004E-07  0.3400728E+04  0.7818609E-02  0.8137728E-01
        2   -1    0    0  501    0  0.00000000000E+00  0.00000000000E+00  0.18300934246E+04  0.18300934246E+04  0.25500000920E-02 0. -1.
       -2   -1    0    0    0  501  0.00000000000E+00  0.00000000000E+00 -0.15798305617E+04  0.15798305618E+04  0.25500000920E-02 0.  1.
    10030    2    1    2    0    0  0.00000000000E+00  0.00000000000E+00  0.25026286285E+03  0.34099239863E+04  0.34007278768E+04 0.  0.
        2    1    3    3  502    0 -0.79187653568E+03 -0.25543335053E+03 -0.13617550583E+04  0.15958356692E+04  0.25500000920E-02 0.  1.
       -2    1    3    3    0  502  0.79187653568E+03  0.25543335053E+03  0.16120179211E+04  0.18140883171E+04  0.25500000920E-02 0. -1.
</event>
<event>
 5   0  0.6367111E-08  0.3394656E+04  0.7818609E-02  0.8139219E-01
       -1   -1    0    0    0  501  0.00000000000E+00  0.00000000000E+00  0.13432766823E+04  0.13432766823E+04  0.50400001928E-02 0.  1.
        1   -1    0    0  501    0  0.00000000000E+00  0.00000000000E+00 -0.21446975741E+04  0.21446975741E+04  0.50400001928E-02 0. -1.
    10030    2    1    2    0    0  0.00000000000E+00  0.00000000000E+00 -0.80142089177E+03  0.34879742565E+04  0.33946559425E+04 0.  0.
        3    1    3    3  502    0  0.16780213978E+04 -0.50268875701E+02 -0.65786931757E+03  0.18030737146E+04  0.10100000352E+00 0. -1.
       -3    1    3    3    0  502 -0.16780213978E+04  0.50268875701E+02 -0.14355157421E+03  0.16849005418E+04  0.10100000352E+00 0.  1.
</event>
<event>
 5   0  0.6584420E-08  0.3403339E+04  0.7818609E-02  0.8137087E-01
        1   -1    0    0  501    0  0.00000000000E+00  0.00000000000E+00  0.29976913716E+04  0.29976913716E+04  0.50400001928E-02 0.  1.
       -1   -1    0    0    0  501  0.00000000000E+00  0.00000000000E+00 -0.96596964479E+03  0.96596964480E+03  0.50400001928E-02 0. -1.
    10030    2    1    2    0    0  0.00000000000E+00  0.00000000000E+00  0.20317217268E+04  0.39636610164E+04  0.34033388720E+04 0.  0.
        1    1    3    3  502    0  0.14028616348E+04  0.94752302925E+03  0.12171049880E+04  0.20849856617E+04  0.50400001928E-02 0.  1.
       -1    1    3    3    0  502 -0.14028616348E+04 -0.94752302925E+03  0.81461673878E+03  0.18786753547E+04  0.50400001928E-02 0. -1.
</event>
<event>
 5   0  0.1963852E-07  0.3397324E+04  0.7818609E-02  0.8138563E-01
       -2   -1    0    0    0  501  0.00000000000E+00  0.00000000000E+00  0.30079886698E+04  0.30079886698E+04  0.25500000920E-02 0.  1.
        2   -1    0    0  501    0  0.00000000000E+00  0.00000000000E+00 -0.95926321428E+03  0.95926321429E+03  0.25500000920E-02 0. -1.
    10030    2    1    2    0    0  0.00000000000E+00  0.00000000000E+00  0.20487254555E+04  0.39672518840E+04  0.33973241705E+04 0.  0.
        4    1    3    3  502    0 -0.94535419843E+02  0.95160513520E+03  0.26637890751E+04  0.28302408252E+04  0.12699999809E+01 0.  1.
       -4    1    3    3    0  502  0.94535419843E+02 -0.95160513520E+03 -0.61506361961E+03  0.11370110589E+04  0.12699999809E+01 0. -1.
</event>
<event>
 5   0  0.1986613E-07  0.3391665E+04  0.7818609E-02  0.8139955E-01
       -2   -1    0    0    0  501  0.00000000000E+00  0.00000000000E+00  0.29150619736E+04  0.29150619736E+04  0.25500000920E-02 0.  1.
        2   -1    0    0  501    0  0.00000000000E+00  0.00000000000E+00 -0.98654780075E+03  0.98654780075E+03  0.25500000920E-02 0. -1.
    10030    2    1    2    0    0  0.00000000000E+00  0.00000000000E+00  0.19285141728E+04  0.39016097743E+04  0.33916650655E+04 0.  0.
        5    1    3    3  502    0  0.16180846895E+04 -0.21975503583E+03  0.14905801089E+04  0.22109594047E+04  0.46999998093E+01 0.  1.
       -5    1    3    3    0  502 -0.16180846895E+04  0.21975503583E+03  0.43793406394E+03  0.16906503697E+04  0.46999998093E+01 0. -1.
</event>
<event>
 5   0  0.6788600E-08  0.3388504E+04  0.7818609E-02  0.8140734E-01
        1   -1    0    0  501    0  0.00000000000E+00  0.00000000000E+00  0.15122977488E+04  0.15122977488E+04  0.50400001928E-02 0.  1.
       -1   -1    0    0    0  501  0.00000000000E+00  0.00000000000E+00 -0.18980986161E+04  0.18980986161E+04  0.50400001928E-02 0. -1.
    10030    2    1    2    0    0  0.00000000000E+00  0.00000000000E+00 -0.38580086733E+03  0.34103963649E+04  0.33885042507E+04 0.  0.
        2    1    3    3  502    0 -0.61771106460E+02  0.19231587207E+03  0.15001355574E+04  0.15136735959E+04  0.25500000920E-02 0.  1.
       -2    1    3    3    0  502  0.61771106460E+02 -0.19231587207E+03 -0.18859364248E+04  0.18967227690E+04  0.25500000920E-02 0. -1.
</event>
<event>
 5   0  0.6788600E-08  0.3400519E+04  0.7818609E-02  0.8137779E-01
       -1   -1    0    0    0  501  0.00000000000E+00  0.00000000000E+00  0.13006055764E+04  0.13006055764E+04  0.50400001928E-02 0. -1.
        1   -1    0    0  501    0  0.00000000000E+00  0.00000000000E+00 -0.22227204990E+04  0.22227204990E+04  0.50400001928E-02 0.  1.
    10030    2    1    2    0    0  0.00000000000E+00  0.00000000000E+00 -0.92211492261E+03  0.35233260754E+04  0.34005191814E+04 0.  0.
        2    1    3    3  502    0 -0.37265342179E+03 -0.48717117255E+03 -0.21040994336E+04  0.21916753297E+04  0.25500000920E-02 0.  1.
       -2    1    3    3    0  502  0.37265342179E+03  0.48717117255E+03  0.11819845110E+04  0.13316507457E+04  0.25500000920E-02 0. -1.
</event>
<event>
 5   0  0.6584420E-08  0.3398840E+04  0.7818609E-02  0.8138191E-01
       -1   -1    0    0    0  501  0.00000000000E+00  0.00000000000E+00  0.11729609409E+04  0.11729609409E+04  0.50400001928E-02 0. -1.
        1   -1    0    0  501    0  0.00000000000E+00  0.00000000000E+00 -0.24621691065E+04  0.24621691065E+04  0.50400001928E-02 0.  1.
    10030    2    1    2    0    0  0.00000000000E+00  0.00000000000E+00 -0.12892081655E+04  0.36351300474E+04  0.33988399150E+04 0.  0.
        1    1    3    3  502    0 -0.36056507140E+03  0.15021946146E+04 -0.14019519766E+04  0.20861603906E+04  0.50400001928E-02 0.  1.
       -1    1    3    3    0  502  0.36056507140E+03 -0.15021946146E+04  0.11274381106E+03  0.15489696568E+04  0.50400001928E-02 0. -1.
</event>
<event>
 5   0  0.6341535E-08  0.3397462E+04  0.7818609E-02  0.8138529E-01
        1   -1    0    0  501    0  0.00000000000E+00  0.00000000000E+00  0.23231884259E+04  0.23231884259E+04  0.50400001928E-02 0.  1.
       -1   -1    0    0    0  501  0.00000000000E+00  0.00000000000E+00 -0.12421237673E+04  0.12421237673E+04  0.50400001928E-02 0. -1.
    10030    2    1    2    0    0  0.00000000000E+00  0.00000000000E+00  0.10810646586E+04  0.35653121932E+04  0.33974623234E+04 0.  0.
        5    1    3    3  502    0 -0.94474922400E+03 -0.11682952204E+04  0.13722809827E+04  0.20348567526E+04  0.46999998093E+01 0.  1.
       -5    1    3    3    0  502  0.94474922400E+03  0.11682952204E+04 -0.29121632401E+03  0.15304554406E+04  0.46999998093E+01 0. -1.
</event>
<event>
 5   0  0.6367111E-08  0.3402325E+04  0.7818609E-02  0.8137336E-01
       -1   -1    0    0    0  501  0.00000000000E+00  0.00000000000E+00  0.12856967885E+04  0.12856967885E+04  0.50400001928E-02 0.  1.
        1   -1    0    0  501    0  0.00000000000E+00  0.00000000000E+00 -0.22508835092E+04  0.22508835092E+04  0.50400001928E-02 0. -1.
    10030    2    1    2    0    0  0.00000000000E+00  0.00000000000E+00 -0.96518672068E+03  0.35365802976E+04  0.34023249104E+04 0.  0.
        3    1    3    3  502    0 -0.10598850312E+04  0.18978681202E+02 -0.18655974743E+04  0.21457330720E+04  0.10100000352E+00 0. -1.
       -3    1    3    3    0  502  0.10598850312E+04 -0.18978681202E+02  0.90041075365E+03  0.13908472257E+04  0.10100000352E+00 0.  1.
</event>
<event>
 5   0  0.1970449E-07  0.3393104E+04  0.7818609E-02  0.8139601E-01
        2   -1    0    0  501    0  0.00000000000E+00  0.00000000000E+00  0.22755855113E+04  0.22755855113E+04  0.25500000920E-02 0.  1.
       -2   -1    0    0    0  501  0.00000000000E+00  0.00000000000E+00 -0.12648559817E+04  0.12648559817E+04  0.25500000920E-02 0. -1.
    10030    2    1    2    0    0  0.00000000000E+00  0.00000000000E+00  0.10107295297E+04  0.35404414930E+04  0.33931035621E+04 0.  0.
        1    1    3    3  502    0  0.13877675373E+04 -0.10971612235E+03 -0.50646030648E+03  0.14813636984E+04  0.50400001928E-02 0. -1.
       -1    1    3    3    0  502 -0.13877675373E+04  0.10971612235E+03  0.15171898361E+04  0.20590777945E+04  0.50400001928E-02 0.  1.
</event>
<event>
 5   0  0.6341535E-08  0.3397820E+04  0.7818609E-02  0.8138442E-01
       -1   -1    0    0    0  501  0.00000000000E+00  0.00000000000E+00  0.24052421511E+04  0.24052421511E+04  0.50400001928E-02 0.  1.
        1   -1    0    0  501    0  0.00000000000E+00  0.00000000000E+00 -0.12000017835E+04  0.12000017835E+04  0.50400001928E-02 0. -1.
    10030    2    1    2    0    0  0.00000000000E+00  0.00000000000E+00  0.12052403676E+04  0.36052439346E+04  0.33978198134E+04 0.  0.
        5    1    3    3  502    0  0.14686263945E+04 -0.35426690018E+03  0.14271727662E+04  0.20782715698E+04  0.46999998093E+01 0.  1.
       -5    1    3    3    0  502 -0.14686263945E+04  0.35426690018E+03 -0.22193239859E+03  0.15269723648E+04  0.46999998093E+01 0. -1.
</event>
<event>
 5   0  0.6584420E-08  0.3370497E+04  0.7818609E-02  0.8145186E-01
       -1   -1    0    0    0  501  0.00000000000E+00  0.00000000000E+00  0.11575087314E+04  0.11575087314E+04  0.50400001928E-02 0. -1.
        1   -1    0    0  501    0  0.00000000000E+00  0.00000000000E+00 -0.24535990958E+04  0.24535990958E+04  0.50400001928E-02 0.  1.
    10030    2    1    2    0    0  0.00000000000E+00  0.00000000000E+00 -0.12960903644E+04  0.36111078273E+04  0.33704969229E+04 0.  0.
        1    1    3    3  502    0  0.13432161359E+04 -0.10173277180E+04 -0.61631505030E+03  0.17941654090E+04  0.50400001928E-02 0. -1.
       -1    1    3    3    0  502 -0.13432161359E+04  0.10173277180E+04 -0.67977531413E+03  0.18169424183E+04  0.50400001928E-02 0.  1.
</event>
<event>
 5   0  0.6367111E-08  0.3400932E+04  0.7818609E-02  0.8137678E-01
        1   -1    0    0  501    0  0.00000000000E+00  0.00000000000E+00  0.12403319422E+04  0.12403319422E+04  0.50400001928E-02 0.  1.
       -1   -1    0    0    0  501  0.00000000000E+00  0.00000000000E+00 -0.23312990482E+04  0.23312990482E+04  0.50400001928E-02 0. -1.
    10030    2    1    2    0    0  0.00000000000E+00  0.00000000000E+00 -0.10909671061E+04  0.35716309904E+04  0.34009320348E+04 0.  0.
        3    1    3    3  502    0 -0.13046379084E+03 -0.53141517888E+03  0.11453454180E+04  0.12693459063E+04  0.10100000352E+00 0.  1.
       -3    1    3    3    0  502  0.13046379084E+03  0.53141517888E+03 -0.22363125241E+04  0.23022850841E+04  0.10100000352E+00 0. -1.
</event>
<event>
 5   0  0.6311750E-08  0.3491021E+04  0.7818609E-02  0.8115921E-01
        1   -1    0    0  501    0  0.00000000000E+00  0.00000000000E+00  0.19036439740E+04  0.19036439740E+04  0.50400001928E-02 0. -1.
       -1   -1    0    0    0  501  0.00000000000E+00  0.00000000000E+00 -0.16005134468E+04  0.16005134468E+04  0.50400001928E-02 0.  1.
    10030    2    1    2    0    0  0.00000000000E+00  0.00000000000E+00  0.30313052719E+03  0.35041574208E+04  0.34910214999E+04 0.  0.
        4    1    3    3  502    0 -0.56016181368E+03  0.33637631888E+03  0.17762587636E+04  0.18926243931E+04  0.12699999809E+01 0. -1.
       -4    1    3    3    0  502  0.56016181368E+03 -0.33637631888E+03 -0.14731282364E+04  0.16115330276E+04  0.12699999809E+01 0.  1.
</event>
<event>
 5   0  0.6367111E-08  0.3400981E+04  0.7818609E-02  0.8137666E-01
       -1   -1    0    0    0  501  0.00000000000E+00  0.00000000000E+00  0.17218315663E+04  0.17218315663E+04  0.50400001928E-02 0.  1.
        1   -1    0    0  501    0  0.00000000000E+00  0.00000000000E+00 -0.16794139272E+04  0.16794139272E+04  0.50400001928E-02 0. -1.
    10030    2    1    2    0    0  0.00000000000E+00  0.00000000000E+00  0.42417639090E+02  0.34012454935E+04  0.34009809837E+04 0.  0.
        3    1    3    3  502    0 -0.10262291187E+04  0.47709473450E+03  0.12905207974E+04  0.17164526001E+04  0.10100000352E+00 0.  1.
       -3    1    3    3    0  502  0.10262291187E+04 -0.47709473450E+03 -0.12481031583E+04  0.16847928934E+04  0.10100000352E+00 0. -1.
</event>
<event>
 5   0  0.1970449E-07  0.3401085E+04  0.7818609E-02  0.8137640E-01
        2   -1    0    0  501    0  0.00000000000E+00  0.00000000000E+00  0.15815543540E+04  0.15815543540E+04  0.25500000920E-02 0. -1.
       -2   -1    0    0    0  501  0.00000000000E+00  0.00000000000E+00 -0.18284826429E+04  0.18284826429E+04  0.25500000920E-02 0.  1.
    10030    2    1    2    0    0  0.00000000000E+00  0.00000000000E+00 -0.24692828897E+03  0.34100369969E+04  0.34010849358E+04 0.  0.
        1    1    3    3  502    0  0.14025464232E+03 -0.14901757736E+04 -0.93277490672E+03  0.17636224731E+04  0.50400001928E-02 0. -1.
       -1    1    3    3    0  502 -0.14025464232E+03  0.14901757736E+04  0.68584661775E+03  0.16464145238E+04  0.50400001928E-02 0.  1.
</event>
<event>
 5   0  0.1897313E-07  0.3406481E+04  0.7818609E-02  0.8136318E-01
        2   -1    0    0  501    0  0.00000000000E+00  0.00000000000E+00  0.23399736110E+04  0.23399736110E+04  0.25500000920E-02 0. -1.
       -2   -1    0    0    0  501  0.00000000000E+00  0.00000000000E+00 -0.12397695797E+04  0.12397695797E+04  0.25500000920E-02 0.  1.
    10030    2    1    2    0    0  0.00000000000E+00  0.00000000000E+00  0.11002040313E+04  0.35797431908E+04  0.34064809410E+04 0.  0.
        3    1    3    3  502    0  0.13529123709E+04  0.11276679311E+03 -0.53077528857E+03  0.14576730258E+04  0.10100000352E+00 0.  1.
       -3    1    3    3    0  502 -0.13529123709E+04 -0.11276679311E+03  0.16309793199E+04  0.21220701650E+04  0.10100000352E+00 0. -1.
</event>
<event>
 5   0  0.6367111E-08  0.3404152E+04  0.7818609E-02  0.8136888E-01
        1   -1    0    0  501    0  0.00000000000E+00  0.00000000000E+00  0.13723260205E+04  0.13723260205E+04  0.50400001928E-02 0.  1.
       -1   -1    0    0    0  501  0.00000000000E+00  0.00000000000E+00 -0.21110596872E+04  0.21110596872E+04  0.50400001928E-02 0. -1.
    10030    2    1    2    0    0  0.00000000000E+00  0.00000000000E+00 -0.73873366673E+03  0.34833857077E+04  0.34041516650E+04 0.  0.
        3    1    3    3  502    0  0.66554246498E+03  0.56385853637E+03 -0.18649531255E+04  0.20588670166E+04  0.10100000352E+00 0. -1.
       -3    1    3    3    0  502 -0.66554246498E+03 -0.56385853637E+03  0.11262194587E+04  0.14245186911E+04  0.10100000352E+00 0.  1.
</event>
<event>
 5   0  0.1986613E-07  0.3402262E+04  0.7818609E-02  0.8137351E-01
        2   -1    0    0  501    0  0.00000000000E+00  0.00000000000E+00  0.14329010358E+04  0.14329010358E+04  0.25500000920E-02 0. -1.
       -2   -1    0    0    0  501  0.00000000000E+00  0.00000000000E+00 -0.20195721488E+04  0.20195721488E+04  0.25500000920E-02 0.  1.
    10030    2    1    2    0    0  0.00000000000E+00  0.00000000000E+00 -0.58667111294E+03  0.34524731846E+04  0.34022622027E+04 0.  0.
        5    1    3    3  502    0  0.77990268339E+03 -0.10066459783E+04 -0.14379182139E+04  0.19207329853E+04  0.46999998093E+01 0.  1.
       -5    1    3    3    0  502 -0.77990268339E+03  0.10066459783E+04  0.85124710091E+03  0.15317401993E+04  0.46999998093E+01 0. -1.
</event>
<event>
 5   0  0.6311750E-08  0.3403417E+04  0.7818609E-02  0.8137068E-01
        1   -1    0    0  501    0  0.00000000000E+00  0.00000000000E+00  0.12112135282E+04  0.12112135282E+04  0.50400001928E-02 0.  1.
       -1   -1    0    0    0  501  0.00000000000E+00  0.00000000000E+00 -0.23908345197E+04  0.23908345197E+04  0.50400001928E-02 0. -1.
    10030    2    1    2    0    0  0.00000000000E+00  0.00000000000E+00 -0.11796209916E+04  0.36020480479E+04  0.34034165857E+04 0.  0.
        4    1    3    3  502    0 -0.45726332774E+03 -0.69147246534E+03  0.98305471546E+03  0.12859323885E+04  0.12699999809E+01 0.  1.
       -4    1    3    3    0  502  0.45726332774E+03  0.69147246534E+03 -0.21626757070E+04  0.23161156594E+04  0.12699999809E+01 0. -1.
</event>
<event>
 5   0  0.6788600E-08  0.3394084E+04  0.7818609E-02  0.8139360E-01
       -1   -1    0    0    0  501  0.00000000000E+00  0.00000000000E+00  0.12408814998E+04  0.12408814998E+04  0.50400001928E-02 0. -1.
        1   -1    0    0  501    0  0.00000000000E+00  0.00000000000E+00 -0.23208918630E+04  0.23208918630E+04  0.50400001928E-02 0.  1.
    10030    2    1    2    0    0  0.00000000000E+00  0.00000000000E+00 -0.10800103632E+04  0.35617733627E+04  0.33940841332E+04 0.  0.
        2    1    3    3  502    0  0.11240786750E+04  0.11227358551E+04  0.86010427171E+02  0.15910645686E+04  0.25500000920E-02 0. -1.
       -2    1    3    3    0  502 -0.11240786750E+04 -0.11227358551E+04 -0.11660207904E+04  0.19707087942E+04  0.25500000920E-02 0.  1.
</event>
<event>
 5   0  0.6584420E-08  0.3396135E+04  0.7818609E-02  0.8138856E-01
        1   -1    0    0  501    0  0.00000000000E+00  0.00000000000E+00  0.14000311331E+04  0.14000311331E+04  0.50400001928E-02 0.  1.
       -1   -1    0    0    0  501  0.00000000000E+00  0.00000000000E+00 -0.20595493611E+04  0.20595493611E+04  0.50400001928E-02 0. -1.
    10030    2    1    2    0    0  0.00000000000E+00  0.00000000000E+00 -0.65951822797E+03  0.34595804943E+04  0.33961349948E+04 0.  0.
        1    1    3    3  502    0  0.46242110784E+02 -0.16811997593E+04 -0.56836181246E+03  0.17752763484E+04  0.50400001928E-02 0. -1.
       -1    1    3    3    0  502 -0.46242110784E+02  0.16811997593E+04 -0.91156415512E+02  0.16843041458E+04  0.50400001928E-02 0.  1.
</event>
<event>
 5   0  0.6341535E-08  0.3394272E+04  0.7818609E-02  0.8139314E-01
       -1   -1    0    0    0  501  0.00000000000E+00  0.00000000000E+00  0.13478440775E+04  0.13478440775E+04  0.50400001928E-02 0.  1.
        1   -1    0    0  501    0  0.00000000000E+00  0.00000000000E+00 -0.21369463116E+04  0.21369463116E+04  0.50400001928E-02 0. -1.
    10030    2    1    2    0    0  0.00000000000E+00  0.00000000000E+00 -0.78910223413E+03  0.34847903891E+04  0.33942718983E+04 0.  0.
        5    1    3    3  502    0 -0.14690661556E+04  0.17086163681E+03  0.46005320352E+03  0.15488770476E+04  0.46999998093E+01 0.  1.
       -5    1    3    3    0  502  0.14690661556E+04 -0.17086163681E+03 -0.12491554377E+04  0.19359133415E+04  0.46999998093E+01 0. -1.
</event>
<event>
 5   0  0.1986613E-07  0.3402046E+04  0.7818609E-02  0.8137404E-01
       -2   -1    0    0    0  501  0.00000000000E+00  0.00000000000E+00  0.11536444948E+04  0.11536444948E+04  0.25500000920E-02 0.  1.
        2   -1    0    0  501    0  0.00000000000E+00  0.00000000000E+00 -0.25081197962E+04  0.25081197962E+04  0.25500000920E-02 0. -1.
    10030    2    1    2    0    0  0.00000000000E+00  0.00000000000E+00 -0.13544753014E+04  0.36617642910E+04  0.34020456171E+04 0.  0.
        5    1    3    3  502    0  0.46390263077E+03  0.16363316297E+04 -0.70509083589E+03  0.18411849527E+04  0.46999998093E+01 0.  1.
       -5    1    3    3    0  502 -0.46390263077E+03 -0.16363316297E+04 -0.64938446551E+03  0.18205793383E+04  0.46999998093E+01 0. -1.
</event>
<event>
 5   0  0.1963852E-07  0.3391151E+04  0.7818609E-02  0.8140081E-01
        2   -1    0    0  501    0  0.00000000000E+00  0.00000000000E+00  0.26682424556E+04  0.26682424556E+04  0.25500000920E-02 0.  1.
       -2   -1    0    0    0  501  0.00000000000E+00  0.00000000000E+00 -0.10774796264E+04  0.10774796264E+04  0.25500000920E-02 0. -1.
    10030    2    1    2    0    0  0.00000000000E+00  0.00000000000E+00  0.15907628292E+04  0.37457220820E+04  0.33911513586E+04 0.  0.
        4    1    3    3  502    0  0.13912310026E+04 -0.41079222313E+03 -0.17430526078E+03  0.14610468473E+04  0.12699999809E+01 0. -1.
       -4    1    3    3    0  502 -0.13912310026E+04  0.41079222313E+03  0.17650680900E+04  0.22846752347E+04  0.12699999809E+01 0.  1.
</event>
<event>
 5   0  0.6341535E-08  0.3399645E+04  0.7818609E-02  0.8137993E-01
        1   -1    0    0  501    0  0.00000000000E+00  0.00000000000E+00  0.14828178833E+04  0.14828178833E+04  0.50400001928E-02 0. -1.
       -1   -1    0    0    0  501  0.00000000000E+00  0.00000000000E+00 -0.19485849922E+04  0.19485849922E+04  0.50400001928E-02 0.  1.
    10030    2    1    2    0    0  0.00000000000E+00  0.00000000000E+00 -0.46576710895E+03  0.34314028755E+04  0.33996450836E+04 0.  0.
        5    1    3    3  502    0  0.34885660199E+03 -0.95317517610E+03 -0.16091201333E+04  0.19025071717E+04  0.46999998093E+01 0.  1.
       -5    1    3    3    0  502 -0.34885660199E+03  0.95317517610E+03  0.11433530243E+04  0.15288957039E+04  0.46999998093E+01 0. -1.
</event>
<event>
 5   0  0.6311750E-08  0.3400365E+04  0.7818609E-02  0.8137817E-01
        3   -1    0    0  501    0  0.00000000000E+00  0.00000000000E+00  0.19276619245E+04  0.19276619271E+04  0.10100000352E+00 0. -1.
       -3   -1    0    0    0  501  0.00000000000E+00  0.00000000000E+00 -0.14995470479E+04  0.14995470513E+04  0.10100000352E+00 0.  1.
    10030    2    1    2    0    0  0.00000000000E+00  0.00000000000E+00  0.42811487655E+03  0.34272089785E+04  0.34003645444E+04 0.  0.
        4    1    3    3  502    0  0.89112402169E+03 -0.16442771370E+03  0.16639829383E+04  0.18947240767E+04  0.12699999809E+01 0. -1.
       -4    1    3    3    0  502 -0.89112402169E+03  0.16442771370E+03 -0.12358680618E+04  0.15324849017E+04  0.12699999809E+01 0.  1.
</event>
<event>
 5   0  0.1970449E-07  0.3400110E+04  0.7818609E-02  0.8137879E-01
       -2   -1    0    0    0  501  0.00000000000E+00  0.00000000000E+00  0.17083923511E+04  0.17083923511E+04  0.25500000920E-02 0.  1.
        2   -1    0    0  501    0  0.00000000000E+00  0.00000000000E+00 -0.16917578437E+04  0.16917578437E+04  0.25500000920E-02 0. -1.
    10030    2    1    2    0    0  0.00000000000E+00  0.00000000000E+00  0.16634507392E+02  0.34001501947E+04  0.34001095041E+04 0.  0.
        1    1    3    3  502    0  0.10685539143E+04  0.13072023545E+04  0.20731887280E+03  0.17010486702E+04  0.50400001928E-02 0.  1.
       -1    1    3    3    0  502 -0.10685539143E+04 -0.13072023545E+04 -0.19068436541E+03  0.16991015245E+04  0.50400001928E-02 0. -1.
</event>
<event>
 5   0  0.1963852E-07  0.3410436E+04  0.7818609E-02  0.8135350E-01
       -2   -1    0    0    0  501  0.00000000000E+00  0.00000000000E+00  0.15437957651E+04  0.15437957651E+04  0.25500000920E-02 0.  1.
        2   -1    0    0  501    0  0.00000000000E+00  0.00000000000E+00 -0.18835186085E+04  0.18835186085E+04  0.25500000920E-02 0. -1.
    10030    2    1    2    0    0  0.00000000000E+00  0.00000000000E+00 -0.33972284339E+03  0.34273143736E+04  0.34104357794E+04 0.  0.
        4    1    3    3  502    0  0.27794818575E+03 -0.13032281208E+04 -0.12391327960E+04  0.18196456874E+04  0.12699999809E+01 0. -1.
       -4    1    3    3    0  502 -0.27794818575E+03  0.13032281208E+04  0.89940995260E+03  0.16076686862E+04  0.12699999809E+01 0.  1.
</event>
<event>
 5   0  0.1963852E-07  0.3394868E+04  0.7818609E-02  0.8139167E-01
       -2   -1    0    0    0  501  0.00000000000E+00  0.00000000000E+00  0.13939291596E+04  0.13939291596E+04  0.25500000920E-02 0.  1.
        2   -1    0    0  501    0  0.00000000000E+00  0.00000000000E+00 -0.20670221136E+04  0.20670221136E+04  0.25500000920E-02 0. -1.
    10030    2    1    2    0    0  0.00000000000E+00  0.00000000000E+00 -0.67309295403E+03  0.34609512732E+04  0.33948681257E+04 0.  0.
        4    1    3    3  502    0 -0.10580142162E+04 -0.12913384265E+04 -0.64965981697E+03  0.17913705659E+04  0.12699999809E+01 0.  1.
       -4    1    3    3    0  502  0.10580142162E+04  0.12913384265E+04 -0.23433137060E+02  0.16695807074E+04  0.12699999809E+01 0. -1.
</event>
<event>
 5   0  0.6584420E-08  0.3402694E+04  0.7818609E-02  0.8137246E-01
        1   -1    0    0  501    0  0.00000000000E+00  0.00000000000E+00  0.16705131004E+04  0.16705131004E+04  0.50400001928E-02 0. -1.
       -1   -1    0    0    0  501  0.00000000000E+00  0.00000000000E+00 -0.17327496736E+04  0.17327496736E+04  0.50400001928E-02 0.  1.
    10030    2    1    2    0    0  0.00000000000E+00  0.00000000000E+00 -0.62236573137E+02  0.34032627740E+04  0.34026936562E+04 0.  0.
        1    1    3    3  502    0  0.12416850707E+04  0.85725505877E+03  0.75508759888E+03  0.16872537843E+04  0.50400001928E-02 0. -1.
       -1    1    3    3    0  502 -0.12416850707E+04 -0.85725505877E+03 -0.81732417202E+03  0.17160089897E+04  0.50400001928E-02 0.  1.
</event>
<event>
 5   0  0.6367111E-08  0.3401790E+04  0.7818609E-02  0.8137467E-01
       -1   -1    0    0    0  501  0.00000000000E+00  0.00000000000E+00  0.14551404933E+04  0.14551404933E+04  0.50400001928E-02 0.  1.
        1   -1    0    0  501    0  0.00000000000E+00  0.00000000000E+00 -0.19881537484E+04  0.19881537484E+04  0.50400001928E-02 0. -1.
    10030    2    1    2    0    0  0.00000000000E+00  0.00000000000E+00 -0.53301325505E+03  0.34432942417E+04  0.34017895445E+04 0.  0.
        3    1    3    3  502    0 -0.10941592377E+04 -0.12433963769E+04 -0.65830031069E+03  0.17822957938E+04  0.10100000352E+00 0. -1.
       -3    1    3    3    0  502  0.10941592377E+04  0.12433963769E+04  0.12528705565E+03  0.16609984479E+04  0.10100000352E+00 0.  1.
</event>
<event>
 5   0  0.6367111E-08  0.3399769E+04  0.7818609E-02  0.8137963E-01
       -1   -1    0    0    0  501  0.00000000000E+00  0.00000000000E+00  0.15419251537E+04  0.15419251537E+04  0.50400001928E-02 0. -1.
        1   -1    0    0  501    0  0.00000000000E+00  0.00000000000E+00 -0.18740256294E+04  0.18740256294E+04  0.50400001928E-02 0.  1.
    10030    2    1    2    0    0  0.00000000000E+00  0.00000000000E+00 -0.33210047568E+03  0.34159507831E+04  0.33997689666E+04 0.  0.
        3    1    3    3  502    0 -0.95038292464E+03  0.48647654240E+03 -0.14951160661E+04  0.18371878486E+04  0.10100000352E+00 0.  1.
       -3    1    3    3    0  502  0.95038292464E+03 -0.48647654240E+03  0.11630155904E+04  0.15787629345E+04  0.10100000352E+00 0. -1.
</event>
<event>
 5   0  0.1963852E-07  0.3393577E+04  0.7818609E-02  0.8139485E-01
       -2   -1    0    0    0  501  0.00000000000E+00  0.00000000000E+00  0.21323107660E+04  0.21323107660E+04  0.25500000920E-02 0. -1.
        2   -1    0    0  501    0  0.00000000000E+00  0.00000000000E+00 -0.13502208420E+04  0.13502208420E+04  0.25500000920E-02 0.  1.
    10030    2    1    2    0    0  0.00000000000E+00  0.00000000000E+00  0.78208992403E+03  0.34825316080E+04  0.33935765427E+04 0.  0.
        4    1    3    3  502    0 -0.15228240316E+03 -0.54223484711E+03 -0.12514983556E+04  0.13723914554E+04  0.12699999809E+01 0.  1.
       -4    1    3    3    0  502  0.15228240316E+03  0.54223484711E+03  0.20335882796E+04  0.21101401526E+04  0.12699999809E+01 0. -1.
</event>
<event>
 5   0  0.6311750E-08  0.3349935E+04  0.7818609E-02  0.8150304E-01
       -1   -1    0    0    0  501  0.00000000000E+00  0.00000000000E+00  0.12639711496E+04  0.12639711496E+04  0.50400001928E-02 0. -1.
        1   -1    0    0  501    0  0.00000000000E+00  0.00000000000E+00 -0.22196051384E+04  0.22196051384E+04  0.50400001928E-02 0.  1.
    10030    2    1    2    0    0  0.00000000000E+00  0.00000000000E+00 -0.95563398882E+03  0.34835762880E+04  0.33499354373E+04 0.  0.
        4    1    3    3  502    0 -0.25242160019E+03  0.99324107324E+03  0.89990295425E+03  0.13638443583E+04  0.12699999809E+01 0. -1.
       -4    1    3    3    0  502  0.25242160019E+03 -0.99324107324E+03 -0.18555369431E+04  0.21197319297E+04  0.12699999809E+01 0.  1.
</event>
<event>
 5   0  0.1970449E-07  0.3403858E+04  0.7818609E-02  0.8136960E-01
       -2   -1    0    0    0  501  0.00000000000E+00  0.00000000000E+00  0.16467584794E+04  0.16467584794E+04  0.25500000920E-02 0. -1.
        2   -1    0    0  501    0  0.00000000000E+00  0.00000000000E+00 -0.17589478777E+04  0.17589478777E+04  0.25500000920E-02 0.  1.
    10030    2    1    2    0    0  0.00000000000E+00  0.00000000000E+00 -0.11218939829E+03  0.34057063572E+04  0.34038580067E+04 0.  0.
        1    1    3    3  502    0 -0.83021358106E+03 -0.12460373251E+04 -0.86566862656E+03  0.17295218347E+04  0.50400001928E-02 0.  1.
       -1    1    3    3    0  502  0.83021358106E+03  0.12460373251E+04  0.75347922827E+03  0.16761845224E+04  0.50400001928E-02 0. -1.
</event>
<event>
 5   0  0.6341535E-08  0.3402893E+04  0.7818609E-02  0.8137197E-01
        1   -1    0    0  501    0  0.00000000000E+00  0.00000000000E+00  0.13046616773E+04  0.13046616773E+04  0.50400001928E-02 0.  1.
       -1   -1    0    0    0  501  0.00000000000E+00  0.00000000000E+00 -0.22189045308E+04  0.22189045308E+04  0.50400001928E-02 0. -1.
    10030    2    1    2    0    0  0.00000000000E+00  0.00000000000E+00 -0.91424285349E+03  0.35235662082E+04  0.34028927148E+04 0.  0.
        5    1    3    3  502    0  0.62654872401E+02  0.14332765640E+03 -0.22114365064E+04  0.22169668383E+04  0.46999998093E+01 0. -1.
       -5    1    3    3    0  502 -0.62654872401E+02 -0.14332765640E+03  0.12971936529E+04  0.13065993699E+04  0.46999998093E+01 0.  1.
</event>
<event>
 5   0  0.1897313E-07  0.3399823E+04  0.7818609E-02  0.8137950E-01
       -2   -1    0    0    0  501  0.00000000000E+00  0.00000000000E+00  0.14957471957E+04  0.14957471957E+04  0.25500000920E-02 0. -1.
        2   -1    0    0  501    0  0.00000000000E+00  0.00000000000E+00 -0.19319435319E+04  0.19319435319E+04  0.25500000920E-02 0.  1.
    10030    2    1    2    0    0  0.00000000000E+00  0.00000000000E+00 -0.43619633618E+03  0.34276907277E+04  0.33998230073E+04 0.  0.
        3    1    3    3  502    0 -0.43466205082E+03 -0.15262415732E+04 -0.83248198409E+03  0.17920297716E+04  0.10100000352E+00 0.  1.
       -3    1    3    3    0  502  0.43466205082E+03  0.15262415732E+04  0.39628564791E+03  0.16356609561E+04  0.10100000352E+00 0. -1.
</event>
<event>
 5   0  0.1970449E-07  0.3401629E+04  0.7818609E-02  0.8137507E-01
        2   -1    0    0  501    0  0.00000000000E+00  0.00000000000E+00  0.27832184840E+04  0.27832184840E+04  0.25500000920E-02 0. -1.
       -2   -1    0    0    0  501  0.00000000000E+00  0.00000000000E+00 -0.10393614535E+04  0.10393614535E+04  0.25500000920E-02 0.  1.
    10030    2    1    2    0    0  0.00000000000E+00  0.00000000000E+00  0.17438570305E+04  0.38225799375E+04  0.34016290268E+04 0.  0.
        1    1    3    3  502    0 -0.13270705884E+04  0.73393091114E+03  0.17372881574E+04  0.23060661463E+04  0.50400001928E-02 0. -1.
       -1    1    3    3    0  502  0.13270705884E+04 -0.73393091114E+03  0.65688731216E+01  0.15165137913E+04  0.50400001928E-02 0.  1.
</event>
<event>
 5   0  0.6341535E-08  0.3421818E+04  0.7818609E-02  0.8132572E-01
       -1   -1    0    0    0  501  0.00000000000E+00  0.00000000000E+00  0.23753761726E+04  0.23753761726E+04  0.50400001928E-02 0. -1.
        1   -1    0    0  501    0  0.00000000000E+00  0.00000000000E+00 -0.12323140589E+04  0.12323140589E+04  0.50400001928E-02 0.  1.
    10030    2    1    2    0    0  0.00000000000E+00  0.00000000000E+00  0.11430621136E+04  0.36076902315E+04  0.34218179103E+04 0.  0.
        5    1    3    3  502    0 -0.16368052946E+04  0.86954287021E+02  0.10885722420E+04  0.19676646657E+04  0.46999998093E+01 0. -1.
       -5    1    3    3    0  502  0.16368052946E+04 -0.86954287021E+02  0.54489871644E+02  0.16400255658E+04  0.46999998093E+01 0.  1.
</event>
<event>
 5   0  0.6788600E-08  0.3402106E+04  0.7818609E-02  0.8137390E-01
        1   -1    0    0  501    0  0.00000000000E+00  0.00000000000E+00  0.18510742397E+04  0.18510742397E+04  0.50400001928E-02 0. -1.
       -1   -1    0    0    0  501  0.00000000000E+00  0.00000000000E+00 -0.15631902865E+04  0.15631902865E+04  0.50400001928E-02 0.  1.
    10030    2    1    2    0    0  0.00000000000E+00  0.00000000000E+00  0.28788395322E+03  0.34142645263E+04  0.34021059779E+04 0.  0.
        2    1    3    3  502    0 -0.42586415266E+03 -0.81486620340E+03  0.15802149880E+04  0.18282359296E+04  0.25500000920E-02 0. -1.
       -2    1    3    3    0  502  0.42586415266E+03  0.81486620340E+03 -0.12923310348E+04  0.15860285967E+04  0.25500000920E-02 0.  1.
</event>
<event>
 5   0  0.1928004E-07  0.3376296E+04  0.7818609E-02  0.8143749E-01
        2   -1    0    0  501    0  0.00000000000E+00  0.00000000000E+00  0.23563420224E+04  0.23563420224E+04  0.25500000920E-02 0.  1.
       -2   -1    0    0    0  501  0.00000000000E+00  0.00000000000E+00 -0.12094356982E+04  0.12094356982E+04  0.25500000920E-02 0. -1.
    10030    2    1    2    0    0  0.00000000000E+00  0.00000000000E+00  0.11469063242E+04  0.35657777206E+04  0.33762962897E+04 0.  0.
        2    1    3    3  502    0  0.15793296310E+04  0.25806402089E+03  0.11411759999E+04  0.19654927588E+04  0.25500000920E-02 0.  1.
       -2    1    3    3    0  502 -0.15793296310E+04 -0.25806402089E+03  0.57303243105E+01  0.16002849617E+04  0.25500000920E-02 0. -1.
</event>
<event>
 5   0  0.1928004E-07  0.3378253E+04  0.7818609E-02  0.8143264E-01
       -2   -1    0    0    0  501  0.00000000000E+00  0.00000000000E+00  0.13666584262E+04  0.13666584262E+04  0.25500000920E-02 0. -1.
        2   -1    0    0  501    0  0.00000000000E+00  0.00000000000E+00 -0.20876820175E+04  0.20876820175E+04  0.25500000920E-02 0.  1.
    10030    2    1    2    0    0  0.00000000000E+00  0.00000000000E+00 -0.72102359121E+03  0.34543404437E+04  0.33782529334E+04 0.  0.
        2    1    3    3  502    0  0.19678276572E+03  0.45303299128E+03  0.12911665843E+04  0.13824158190E+04  0.25500000920E-02 0. -1.
       -2    1    3    3    0  502 -0.19678276572E+03 -0.45303299128E+03 -0.20121901755E+04  0.20719246247E+04  0.25500000920E-02 0.  1.
</event>
<event>
 5   0  0.6367111E-08  0.3415649E+04  0.7818609E-02  0.8134076E-01
        1   -1    0    0  501    0  0.00000000000E+00  0.00000000000E+00  0.17951889785E+04  0.17951889786E+04  0.50400001928E-02 0.  1.
       -1   -1    0    0    0  501  0.00000000000E+00  0.00000000000E+00 -0.16247118467E+04  0.16247118467E+04  0.50400001928E-02 0. -1.
    10030    2    1    2    0    0  0.00000000000E+00  0.00000000000E+00  0.17047713187E+03  0.34199008252E+04  0.34156491626E+04 0.  0.
        3    1    3    3  502    0  0.15387812599E+04  0.35612931108E+03  0.73565392683E+03  0.17423726818E+04  0.10100000352E+00 0.  1.
       -3    1    3    3    0  502 -0.15387812599E+04 -0.35612931108E+03 -0.56517679496E+03  0.16775281434E+04  0.10100000352E+00 0. -1.
</event>
<event>
 5   0  0.6788600E-08  0.3392784E+04  0.7818609E-02  0.8139680E-01
       -1   -1    0    0    0  501  0.00000000000E+00  0.00000000000E+00  0.19482102111E+04  0.19482102111E+04  0.50400001928E-02 0.  1.
        1   -1    0    0  501    0  0.00000000000E+00  0.00000000000E+00 -0.14771232392E+04  0.14771232392E+04  0.50400001928E-02 0. -1.
    10030    2    1    2    0    0  0.00000000000E+00  0.00000000000E+00  0.47108697189E+03  0.34253334503E+04  0.33927844480E+04 0.  0.
        2    1    3    3  502    0  0.11565485539E+04 -0.11300881928E+04  0.75334070197E+03  0.17838795067E+04  0.25500000920E-02 0.  1.
       -2    1    3    3    0  502 -0.11565485539E+04  0.11300881928E+04 -0.28225373008E+03  0.16414539437E+04  0.25500000920E-02 0. -1.
</event>
<event>
 5   0  0.1970449E-07  0.3402140E+04  0.7818609E-02  0.8137381E-01
        2   -1    0    0  501    0  0.00000000000E+00  0.00000000000E+00  0.25742562345E+04  0.25742562345E+04  0.25500000920E-02 0. -1.
       -2   -1    0    0    0  501  0.00000000000E+00  0.00000000000E+00 -0.11240677546E+04  0.11240677546E+04  0.25500000920E-02 0.  1.
    10030    2    1    2    0    0  0.00000000000E+00  0.00000000000E+00  0.14501884799E+04  0.36983239891E+04  0.34021395770E+04 0.  0.
        1    1    3    3  502    0  0.11118731717E+04 -0.59523225654E+03 -0.51580791809E+03  0.13625788776E+04  0.50400001928E-02 0.  1.
       -1    1    3    3    0  502 -0.11118731717E+04  0.59523225654E+03  0.19659963980E+04  0.23357451116E+04  0.50400001928E-02 0. -1.
</event>
<event>
 5   0  0.6311750E-08  0.3395571E+04  0.7818609E-02  0.8138994E-01
       -1   -1    0    0    0  501  0.00000000000E+00  0.00000000000E+00  0.12217809650E+04  0.12217809650E+04  0.50400001928E-02 0.  1.
        1   -1    0    0  501    0  0.00000000000E+00  0.00000000000E+00 -0.23592402682E+04  0.23592402682E+04  0.50400001928E-02 0. -1.
    10030    2    1    2    0    0  0.00000000000E+00  0.00000000000E+00 -0.11374593033E+04  0.35810212332E+04  0.33955705568E+04 0.  0.
        4    1    3    3  502    0 -0.10753867275E+04  0.13063402965E+04 -0.71596717073E+03  0.18372784728E+04  0.12699999809E+01 0. -1.
       -4    1    3    3    0  502  0.10753867275E+04 -0.13063402965E+04 -0.42149213254E+03  0.17437427605E+04  0.12699999809E+01 0.  1.
</event>
<event>
 5   0  0.1970449E-07  0.3395596E+04  0.7818609E-02  0.8138988E-01
        2   -1    0    0  501    0  0.00000000000E+00  0.00000000000E+00  0.18751519972E+04  0.18751519972E+04  0.25500000920E-02 0. -1.
       -2   -1    0    0    0  501  0.00000000000E+00  0.00000000000E+00 -0.15372183641E+04  0.15372183641E+04  0.25500000920E-02 0.  1.
    10030    2    1    2    0    0  0.00000000000E+00  0.00000000000E+00  0.33793363314E+03  0.34123703614E+04  0.33955960217E+04 0.  0.
        1    1    3    3  502    0  0.13128426350E+04  0.36584896075E+03 -0.84851540347E+03  0.16054219496E+04  0.50400001928E-02 0.  1.
       -1    1    3    3    0  502 -0.13128426350E+04 -0.36584896075E+03  0.11864490366E+04  0.18069484118E+04  0.50400001928E-02 0. -1.
</event>
<event>
 5   0  0.6584420E-08  0.3399861E+04  0.7818609E-02  0.8137941E-01
        1   -1    0    0  501    0  0.00000000000E+00  0.00000000000E+00  0.22171868314E+04  0.22171868314E+04  0.50400001928E-02 0.  1.
       -1   -1    0    0    0  501  0.00000000000E+00  0.00000000000E+00 -0.13033466329E+04  0.13033466330E+04  0.50400001928E-02 0. -1.
    10030    2    1    2    0    0  0.00000000000E+00  0.00000000000E+00  0.91384019845E+03  0.35205334643E+04  0.33998605803E+04 0.  0.
        1    1    3    3  502    0  0.63238121737E+02 -0.12779698422E+04  0.16158205194E+04  0.20610875597E+04  0.50400001928E-02 0.  1.
       -1    1    3    3    0  502 -0.63238121737E+02  0.12779698422E+04 -0.70198032098E+03  0.14594459047E+04  0.50400001928E-02 0. -1.
</event>
<event>
 5   0  0.1963852E-07  0.3435280E+04  0.7818609E-02  0.8129301E-01
       -2   -1    0    0    0  501  0.00000000000E+00  0.00000000000E+00  0.23164036371E+04  0.23164036371E+04  0.25500000920E-02 0.  1.
        2   -1    0    0  501    0  0.00000000000E+00  0.00000000000E+00 -0.12736499548E+04  0.12736499548E+04  0.25500000920E-02 0. -1.
    10030    2    1    2    0    0  0.00000000000E+00  0.00000000000E+00  0.10427536824E+04  0.35900535919E+04  0.34352801269E+04 0.  0.
        4    1    3    3  502    0 -0.10535308280E+04 -0.77367978848E+03 -0.64318024498E+03  0.14567738538E+04  0.12699999809E+01 0. -1.
       -4    1    3    3    0  502  0.10535308280E+04  0.77367978848E+03  0.16859339274E+04  0.21332797381E+04  0.12699999809E+01 0.  1.
</event>
<event>
 5   0  0.6311750E-08  0.3399190E+04  0.7818609E-02  0.8138105E-01
       -3   -1    0    0    0  501  0.00000000000E+00  0.00000000000E+00  0.21948870902E+04  0.21948870925E+04  0.10100000352E+00 0.  1.
        3   -1    0    0  501    0  0.00000000000E+00  0.00000000000E+00 -0.13160688001E+04  0.13160688040E+04  0.10100000352E+00 0. -1.
    10030    2    1    2    0    0  0.00000000000E+00  0.00000000000E+00  0.87881829003E+03  0.35109558965E+04  0.33991895681E+04 0.  0.
        4    1    3    3  502    0 -0.11449371776E+02  0.71131823277E+02  0.21933086057E+04  0.21944919861E+04  0.12699999809E+01 0.  1.
       -4    1    3    3    0  502  0.11449371776E+02 -0.71131823277E+02 -0.13144903157E+04  0.13164639104E+04  0.12699999809E+01 0. -1.
</event>
<event>
 5   0  0.1897313E-07  0.3419062E+04  0.7818609E-02  0.8133244E-01
        2   -1    0    0  501    0  0.00000000000E+00  0.00000000000E+00  0.22154200713E+04  0.22154200713E+04  0.25500000920E-02 0.  1.
       -2   -1    0    0    0  501  0.00000000000E+00  0.00000000000E+00 -0.13191610224E+04  0.13191610224E+04  0.25500000920E-02 0. -1.
    10030    2    1    2    0    0  0.00000000000E+00  0.00000000000E+00  0.89625904895E+03  0.35345810937E+04  0.34190617464E+04 0.  0.
        3    1    3    3  502    0 -0.14360303175E+03  0.14726203516E+04  0.13333694040E+04  0.19917596513E+04  0.10100000352E+00 0.  1.
       -3    1    3    3    0  502  0.14360303175E+03 -0.14726203516E+04 -0.43711035502E+03  0.15428214425E+04  0.10100000352E+00 0. -1.
</event>
<event>
 5   0  0.1928004E-07  0.3421004E+04  0.7818609E-02  0.8132770E-01
       -2   -1    0    0    0  501  0.00000000000E+00  0.00000000000E+00  0.16393026170E+04  0.16393026170E+04  0.25500000920E-02 0. -1.
        2   -1    0    0  501    0  0.00000000000E+00  0.00000000000E+00 -0.17847942626E+04  0.17847942626E+04  0.25500000920E-02 0.  1.
    10030    2    1    2    0    0  0.00000000000E+00  0.00000000000E+00 -0.14549164564E+03  0.34240968796E+04  0.34210044756E+04 0.  0.
        2    1    3    3  502    0  0.99293973629E+03  0.12863582680E+04 -0.60724258003E+03  0.17347594832E+04  0.25500000920E-02 0.  1.
       -2    1    3    3    0  502 -0.99293973629E+03 -0.12863582680E+04  0.46175093439E+03  0.16893373964E+04  0.25500000920E-02 0. -1.
</event>
<event>
 5   0  0.1970449E-07  0.3387866E+04  0.7818609E-02  0.8140891E-01
       -2   -1    0    0    0  501  0.00000000000E+00  0.00000000000E+00  0.16295389675E+04  0.16295389675E+04  0.25500000920E-02 0. -1.
        2   -1    0    0  501    0  0.00000000000E+00  0.00000000000E+00 -0.17608711888E+04  0.17608711888E+04  0.25500000920E-02 0.  1.
    10030    2    1    2    0    0  0.00000000000E+00  0.00000000000E+00 -0.13133222132E+03  0.33904101563E+04  0.33878655339E+04 0.  0.
        1    1    3    3  502    0 -0.14787618590E+04  0.79028083586E+03 -0.30694424067E+03  0.17045513199E+04  0.50400001928E-02 0.  1.
       -1    1    3    3    0  502  0.14787618590E+04 -0.79028083586E+03  0.17561201935E+03  0.16858588365E+04  0.50400001928E-02 0. -1.
</event>
<event>
 5   0  0.6311750E-08  0.3393291E+04  0.7818609E-02  0.8139555E-01
        1   -1    0    0  501    0  0.00000000000E+00  0.00000000000E+00  0.12655303391E+04  0.12655303392E+04  0.50400001928E-02 0.  1.
       -1   -1    0    0    0  501  0.00000000000E+00  0.00000000000E+00 -0.22746245560E+04  0.22746245560E+04  0.50400001928E-02 0. -1.
    10030    2    1    2    0    0  0.00000000000E+00  0.00000000000E+00 -0.10090942168E+04  0.35401548951E+04  0.33932912553E+04 0.  0.
        4    1    3    3  502    0  0.11226264345E+04  0.85112824007E+03 -0.14909275970E+04  0.20512377008E+04  0.12699999809E+01 0. -1.
       -4    1    3    3    0  502 -0.11226264345E+04 -0.85112824007E+03  0.48183338019E+03  0.14889171944E+04  0.12699999809E+01 0.  1.
</event>
<event>
 5   0  0.1928004E-07  0.3405459E+04  0.7818609E-02  0.8136568E-01
        2   -1    0    0  501    0  0.00000000000E+00  0.00000000000E+00  0.18958909032E+04  0.18958909032E+04  0.25500000920E-02 0. -1.
       -2   -1    0    0    0  501  0.00000000000E+00  0.00000000000E+00 -0.15292478041E+04  0.15292478041E+04  0.25500000920E-02 0.  1.
    10030    2    1    2    0    0  0.00000000000E+00  0.00000000000E+00  0.36664309910E+03  0.34251387073E+04  0.34054585598E+04 0.  0.
        2    1    3    3  502    0 -0.16392814669E+04 -0.95244105626E+02  0.63644908211E+03  0.17610742748E+04  0.25500000920E-02 0. -1.
       -2    1    3    3    0  502  0.16392814669E+04  0.95244105626E+02 -0.26980598301E+03  0.16640644326E+04  0.25500000920E-02 0.  1.
</event>
<event>
 5   0  0.6367111E-08  0.3393247E+04  0.7818609E-02  0.8139566E-01
       -1   -1    0    0    0  501  0.00000000000E+00  0.00000000000E+00  0.27750929668E+04  0.27750929668E+04  0.50400001928E-02 0.  1.
        1   -1    0    0  501    0  0.00000000000E+00  0.00000000000E+00 -0.10372737810E+04  0.10372737810E+04  0.50400001928E-02 0. -1.
    10030    2    1    2    0    0  0.00000000000E+00  0.00000000000E+00  0.17378191858E+04  0.38123667479E+04  0.33932469255E+04 0.  0.
        3    1    3    3  502    0  0.74421041279E+03 -0.96275139382E+03  0.21972226742E+04  0.25116780994E+04  0.10100000352E+00 0.  1.
       -3    1    3    3    0  502 -0.74421041279E+03  0.96275139382E+03 -0.45940348840E+03  0.13006886484E+04  0.10100000352E+00 0. -1.
</event>
<event>
 5   0  0.6311750E-08  0.3401023E+04  0.7818609E-02  0.8137655E-01
       -1   -1    0    0    0  501  0.00000000000E+00  0.00000000000E+00  0.16932018276E+04  0.16932018276E+04  0.50400001928E-02 0.  1.
        1   -1    0    0  501    0  0.00000000000E+00  0.00000000000E+00 -0.17078526845E+04  0.17078526846E+04  0.50400001928E-02 0. -1.
    10030    2    1    2    0    0  0.00000000000E+00  0.00000000000E+00 -0.14650856980E+02  0.34010545121E+04  0.34010229559E+04 0.  0.
        4    1    3    3  502    0  0.10336546738E+04 -0.49958618417E+03 -0.12618127887E+04  0.17059312609E+04  0.12699999809E+01 0. -1.
       -4    1    3    3    0  502 -0.10336546738E+04  0.49958618417E+03  0.12471619317E+04  0.16951232513E+04  0.12699999809E+01 0.  1.
</event>
<event>
 5   0  0.6788600E-08  0.3403065E+04  0.7818609E-02  0.8137154E-01
        1   -1    0    0  501    0  0.00000000000E+00  0.00000000000E+00  0.15907758108E+04  0.15907758108E+04  0.50400001928E-02 0. -1.
       -1   -1    0    0    0  501  0.00000000000E+00  0.00000000000E+00 -0.18200004503E+04  0.18200004503E+04  0.50400001928E-02 0.  1.
    10030    2    1    2    0    0  0.00000000000E+00  0.00000000000E+00 -0.22922463950E+03  0.34107762611E+04  0.34030649080E+04 0.  0.
        2    1    3    3  502    0 -0.37463348355E+03 -0.72087952583E+03 -0.16130570289E+04  0.18060926101E+04  0.25500000920E-02 0.  1.
       -2    1    3    3    0  502  0.37463348355E+03  0.72087952583E+03  0.13838323894E+04  0.16046836510E+04  0.25500000920E-02 0. -1.
</event>
<event>
 5   0  0.6341535E-08  0.3389832E+04  0.7818609E-02  0.8140406E-01
        1   -1    0    0  501    0  0.00000000000E+00  0.00000000000E+00  0.16186625229E+04  0.16186625229E+04  0.50400001928E-02 0.  1.
       -1   -1    0    0    0  501  0.00000000000E+00  0.00000000000E+00 -0.17747613020E+04  0.17747613020E+04  0.50400001928E-02 0. -1.
    10030    2    1    2    0    0  0.00000000000E+00  0.00000000000E+00 -0.15609877907E+03  0.33934238249E+04  0.33898316222E+04 0.  0.
        5    1    3    3  502    0 -0.12059248306E+04 -0.67689569613E+03  0.90292528923E+03  0.16515867063E+04  0.46999998093E+01 0.  1.
       -5    1    3    3    0  502  0.12059248306E+04  0.67689569613E+03 -0.10590240683E+04  0.17418371186E+04  0.46999998093E+01 0. -1.
</event>
<event>
 5   0  0.1970449E-07  0.3395977E+04  0.7818609E-02  0.8138894E-01
        2   -1    0    0  501    0  0.00000000000E+00  0.00000000000E+00  0.19805842629E+04  0.19805842629E+04  0.25500000920E-02 0. -1.
       -2   -1    0    0    0  501  0.00000000000E+00  0.00000000000E+00 -0.14557140987E+04  0.14557140987E+04  0.25500000920E-02 0.  1.
    10030    2    1    2    0    0  0.00000000000E+00  0.00000000000E+00  0.52487016418E+03  0.34362983616E+04  0.33959766991E+04 0.  0.
        1    1    3    3  502    0 -0.12168956390E+04  0.80567219246E+03  0.11406232703E+04  0.18522861881E+04  0.50400001928E-02 0. -1.
       -1    1    3    3    0  502  0.12168956390E+04 -0.80567219246E+03 -0.61575310612E+03  0.15840121735E+04  0.50400001928E-02 0.  1.
</event>
<event>
 5   0  0.1963852E-07  0.3405811E+04  0.7818609E-02  0.8136481E-01
       -2   -1    0    0    0  501  0.00000000000E+00  0.00000000000E+00  0.12909490124E+04  0.12909490124E+04  0.25500000920E-02 0. -1.
        2   -1    0    0  501    0  0.00000000000E+00  0.00000000000E+00 -0.22463224620E+04  0.22463224620E+04  0.25500000920E-02 0.  1.
    10030    2    1    2    0    0  0.00000000000E+00  0.00000000000E+00 -0.95537344954E+03  0.35372714744E+04  0.34058113653E+04 0.  0.
        4    1    3    3  502    0  0.36488101088E+03  0.12871701242E+04 -0.15718893747E+04  0.20641663935E+04  0.12699999809E+01 0.  1.
       -4    1    3    3    0  502 -0.36488101088E+03 -0.12871701242E+04  0.61651592520E+03  0.14731050810E+04  0.12699999809E+01 0. -1.
</event>
<event>
 5   0  0.1897313E-07  0.3396935E+04  0.7818609E-02  0.8138659E-01
        2   -1    0    0  501    0  0.00000000000E+00  0.00000000000E+00  0.23313391313E+04  0.23313391313E+04  0.25500000920E-02 0. -1.
       -2   -1    0    0    0  501  0.00000000000E+00  0.00000000000E+00 -0.12373971296E+04  0.12373971296E+04  0.25500000920E-02 0.  1.
    10030    2    1    2    0    0  0.00000000000E+00  0.00000000000E+00  0.10939420017E+04  0.35687362609E+04  0.33969352948E+04 0.  0.
        3    1    3    3  502    0  0.90387050715E+03  0.13911727607E+04  0.16462972497E+03  0.16671672083E+04  0.10100000352E+00 0.  1.
       -3    1    3    3    0  502 -0.90387050715E+03 -0.13911727607E+04  0.92931227677E+03  0.19015690526E+04  0.10100000352E+00 0. -1.
</event>
<event>
 5   0  0.6788600E-08  0.3401419E+04  0.7818609E-02  0.8137558E-01
        1   -1    0    0  501    0  0.00000000000E+00  0.00000000000E+00  0.21571528712E+04  0.21571528712E+04  0.50400001928E-02 0. -1.
       -1   -1    0    0    0  501  0.00000000000E+00  0.00000000000E+00 -0.13408472093E+04  0.13408472093E+04  0.50400001928E-02 0.  1.
    10030    2    1    2    0    0  0.00000000000E+00  0.00000000000E+00  0.81630566192E+03  0.34980000805E+04  0.34014187672E+04 0.  0.
        2    1    3    3  502    0 -0.54550704912E+03  0.15489727241E+04 -0.46576583440E+02  0.16428827769E+04  0.25500000920E-02 0.  1.
       -2    1    3    3    0  502  0.54550704912E+03 -0.15489727241E+04  0.86288224536E+03  0.18551173036E+04  0.25500000920E-02 0. -1.
</event>
<event>
 5   0  0.6788600E-08  0.3401523E+04  0.7818609E-02  0.8137533E-01
       -1   -1    0    0    0  501  0.00000000000E+00  0.00000000000E+00  0.17668452940E+04  0.17668452940E+04  0.50400001928E-02 0. -1.
        1   -1    0    0  501    0  0.00000000000E+00  0.00000000000E+00 -0.16371492376E+04  0.16371492376E+04  0.50400001928E-02 0.  1.
    10030    2    1    2    0    0  0.00000000000E+00  0.00000000000E+00  0.12969605637E+03  0.34039945316E+04  0.34015228508E+04 0.  0.
        2    1    3    3  502    0  0.10670209172E+04 -0.93911555269E+03  0.99939907438E+03  0.17376047217E+04  0.25500000920E-02 0. -1.
       -2    1    3    3    0  502 -0.10670209172E+04  0.93911555269E+03 -0.86970301801E+03  0.16663898099E+04  0.25500000920E-02 0.  1.
</event>
<event>
 5   0  0.6311750E-08  0.3398602E+04  0.7818609E-02  0.8138249E-01
       -3   -1    0    0    0  501  0.00000000000E+00  0.00000000000E+00  0.20866157107E+04  0.20866157132E+04  0.10100000352E+00 0. -1.
        3   -1    0    0  501    0  0.00000000000E+00  0.00000000000E+00 -0.13838791671E+04  0.13838791708E+04  0.10100000352E+00 0.  1.
    10030    2    1    2    0    0  0.00000000000E+00  0.00000000000E+00  0.70273654362E+03  0.34704948840E+04  0.33986020788E+04 0.  0.
        5    1    3    3  502    0  0.56947067144E+03  0.55038346990E+03  0.18866289185E+04  0.20461206161E+04  0.46999998093E+01 0. -1.
       -5    1    3    3    0  502 -0.56947067144E+03 -0.55038346990E+03 -0.11838923749E+04  0.14243742678E+04  0.46999998093E+01 0.  1.
</event>
<event>
 5   0  0.6311750E-08  0.3406077E+04  0.7818609E-02  0.8136416E-01
        3   -1    0    0  501    0  0.00000000000E+00  0.00000000000E+00  0.11249240955E+04  0.11249241000E+04  0.10100000352E+00 0. -1.
       -3   -1    0    0    0  501  0.00000000000E+00  0.00000000000E+00 -0.25782545829E+04  0.25782545849E+04  0.10100000352E+00 0.  1.
    10030    2    1    2    0    0  0.00000000000E+00  0.00000000000E+00 -0.14533304874E+04  0.37031786849E+04  0.34060773430E+04 0.  0.
        4    1    3    3  502    0  0.16376536037E+04  0.35071051129E+03 -0.10625319711E+04  0.19834018733E+04  0.12699999809E+01 0. -1.
       -4    1    3    3    0  502 -0.16376536037E+04 -0.35071051129E+03 -0.39079851629E+03  0.17197768116E+04  0.12699999809E+01 0.  1.
</event>
<event>
 5   0  0.6311750E-08  0.3390840E+04  0.7818609E-02  0.8140158E-01
        1   -1    0    0  501    0  0.00000000000E+00  0.00000000000E+00  0.24960481642E+04  0.24960481642E+04  0.50400001928E-02 0.  1.
       -1   -1    0    0    0  501  0.00000000000E+00  0.00000000000E+00 -0.11516001720E+04  0.11516001720E+04  0.50400001928E-02 0. -1.
    10030    2    1    2    0    0  0.00000000000E+00  0.00000000000E+00  0.13444479922E+04  0.36476483362E+04  0.33908403060E+04 0.  0.
        4    1    3    3  502    0 -0.12107834365E+03  0.39181597274E+03 -0.10974409127E+04  0.11715621587E+04  0.12699999809E+01 0. -1.
       -4    1    3    3    0  502  0.12107834365E+03 -0.39181597274E+03  0.24418889049E+04  0.24760861775E+04  0.12699999809E+01 0.  1.
</event>
<event>
 5   0  0.6584420E-08  0.3399423E+04  0.7818609E-02  0.8138048E-01
       -1   -1    0    0    0  501  0.00000000000E+00  0.00000000000E+00  0.26600740631E+04  0.26600740631E+04  0.50400001928E-02 0. -1.
        1   -1    0    0  501    0  0.00000000000E+00  0.00000000000E+00 -0.10860674579E+04  0.10860674579E+04  0.50400001928E-02 0.  1.
    10030    2    1    2    0    0  0.00000000000E+00  0.00000000000E+00  0.15740066052E+04  0.37461415210E+04  0.33994234073E+04 0.  0.
        1    1    3    3  502    0 -0.47354234645E+03  0.84506136455E+02 -0.10094944893E+04  0.11182409243E+04  0.50400001928E-02 0.  1.
       -1    1    3    3    0  502  0.47354234645E+03 -0.84506136455E+02  0.25835010944E+04  0.26279005967E+04  0.50400001928E-02 0. -1.
</event>
<event>
 5   0  0.1963852E-07  0.3399541E+04  0.7818609E-02  0.8138019E-01
       -2   -1    0    0    0  501  0.00000000000E+00  0.00000000000E+00  0.24130555201E+04  0.24130555201E+04  0.25500000920E-02 0. -1.
        2   -1    0    0  501    0  0.00000000000E+00  0.00000000000E+00 -0.11973284682E+04  0.11973284682E+04  0.25500000920E-02 0.  1.
    10030    2    1    2    0    0  0.00000000000E+00  0.00000000000E+00  0.12157270520E+04  0.36103839883E+04  0.33995411864E+04 0.  0.
        4    1    3    3  502    0 -0.70149882676E+03  0.40364006675E+03  0.21952891520E+04  0.23397269031E+04  0.12699999809E+01 0. -1.
       -4    1    3    3    0  502  0.70149882676E+03 -0.40364006675E+03 -0.97956210003E+03  0.12706570852E+04  0.12699999809E+01 0.  1.
</event>
<event>
 5   0  0.1986613E-07  0.3400574E+04  0.7818609E-02  0.8137765E-01
        2   -1    0    0  501    0  0.00000000000E+00  0.00000000000E+00  0.19703633794E+04  0.19703633794E+04  0.25500000920E-02 0.  1.
       -2   -1    0    0    0  501  0.00000000000E+00  0.00000000000E+00 -0.14672301656E+04  0.14672301656E+04  0.25500000920E-02 0. -1.
    10030    2    1    2    0    0  0.00000000000E+00  0.00000000000E+00  0.50313321382E+03  0.34375935450E+04  0.34005744146E+04 0.  0.
        5    1    3    3  502    0  0.41770427191E+03  0.12621791801E+04 -0.81986844011E+03  0.15619793502E+04  0.46999998093E+01 0. -1.
       -5    1    3    3    0  502 -0.41770427191E+03 -0.12621791801E+04  0.13230016539E+04  0.18756141948E+04  0.46999998093E+01 0.  1.
</event>
<event>
 5   0  0.6341535E-08  0.3399944E+04  0.7818609E-02  0.8137920E-01
        1   -1    0    0  501    0  0.00000000000E+00  0.00000000000E+00  0.18858113426E+04  0.18858113426E+04  0.50400001928E-02 0.  1.
       -1   -1    0    0    0  501  0.00000000000E+00  0.00000000000E+00 -0.15324464083E+04  0.15324464083E+04  0.50400001928E-02 0. -1.
    10030    2    1    2    0    0  0.00000000000E+00  0.00000000000E+00  0.35336493435E+03  0.34182577509E+04  0.33999440105E+04 0.  0.
        5    1    3    3  502    0 -0.15199547664E+04  0.72747578610E+03 -0.49024486125E+02  0.16857962515E+04  0.46999998093E+01 0.  1.
       -5    1    3    3    0  502  0.15199547664E+04 -0.72747578610E+03  0.40238942048E+03  0.17324614994E+04  0.46999998093E+01 0. -1.
</event>
<event>
 5   0  0.1970449E-07  0.3399413E+04  0.7818609E-02  0.8138051E-01
       -2   -1    0    0    0  501  0.00000000000E+00  0.00000000000E+00  0.17925150064E+04  0.17925150064E+04  0.25500000920E-02 0. -1.
        2   -1    0    0  501    0  0.00000000000E+00  0.00000000000E+00 -0.16117027671E+04  0.16117027671E+04  0.25500000920E-02 0.  1.
    10030    2    1    2    0    0  0.00000000000E+00  0.00000000000E+00  0.18081223927E+03  0.34042177736E+04  0.33994125351E+04 0.  0.
        1    1    3    3  502    0 -0.64091753903E+03 -0.12541102424E+04  0.10432939220E+04  0.17527207421E+04  0.50400001928E-02 0. -1.
       -1    1    3    3    0  502  0.64091753903E+03  0.12541102424E+04 -0.86248168273E+03  0.16514970315E+04  0.50400001928E-02 0.  1.
</event>
<event>
 5   0  0.1928004E-07  0.3400926E+04  0.7818609E-02  0.8137679E-01
       -2   -1    0    0    0  501  0.00000000000E+00  0.00000000000E+00  0.98193628788E+03  0.98193628789E+03  0.25500000920E-02 0.  1.
        2   -1    0    0  501    0  0.00000000000E+00  0.00000000000E+00 -0.29447684764E+04  0.29447684764E+04  0.25500000920E-02 0. -1.
    10030    2    1    2    0    0  0.00000000000E+00  0.00000000000E+00 -0.19628321885E+04  0.39267047643E+04  0.34009263599E+04 0.  0.
        2    1    3    3  502    0 -0.41423611832E+03  0.22374768869E+03 -0.28680176181E+04  0.29064032149E+04  0.25500000920E-02 0. -1.
       -2    1    3    3    0  502  0.41423611832E+03 -0.22374768869E+03  0.90518542953E+03  0.10203015494E+04  0.25500000920E-02 0.  1.
</event>
<event>
 5   0  0.1928004E-07  0.3395591E+04  0.7818609E-02  0.8138989E-01
        2   -1    0    0  501    0  0.00000000000E+00  0.00000000000E+00  0.26013264149E+04  0.26013264149E+04  0.25500000920E-02 0. -1.
       -2   -1    0    0    0  501  0.00000000000E+00  0.00000000000E+00 -0.11080919518E+04  0.11080919518E+04  0.25500000920E-02 0.  1.
    10030    2    1    2    0    0  0.00000000000E+00  0.00000000000E+00  0.14932344632E+04  0.37094183667E+04  0.33955905903E+04 0.  0.
        2    1    3    3  502    0 -0.13534177506E+04 -0.95239561021E+03  0.33248712973E+03  0.16880002066E+04  0.25500000920E-02 0.  1.
       -2    1    3    3    0  502  0.13534177506E+04  0.95239561021E+03  0.11607473334E+04  0.20214181601E+04  0.25500000920E-02 0. -1.
</event>
<event>
 5   0  0.6311750E-08  0.3397569E+04  0.7818609E-02  0.8138503E-01
       -1   -1    0    0    0  501  0.00000000000E+00  0.00000000000E+00  0.28096809699E+04  0.28096809699E+04  0.50400001928E-02 0. -1.
        1   -1    0    0  501    0  0.00000000000E+00  0.00000000000E+00 -0.10271159703E+04  0.10271159703E+04  0.50400001928E-02 0.  1.
    10030    2    1    2    0    0  0.00000000000E+00  0.00000000000E+00  0.17825649996E+04  0.38367969403E+04  0.33975686576E+04 0.  0.
        4    1    3    3  502    0  0.12759124068E+04  0.84525130048E+03  0.17237860699E+04  0.23051772727E+04  0.12699999809E+01 0. -1.
       -4    1    3    3    0  502 -0.12759124068E+04 -0.84525130048E+03  0.58778929685E+02  0.15316196676E+04  0.12699999809E+01 0.  1.
</event>
<event>
 5   0  0.6584420E-08  0.3399516E+04  0.7818609E-02  0.8138025E-01
       -1   -1    0    0    0  501  0.00000000000E+00  0.00000000000E+00  0.13733996189E+04  0.13733996189E+04  0.50400001928E-02 0. -1.
        1   -1    0    0  501    0  0.00000000000E+00  0.00000000000E+00 -0.21036686756E+04  0.21036686756E+04  0.50400001928E-02 0.  1.
    10030    2    1    2    0    0  0.00000000000E+00  0.00000000000E+00 -0.73026905670E+03  0.34770682945E+04  0.33995162934E+04 0.  0.
        1    1    3    3  502    0 -0.18927478104E+03  0.11643884073E+04 -0.16167966658E+04  0.20014136914E+04  0.50400001928E-02 0.  1.
       -1    1    3    3    0  502  0.18927478104E+03 -0.11643884073E+04  0.88652760907E+03  0.14756546030E+04  0.50400001928E-02 0. -1.
</event>
<event>
 5   0  0.1986613E-07  0.3397061E+04  0.7818609E-02  0.8138628E-01
        2   -1    0    0  501    0  0.00000000000E+00  0.00000000000E+00  0.13931167419E+04  0.13931167419E+04  0.25500000920E-02 0. -1.
       -2   -1    0    0    0  501  0.00000000000E+00  0.00000000000E+00 -0.20709002032E+04  0.20709002032E+04  0.25500000920E-02 0.  1.
    10030    2    1    2    0    0  0.00000000000E+00  0.00000000000E+00 -0.67778346128E+03  0.34640169451E+04  0.33970609319E+04 0.  0.
        5    1    3    3  502    0 -0.14941277458E+04 -0.63917955449E+03 -0.84260723181E+03  0.18305674696E+04  0.46999998093E+01 0.  1.
       -5    1    3    3    0  502  0.14941277458E+04  0.63917955449E+03  0.16482377053E+03  0.16334494755E+04  0.46999998093E+01 0. -1.
</event>
<event>
 5   0  0.6341535E-08  0.3398201E+04  0.7818609E-02  0.8138348E-01
       -1   -1    0    0    0  501  0.00000000000E+00  0.00000000000E+00  0.16447080949E+04  0.16447080950E+04  0.50400001928E-02 0.  1.
        1   -1    0    0  501    0  0.00000000000E+00  0.00000000000E+00 -0.17552918463E+04  0.17552918463E+04  0.50400001928E-02 0. -1.
    10030    2    1    2    0    0  0.00000000000E+00  0.00000000000E+00 -0.11058375138E+03  0.33999999413E+04  0.33982011175E+04 0.  0.
        5    1    3    3  502    0 -0.10849204636E+03 -0.16944163197E+04 -0.11938380603E+03  0.17020845372E+04  0.46999998093E+01 0. -1.
       -5    1    3    3    0  502  0.10849204636E+03  0.16944163197E+04  0.88000546497E+01  0.16979154041E+04  0.46999998093E+01 0.  1.
</event>
<event>
 5   0  0.1928004E-07  0.3401311E+04  0.7818609E-02  0.8137585E-01
        2   -1    0    0  501    0  0.00000000000E+00  0.00000000000E+00  0.24562537973E+04  0.24562537973E+04  0.25500000920E-02 0.  1.
       -2   -1    0    0    0  501  0.00000000000E+00  0.00000000000E+00 -0.11774962042E+04  0.11774962042E+04  0.25500000920E-02 0. -1.
    10030    2    1    2    0    0  0.00000000000E+00  0.00000000000E+00  0.12787575931E+04  0.36337500016E+04  0.34013112313E+04 0.  0.
        2    1    3    3  502    0 -0.44074544568E+03  0.19923609133E+03  0.23812212315E+04  0.24298489915E+04  0.25500000920E-02 0.  1.
       -2    1    3    3    0  502  0.44074544568E+03 -0.19923609133E+03 -0.11024636384E+04  0.12039010101E+04  0.25500000920E-02 0. -1.
</event>
<event>
 5   0  0.1963852E-07  0.3395566E+04  0.7818609E-02  0.8138996E-01
       -2   -1    0    0    0  501  0.00000000000E+00  0.00000000000E+00  0.13262912449E+04  0.13262912449E+04  0.25500000920E-02 0.  1.
        2   -1    0    0  501    0  0.00000000000E+00  0.00000000000E+00 -0.21733284035E+04  0.21733284035E+04  0.25500000920E-02 0. -1.
    10030    2    1    2    0    0  0.00000000000E+00  0.00000000000E+00 -0.84703715856E+03  0.34996196484E+04  0.33955655988E+04 0.  0.
        4    1    3    3  502    0  0.32916777101E+03 -0.16464517878E+04 -0.16419347032E+03  0.16870435737E+04  0.12699999809E+01 0.  1.
       -4    1    3    3    0  502 -0.32916777101E+03  0.16464517878E+04 -0.68284368824E+03  0.18125760747E+04  0.12699999809E+01 0. -1.
</event>
<event>
 5   0  0.6311750E-08  0.3396370E+04  0.7818609E-02  0.8138798E-01
        1   -1    0    0  501    0  0.00000000000E+00  0.00000000000E+00  0.16590671056E+04  0.16590671056E+04  0.50400001928E-02 0.  1.
       -1   -1    0    0    0  501  0.00000000000E+00  0.00000000000E+00 -0.17382252992E+04  0.17382252992E+04  0.50400001928E-02 0. -1.
    10030    2    1    2    0    0  0.00000000000E+00  0.00000000000E+00 -0.79158193567E+02  0.33972924048E+04  0.33963700717E+04 0.  0.
        4    1    3    3  502    0 -0.51455618438E+03 -0.13176288629E+04  0.90031266220E+03  0.16767463701E+04  0.12699999809E+01 0.  1.
       -4    1    3    3    0  502  0.51455618438E+03  0.13176288629E+04 -0.97947085576E+03  0.17205460346E+04  0.12699999809E+01 0. -1.
</event>
<event>
 5   0  0.1986613E-07  0.3402199E+04  0.7818609E-02  0.8137367E-01
       -2   -1    0    0    0  501  0.00000000000E+00  0.00000000000E+00  0.15414008187E+04  0.15414008187E+04  0.25500000920E-02 0.  1.
        2   -1    0    0  501    0  0.00000000000E+00  0.00000000000E+00 -0.18773441522E+04  0.18773441522E+04  0.25500000920E-02 0. -1.
    10030    2    1    2    0    0  0.00000000000E+00  0.00000000000E+00 -0.33594333353E+03  0.34187449710E+04  0.34021991789E+04 0.  0.
        5    1    3    3  502    0  0.15438944260E+04  0.36802577650E+03 -0.78304710988E+03  0.17698129385E+04  0.46999998093E+01 0. -1.
       -5    1    3    3    0  502 -0.15438944260E+04 -0.36802577650E+03  0.44710377635E+03  0.16489320325E+04  0.46999998093E+01 0.  1.
</event>
<event>
 5   0  0.1897313E-07  0.3400680E+04  0.7818609E-02  0.8137740E-01
       -2   -1    0    0    0  501  0.00000000000E+00  0.00000000000E+00  0.13662053724E+04  0.13662053724E+04  0.25500000920E-02 0. -1.
        2   -1    0    0  501    0  0.00000000000E+00  0.00000000000E+00 -0.21161938343E+04  0.21161938343E+04  0.25500000920E-02 0.  1.
    10030    2    1    2    0    0  0.00000000000E+00  0.00000000000E+00 -0.74998846185E+03  0.34823992067E+04  0.34006795706E+04 0.  0.
        3    1    3    3  502    0  0.10414916385E+04  0.52242439058E+03  0.89311899484E+03  0.14680918316E+04  0.10100000352E+00 0. -1.
       -3    1    3    3    0  502 -0.10414916385E+04 -0.52242439058E+03 -0.16431074567E+04  0.20143073751E+04  0.10100000352E+00 0.  1.
</event>
<event>
 5   0  0.1963852E-07  0.3403018E+04  0.7818609E-02  0.8137166E-01
       -2   -1    0    0    0  501  0.00000000000E+00  0.00000000000E+00  0.17842906052E+04  0.17842906052E+04  0.25500000920E-02 0. -1.
        2   -1    0    0  501    0  0.00000000000E+00  0.00000000000E+00 -0.16225681598E+04  0.16225681598E+04  0.25500000920E-02 0.  1.
    10030    2    1    2    0    0  0.00000000000E+00  0.00000000000E+00  0.16172244544E+03  0.34068587650E+04  0.34030181450E+04 0.  0.
        4    1    3    3  502    0  0.11408582285E+03 -0.90131087039E+01 -0.16187103865E+04  0.16227512870E+04  0.12699999809E+01 0.  1.
       -4    1    3    3    0  502 -0.11408582285E+03  0.90131087039E+01  0.17804328319E+04  0.17841074780E+04  0.12699999809E+01 0. -1.
</event>
<event>
 5   0  0.6788600E-08  0.3405567E+04  0.7818609E-02  0.8136541E-01
        1   -1    0    0  501    0  0.00000000000E+00  0.00000000000E+00  0.18425345046E+04  0.18425345046E+04  0.50400001928E-02 0.  1.
       -1   -1    0    0    0  501  0.00000000000E+00  0.00000000000E+00 -0.15736319760E+04  0.15736319760E+04  0.50400001928E-02 0. -1.
    10030    2    1    2    0    0  0.00000000000E+00  0.00000000000E+00  0.26890252857E+03  0.34161664806E+04  0.34055667448E+04 0.  0.
        2    1    3    3  502    0  0.53202140770E+03 -0.92715290042E+03 -0.11951219808E+04  0.16034262777E+04  0.25500000920E-02 0. -1.
       -2    1    3    3    0  502 -0.53202140770E+03  0.92715290042E+03  0.14640245094E+04  0.18127402029E+04  0.25500000920E-02 0.  1.
</event>
<event>
 5   0  0.1897313E-07  0.3397356E+04  0.7818609E-02  0.8138555E-01
       -2   -1    0    0    0  501  0.00000000000E+00  0.00000000000E+00  0.13389492769E+04  0.13389492769E+04  0.25500000920E-02 0. -1.
        2   -1    0    0  501    0  0.00000000000E+00  0.00000000000E+00 -0.21550535341E+04  0.21550535341E+04  0.25500000920E-02 0.  1.
    10030    2    1    2    0    0  0.00000000000E+00  0.00000000000E+00 -0.81610425715E+03  0.34940028110E+04  0.33973562493E+04 0.  0.
        3    1    3    3  502    0 -0.43909273232E+03  0.13616248461E+04 -0.13499005316E+04  0.19669916381E+04  0.10100000352E+00 0. -1.
       -3    1    3    3    0  502  0.43909273232E+03 -0.13616248461E+04  0.53379627443E+03  0.15270111728E+04  0.10100000352E+00 0.  1.
</event>
<event>
 5   0  0.6341535E-08  0.3393727E+04  0.7818609E-02  0.8139448E-01
       -1   -1    0    0    0  501  0.00000000000E+00  0.00000000000E+00  0.18678829844E+04  0.18678829844E+04  0.50400001928E-02 0. -1.
        1   -1    0    0  501    0  0.00000000000E+00  0.00000000000E+00 -0.15415019974E+04  0.15415019974E+04  0.50400001928E-02 0.  1.
    10030    2    1    2    0    0  0.00000000000E+00  0.00000000000E+00  0.32638098697E+03  0.34093849818E+04  0.33937267724E+04 0.  0.
        5    1    3    3  502    0 -0.11418169300E+04  0.54133651263E+03  0.13009050059E+04  0.18136060889E+04  0.46999998093E+01 0. -1.
       -5    1    3    3    0  502  0.11418169300E+04 -0.54133651263E+03 -0.97452401890E+03  0.15957788929E+04  0.46999998093E+01 0.  1.
</event>
<event>
 5   0  0.1963852E-07  0.3403396E+04  0.7818609E-02  0.8137073E-01
        2   -1    0    0  501    0  0.00000000000E+00  0.00000000000E+00  0.26070330026E+04  0.26070330026E+04  0.25500000920E-02 0.  1.
       -2   -1    0    0    0  501  0.00000000000E+00  0.00000000000E+00 -0.11107556102E+04  0.11107556102E+04  0.25500000920E-02 0. -1.
    10030    2    1    2    0    0  0.00000000000E+00  0.00000000000E+00  0.14962773924E+04  0.37177886128E+04  0.34033962647E+04 0.  0.
        4    1    3    3  502    0  0.14660033872E+04  0.54828855446E+03  0.14776534482E+04  0.21524979898E+04  0.12699999809E+01 0.  1.
       -4    1    3    3    0  502 -0.14660033872E+04 -0.54828855446E+03  0.18623944176E+02  0.15652906230E+04  0.12699999809E+01 0. -1.
</event>
<event>
 5   0  0.6584420E-08  0.3403110E+04  0.7818609E-02  0.8137144E-01
       -1   -1    0    0    0  501  0.00000000000E+00  0.00000000000E+00  0.13008426153E+04  0.13008426153E+04  0.50400001928E-02 0.  1.
        1   -1    0    0  501    0  0.00000000000E+00  0.00000000000E+00 -0.22257026974E+04  0.22257026974E+04  0.50400001928E-02 0. -1.
    10030    2    1    2    0    0  0.00000000000E+00  0.00000000000E+00 -0.92486008208E+03  0.35265453127E+04  0.34031097060E+04 0.  0.
        1    1    3    3  502    0  0.13492099518E+04  0.91429400766E+03 -0.96902570412E+03  0.18961307554E+04  0.50400001928E-02 0. -1.
       -1    1    3    3    0  502 -0.13492099518E+04 -0.91429400766E+03  0.44165622043E+02  0.16304145573E+04  0.50400001928E-02 0.  1.
</event>
<event>
 5   0  0.1986613E-07  0.3404668E+04  0.7818609E-02  0.8136762E-01
        2   -1    0    0  501    0  0.00000000000E+00  0.00000000000E+00  0.14907458950E+04  0.14907458950E+04  0.25500000920E-02 0. -1.
       -2   -1    0    0    0  501  0.00000000000E+00  0.00000000000E+00 -0.19439532484E+04  0.19439532484E+04  0.25500000920E-02 0.  1.
    10030    2    1    2    0    0  0.00000000000E+00  0.00000000000E+00 -0.45320735341E+03  0.34346991435E+04  0.34046675757E+04 0.  0.
        5    1    3    3  502    0 -0.93305240372E+03 -0.11009913407E+04 -0.11374238149E+04  0.18375319711E+04  0.46999998093E+01 0.  1.
       -5    1    3    3    0  502  0.93305240372E+03  0.11009913407E+04  0.68421646148E+03  0.15971671724E+04  0.46999998093E+01 0. -1.
</event>
<event>
 5   0  0.6341535E-08  0.3398623E+04  0.7818609E-02  0.8138244E-01
       -1   -1    0    0    0  501  0.00000000000E+00  0.00000000000E+00  0.22831936115E+04  0.22831936115E+04  0.50400001928E-02 0.  1.
        1   -1    0    0  501    0  0.00000000000E+00  0.00000000000E+00 -0.12647459325E+04  0.12647459325E+04  0.50400001928E-02 0. -1.
    10030    2    1    2    0    0  0.00000000000E+00  0.00000000000E+00  0.10184476790E+04  0.35479395441E+04  0.33986231526E+04 0.  0.
        5    1    3    3  502    0  0.14311484932E+04  0.41242104084E+03  0.13633131335E+04  0.20191389043E+04  0.46999998093E+01 0.  1.
       -5    1    3    3    0  502 -0.14311484932E+04 -0.41242104084E+03 -0.34486545453E+03  0.15288006398E+04  0.46999998093E+01 0. -1.
</event>
<event>
 5   0  0.6341535E-08  0.3400518E+04  0.7818609E-02  0.8137779E-01
       -1   -1    0    0    0  501  0.00000000000E+00  0.00000000000E+00  0.12103334273E+04  0.12103334273E+04  0.50400001928E-02 0.  1.
        1   -1    0    0  501    0  0.00000000000E+00  0.00000000000E+00 -0.23884993379E+04  0.23884993379E+04  0.50400001928E-02 0. -1.
    10030    2    1    2    0    0  0.00000000000E+00  0.00000000000E+00 -0.11781659106E+04  0.35988327651E+04  0.34005179545E+04 0.  0.
        5    1    3    3  502    0 -0.11951643625E+04  0.11991267565E+04 -0.75485661967E+03  0.18536864454E+04  0.46999998093E+01 0.  1.
       -5    1    3    3    0  502  0.11951643625E+04 -0.11991267565E+04 -0.42330929090E+03  0.17451463198E+04  0.46999998093E+01 0. -1.
</event>
<event>
 5   0  0.1986613E-07  0.3398796E+04  0.7818609E-02  0.8138202E-01
       -2   -1    0    0    0  501  0.00000000000E+00  0.00000000000E+00  0.13089054905E+04  0.13089054905E+04  0.25500000920E-02 0.  1.
        2   -1    0    0  501    0  0.00000000000E+00  0.00000000000E+00 -0.22063885082E+04  0.22063885082E+04  0.25500000920E-02 0. -1.
    10030    2    1    2    0    0  0.00000000000E+00  0.00000000000E+00 -0.89748301767E+03  0.35152939987E+04  0.33987962766E+04 0.  0.
        5    1    3    3  502    0  0.85811573761E+03  0.12972744379E+04 -0.11567852170E+04  0.19384162903E+04  0.46999998093E+01 0. -1.
       -5    1    3    3    0  502 -0.85811573761E+03 -0.12972744379E+04  0.25930219932E+03  0.15768777083E+04  0.46999998093E+01 0.  1.
</event>
<event>
 5   0  0.6311750E-08  0.3405923E+04  0.7818609E-02  0.8136454E-01
        1   -1    0    0  501    0  0.00000000000E+00  0.00000000000E+00  0.21574368135E+04  0.21574368135E+04  0.50400001928E-02 0.  1.
       -1   -1    0    0    0  501  0.00000000000E+00  0.00000000000E+00 -0.13442239934E+04  0.13442239935E+04  0.50400001928E-02 0. -1.
    10030    2    1    2    0    0  0.00000000000E+00  0.00000000000E+00  0.81321282008E+03  0.35016608070E+04  0.34059232693E+04 0.  0.
        4    1    3    3  502    0 -0.13486587725E+04  0.10346765215E+04  0.51265987756E+03  0.17754598705E+04  0.12699999809E+01 0.  1.
       -4    1    3    3    0  502  0.13486587725E+04 -0.10346765215E+04  0.30055294252E+03  0.17262009365E+04  0.12699999809E+01 0. -1.
</event>
<event>
 5   0  0.6311750E-08  0.3395460E+04  0.7818609E-02  0.8139022E-01
       -1   -1    0    0    0  501  0.00000000000E+00  0.00000000000E+00  0.19905890934E+04  0.19905890935E+04  0.50400001928E-02 0. -1.
        1   -1    0    0  501    0  0.00000000000E+00  0.00000000000E+00 -0.14479566266E+04  0.14479566266E+04  0.50400001928E-02 0.  1.
    10030    2    1    2    0    0  0.00000000000E+00  0.00000000000E+00  0.54263246685E+03  0.34385457201E+04  0.33954597148E+04 0.  0.
        4    1    3    3  502    0  0.27131928099E+03  0.15311637221E+04 -0.41865787380E+03  0.16103889357E+04  0.12699999809E+01 0.  1.
       -4    1    3    3    0  502 -0.27131928099E+03 -0.15311637221E+04  0.96129034065E+03  0.18281567843E+04  0.12699999809E+01 0. -1.
</event>
<event>
 5   0  0.6341535E-08  0.3397243E+04  0.7818609E-02  0.8138583E-01
        1   -1    0    0  501    0  0.00000000000E+00  0.00000000000E+00  0.12818241059E+04  0.12818241059E+04  0.50400001928E-02 0.  1.
       -1   -1    0    0    0  501  0.00000000000E+00  0.00000000000E+00 -0.22509447096E+04  0.22509447096E+04  0.50400001928E-02 0. -1.
    10030    2    1    2    0    0  0.00000000000E+00  0.00000000000E+00 -0.96912060372E+03  0.35327688155E+04  0.33972431116E+04 0.  0.
        5    1    3    3  502    0 -0.98932579018E+03  0.58752117969E+03  0.81482584007E+03  0.14099325854E+04  0.46999998093E+01 0. -1.
       -5    1    3    3    0  502  0.98932579018E+03 -0.58752117969E+03 -0.17839464438E+04  0.21228362301E+04  0.46999998093E+01 0.  1.
</event>
<event>
 5   0  0.6311750E-08  0.3402473E+04  0.7818609E-02  0.8137300E-01
        1   -1    0    0  501    0  0.00000000000E+00  0.00000000000E+00  0.91163159602E+03  0.91163159603E+03  0.50400001928E-02 0.  1.
       -1   -1    0    0    0  501  0.00000000000E+00  0.00000000000E+00 -0.31747534314E+04  0.31747534314E+04  0.50400001928E-02 0. -1.
    10030    2    1    2    0    0  0.00000000000E+00  0.00000000000E+00 -0.22631218354E+04  0.40863850275E+04  0.34024729464E+04 0.  0.
        4    1    3    3  502    0  0.51114252628E+02 -0.16248579720E+04 -0.52934632358E+03  0.17096740155E+04  0.12699999809E+01 0.  1.
       -4    1    3    3    0  502 -0.51114252628E+02  0.16248579720E+04 -0.17337755118E+04  0.23767110120E+04  0.12699999809E+01 0. -1.
</event>
<event>
 5   0  0.6311750E-08  0.3397560E+04  0.7818609E-02  0.8138505E-01
        1   -1    0    0  501    0  0.00000000000E+00  0.00000000000E+00  0.24907828816E+04  0.24907828816E+04  0.50400001928E-02 0. -1.
       -1   -1    0    0    0  501  0.00000000000E+00  0.00000000000E+00 -0.11586128669E+04  0.11586128669E+04  0.50400001928E-02 0.  1.
    10030    2    1    2    0    0  0.00000000000E+00  0.00000000000E+00  0.13321700147E+04  0.36493957485E+04  0.33975597686E+04 0.  0.
        4    1    3    3  502    0  0.70498507969E+03 -0.24904774579E+03 -0.97237372035E+03  0.12265973289E+04  0.12699999809E+01 0.  1.
       -4    1    3    3    0  502 -0.70498507969E+03  0.24904774579E+03  0.23045437351E+04  0.24227984196E+04  0.12699999809E+01 0. -1.
</event>
<event>
 5   0  0.6311750E-08  0.3387306E+04  0.7818609E-02  0.8141029E-01
        1   -1    0    0  501    0  0.00000000000E+00  0.00000000000E+00  0.12291994742E+04  0.12291994742E+04  0.50400001928E-02 0.  1.
       -1   -1    0    0    0  501  0.00000000000E+00  0.00000000000E+00 -0.23336008172E+04  0.23336008172E+04  0.50400001928E-02 0. -1.
    10030    2    1    2    0    0  0.00000000000E+00  0.00000000000E+00 -0.11044013430E+04  0.35628002914E+04  0.33873062439E+04 0.  0.
        4    1    3    3  502    0 -0.23625357567E+02  0.70416815970E+03  0.10677387837E+04  0.12792492634E+04  0.12699999809E+01 0.  1.
       -4    1    3    3    0  502  0.23625357567E+02 -0.70416815970E+03 -0.21721401267E+04  0.22835510280E+04  0.12699999809E+01 0. -1.
</event>
<event>
 5   0  0.6584420E-08  0.3401965E+04  0.7818609E-02  0.8137424E-01
       -1   -1    0    0    0  501  0.00000000000E+00  0.00000000000E+00  0.11078314922E+04  0.11078314922E+04  0.50400001928E-02 0. -1.
        1   -1    0    0  501    0  0.00000000000E+00  0.00000000000E+00 -0.26117168898E+04  0.26117168898E+04  0.50400001928E-02 0.  1.
    10030    2    1    2    0    0  0.00000000000E+00  0.00000000000E+00 -0.15038853977E+04  0.37195483820E+04  0.34019654432E+04 0.  0.
        1    1    3    3  502    0  0.89204927603E+03  0.91396233393E+03 -0.19803298584E+04  0.23564348934E+04  0.50400001928E-02 0.  1.
       -1    1    3    3    0  502 -0.89204927603E+03 -0.91396233393E+03  0.47644446072E+03  0.13631134886E+04  0.50400001928E-02 0. -1.
</event>
<event>
 5   0  0.1928004E-07  0.3425365E+04  0.7818609E-02  0.8131709E-01
       -2   -1    0    0    0  501  0.00000000000E+00  0.00000000000E+00  0.10400252893E+04  0.10400252893E+04  0.25500000920E-02 0.  1.
        2   -1    0    0  501    0  0.00000000000E+00  0.00000000000E+00 -0.28203938141E+04  0.28203938141E+04  0.25500000920E-02 0. -1.
    10030    2    1    2    0    0  0.00000000000E+00  0.00000000000E+00 -0.17803685248E+04  0.38604191034E+04  0.34253647353E+04 0.  0.
        2    1    3    3  502    0 -0.14029355980E+04 -0.40354277037E+03 -0.18996010925E+04  0.23957377507E+04  0.25500000920E-02 0. -1.
       -2    1    3    3    0  502  0.14029355980E+04  0.40354277037E+03  0.11923256765E+03  0.14646813527E+04  0.25500000920E-02 0.  1.
</event>
<event>
 5   0  0.6584420E-08  0.3408595E+04  0.7818609E-02  0.8135800E-01
       -1   -1    0    0    0  501  0.00000000000E+00  0.00000000000E+00  0.27947429431E+04  0.27947429432E+04  0.50400001928E-02 0.  1.
        1   -1    0    0  501    0  0.00000000000E+00  0.00000000000E+00 -0.10393192130E+04  0.10393192130E+04  0.50400001928E-02 0. -1.
    10030    2    1    2    0    0  0.00000000000E+00  0.00000000000E+00  0.17554237301E+04  0.38340621562E+04  0.34085950398E+04 0.  0.
        1    1    3    3  502    0 -0.16733343996E+04  0.20927393243E+03  0.11550356460E+04  0.20440036534E+04  0.50400001928E-02 0. -1.
       -1    1    3    3    0  502  0.16733343996E+04 -0.20927393243E+03  0.60038808412E+03  0.17900585027E+04  0.50400001928E-02 0.  1.
</event>
<event>
 5   0  0.6584420E-08  0.3412496E+04  0.7818609E-02  0.8134846E-01
        1   -1    0    0  501    0  0.00000000000E+00  0.00000000000E+00  0.18608777990E+04  0.18608777990E+04  0.50400001928E-02 0. -1.
       -1   -1    0    0    0  501  0.00000000000E+00  0.00000000000E+00 -0.15644674575E+04  0.15644674575E+04  0.50400001928E-02 0.  1.
    10030    2    1    2    0    0  0.00000000000E+00  0.00000000000E+00  0.29641034145E+03  0.34253452565E+04  0.34124963056E+04 0.  0.
        1    1    3    3  502    0  0.15958800284E+03 -0.16945432248E+04  0.26839610663E+03  0.17230732838E+04  0.50400001928E-02 0.  1.
       -1    1    3    3    0  502 -0.15958800284E+03  0.16945432248E+04  0.28014234827E+02  0.17022719726E+04  0.50400001928E-02 0. -1.
</event>
<event>
 5   0  0.1986613E-07  0.3390232E+04  0.7818609E-02  0.8140308E-01
       -2   -1    0    0    0  501  0.00000000000E+00  0.00000000000E+00  0.14408356181E+04  0.14408356181E+04  0.25500000920E-02 0. -1.
        2   -1    0    0  501    0  0.00000000000E+00  0.00000000000E+00 -0.19942721790E+04  0.19942721790E+04  0.25500000920E-02 0.  1.
    10030    2    1    2    0    0  0.00000000000E+00  0.00000000000E+00 -0.55343656087E+03  0.34351077971E+04  0.33902320792E+04 0.  0.
        5    1    3    3  502    0 -0.38391418636E+03 -0.15467742209E+04  0.30841670262E+03  0.16232817209E+04  0.46999998093E+01 0. -1.
       -5    1    3    3    0  502  0.38391418636E+03  0.15467742209E+04 -0.86185326349E+03  0.18118260763E+04  0.46999998093E+01 0.  1.
</event>
<event>
 5   0  0.1986613E-07  0.3411854E+04  0.7818609E-02  0.8135003E-01
        2   -1    0    0  501    0  0.00000000000E+00  0.00000000000E+00  0.27390536300E+04  0.27390536300E+04  0.25500000920E-02 0. -1.
       -2   -1    0    0    0  501  0.00000000000E+00  0.00000000000E+00 -0.10624789073E+04  0.10624789073E+04  0.25500000920E-02 0.  1.
    10030    2    1    2    0    0  0.00000000000E+00  0.00000000000E+00  0.16765747227E+04  0.38015325373E+04  0.34118538701E+04 0.  0.
        5    1    3    3  502    0 -0.15264809675E+04  0.54767118764E+03  0.24862037419E+03  0.16407077907E+04  0.46999998093E+01 0.  1.
       -5    1    3    3    0  502  0.15264809675E+04 -0.54767118764E+03  0.14279543485E+04  0.21608247466E+04  0.46999998093E+01 0. -1.
</event>
<event>
 5   0  0.6367111E-08  0.3386599E+04  0.7818609E-02  0.8141203E-01
        1   -1    0    0  501    0  0.00000000000E+00  0.00000000000E+00  0.13541831841E+04  0.13541831841E+04  0.50400001928E-02 0.  1.
       -1   -1    0    0    0  501  0.00000000000E+00  0.00000000000E+00 -0.21173375277E+04  0.21173375277E+04  0.50400001928E-02 0. -1.
    10030    2    1    2    0    0  0.00000000000E+00  0.00000000000E+00 -0.76315434363E+03  0.34715207119E+04  0.33865988101E+04 0.  0.
        3    1    3    3  502    0 -0.11401046219E+04 -0.17527638895E+03 -0.16523002244E+04  0.20151070451E+04  0.10100000352E+00 0. -1.
       -3    1    3    3    0  502  0.11401046219E+04  0.17527638895E+03  0.88914588074E+03  0.14564136668E+04  0.10100000352E+00 0.  1.
</event>
<event>
 5   0  0.6311750E-08  0.3420804E+04  0.7818609E-02  0.8132819E-01
        1   -1    0    0  501    0  0.00000000000E+00  0.00000000000E+00  0.22338611921E+04  0.22338611921E+04  0.50400001928E-02 0.  1.
       -1   -1    0    0    0  501  0.00000000000E+00  0.00000000000E+00 -0.13096043022E+04  0.13096043022E+04  0.50400001928E-02 0. -1.
    10030    2    1    2    0    0  0.00000000000E+00  0.00000000000E+00  0.92425688992E+03  0.35434654943E+04  0.34208035475E+04 0.  0.
        4    1    3    3  502    0  0.86237871334E+03 -0.81267419427E+03  0.17397807334E+04  0.21049881245E+04  0.12699999809E+01 0.  1.
       -4    1    3    3    0  502 -0.86237871334E+03  0.81267419427E+03 -0.81552384346E+03  0.14384773698E+04  0.12699999809E+01 0. -1.
</event>
<event>
 5   0  0.6311750E-08  0.3399823E+04  0.7818609E-02  0.8137950E-01
        1   -1    0    0  501    0  0.00000000000E+00  0.00000000000E+00  0.25238939121E+04  0.25238939121E+04  0.50400001928E-02 0.  1.
       -1   -1    0    0    0  501  0.00000000000E+00  0.00000000000E+00 -0.11449368942E+04  0.11449368942E+04  0.50400001928E-02 0. -1.
    10030    2    1    2    0    0  0.00000000000E+00  0.00000000000E+00  0.13789570179E+04  0.36688308064E+04  0.33998230878E+04 0.  0.
        4    1    3    3  502    0  0.14357836595E+04  0.86032867361E+03  0.36925401881E+03  0.17140566755E+04  0.12699999809E+01 0.  1.
       -4    1    3    3    0  502 -0.14357836595E+04 -0.86032867361E+03  0.10097029991E+04  0.19547741309E+04  0.12699999809E+01 0. -1.
</event>
<event>
 5   0  0.1963852E-07  0.3396294E+04  0.7818609E-02  0.8138817E-01
        2   -1    0    0  501    0  0.00000000000E+00  0.00000000000E+00  0.11299110447E+04  0.11299110447E+04  0.25500000920E-02 0. -1.
       -2   -1    0    0    0  501  0.00000000000E+00  0.00000000000E+00 -0.25521503090E+04  0.25521503090E+04  0.25500000920E-02 0.  1.
    10030    2    1    2    0    0  0.00000000000E+00  0.00000000000E+00 -0.14222392643E+04  0.36820613537E+04  0.33962937576E+04 0.  0.
        4    1    3    3  502    0  0.50936691680E+03  0.15933494314E+04 -0.39414204621E+03  0.17185943768E+04  0.12699999809E+01 0.  1.
       -4    1    3    3    0  502 -0.50936691680E+03 -0.15933494314E+04 -0.10280972181E+04  0.19634669769E+04  0.12699999809E+01 0. -1.
</event>
<event>
 5   0  0.6311750E-08  0.3408315E+04  0.7818609E-02  0.8135869E-01
       -3   -1    0    0    0  501  0.00000000000E+00  0.00000000000E+00  0.16268033725E+04  0.16268033757E+04  0.10100000352E+00 0.  1.
        3   -1    0    0  501    0  0.00000000000E+00  0.00000000000E+00 -0.17851894520E+04  0.17851894549E+04  0.10100000352E+00 0. -1.
    10030    2    1    2    0    0  0.00000000000E+00  0.00000000000E+00 -0.15838607948E+03  0.34119928305E+04  0.34083146752E+04 0.  0.
        3    1    3    3  502    0 -0.43455936417E+03 -0.12563331684E+04 -0.11466163740E+04  0.17555466358E+04  0.10100000352E+00 0. -1.
       -3    1    3    3    0  502  0.43455936417E+03  0.12563331684E+04  0.98823029449E+03  0.16564461948E+04  0.10100000352E+00 0.  1.
</event>
<event>
 5   0  0.6367111E-08  0.3401413E+04  0.7818609E-02  0.8137560E-01
        1   -1    0    0  501    0  0.00000000000E+00  0.00000000000E+00  0.14551934933E+04  0.14551934933E+04  0.50400001928E-02 0. -1.
       -1   -1    0    0    0  501  0.00000000000E+00  0.00000000000E+00 -0.19876412390E+04  0.19876412390E+04  0.50400001928E-02 0.  1.
    10030    2    1    2    0    0  0.00000000000E+00  0.00000000000E+00 -0.53244774571E+03  0.34428347323E+04  0.34014129993E+04 0.  0.
        3    1    3    3  502    0 -0.92028413481E+03 -0.24035256983E+03  0.11608069611E+04  0.15007215124E+04  0.10100000352E+00 0. -1.
       -3    1    3    3    0  502  0.92028413481E+03  0.24035256983E+03 -0.16932547068E+04  0.19421132199E+04  0.10100000352E+00 0.  1.
</event>
<event>
 5   0  0.1928004E-07  0.3425489E+04  0.7818609E-02  0.8131679E-01
        2   -1    0    0  501    0  0.00000000000E+00  0.00000000000E+00  0.22116103983E+04  0.22116103983E+04  0.25500000920E-02 0. -1.
       -2   -1    0    0    0  501  0.00000000000E+00  0.00000000000E+00 -0.13264065450E+04  0.13264065451E+04  0.25500000920E-02 0.  1.
    10030    2    1    2    0    0  0.00000000000E+00  0.00000000000E+00  0.88520385326E+03  0.35380169434E+04  0.34254894584E+04 0.  0.
        2    1    3    3  502    0 -0.16148076310E+04 -0.55167330558E+03  0.29098958004E+03  0.17310754048E+04  0.25500000920E-02 0. -1.
       -2    1    3    3    0  502  0.16148076310E+04  0.55167330558E+03  0.59421427322E+03  0.18069415386E+04  0.25500000920E-02 0.  1.
</event>
<event>
 5   0  0.1986613E-07  0.3398181E+04  0.7818609E-02  0.8138353E-01
        2   -1    0    0  501    0  0.00000000000E+00  0.00000000000E+00  0.20355123272E+04  0.20355123272E+04  0.25500000920E-02 0. -1.
       -2   -1    0    0    0  501  0.00000000000E+00  0.00000000000E+00 -0.14182711366E+04  0.14182711366E+04  0.25500000920E-02 0.  1.
    10030    2    1    2    0    0  0.00000000000E+00  0.00000000000E+00  0.61724119064E+03  0.34537834637E+04  0.33981809144E+04 0.  0.
        5    1    3    3  502    0  0.11751753731E+04  0.76271976582E+02  0.15534184491E+04  0.19493551600E+04  0.46999998093E+01 0. -1.
       -5    1    3    3    0  502 -0.11751753731E+04 -0.76271976582E+02 -0.93617725844E+03  0.15044283037E+04  0.46999998093E+01 0.  1.
</event>
<event>
 5   0  0.1897313E-07  0.3390934E+04  0.7818609E-02  0.8140135E-01
       -2   -1    0    0    0  501  0.00000000000E+00  0.00000000000E+00  0.17191542758E+04  0.17191542758E+04  0.25500000920E-02 0. -1.
        2   -1    0    0  501    0  0.00000000000E+00  0.00000000000E+00 -0.16721058927E+04  0.16721058927E+04  0.25500000920E-02 0.  1.
    10030    2    1    2    0    0  0.00000000000E+00  0.00000000000E+00  0.47048383094E+02  0.33912601685E+04  0.33909337918E+04 0.  0.
        3    1    3    3  502    0 -0.16671795249E+04 -0.20541574699E+03 -0.20655183086E+03  0.16924381425E+04  0.10100000352E+00 0.  1.
       -3    1    3    3    0  502  0.16671795249E+04  0.20541574699E+03  0.25360021395E+03  0.16988220260E+04  0.10100000352E+00 0. -1.
</event>
<event>
 5   0  0.6788600E-08  0.3392220E+04  0.7818609E-02  0.8139818E-01
       -1   -1    0    0    0  501  0.00000000000E+00  0.00000000000E+00  0.20733887261E+04  0.20733887261E+04  0.50400001928E-02 0.  1.
        1   -1    0    0  501    0  0.00000000000E+00  0.00000000000E+00 -0.13874819823E+04  0.13874819823E+04  0.50400001928E-02 0. -1.
    10030    2    1    2    0    0  0.00000000000E+00  0.00000000000E+00  0.68590674379E+03  0.34608707083E+04  0.33922202167E+04 0.  0.
        2    1    3    3  502    0 -0.10273662219E+04  0.11690364156E+04 -0.34497887627E+03  0.15940947023E+04  0.25500000920E-02 0.  1.
       -2    1    3    3    0  502  0.10273662219E+04 -0.11690364156E+04  0.10308856201E+04  0.18667760060E+04  0.25500000920E-02 0. -1.
</event>
<event>
 5   0  0.1897313E-07  0.3403052E+04  0.7818609E-02  0.8137158E-01
       -2   -1    0    0    0  501  0.00000000000E+00  0.00000000000E+00  0.11720584244E+04  0.11720584244E+04  0.25500000920E-02 0. -1.
        2   -1    0    0  501    0  0.00000000000E+00  0.00000000000E+00 -0.24701763626E+04  0.24701763626E+04  0.25500000920E-02 0.  1.
    10030    2    1    2    0    0  0.00000000000E+00  0.00000000000E+00 -0.12981179381E+04  0.36422347870E+04  0.34030521686E+04 0.  0.
        3    1    3    3  502    0  0.14921429444E+04  0.71072096410E+03 -0.21618714067E+03  0.16668388480E+04  0.10100000352E+00 0.  1.
       -3    1    3    3    0  502 -0.14921429444E+04 -0.71072096410E+03 -0.10819307975E+04  0.19753959390E+04  0.10100000352E+00 0. -1.
</event>
<event>
 5   0  0.6341535E-08  0.3399963E+04  0.7818609E-02  0.8137915E-01
        1   -1    0    0  501    0  0.00000000000E+00  0.00000000000E+00  0.16249267839E+04  0.16249267839E+04  0.50400001928E-02 0.  1.
       -1   -1    0    0    0  501  0.00000000000E+00  0.00000000000E+00 -0.17785033034E+04  0.17785033034E+04  0.50400001928E-02 0. -1.
    10030    2    1    2    0    0  0.00000000000E+00  0.00000000000E+00 -0.15357651953E+03  0.34034300873E+04  0.33999633251E+04 0.  0.
        5    1    3    3  502    0  0.35988411296E+03  0.66632264412E+03 -0.16003168540E+04  0.17704628107E+04  0.46999998093E+01 0. -1.
       -5    1    3    3    0  502 -0.35988411296E+03 -0.66632264412E+03  0.14467403345E+04  0.16329672766E+04  0.46999998093E+01 0.  1.
</event>
<event>
 5   0  0.6367111E-08  0.3397568E+04  0.7818609E-02  0.8138503E-01
        1   -1    0    0  501    0  0.00000000000E+00  0.00000000000E+00  0.10726987068E+04  0.10726987068E+04  0.50400001928E-02 0. -1.
       -1   -1    0    0    0  501  0.00000000000E+00  0.00000000000E+00 -0.26902870813E+04  0.26902870813E+04  0.50400001928E-02 0.  1.
    10030    2    1    2    0    0  0.00000000000E+00  0.00000000000E+00 -0.16175883745E+04  0.37629857881E+04  0.33975682322E+04 0.  0.
        3    1    3    3  502    0 -0.10150043397E+04 -0.11628988910E+04 -0.23056146558E+02  0.15437290035E+04  0.10100000352E+00 0. -1.
       -3    1    3    3    0  502  0.10150043397E+04  0.11628988910E+04 -0.15945322279E+04  0.22192567846E+04  0.10100000352E+00 0.  1.
</event>
<event>
 5   0  0.6311750E-08  0.3400841E+04  0.7818609E-02  0.8137700E-01
        1   -1    0    0  501    0  0.00000000000E+00  0.00000000000E+00  0.15065212762E+04  0.15065212762E+04  0.50400001928E-02 0.  1.
       -1   -1    0    0    0  501  0.00000000000E+00  0.00000000000E+00 -0.19192759827E+04  0.19192759827E+04  0.50400001928E-02 0. -1.
    10030    2    1    2    0    0  0.00000000000E+00  0.00000000000E+00 -0.41275470649E+03  0.34257972589E+04  0.34008411329E+04 0.  0.
        4    1    3    3  502    0 -0.42218695883E+03  0.15550477164E+04  0.34075964349E+03  0.16469772239E+04  0.12699999809E+01 0.  1.
       -4    1    3    3    0  502  0.42218695883E+03 -0.15550477164E+04 -0.75351434998E+03  0.17788200350E+04  0.12699999809E+01 0. -1.
</event>
<event>
 5   0  0.1963852E-07  0.3398139E+04  0.7818609E-02  0.8138363E-01
       -2   -1    0    0    0  501  0.00000000000E+00  0.00000000000E+00  0.16800974454E+04  0.16800974454E+04  0.25500000920E-02 0. -1.
        2   -1    0    0  501    0  0.00000000000E+00  0.00000000000E+00 -0.17182555505E+04  0.17182555505E+04  0.25500000920E-02 0.  1.
    10030    2    1    2    0    0  0.00000000000E+00  0.00000000000E+00 -0.38158105044E+02  0.33983529959E+04  0.33981387617E+04 0.  0.
        4    1    3    3  502    0 -0.48833718144E+03 -0.15938358015E+04  0.30965033059E+03  0.16954853892E+04  0.12699999809E+01 0. -1.
       -4    1    3    3    0  502  0.48833718144E+03  0.15938358015E+04 -0.34780843563E+03  0.17028676067E+04  0.12699999809E+01 0.  1.
</event>
<event>
 5   0  0.6311750E-08  0.3401456E+04  0.7818609E-02  0.8137549E-01
        1   -1    0    0  501    0  0.00000000000E+00  0.00000000000E+00  0.18260564445E+04  0.18260564445E+04  0.50400001928E-02 0. -1.
       -1   -1    0    0    0  501  0.00000000000E+00  0.00000000000E+00 -0.15840015695E+04  0.15840015695E+04  0.50400001928E-02 0.  1.
    10030    2    1    2    0    0  0.00000000000E+00  0.00000000000E+00  0.24205487498E+03  0.34100580141E+04  0.34014563200E+04 0.  0.
        4    1    3    3  502    0  0.45667688817E+03  0.79753488356E+03 -0.13136256384E+04  0.16031935633E+04  0.12699999809E+01 0.  1.
       -4    1    3    3    0  502 -0.45667688817E+03 -0.79753488356E+03  0.15556805134E+04  0.18068644507E+04  0.12699999809E+01 0. -1.
</event>
<event>
 5   0  0.1986613E-07  0.3390009E+04  0.7818609E-02  0.8140363E-01
       -2   -1    0    0    0  501  0.00000000000E+00  0.00000000000E+00  0.23565759598E+04  0.23565759598E+04  0.25500000920E-02 0.  1.
        2   -1    0    0  501    0  0.00000000000E+00  0.00000000000E+00 -0.12191588268E+04  0.12191588268E+04  0.25500000920E-02 0. -1.
    10030    2    1    2    0    0  0.00000000000E+00  0.00000000000E+00  0.11374171330E+04  0.35757347866E+04  0.33900090752E+04 0.  0.
        5    1    3    3  502    0 -0.12067170998E+04 -0.11809957176E+04  0.41189889603E+03  0.17379872941E+04  0.46999998093E+01 0. -1.
       -5    1    3    3    0  502  0.12067170998E+04  0.11809957176E+04  0.72551823694E+03  0.18377474925E+04  0.46999998093E+01 0.  1.
</event>
<event>
 5   0  0.6367111E-08  0.3396353E+04  0.7818609E-02  0.8138802E-01
        1   -1    0    0  501    0  0.00000000000E+00  0.00000000000E+00  0.16666157652E+04  0.16666157652E+04  0.50400001928E-02 0.  1.
       -1   -1    0    0    0  501  0.00000000000E+00  0.00000000000E+00 -0.17303353809E+04  0.17303353809E+04  0.50400001928E-02 0. -1.
    10030    2    1    2    0    0  0.00000000000E+00  0.00000000000E+00 -0.63719615703E+02  0.33969511461E+04  0.33963534709E+04 0.  0.
        3    1    3    3  502    0  0.66844258504E+03  0.53661641912E+03 -0.14980753324E+04  0.17259786738E+04  0.10100000352E+00 0. -1.
       -3    1    3    3    0  502 -0.66844258504E+03 -0.53661641912E+03  0.14343557167E+04  0.16709724723E+04  0.10100000352E+00 0.  1.
</event>
<event>
 5   0  0.1928004E-07  0.3400018E+04  0.7818609E-02  0.8137902E-01
       -2   -1    0    0    0  501  0.00000000000E+00  0.00000000000E+00  0.14842113597E+04  0.14842113597E+04  0.25500000920E-02 0. -1.
        2   -1    0    0  501    0  0.00000000000E+00  0.00000000000E+00 -0.19471824920E+04  0.19471824920E+04  0.25500000920E-02 0.  1.
    10030    2    1    2    0    0  0.00000000000E+00  0.00000000000E+00 -0.46297113229E+03  0.34313938517E+04  0.34000178670E+04 0.  0.
        2    1    3    3  502    0 -0.71766236263E+02  0.16645063563E+04  0.10971502147E+03  0.16696613994E+04  0.25500000920E-02 0.  1.
       -2    1    3    3    0  502  0.71766236263E+02 -0.16645063563E+04 -0.57268615376E+03  0.17617324523E+04  0.25500000920E-02 0. -1.
</event>
<event>
 5   0  0.1963852E-07  0.3394273E+04  0.7818609E-02  0.8139313E-01
        2   -1    0    0  501    0  0.00000000000E+00  0.00000000000E+00  0.21943911629E+04  0.21943911629E+04  0.25500000920E-02 0. -1.
       -2   -1    0    0    0  501  0.00000000000E+00  0.00000000000E+00 -0.13125607761E+04  0.13125607761E+04  0.25500000920E-02 0.  1.
    10030    2    1    2    0    0  0.00000000000E+00  0.00000000000E+00  0.88183038686E+03  0.35069519390E+04  0.33942726866E+04 0.  0.
        4    1    3    3  502    0 -0.16617294992E+04 -0.27682702988E+02  0.79606885295E+03  0.18427800987E+04  0.12699999809E+01 0.  1.
       -4    1    3    3    0  502  0.16617294992E+04  0.27682702988E+02  0.85761533910E+02  0.16641718403E+04  0.12699999809E+01 0. -1.
</event>
<event>
 5   0  0.1928004E-07  0.3400450E+04  0.7818609E-02  0.8137796E-01
        2   -1    0    0  501    0  0.00000000000E+00  0.00000000000E+00  0.10208014480E+04  0.10208014480E+04  0.25500000920E-02 0.  1.
       -2   -1    0    0    0  501  0.00000000000E+00  0.00000000000E+00 -0.28318586363E+04  0.28318586363E+04  0.25500000920E-02 0. -1.
    10030    2    1    2    0    0  0.00000000000E+00  0.00000000000E+00 -0.18110571883E+04  0.38526600844E+04  0.34004502035E+04 0.  0.
        2    1    3    3  502    0  0.11261495595E+04  0.32830700589E+03 -0.22999601509E+04  0.25818239708E+04  0.25500000920E-02 0. -1.
       -2    1    3    3    0  502 -0.11261495595E+04 -0.32830700589E+03  0.48890296264E+03  0.12708361135E+04  0.25500000920E-02 0.  1.
</event>
<event>
 5   0  0.6311750E-08  0.3469089E+04  0.7818609E-02  0.8121155E-01
       -1   -1    0    0    0  501  0.00000000000E+00  0.00000000000E+00  0.13233483412E+04  0.13233483412E+04  0.50400001928E-02 0. -1.
        1   -1    0    0  501    0  0.00000000000E+00  0.00000000000E+00 -0.22735098090E+04  0.22735098090E+04  0.50400001928E-02 0.  1.
    10030    2    1    2    0    0  0.00000000000E+00  0.00000000000E+00 -0.95016146780E+03  0.35968581501E+04  0.34690894680E+04 0.  0.
        4    1    3    3  502    0 -0.71697709493E+03 -0.91416352330E+03  0.86033645168E+03  0.14456595467E+04  0.12699999809E+01 0. -1.
       -4    1    3    3    0  502  0.71697709493E+03  0.91416352330E+03 -0.18104979195E+04  0.21511986034E+04  0.12699999809E+01 0.  1.
</event>
<event>
 5   0  0.1986613E-07  0.3414251E+04  0.7818609E-02  0.8134417E-01
        2   -1    0    0  501    0  0.00000000000E+00  0.00000000000E+00  0.10469951373E+04  0.10469951373E+04  0.25500000920E-02 0. -1.
       -2   -1    0    0    0  501  0.00000000000E+00  0.00000000000E+00 -0.27834687435E+04  0.27834687435E+04  0.25500000920E-02 0.  1.
    10030    2    1    2    0    0  0.00000000000E+00  0.00000000000E+00 -0.17364736063E+04  0.38304638808E+04  0.34142514490E+04 0.  0.
        5    1    3    3  502    0  0.93072127674E+02  0.13048328390E+04 -0.20987593724E+04  0.24730677613E+04  0.46999998093E+01 0.  1.
       -5    1    3    3    0  502 -0.93072127674E+02 -0.13048328390E+04  0.36228576618E+03  0.13573961195E+04  0.46999998093E+01 0. -1.
</event>
<event>
 5   0  0.6788600E-08  0.3396496E+04  0.7818609E-02  0.8138767E-01
        1   -1    0    0  501    0  0.00000000000E+00  0.00000000000E+00  0.15892892239E+04  0.15892892239E+04  0.50400001928E-02 0. -1.
       -1   -1    0    0    0  501  0.00000000000E+00  0.00000000000E+00 -0.18146771636E+04  0.18146771636E+04  0.50400001928E-02 0.  1.
    10030    2    1    2    0    0  0.00000000000E+00  0.00000000000E+00 -0.22538793967E+03  0.34039663875E+04  0.33964963482E+04 0.  0.
        2    1    3    3  502    0 -0.15055551817E+04 -0.42449175398E+03 -0.77532677384E+03  0.17458583163E+04  0.25500000920E-02 0.  1.
       -2    1    3    3    0  502  0.15055551817E+04  0.42449175398E+03  0.54993883417E+03  0.16581080712E+04  0.25500000920E-02 0. -1.
</event>
<event>
 5   0  0.6584420E-08  0.3403533E+04  0.7818609E-02  0.8137040E-01
       -1   -1    0    0    0  501  0.00000000000E+00  0.00000000000E+00  0.11845340773E+04  0.11845340773E+04  0.50400001928E-02 0. -1.
        1   -1    0    0  501    0  0.00000000000E+00  0.00000000000E+00 -0.24448514288E+04  0.24448514288E+04  0.50400001928E-02 0.  1.
    10030    2    1    2    0    0  0.00000000000E+00  0.00000000000E+00 -0.12603173515E+04  0.36293855061E+04  0.34035333589E+04 0.  0.
        1    1    3    3  502    0  0.14129354524E+04 -0.63474747887E+03  0.12139226243E+03  0.15537139492E+04  0.50400001928E-02 0. -1.
       -1    1    3    3    0  502 -0.14129354524E+04  0.63474747887E+03 -0.13817096139E+04  0.20756715568E+04  0.50400001928E-02 0.  1.
</event>
<event>
 5   0  0.6341535E-08  0.3400271E+04  0.7818609E-02  0.8137840E-01
        1   -1    0    0  501    0  0.00000000000E+00  0.00000000000E+00  0.22441186969E+04  0.22441186969E+04  0.50400001928E-02 0.  1.
       -1   -1    0    0    0  501  0.00000000000E+00  0.00000000000E+00 -0.12880156589E+04  0.12880156589E+04  0.50400001928E-02 0. -1.
    10030    2    1    2    0    0  0.00000000000E+00  0.00000000000E+00  0.95610303794E+03  0.35321343558E+04  0.34002705905E+04 0.  0.
        5    1    3    3  502    0 -0.86892705615E+03 -0.13951401778E+04  0.92963742204E+03  0.18883056350E+04  0.46999998093E+01 0.  1.
       -5    1    3    3    0  502  0.86892705615E+03  0.13951401778E+04  0.26465615901E+02  0.16438287208E+04  0.46999998093E+01 0. -1.
</event>
<event>
 5   0  0.6311750E-08  0.3401677E+04  0.7818609E-02  0.8137495E-01
       -1   -1    0    0    0  501  0.00000000000E+00  0.00000000000E+00  0.31147353194E+04  0.31147353194E+04  0.50400001928E-02 0. -1.
        1   -1    0    0  501    0  0.00000000000E+00  0.00000000000E+00 -0.92876297871E+03  0.92876297872E+03  0.50400001928E-02 0.  1.
    10030    2    1    2    0    0  0.00000000000E+00  0.00000000000E+00  0.21859723407E+04  0.40434982981E+04  0.34016765591E+04 0.  0.
        4    1    3    3  502    0  0.51936581836E+03  0.80953812541E+03  0.27604250177E+04  0.29231901616E+04  0.12699999809E+01 0. -1.
       -4    1    3    3    0  502 -0.51936581836E+03 -0.80953812541E+03 -0.57445267699E+03  0.11203081365E+04  0.12699999809E+01 0.  1.
</event>
<event>
 5   0  0.1970449E-07  0.3402666E+04  0.7818609E-02  0.8137252E-01
        2   -1    0    0  501    0  0.00000000000E+00  0.00000000000E+00  0.17979329234E+04  0.17979329234E+04  0.25500000920E-02 0. -1.
       -2   -1    0    0    0  501  0.00000000000E+00  0.00000000000E+00 -0.16099232511E+04  0.16099232511E+04  0.25500000920E-02 0.  1.
    10030    2    1    2    0    0  0.00000000000E+00  0.00000000000E+00  0.18800967229E+03  0.34078561745E+04  0.34026660237E+04 0.  0.
        1    1    3    3  502    0 -0.13896767797E+03  0.66655073959E+03  0.16555277026E+04  0.17900765006E+04  0.50400001928E-02 0. -1.
       -1    1    3    3    0  502  0.13896767797E+03 -0.66655073959E+03 -0.14675180303E+04  0.16177796739E+04  0.50400001928E-02 0.  1.
</event>
<event>
 5   0  0.6584420E-08  0.3397206E+04  0.7818609E-02  0.8138592E-01
       -1   -1    0    0    0  501  0.00000000000E+00  0.00000000000E+00  0.11561220837E+04  0.11561220837E+04  0.50400001928E-02 0.  1.
        1   -1    0    0  501    0  0.00000000000E+00  0.00000000000E+00 -0.24956287362E+04  0.24956287363E+04  0.50400001928E-02 0. -1.
    10030    2    1    2    0    0  0.00000000000E+00  0.00000000000E+00 -0.13395066526E+04  0.36517508199E+04  0.33972056132E+04 0.  0.
        1    1    3    3  502    0 -0.14320810210E+03  0.16817765134E+04 -0.46475274565E+03  0.17506787016E+04  0.50400001928E-02 0. -1.
       -1    1    3    3    0  502  0.14320810210E+03 -0.16817765134E+04 -0.87475390693E+03  0.19010721184E+04  0.50400001928E-02 0.  1.
</event>
<event>
 5   0  0.1897313E-07  0.3396100E+04  0.7818609E-02  0.8138864E-01
        2   -1    0    0  501    0  0.00000000000E+00  0.00000000000E+00  0.13578590022E+04  0.13578590022E+04  0.25500000920E-02 0.  1.
       -2   -1    0    0    0  501  0.00000000000E+00  0.00000000000E+00 -0.21234712201E+04  0.21234712201E+04  0.25500000920E-02 0. -1.
    10030    2    1    2    0    0  0.00000000000E+00  0.00000000000E+00 -0.76561221791E+03  0.34813302222E+04  0.33961004178E+04 0.  0.
        3    1    3    3  502    0 -0.65092513751E+03  0.95129486552E+03 -0.16609779921E+04  0.20217599651E+04  0.10100000352E+00 0. -1.
       -3    1    3    3    0  502  0.65092513751E+03 -0.95129486552E+03  0.89536577421E+03  0.14595702572E+04  0.10100000352E+00 0.  1.
</event>
<event>
 5   0  0.1970449E-07  0.3396937E+04  0.7818609E-02  0.8138658E-01
        2   -1    0    0  501    0  0.00000000000E+00  0.00000000000E+00  0.13983333294E+04  0.13983333294E+04  0.25500000920E-02 0.  1.
       -2   -1    0    0    0  501  0.00000000000E+00  0.00000000000E+00 -0.20630242562E+04  0.20630242562E+04  0.25500000920E-02 0. -1.
    10030    2    1    2    0    0  0.00000000000E+00  0.00000000000E+00 -0.66469092678E+03  0.34613575856E+04  0.33969371951E+04 0.  0.
        1    1    3    3  502    0  0.75596382619E+03  0.11682086051E+04 -0.13247784250E+04  0.19212575379E+04  0.50400001928E-02 0. -1.
       -1    1    3    3    0  502 -0.75596382619E+03 -0.11682086051E+04  0.66008749822E+03  0.15401000477E+04  0.50400001928E-02 0.  1.
</event>
<event>
 5   0  0.1970449E-07  0.3400356E+04  0.7818609E-02  0.8137819E-01
       -2   -1    0    0    0  501  0.00000000000E+00  0.00000000000E+00  0.17280323447E+04  0.17280323447E+04  0.25500000920E-02 0. -1.
        2   -1    0    0  501    0  0.00000000000E+00  0.00000000000E+00 -0.16727730095E+04  0.16727730095E+04  0.25500000920E-02 0.  1.
    10030    2    1    2    0    0  0.00000000000E+00  0.00000000000E+00  0.55259335204E+02  0.34008053542E+04  0.34003563730E+04 0.  0.
        1    1    3    3  502    0  0.56917818970E+03  0.27557679837E+03  0.16060330593E+04  0.17260499909E+04  0.50400001928E-02 0. -1.
       -1    1    3    3    0  502 -0.56917818970E+03 -0.27557679837E+03 -0.15507737241E+04  0.16747553633E+04  0.50400001928E-02 0.  1.
</event>
<event>
 5   0  0.1986613E-07  0.3400083E+04  0.7818609E-02  0.8137886E-01
       -2   -1    0    0    0  501  0.00000000000E+00  0.00000000000E+00  0.17702501597E+04  0.17702501597E+04  0.25500000920E-02 0. -1.
        2   -1    0    0  501    0  0.00000000000E+00  0.00000000000E+00 -0.16326171580E+04  0.16326171580E+04  0.25500000920E-02 0.  1.
    10030    2    1    2    0    0  0.00000000000E+00  0.00000000000E+00  0.13763300163E+03  0.34028673177E+04  0.34000828135E+04 0.  0.
        5    1    3    3  502    0 -0.13266487416E+04  0.86479424099E+03 -0.54995573630E+03  0.16764066824E+04  0.46999998093E+01 0.  1.
       -5    1    3    3    0  502  0.13266487416E+04 -0.86479424099E+03  0.68758873793E+03  0.17264606353E+04  0.46999998093E+01 0. -1.
</event>
<event>
 5   0  0.6341535E-08  0.3394565E+04  0.7818609E-02  0.8139241E-01
        1   -1    0    0  501    0  0.00000000000E+00  0.00000000000E+00  0.18432933755E+04  0.18432933755E+04  0.50400001928E-02 0. -1.
       -1   -1    0    0    0  501  0.00000000000E+00  0.00000000000E+00 -0.15628376364E+04  0.15628376364E+04  0.50400001928E-02 0.  1.
    10030    2    1    2    0    0  0.00000000000E+00  0.00000000000E+00  0.28045573908E+03  0.34061310118E+04  0.33945652223E+04 0.  0.
        5    1    3    3  502    0  0.14319265685E+03 -0.16265931752E+04  0.60487870876E+03  0.17413241619E+04  0.46999998093E+01 0. -1.
       -5    1    3    3    0  502 -0.14319265685E+03  0.16265931752E+04 -0.32442296968E+03  0.16648068500E+04  0.46999998093E+01 0.  1.
</event>
<event>
 5   0  0.1897313E-07  0.3397299E+04  0.7818609E-02  0.8138570E-01
        2   -1    0    0  501    0  0.00000000000E+00  0.00000000000E+00  0.15532978959E+04  0.15532978959E+04  0.25500000920E-02 0. -1.
       -2   -1    0    0    0  501  0.00000000000E+00  0.00000000000E+00 -0.18576025841E+04  0.18576025841E+04  0.25500000920E-02 0.  1.
    10030    2    1    2    0    0  0.00000000000E+00  0.00000000000E+00 -0.30430468822E+03  0.34109004801E+04  0.33972990362E+04 0.  0.
        3    1    3    3  502    0 -0.11826850039E+04 -0.12146431982E+04 -0.25891838099E+03  0.17149754096E+04  0.10100000352E+00 0. -1.
       -3    1    3    3    0  502  0.11826850039E+04  0.12146431982E+04 -0.45386307232E+02  0.16959250704E+04  0.10100000352E+00 0.  1.
</event>
<event>
 5   0  0.6788600E-08  0.3400612E+04  0.7818609E-02  0.8137756E-01
        1   -1    0    0  501    0  0.00000000000E+00  0.00000000000E+00  0.33853475803E+04  0.33853475803E+04  0.50400001928E-02 0. -1.
       -1   -1    0    0    0  501  0.00000000000E+00  0.00000000000E+00 -0.85398625944E+03  0.85398625945E+03  0.50400001928E-02 0.  1.
    10030    2    1    2    0    0  0.00000000000E+00  0.00000000000E+00  0.25313613208E+04  0.42393338397E+04  0.34006118961E+04 0.  0.
        2    1    3    3  502    0 -0.29802246357E+03 -0.13666952938E+04  0.60646742414E+02  0.14001255094E+04  0.25500000920E-02 0.  1.
       -2    1    3    3    0  502  0.29802246357E+03  0.13666952938E+04  0.24707145784E+04  0.28392083303E+04  0.25500000920E-02 0. -1.
</event>
<event>
 5   0  0.6584420E-08  0.3408025E+04  0.7818609E-02  0.8135940E-01
       -1   -1    0    0    0  501  0.00000000000E+00  0.00000000000E+00  0.13015819948E+04  0.13015819948E+04  0.50400001928E-02 0.  1.
        1   -1    0    0  501    0  0.00000000000E+00  0.00000000000E+00 -0.22308686170E+04  0.22308686170E+04  0.50400001928E-02 0. -1.
    10030    2    1    2    0    0  0.00000000000E+00  0.00000000000E+00 -0.92928662217E+03  0.35324506118E+04  0.34080248970E+04 0.  0.
        1    1    3    3  502    0 -0.12537569445E+04 -0.11012783985E+04 -0.10717844782E+03  0.16721865346E+04  0.50400001928E-02 0.  1.
       -1    1    3    3    0  502  0.12537569445E+04  0.11012783985E+04 -0.82210817436E+03  0.18602640772E+04  0.50400001928E-02 0. -1.
</event>
<event>
 5   0  0.6367111E-08  0.3392040E+04  0.7818609E-02  0.8139863E-01
        1   -1    0    0  501    0  0.00000000000E+00  0.00000000000E+00  0.15749217082E+04  0.15749217082E+04  0.50400001928E-02 0.  1.
       -1   -1    0    0    0  501  0.00000000000E+00  0.00000000000E+00 -0.18264294719E+04  0.18264294719E+04  0.50400001928E-02 0. -1.
    10030    2    1    2    0    0  0.00000000000E+00  0.00000000000E+00 -0.25150776364E+03  0.34013511801E+04  0.33920397544E+04 0.  0.
        3    1    3    3  502    0  0.11596412139E+03  0.15595486731E+03  0.15637194706E+04  0.15757500407E+04  0.10100000352E+00 0.  1.
       -3    1    3    3    0  502 -0.11596412139E+03 -0.15595486731E+03 -0.18152272342E+04  0.18256011394E+04  0.10100000352E+00 0. -1.
</event>
<event>
 5   0  0.6367111E-08  0.3402206E+04  0.7818609E-02  0.8137365E-01
       -1   -1    0    0    0  501  0.00000000000E+00  0.00000000000E+00  0.17333345362E+04  0.17333345362E+04  0.50400001928E-02 0.  1.
        1   -1    0    0  501    0  0.00000000000E+00  0.00000000000E+00 -0.16694705471E+04  0.16694705471E+04  0.50400001928E-02 0. -1.
    10030    2    1    2    0    0  0.00000000000E+00  0.00000000000E+00  0.63863989080E+02  0.34028050833E+04  0.34022057295E+04 0.  0.
        3    1    3    3  502    0  0.12998239143E+01  0.86935693169E+03  0.14943687022E+04  0.17288496153E+04  0.10100000352E+00 0.  1.
       -3    1    3    3    0  502 -0.12998239143E+01 -0.86935693169E+03 -0.14305047131E+04  0.16739554679E+04  0.10100000352E+00 0. -1.
</event>
<event>
 5   0  0.1928004E-07  0.3397275E+04  0.7818609E-02  0.8138576E-01
        2   -1    0    0  501    0  0.00000000000E+00  0.00000000000E+00  0.13106894360E+04  0.13106894360E+04  0.25500000920E-02 0. -1.
       -2   -1    0    0    0  501  0.00000000000E+00  0.00000000000E+00 -0.22014129088E+04  0.22014129088E+04  0.25500000920E-02 0.  1.
    10030    2    1    2    0    0  0.00000000000E+00  0.00000000000E+00 -0.89072347281E+03  0.35121023448E+04  0.33972745805E+04 0.  0.
        2    1    3    3  502    0  0.41770105559E+03  0.13421712185E+04 -0.14312573069E+04  0.20060895370E+04  0.25500000920E-02 0.  1.
       -2    1    3    3    0  502 -0.41770105559E+03 -0.13421712185E+04  0.54053383413E+03  0.15060128079E+04  0.25500000920E-02 0. -1.
</event>
<event>
 5   0  0.6341535E-08  0.3405795E+04  0.7818609E-02  0.8136485E-01
        1   -1    0    0  501    0  0.00000000000E+00  0.00000000000E+00  0.17103598753E+04  0.17103598753E+04  0.50400001928E-02 0. -1.
       -1   -1    0    0    0  501  0.00000000000E+00  0.00000000000E+00 -0.16954681223E+04  0.16954681223E+04  0.50400001928E-02 0.  1.
    10030    2    1    2    0    0  0.00000000000E+00  0.00000000000E+00  0.14891753000E+02  0.34058279977E+04  0.34057954409E+04 0.  0.
        5    1    3    3  502    0  0.33661027649E+03  0.71451309535E+03 -0.15012113505E+04  0.16963174970E+04  0.46999998093E+01 0.  1.
       -5    1    3    3    0  502 -0.33661027649E+03 -0.71451309535E+03  0.15161031035E+04  0.17095105007E+04  0.46999998093E+01 0. -1.
</event>
<event>
 5   0  0.1986613E-07  0.3409858E+04  0.7818609E-02  0.8135491E-01
        2   -1    0    0  501    0  0.00000000000E+00  0.00000000000E+00  0.19890549309E+04  0.19890549309E+04  0.25500000920E-02 0.  1.
       -2   -1    0    0    0  501  0.00000000000E+00  0.00000000000E+00 -0.14613887617E+04  0.14613887617E+04  0.25500000920E-02 0. -1.
    10030    2    1    2    0    0  0.00000000000E+00  0.00000000000E+00  0.52766616915E+03  0.34504436926E+04  0.34098577815E+04 0.  0.
        5    1    3    3  502    0  0.49523568134E+03  0.67437016639E+02  0.19132510523E+04  0.19774624675E+04  0.46999998093E+01 0.  1.
       -5    1    3    3    0  502 -0.49523568134E+03 -0.67437016639E+02 -0.13855848831E+04  0.14729812251E+04  0.46999998093E+01 0. -1.
</event>
<event>
 5   0  0.6788600E-08  0.3399147E+04  0.7818609E-02  0.8138116E-01
        1   -1    0    0  501    0  0.00000000000E+00  0.00000000000E+00  0.22298857941E+04  0.22298857941E+04  0.50400001928E-02 0. -1.
       -1   -1    0    0    0  501  0.00000000000E+00  0.00000000000E+00 -0.12953800244E+04  0.12953800244E+04  0.50400001928E-02 0.  1.
    10030    2    1    2    0    0  0.00000000000E+00  0.00000000000E+00  0.93450576976E+03  0.35252658185E+04  0.33991466660E+04 0.  0.
        2    1    3    3  502    0  0.74083475686E+03 -0.72183776538E+03 -0.93136203100E+03  0.13918768370E+04  0.25500000920E-02 0.  1.
       -2    1    3    3    0  502 -0.74083475686E+03  0.72183776538E+03  0.18658678008E+04  0.21333889815E+04  0.25500000920E-02 0. -1.
</event>
<event>
 5   0  0.1986613E-07  0.3413155E+04  0.7818609E-02  0.8134685E-01
        2   -1    0    0  501    0  0.00000000000E+00  0.00000000000E+00  0.21908407190E+04  0.21908407190E+04  0.25500000920E-02 0.  1.
       -2   -1    0    0    0  501  0.00000000000E+00  0.00000000000E+00 -0.13293554490E+04  0.13293554490E+04  0.25500000920E-02 0. -1.
    10030    2    1    2    0    0  0.00000000000E+00  0.00000000000E+00  0.86148526998E+03  0.35201961680E+04  0.34131545806E+04 0.  0.
        5    1    3    3  502    0 -0.71828279622E+03  0.57766735066E+03  0.19120140757E+04  0.21226044519E+04  0.46999998093E+01 0.  1.
       -5    1    3    3    0  502  0.71828279622E+03 -0.57766735066E+03 -0.10505288057E+04  0.13975917161E+04  0.46999998093E+01 0. -1.
</event>
<event>
 5   0  0.6584420E-08  0.3406968E+04  0.7818609E-02  0.8136198E-01
       -1   -1    0    0    0  501  0.00000000000E+00  0.00000000000E+00  0.11484822187E+04  0.11484822187E+04  0.50400001928E-02 0. -1.
        1   -1    0    0  501    0  0.00000000000E+00  0.00000000000E+00 -0.25266890991E+04  0.25266890991E+04  0.50400001928E-02 0.  1.
    10030    2    1    2    0    0  0.00000000000E+00  0.00000000000E+00 -0.13782068804E+04  0.36751713178E+04  0.34069678616E+04 0.  0.
        1    1    3    3  502    0 -0.16021488643E+04 -0.49931143902E+03 -0.37337750175E+03  0.17191869169E+04  0.50400001928E-02 0.  1.
       -1    1    3    3    0  502  0.16021488643E+04  0.49931143902E+03 -0.10048293786E+04  0.19559844009E+04  0.50400001928E-02 0. -1.
</event>
<event>
 5   0  0.6788600E-08  0.3404047E+04  0.7818609E-02  0.8136914E-01
       -1   -1    0    0    0  501  0.00000000000E+00  0.00000000000E+00  0.13539144910E+04  0.13539144910E+04  0.50400001928E-02 0. -1.
        1   -1    0    0  501    0  0.00000000000E+00  0.00000000000E+00 -0.21396358298E+04  0.21396358298E+04  0.50400001928E-02 0.  1.
    10030    2    1    2    0    0  0.00000000000E+00  0.00000000000E+00 -0.78572133877E+03  0.34935503208E+04  0.34040469770E+04 0.  0.
        2    1    3    3  502    0  0.49951039875E+03  0.16198234139E+04 -0.23538091702E+03  0.17113569782E+04  0.25500000920E-02 0.  1.
       -2    1    3    3    0  502 -0.49951039875E+03 -0.16198234139E+04 -0.55034042175E+03  0.17821933426E+04  0.25500000920E-02 0. -1.
</event>
<event>
 5   0  0.1970449E-07  0.3404485E+04  0.7818609E-02  0.8136806E-01
        2   -1    0    0  501    0  0.00000000000E+00  0.00000000000E+00  0.16476651877E+04  0.16476651877E+04  0.25500000920E-02 0. -1.
       -2   -1    0    0    0  501  0.00000000000E+00  0.00000000000E+00 -0.17586275896E+04  0.17586275896E+04  0.25500000920E-02 0.  1.
    10030    2    1    2    0    0  0.00000000000E+00  0.00000000000E+00 -0.11096240193E+03  0.34062927773E+04  0.34044849581E+04 0.  0.
        1    1    3    3  502    0  0.15146763271E+04  0.77536605150E+03 -0.86314735689E+01  0.17016202255E+04  0.50400001928E-02 0.  1.
       -1    1    3    3    0  502 -0.15146763271E+04 -0.77536605150E+03 -0.10233092836E+03  0.17046725517E+04  0.50400001928E-02 0. -1.
</event>
<event>
 5   0  0.1970449E-07  0.3390739E+04  0.7818609E-02  0.8140183E-01
       -2   -1    0    0    0  501  0.00000000000E+00  0.00000000000E+00  0.11433101439E+04  0.11433101439E+04  0.25500000920E-02 0.  1.
        2   -1    0    0  501    0  0.00000000000E+00  0.00000000000E+00 -0.25139961242E+04  0.25139961242E+04  0.25500000920E-02 0. -1.
    10030    2    1    2    0    0  0.00000000000E+00  0.00000000000E+00 -0.13706859803E+04  0.36573062680E+04  0.33907387221E+04 0.  0.
        1    1    3    3  502    0  0.17734376482E+03 -0.14906081983E+04  0.16458593790E+03  0.15101165990E+04  0.50400001928E-02 0.  1.
       -1    1    3    3    0  502 -0.17734376482E+03  0.14906081983E+04 -0.15352719182E+04  0.21471896690E+04  0.50400001928E-02 0. -1.
</event>
<event>
 5   0  0.6311750E-08  0.3405531E+04  0.7818609E-02  0.8136550E-01
        3   -1    0    0  501    0  0.00000000000E+00  0.00000000000E+00  0.28247724238E+04  0.28247724256E+04  0.10100000352E+00 0.  1.
       -3   -1    0    0    0  501  0.00000000000E+00  0.00000000000E+00 -0.10264226593E+04  0.10264226643E+04  0.10100000352E+00 0. -1.
    10030    2    1    2    0    0  0.00000000000E+00  0.00000000000E+00  0.17983497645E+04  0.38511950899E+04  0.34055310518E+04 0.  0.
        3    1    3    3  502    0 -0.94562481947E+03 -0.44213615129E+03 -0.62213027571E+03  0.12152105849E+04  0.10100000352E+00 0. -1.
       -3    1    3    3    0  502  0.94562481947E+03  0.44213615129E+03  0.24204800402E+04  0.26359845050E+04  0.10100000352E+00 0.  1.
</event>
<event>
 5   0  0.6311750E-08  0.3401262E+04  0.7818609E-02  0.8137597E-01
        1   -1    0    0  501    0  0.00000000000E+00  0.00000000000E+00  0.86200915445E+03  0.86200915446E+03  0.50400001928E-02 0. -1.
       -1   -1    0    0    0  501  0.00000000000E+00  0.00000000000E+00 -0.33551210696E+04  0.33551210696E+04  0.50400001928E-02 0.  1.
    10030    2    1    2    0    0  0.00000000000E+00  0.00000000000E+00 -0.24931119151E+04  0.42171302241E+04  0.34012615755E+04 0.  0.
        4    1    3    3  502    0 -0.15976225818E+04  0.57687658714E+03 -0.11431253870E+04  0.20474183193E+04  0.12699999809E+01 0. -1.
       -4    1    3    3    0  502  0.15976225818E+04 -0.57687658714E+03 -0.13499865281E+04  0.21697119048E+04  0.12699999809E+01 0.  1.
</event>
<event>
 5   0  0.1986613E-07  0.3399540E+04  0.7818609E-02  0.8138019E-01
       -2   -1    0    0    0  501  0.00000000000E+00  0.00000000000E+00  0.89601289794E+03  0.89601289794E+03  0.25500000920E-02 0.  1.
        2   -1    0    0  501    0  0.00000000000E+00  0.00000000000E+00 -0.32245280641E+04  0.32245280641E+04  0.25500000920E-02 0. -1.
    10030    2    1    2    0    0  0.00000000000E+00  0.00000000000E+00 -0.23285151661E+04  0.41205409620E+04  0.33995404014E+04 0.  0.
        5    1    3    3  502    0 -0.33216659701E+03 -0.10373163784E+04 -0.27459445400E+04  0.29540808087E+04  0.46999998093E+01 0. -1.
       -5    1    3    3    0  502  0.33216659701E+03  0.10373163784E+04  0.41742937390E+03  0.11664601533E+04  0.46999998093E+01 0.  1.
</event>
<event>
 5   0  0.6341535E-08  0.3399984E+04  0.7818609E-02  0.8137910E-01
        1   -1    0    0  501    0  0.00000000000E+00  0.00000000000E+00  0.16719036020E+04  0.16719036020E+04  0.50400001928E-02 0.  1.
       -1   -1    0    0    0  501  0.00000000000E+00  0.00000000000E+00 -0.17285518255E+04  0.17285518255E+04  0.50400001928E-02 0. -1.
    10030    2    1    2    0    0  0.00000000000E+00  0.00000000000E+00 -0.56648223462E+02  0.34004554275E+04  0.33999835430E+04 0.  0.
        5    1    3    3  502    0  0.98070875772E+03 -0.28656221720E+02  0.13601549538E+04  0.16770970261E+04  0.46999998093E+01 0.  1.
       -5    1    3    3    0  502 -0.98070875772E+03  0.28656221720E+02 -0.14168031773E+04  0.17233584014E+04  0.46999998093E+01 0. -1.
</event>
<event>
 5   0  0.6788600E-08  0.3399962E+04  0.7818609E-02  0.8137916E-01
        1   -1    0    0  501    0  0.00000000000E+00  0.00000000000E+00  0.14947813358E+04  0.14947813358E+04  0.50400001928E-02 0. -1.
       -1   -1    0    0    0  501  0.00000000000E+00  0.00000000000E+00 -0.19333494490E+04  0.19333494490E+04  0.50400001928E-02 0.  1.
    10030    2    1    2    0    0  0.00000000000E+00  0.00000000000E+00 -0.43856811317E+03  0.34281307848E+04  0.33999615715E+04 0.  0.
        2    1    3    3  502    0 -0.31286544294E+03  0.53833867008E+03 -0.18142373625E+04  0.19181111847E+04  0.25500000920E-02 0.  1.
       -2    1    3    3    0  502  0.31286544294E+03 -0.53833867008E+03  0.13756692494E+04  0.15100196001E+04  0.25500000920E-02 0. -1.
</event>
<event>
 5   0  0.1986613E-07  0.3406235E+04  0.7818609E-02  0.8136378E-01
        2   -1    0    0  501    0  0.00000000000E+00  0.00000000000E+00  0.19378841466E+04  0.19378841466E+04  0.25500000920E-02 0. -1.
       -2   -1    0    0    0  501  0.00000000000E+00  0.00000000000E+00 -0.14967915334E+04  0.14967915334E+04  0.25500000920E-02 0.  1.
    10030    2    1    2    0    0  0.00000000000E+00  0.00000000000E+00  0.44109261316E+03  0.34346756800E+04  0.34062346269E+04 0.  0.
        5    1    3    3  502    0 -0.82483698053E+03  0.13576921472E+04  0.83959623019E+03  0.17968383151E+04  0.46999998093E+01 0. -1.
       -5    1    3    3    0  502  0.82483698053E+03 -0.13576921472E+04 -0.39850361704E+03  0.16378373649E+04  0.46999998093E+01 0.  1.
</event>
<event>
 5   0  0.1970449E-07  0.3387461E+04  0.7818609E-02  0.8140991E-01
       -2   -1    0    0    0  501  0.00000000000E+00  0.00000000000E+00  0.14296750791E+04  0.14296750791E+04  0.25500000920E-02 0. -1.
        2   -1    0    0  501    0  0.00000000000E+00  0.00000000000E+00 -0.20065555072E+04  0.20065555072E+04  0.25500000920E-02 0.  1.
    10030    2    1    2    0    0  0.00000000000E+00  0.00000000000E+00 -0.57688042819E+03  0.34362305863E+04  0.33874606439E+04 0.  0.
        1    1    3    3  502    0 -0.57996311813E+03  0.14259164257E+04 -0.10051012684E+04  0.18384296101E+04  0.50400001928E-02 0.  1.
       -1    1    3    3    0  502  0.57996311813E+03 -0.14259164257E+04  0.42822084020E+03  0.15978009762E+04  0.50400001928E-02 0. -1.
</event>
<event>
 5   0  0.6788600E-08  0.3402941E+04  0.7818609E-02  0.8137185E-01
       -1   -1    0    0    0  501  0.00000000000E+00  0.00000000000E+00  0.15493087768E+04  0.15493087768E+04  0.50400001928E-02 0. -1.
        1   -1    0    0  501    0  0.00000000000E+00  0.00000000000E+00 -0.18685759919E+04  0.18685759919E+04  0.50400001928E-02 0.  1.
    10030    2    1    2    0    0  0.00000000000E+00  0.00000000000E+00 -0.31926721502E+03  0.34178847687E+04  0.34029406015E+04 0.  0.
        2    1    3    3  502    0 -0.12445413417E+04 -0.10979322496E+04 -0.53633106621E+03  0.17441299804E+04  0.25500000920E-02 0.  1.
       -2    1    3    3    0  502  0.12445413417E+04  0.10979322496E+04  0.21706385119E+03  0.16737547883E+04  0.25500000920E-02 0. -1.
</event>
<event>
 5   0  0.6341535E-08  0.3399079E+04  0.7818609E-02  0.8138132E-01
       -1   -1    0    0    0  501  0.00000000000E+00  0.00000000000E+00  0.15721063443E+04  0.15721063443E+04  0.50400001928E-02 0. -1.
        1   -1    0    0  501    0  0.00000000000E+00  0.00000000000E+00 -0.18373021550E+04  0.18373021550E+04  0.50400001928E-02 0.  1.
    10030    2    1    2    0    0  0.00000000000E+00  0.00000000000E+00 -0.26519581066E+03  0.34094084993E+04  0.33990789189E+04 0.  0.
        5    1    3    3  502    0 -0.51352960489E+03 -0.11973468636E+04 -0.12272714758E+04  0.17898518185E+04  0.46999998093E+01 0.  1.
       -5    1    3    3    0  502  0.51352960489E+03  0.11973468636E+04  0.96207566511E+03  0.16195566808E+04  0.46999998093E+01 0. -1.
</event>
<event>
 5   0  0.6367111E-08  0.3406450E+04  0.7818609E-02  0.8136325E-01
        1   -1    0    0  501    0  0.00000000000E+00  0.00000000000E+00  0.13805666430E+04  0.13805666430E+04  0.50400001928E-02 0. -1.
       -1   -1    0    0    0  501  0.00000000000E+00  0.00000000000E+00 -0.21012931567E+04  0.21012931567E+04  0.50400001928E-02 0.  1.
    10030    2    1    2    0    0  0.00000000000E+00  0.00000000000E+00 -0.72072651375E+03  0.34818597997E+04  0.34064499053E+04 0.  0.
        3    1    3    3  502    0  0.13908428884E+04  0.46734472371E+03 -0.12444501729E+04  0.19239312031E+04  0.10100000352E+00 0.  1.
       -3    1    3    3    0  502 -0.13908428884E+04 -0.46734472371E+03  0.52372365916E+03  0.15579285967E+04  0.10100000352E+00 0. -1.
</event>
<event>
 5   0  0.6367111E-08  0.3394206E+04  0.7818609E-02  0.8139330E-01
       -1   -1    0    0    0  501  0.00000000000E+00  0.00000000000E+00  0.11884984235E+04  0.11884984235E+04  0.50400001928E-02 0.  1.
        1   -1    0    0  501    0  0.00000000000E+00  0.00000000000E+00 -0.24233587216E+04  0.24233587216E+04  0.50400001928E-02 0. -1.
    10030    2    1    2    0    0  0.00000000000E+00  0.00000000000E+00 -0.12348602981E+04  0.36118571451E+04  0.33942056627E+04 0.  0.
        3    1    3    3  502    0  0.77902695233E+03  0.38794187152E+03  0.93297252283E+03  0.12758603476E+04  0.10100000352E+00 0.  1.
       -3    1    3    3    0  502 -0.77902695233E+03 -0.38794187152E+03 -0.21678328209E+04  0.23359967975E+04  0.10100000352E+00 0. -1.
</event>
<event>
 5   0  0.6341535E-08  0.3410687E+04  0.7818609E-02  0.8135288E-01
        1   -1    0    0  501    0  0.00000000000E+00  0.00000000000E+00  0.17348467017E+04  0.17348467017E+04  0.50400001928E-02 0.  1.
       -1   -1    0    0    0  501  0.00000000000E+00  0.00000000000E+00 -0.16763422318E+04  0.16763422318E+04  0.50400001928E-02 0. -1.
    10030    2    1    2    0    0  0.00000000000E+00  0.00000000000E+00  0.58504469922E+02  0.34111889335E+04  0.34106871987E+04 0.  0.
        5    1    3    3  502    0 -0.83541996573E+03 -0.86057866255E+03  0.12417228414E+04  0.17263892546E+04  0.46999998093E+01 0.  1.
       -5    1    3    3    0  502  0.83541996573E+03  0.86057866255E+03 -0.11832183714E+04  0.16847996789E+04  0.46999998093E+01 0. -1.
</event>
<event>
 5   0  0.6311750E-08  0.3398617E+04  0.7818609E-02  0.8138246E-01
        1   -1    0    0  501    0  0.00000000000E+00  0.00000000000E+00  0.21730210580E+04  0.21730210580E+04  0.50400001928E-02 0.  1.
       -1   -1    0    0    0  501  0.00000000000E+00  0.00000000000E+00 -0.13288641447E+04  0.13288641447E+04  0.50400001928E-02 0. -1.
    10030    2    1    2    0    0  0.00000000000E+00  0.00000000000E+00  0.84415691325E+03  0.35018852027E+04  0.33986172304E+04 0.  0.
        4    1    3    3  502    0 -0.22534614493E+03  0.10587703070E+04 -0.92763688279E+03  0.14255831253E+04  0.12699999809E+01 0. -1.
       -4    1    3    3    0  502  0.22534614493E+03 -0.10587703070E+04  0.17717937960E+04  0.20763020774E+04  0.12699999809E+01 0.  1.
</event>
<event>
 5   0  0.6341535E-08  0.3399495E+04  0.7818609E-02  0.8138030E-01
       -1   -1    0    0    0  501  0.00000000000E+00  0.00000000000E+00  0.15232047046E+04  0.15232047046E+04  0.50400001928E-02 0. -1.
        1   -1    0    0  501    0  0.00000000000E+00  0.00000000000E+00 -0.18967525390E+04  0.18967525390E+04  0.50400001928E-02 0.  1.
    10030    2    1    2    0    0  0.00000000000E+00  0.00000000000E+00 -0.37354783433E+03  0.34199572436E+04  0.33994954866E+04 0.  0.
        5    1    3    3  502    0 -0.10410163665E+04 -0.12433072367E+04 -0.69934269072E+03  0.17659643964E+04  0.46999998093E+01 0.  1.
       -5    1    3    3    0  502  0.10410163665E+04  0.12433072367E+04  0.32579485640E+03  0.16539928472E+04  0.46999998093E+01 0. -1.
</event>
<event>
 5   0  0.1963852E-07  0.3399984E+04  0.7818609E-02  0.8137910E-01
       -2   -1    0    0    0  501  0.00000000000E+00  0.00000000000E+00  0.14146445558E+04  0.14146445558E+04  0.25500000920E-02 0. -1.
        2   -1    0    0  501    0  0.00000000000E+00  0.00000000000E+00 -0.20428961837E+04  0.20428961837E+04  0.25500000920E-02 0.  1.
    10030    2    1    2    0    0  0.00000000000E+00  0.00000000000E+00 -0.62825162793E+03  0.34575407396E+04  0.33999835084E+04 0.  0.
        4    1    3    3  502    0  0.48512252069E+02 -0.29302328058E+03  0.13880543167E+04  0.14194761290E+04  0.12699999809E+01 0. -1.
       -4    1    3    3    0  502 -0.48512252069E+02  0.29302328058E+03 -0.20163059447E+04  0.20380646106E+04  0.12699999809E+01 0.  1.
</event>
<event>
 5   0  0.6341535E-08  0.3398269E+04  0.7818609E-02  0.8138331E-01
        1   -1    0    0  501    0  0.00000000000E+00  0.00000000000E+00  0.14407268478E+04  0.14407268478E+04  0.50400001928E-02 0.  1.
       -1   -1    0    0    0  501  0.00000000000E+00  0.00000000000E+00 -0.20038904485E+04  0.20038904485E+04  0.50400001928E-02 0. -1.
    10030    2    1    2    0    0  0.00000000000E+00  0.00000000000E+00 -0.56316360069E+03  0.34446172964E+04  0.33982694239E+04 0.  0.
        5    1    3    3  502    0 -0.86390571642E+03  0.81433007802E+03 -0.15137137512E+04  0.19237510164E+04  0.46999998093E+01 0. -1.
       -5    1    3    3    0  502  0.86390571642E+03 -0.81433007802E+03  0.95055015047E+03  0.15208662799E+04  0.46999998093E+01 0.  1.
</event>
<event>
 5   0  0.1897313E-07  0.3375079E+04  0.7818609E-02  0.8144050E-01
        2   -1    0    0  501    0  0.00000000000E+00  0.00000000000E+00  0.15589012461E+04  0.15589012461E+04  0.25500000920E-02 0.  1.
       -2   -1    0    0    0  501  0.00000000000E+00  0.00000000000E+00 -0.18267925754E+04  0.18267925754E+04  0.25500000920E-02 0. -1.
    10030    2    1    2    0    0  0.00000000000E+00  0.00000000000E+00 -0.26789132934E+03  0.33856938215E+04  0.33750787974E+04 0.  0.
        3    1    3    3  502    0 -0.31990209395E+02  0.13982849486E+04 -0.10811425906E+04  0.17677933935E+04  0.10100000352E+00 0. -1.
       -3    1    3    3    0  502  0.31990209395E+02 -0.13982849486E+04  0.81325126121E+03  0.16179004280E+04  0.10100000352E+00 0.  1.
</event>
<event>
 5   0  0.1897313E-07  0.3395342E+04  0.7818609E-02  0.8139051E-01
        2   -1    0    0  501    0  0.00000000000E+00  0.00000000000E+00  0.17903875450E+04  0.17903875450E+04  0.25500000920E-02 0.  1.
       -2   -1    0    0    0  501  0.00000000000E+00  0.00000000000E+00 -0.16097555048E+04  0.16097555048E+04  0.25500000920E-02 0. -1.
    10030    2    1    2    0    0  0.00000000000E+00  0.00000000000E+00  0.18063204022E+03  0.34001430498E+04  0.33953416360E+04 0.  0.
        3    1    3    3  502    0 -0.46730381613E+02  0.11083952505E+03  0.17861146814E+04  0.17901605498E+04  0.10100000352E+00 0.  1.
       -3    1    3    3    0  502  0.46730381613E+02 -0.11083952505E+03 -0.16054826412E+04  0.16099824999E+04  0.10100000352E+00 0. -1.
</event>
<event>
 5   0  0.6311750E-08  0.3408029E+04  0.7818609E-02  0.8135938E-01
        4   -1    0    0  501    0  0.00000000000E+00  0.00000000000E+00  0.21511447796E+04  0.21511451545E+04  0.12699999809E+01 0.  1.
       -4   -1    0    0    0  501  0.00000000000E+00  0.00000000000E+00 -0.13498229213E+04  0.13498235187E+04  0.12699999809E+01 0. -1.
    10030    2    1    2    0    0  0.00000000000E+00  0.00000000000E+00  0.80132185839E+03  0.35009686732E+04  0.34080294791E+04 0.  0.
        1    1    3    3  502    0  0.16332952973E+03 -0.10568079208E+03  0.21397003735E+04  0.21485256930E+04  0.50400001928E-02 0.  1.
       -1    1    3    3    0  502 -0.16332952973E+03  0.10568079208E+03 -0.13383785151E+04  0.13524429802E+04  0.50400001928E-02 0. -1.
</event>
<event>
 5   0  0.1986613E-07  0.3404044E+04  0.7818609E-02  0.8136915E-01
       -2   -1    0    0    0  501  0.00000000000E+00  0.00000000000E+00  0.11073107910E+04  0.11073107910E+04  0.25500000920E-02 0. -1.
        2   -1    0    0  501    0  0.00000000000E+00  0.00000000000E+00 -0.26161383609E+04  0.26161383609E+04  0.25500000920E-02 0.  1.
    10030    2    1    2    0    0  0.00000000000E+00  0.00000000000E+00 -0.15088275699E+04  0.37234491519E+04  0.34040436177E+04 0.  0.
        5    1    3    3  502    0  0.11486722517E+04 -0.16724304051E+03 -0.21159757424E+04  0.24134609192E+04  0.46999998093E+01 0.  1.
       -5    1    3    3    0  502 -0.11486722517E+04  0.16724304051E+03  0.60714817244E+03  0.13099882327E+04  0.46999998093E+01 0. -1.
</event>
<event>
 5   0  0.6341535E-08  0.3398515E+04  0.7818609E-02  0.8138271E-01
        1   -1    0    0  501    0  0.00000000000E+00  0.00000000000E+00  0.10938696447E+04  0.10938696447E+04  0.50400001928E-02 0.  1.
       -1   -1    0    0    0  501  0.00000000000E+00  0.00000000000E+00 -0.26396893777E+04  0.26396893777E+04  0.50400001928E-02 0. -1.
    10030    2    1    2    0    0  0.00000000000E+00  0.00000000000E+00 -0.15458197330E+04  0.37335590224E+04  0.33985150179E+04 0.  0.
        5    1    3    3  502    0  0.95597821686E+03  0.13934550284E+04 -0.96894726768E+03  0.19479456268E+04  0.46999998093E+01 0.  1.
       -5    1    3    3    0  502 -0.95597821686E+03 -0.13934550284E+04 -0.57687246528E+03  0.17856133956E+04  0.46999998093E+01 0. -1.
</event>
<event>
 5   0  0.6788600E-08  0.3398945E+04  0.7818609E-02  0.8138165E-01
       -1   -1    0    0    0  501  0.00000000000E+00  0.00000000000E+00  0.14795852330E+04  0.14795852330E+04  0.50400001928E-02 0. -1.
        1   -1    0    0  501    0  0.00000000000E+00  0.00000000000E+00 -0.19520383531E+04  0.19520383531E+04  0.50400001928E-02 0.  1.
    10030    2    1    2    0    0  0.00000000000E+00  0.00000000000E+00 -0.47245312010E+03  0.34316235860E+04  0.33989452019E+04 0.  0.
        2    1    3    3  502    0  0.11190074006E+03  0.15851606362E+04 -0.84447295231E+03  0.17995528848E+04  0.25500000920E-02 0.  1.
       -2    1    3    3    0  502 -0.11190074006E+03 -0.15851606362E+04  0.37201983221E+03  0.16320707012E+04  0.25500000920E-02 0. -1.
</event>
<event>
 5   0  0.1986613E-07  0.3400353E+04  0.7818609E-02  0.8137820E-01
        2   -1    0    0  501    0  0.00000000000E+00  0.00000000000E+00  0.16512642111E+04  0.16512642111E+04  0.25500000920E-02 0.  1.
       -2   -1    0    0    0  501  0.00000000000E+00  0.00000000000E+00 -0.17505379136E+04  0.17505379136E+04  0.25500000920E-02 0. -1.
    10030    2    1    2    0    0  0.00000000000E+00  0.00000000000E+00 -0.99273702556E+02  0.34018021247E+04  0.34003532798E+04 0.  0.
        5    1    3    3  502    0 -0.16184993968E+03  0.14906442582E+04 -0.85145374465E+03  0.17243002281E+04  0.46999998093E+01 0. -1.
       -5    1    3    3    0  502  0.16184993968E+03 -0.14906442582E+04  0.75218004210E+03  0.16775018966E+04  0.46999998093E+01 0.  1.
</event>
<event>
 5   0  0.1970449E-07  0.3402166E+04  0.7818609E-02  0.8137375E-01
        2   -1    0    0  501    0  0.00000000000E+00  0.00000000000E+00  0.18009309249E+04  0.18009309249E+04  0.25500000920E-02 0. -1.
       -2   -1    0    0    0  501  0.00000000000E+00  0.00000000000E+00 -0.16067707465E+04  0.16067707465E+04  0.25500000920E-02 0.  1.
    10030    2    1    2    0    0  0.00000000000E+00  0.00000000000E+00  0.19416017832E+03  0.34077016714E+04  0.34021658552E+04 0.  0.
        1    1    3    3  502    0  0.50338712871E+03 -0.19412805123E+02 -0.15303429294E+04  0.16111253644E+04  0.50400001928E-02 0.  1.
       -1    1    3    3    0  502 -0.50338712871E+03  0.19412805123E+02  0.17245031077E+04  0.17965763070E+04  0.50400001928E-02 0. -1.
</event>
<event>
 5   0  0.6788600E-08  0.3413159E+04  0.7818609E-02  0.8134684E-01
       -1   -1    0    0    0  501  0.00000000000E+00  0.00000000000E+00  0.28956124730E+04  0.28956124730E+04  0.50400001928E-02 0.  1.
        1   -1    0    0  501    0  0.00000000000E+00  0.00000000000E+00 -0.10058022980E+04  0.10058022981E+04  0.50400001928E-02 0. -1.
    10030    2    1    2    0    0  0.00000000000E+00  0.00000000000E+00  0.18898101749E+04  0.39014147710E+04  0.34131590526E+04 0.  0.
        2    1    3    3  502    0  0.15687135029E+04  0.56005388701E+03  0.52044781264E+03  0.17451041047E+04  0.25500000920E-02 0.  1.
       -2    1    3    3    0  502 -0.15687135029E+04 -0.56005388701E+03  0.13693623623E+04  0.21563106663E+04  0.25500000920E-02 0. -1.
</event>
<event>
 5   0  0.1970449E-07  0.3407135E+04  0.7818609E-02  0.8136157E-01
        2   -1    0    0  501    0  0.00000000000E+00  0.00000000000E+00  0.19481049637E+04  0.19481049637E+04  0.25500000920E-02 0.  1.
       -2   -1    0    0    0  501  0.00000000000E+00  0.00000000000E+00 -0.14897257065E+04  0.14897257065E+04  0.25500000920E-02 0. -1.
    10030    2    1    2    0    0  0.00000000000E+00  0.00000000000E+00  0.45837925712E+03  0.34378306702E+04  0.34071348922E+04 0.  0.
        1    1    3    3  502    0  0.13118849600E+03 -0.10850722384E+04 -0.10893155823E+04  0.15431139368E+04  0.50400001928E-02 0. -1.
       -1    1    3    3    0  502 -0.13118849600E+03  0.10850722384E+04  0.15476948394E+04  0.18947167334E+04  0.50400001928E-02 0.  1.
</event>
<event>
 5   0  0.6311750E-08  0.3397366E+04  0.7818609E-02  0.8138553E-01
       -1   -1    0    0    0  501  0.00000000000E+00  0.00000000000E+00  0.17102488362E+04  0.17102488362E+04  0.50400001928E-02 0.  1.
        1   -1    0    0  501    0  0.00000000000E+00  0.00000000000E+00 -0.16871952300E+04  0.16871952301E+04  0.50400001928E-02 0. -1.
    10030    2    1    2    0    0  0.00000000000E+00  0.00000000000E+00  0.23053606127E+02  0.33974440662E+04  0.33973658494E+04 0.  0.
        4    1    3    3  502    0 -0.36555200355E+02 -0.10344570620E+04  0.13584373054E+04  0.17078615932E+04  0.12699999809E+01 0.  1.
       -4    1    3    3    0  502  0.36555200355E+02  0.10344570620E+04 -0.13353836993E+04  0.16895824730E+04  0.12699999809E+01 0. -1.
</event>
<event>
 5   0  0.1897313E-07  0.3406712E+04  0.7818609E-02  0.8136261E-01
        2   -1    0    0  501    0  0.00000000000E+00  0.00000000000E+00  0.19908796273E+04  0.19908796273E+04  0.25500000920E-02 0. -1.
       -2   -1    0    0    0  501  0.00000000000E+00  0.00000000000E+00 -0.14573564381E+04  0.14573564381E+04  0.25500000920E-02 0.  1.
    10030    2    1    2    0    0  0.00000000000E+00  0.00000000000E+00  0.53352318916E+03  0.34482360654E+04  0.34067117532E+04 0.  0.
        3    1    3    3  502    0 -0.14152225513E+04  0.29721723827E+03  0.11778600254E+04  0.18650863803E+04  0.10100000352E+00 0. -1.
       -3    1    3    3    0  502  0.14152225513E+04 -0.29721723827E+03 -0.64433683622E+03  0.15831496850E+04  0.10100000352E+00 0.  1.
</event>
<event>
 5   0  0.6311750E-08  0.3415037E+04  0.7818609E-02  0.8134225E-01
        1   -1    0    0  501    0  0.00000000000E+00  0.00000000000E+00  0.12533626085E+04  0.12533626085E+04  0.50400001928E-02 0. -1.
       -1   -1    0    0    0  501  0.00000000000E+00  0.00000000000E+00 -0.23262383525E+04  0.23262383525E+04  0.50400001928E-02 0.  1.
    10030    2    1    2    0    0  0.00000000000E+00  0.00000000000E+00 -0.10728757440E+04  0.35796009610E+04  0.34150374343E+04 0.  0.
        4    1    3    3  502    0  0.16357107782E+04  0.34184767052E+03 -0.90436373983E+03  0.19000749897E+04  0.12699999809E+01 0.  1.
       -4    1    3    3    0  502 -0.16357107782E+04 -0.34184767052E+03 -0.16851200418E+03  0.16795259713E+04  0.12699999809E+01 0. -1.
</event>
<event>
 5   0  0.1897313E-07  0.3379849E+04  0.7818609E-02  0.8142870E-01
       -2   -1    0    0    0  501  0.00000000000E+00  0.00000000000E+00  0.11469366140E+04  0.11469366140E+04  0.25500000920E-02 0.  1.
        2   -1    0    0  501    0  0.00000000000E+00  0.00000000000E+00 -0.24899755517E+04  0.24899755517E+04  0.25500000920E-02 0. -1.
    10030    2    1    2    0    0  0.00000000000E+00  0.00000000000E+00 -0.13430389377E+04  0.36369121658E+04  0.33798485932E+04 0.  0.
        3    1    3    3  502    0 -0.97635361802E+03  0.55026637643E+03 -0.20325451785E+04  0.23210556619E+04  0.10100000352E+00 0. -1.
       -3    1    3    3    0  502  0.97635361802E+03 -0.55026637643E+03  0.68950624085E+03  0.13158565039E+04  0.10100000352E+00 0.  1.
</event>
<event>
 5   0  0.1963852E-07  0.3401095E+04  0.7818609E-02  0.8137638E-01
        2   -1    0    0  501    0  0.00000000000E+00  0.00000000000E+00  0.12724044028E+04  0.12724044028E+04  0.25500000920E-02 0.  1.
       -2   -1    0    0    0  501  0.00000000000E+00  0.00000000000E+00 -0.22727536642E+04  0.22727536642E+04  0.25500000920E-02 0. -1.
    10030    2    1    2    0    0  0.00000000000E+00  0.00000000000E+00 -0.10003492615E+04  0.35451580670E+04  0.34010949818E+04 0.  0.
        4    1    3    3  502    0  0.37220118255E+03  0.14977647613E+03  0.12223649917E+04  0.12865241929E+04  0.12699999809E+01 0.  1.
       -4    1    3    3    0  502 -0.37220118255E+03 -0.14977647613E+03 -0.22227142532E+04  0.22586338741E+04  0.12699999809E+01 0. -1.
</event>
<event>
 5   0  0.1928004E-07  0.3410296E+04  0.7818609E-02  0.8135384E-01
       -2   -1    0    0    0  501  0.00000000000E+00  0.00000000000E+00  0.17379080155E+04  0.17379080155E+04  0.25500000920E-02 0. -1.
        2   -1    0    0  501    0  0.00000000000E+00  0.00000000000E+00 -0.16730053619E+04  0.16730053619E+04  0.25500000920E-02 0.  1.
    10030    2    1    2    0    0  0.00000000000E+00  0.00000000000E+00  0.64902653608E+02  0.34109133774E+04  0.34102958396E+04 0.  0.
        2    1    3    3  502    0 -0.88595656284E+03  0.10092055775E+04 -0.10185074748E+04  0.16854591081E+04  0.25500000920E-02 0.  1.
       -2    1    3    3    0  502  0.88595656284E+03 -0.10092055775E+04  0.10834101284E+04  0.17254542693E+04  0.25500000920E-02 0. -1.
</event>
<event>
 5   0  0.1928004E-07  0.3396057E+04  0.7818609E-02  0.8138875E-01
        2   -1    0    0  501    0  0.00000000000E+00  0.00000000000E+00  0.19445610016E+04  0.19445610016E+04  0.25500000920E-02 0. -1.
       -2   -1    0    0    0  501  0.00000000000E+00  0.00000000000E+00 -0.14827515602E+04  0.14827515602E+04  0.25500000920E-02 0.  1.
    10030    2    1    2    0    0  0.00000000000E+00  0.00000000000E+00  0.46180944134E+03  0.34273125618E+04  0.33960570425E+04 0.  0.
        2    1    3    3  502    0  0.10097406443E+04 -0.94806203551E+03 -0.76043059933E+03  0.15800798994E+04  0.25500000920E-02 0. -1.
       -2    1    3    3    0  502 -0.10097406443E+04  0.94806203551E+03  0.12222400407E+04  0.18472326624E+04  0.25500000920E-02 0.  1.
</event>
<event>
 5   0  0.6311750E-08  0.3393821E+04  0.7818609E-02  0.8139425E-01
       -1   -1    0    0    0  501  0.00000000000E+00  0.00000000000E+00  0.15491376323E+04  0.15491376323E+04  0.50400001928E-02 0.  1.
        1   -1    0    0  501    0  0.00000000000E+00  0.00000000000E+00 -0.18587792672E+04  0.18587792672E+04  0.50400001928E-02 0. -1.
    10030    2    1    2    0    0  0.00000000000E+00  0.00000000000E+00 -0.30964163496E+03  0.34079168995E+04  0.33938208043E+04 0.  0.
        4    1    3    3  502    0  0.42117470221E+03  0.15708797454E+04 -0.64103436504E+03  0.17481355709E+04  0.12699999809E+01 0. -1.
       -4    1    3    3    0  502 -0.42117470221E+03 -0.15708797454E+04  0.33139273008E+03  0.16597813286E+04  0.12699999809E+01 0.  1.
</event>
<event>
 5   0  0.1928004E-07  0.3408664E+04  0.7818609E-02  0.8135783E-01
       -2   -1    0    0    0  501  0.00000000000E+00  0.00000000000E+00  0.17706143711E+04  0.17706143711E+04  0.25500000920E-02 0. -1.
        2   -1    0    0  501    0  0.00000000000E+00  0.00000000000E+00 -0.16405309068E+04  0.16405309068E+04  0.25500000920E-02 0.  1.
    10030    2    1    2    0    0  0.00000000000E+00  0.00000000000E+00  0.13008346421E+03  0.34111452779E+04  0.34086640197E+04 0.  0.
        2    1    3    3  502    0 -0.15815937564E+04 -0.30980426399E+03  0.61981889276E+03  0.17267289747E+04  0.25500000920E-02 0. -1.
       -2    1    3    3    0  502  0.15815937564E+04  0.30980426399E+03 -0.48973542856E+03  0.16844163032E+04  0.25500000920E-02 0.  1.
</event>
<event>
 5   0  0.1986613E-07  0.3358419E+04  0.7818609E-02  0.8148188E-01
        2   -1    0    0  501    0  0.00000000000E+00  0.00000000000E+00  0.27531317921E+04  0.27531317921E+04  0.25500000920E-02 0.  1.
       -2   -1    0    0    0  501  0.00000000000E+00  0.00000000000E+00 -0.10241953490E+04  0.10241953490E+04  0.25500000920E-02 0. -1.
    10030    2    1    2    0    0  0.00000000000E+00  0.00000000000E+00  0.17289364431E+04  0.37773271411E+04  0.33584191380E+04 0.  0.
        5    1    3    3  502    0  0.10549984080E+04 -0.26391710373E+03 -0.57459713103E+03  0.12299828582E+04  0.46999998093E+01 0. -1.
       -5    1    3    3    0  502 -0.10549984080E+04  0.26391710373E+03  0.23035335741E+04  0.25473442829E+04  0.46999998093E+01 0.  1.
</event>
<event>
 5   0  0.1986613E-07  0.3400842E+04  0.7818609E-02  0.8137700E-01
        2   -1    0    0  501    0  0.00000000000E+00  0.00000000000E+00  0.13285618749E+04  0.13285618749E+04  0.25500000920E-02 0.  1.
       -2   -1    0    0    0  501  0.00000000000E+00  0.00000000000E+00 -0.21763619435E+04  0.21763619435E+04  0.25500000920E-02 0. -1.
    10030    2    1    2    0    0  0.00000000000E+00  0.00000000000E+00 -0.84780006857E+03  0.35049238184E+04  0.34008419570E+04 0.  0.
        5    1    3    3  502    0  0.48452515696E+03  0.59977477037E+03  0.11380408606E+04  0.13746466794E+04  0.46999998093E+01 0.  1.
       -5    1    3    3    0  502 -0.48452515696E+03 -0.59977477037E+03 -0.19858409291E+04  0.21302771389E+04  0.46999998093E+01 0. -1.
</event>
<event>
 5   0  0.1897313E-07  0.3401190E+04  0.7818609E-02  0.8137614E-01
        2   -1    0    0  501    0  0.00000000000E+00  0.00000000000E+00  0.20211410539E+04  0.20211410539E+04  0.25500000920E-02 0.  1.
       -2   -1    0    0    0  501  0.00000000000E+00  0.00000000000E+00 -0.14308864040E+04  0.14308864040E+04  0.25500000920E-02 0. -1.
    10030    2    1    2    0    0  0.00000000000E+00  0.00000000000E+00  0.59025464996E+03  0.34520274579E+04  0.34011899415E+04 0.  0.
        3    1    3    3  502    0 -0.16247536087E+04  0.45199410435E+03  0.51725997812E+03  0.17639957071E+04  0.10100000352E+00 0. -1.
       -3    1    3    3    0  502  0.16247536087E+04 -0.45199410435E+03  0.72994671838E+02  0.16880317508E+04  0.10100000352E+00 0.  1.
</event>
<event>
 5   0  0.6341535E-08  0.3420742E+04  0.7818609E-02  0.8132834E-01
       -1   -1    0    0    0  501  0.00000000000E+00  0.00000000000E+00  0.14460528236E+04  0.14460528236E+04  0.50400001928E-02 0. -1.
        1   -1    0    0  501    0  0.00000000000E+00  0.00000000000E+00 -0.20230031802E+04  0.20230031803E+04  0.50400001928E-02 0.  1.
    10030    2    1    2    0    0  0.00000000000E+00  0.00000000000E+00 -0.57695035664E+03  0.34690560039E+04  0.34207422943E+04 0.  0.
        5    1    3    3  502    0  0.62072523584E+03 -0.71354668155E+03 -0.17336989055E+04  0.19748880145E+04  0.46999998093E+01 0.  1.
       -5    1    3    3    0  502 -0.62072523584E+03  0.71354668155E+03  0.11567485488E+04  0.14941679893E+04  0.46999998093E+01 0. -1.
</event>
<event>
 5   0  0.6584420E-08  0.3399540E+04  0.7818609E-02  0.8138019E-01
        1   -1    0    0  501    0  0.00000000000E+00  0.00000000000E+00  0.14572200721E+04  0.14572200721E+04  0.50400001928E-02 0. -1.
       -1   -1    0    0    0  501  0.00000000000E+00  0.00000000000E+00 -0.19826913555E+04  0.19826913555E+04  0.50400001928E-02 0.  1.
    10030    2    1    2    0    0  0.00000000000E+00  0.00000000000E+00 -0.52547128337E+03  0.34399114276E+04  0.33995397571E+04 0.  0.
        1    1    3    3  502    0  0.54937819211E+03 -0.10261767484E+04  0.99066850427E+03  0.15284891895E+04  0.50400001928E-02 0. -1.
       -1    1    3    3    0  502 -0.54937819211E+03  0.10261767484E+04 -0.15161397876E+04  0.19114222382E+04  0.50400001928E-02 0.  1.
</event>
<event>
 5   0  0.1897313E-07  0.3396109E+04  0.7818609E-02  0.8138862E-01
       -2   -1    0    0    0  501  0.00000000000E+00  0.00000000000E+00  0.15857574043E+04  0.15857574043E+04  0.25500000920E-02 0. -1.
        2   -1    0    0  501    0  0.00000000000E+00  0.00000000000E+00 -0.18183043305E+04  0.18183043305E+04  0.25500000920E-02 0.  1.
    10030    2    1    2    0    0  0.00000000000E+00  0.00000000000E+00 -0.23254692621E+03  0.34040617348E+04  0.33961092770E+04 0.  0.
        3    1    3    3  502    0  0.12271707256E+04  0.55711760261E+03  0.91913212231E+03  0.16312976067E+04  0.10100000352E+00 0. -1.
       -3    1    3    3    0  502 -0.12271707256E+04 -0.55711760261E+03 -0.11516790485E+04  0.17727641281E+04  0.10100000352E+00 0.  1.
</event>
<event>
 5   0  0.6788600E-08  0.3401609E+04  0.7818609E-02  0.8137511E-01
        1   -1    0    0  501    0  0.00000000000E+00  0.00000000000E+00  0.21630234956E+04  0.21630234956E+04  0.50400001928E-02 0. -1.
       -1   -1    0    0    0  501  0.00000000000E+00  0.00000000000E+00 -0.13373578386E+04  0.13373578386E+04  0.50400001928E-02 0.  1.
    10030    2    1    2    0    0  0.00000000000E+00  0.00000000000E+00  0.82566565703E+03  0.35003813341E+04  0.34016092820E+04 0.  0.
        2    1    3    3  502    0 -0.96399983147E+03  0.66930319566E+02  0.18531025665E+04  0.20899197268E+04  0.25500000920E-02 0. -1.
       -2    1    3    3    0  502  0.96399983147E+03 -0.66930319566E+02 -0.10274369095E+04  0.14104616073E+04  0.25500000920E-02 0.  1.
</event>
<event>
 5   0  0.1963852E-07  0.3442339E+04  0.7818609E-02  0.8127593E-01
        2   -1    0    0  501    0  0.00000000000E+00  0.00000000000E+00  0.25751622804E+04  0.25751622804E+04  0.25500000920E-02 0. -1.
       -2   -1    0    0    0  501  0.00000000000E+00  0.00000000000E+00 -0.11503834015E+04  0.11503834015E+04  0.25500000920E-02 0.  1.
    10030    2    1    2    0    0  0.00000000000E+00  0.00000000000E+00  0.14247788790E+04  0.37255456819E+04  0.34423387070E+04 0.  0.
        4    1    3    3  502    0  0.13131640187E+04  0.14849745080E+03  0.19058220999E+04  0.23191832015E+04  0.12699999809E+01 0. -1.
       -4    1    3    3    0  502 -0.13131640187E+04 -0.14849745080E+03 -0.48104322089E+03  0.14063624804E+04  0.12699999809E+01 0.  1.
</event>
<event>
 5   0  0.6311750E-08  0.3402385E+04  0.7818609E-02  0.8137321E-01
       -1   -1    0    0    0  501  0.00000000000E+00  0.00000000000E+00  0.13850758799E+04  0.13850758799E+04  0.50400001928E-02 0.  1.
        1   -1    0    0  501    0  0.00000000000E+00  0.00000000000E+00 -0.20894561421E+04  0.20894561421E+04  0.50400001928E-02 0. -1.
    10030    2    1    2    0    0  0.00000000000E+00  0.00000000000E+00 -0.70438026226E+03  0.34745320220E+04  0.34023846370E+04 0.  0.
        4    1    3    3  502    0  0.83684113838E+03  0.14766165537E+04 -0.47020075387E+03  0.17611899101E+04  0.12699999809E+01 0. -1.
       -4    1    3    3    0  502 -0.83684113838E+03 -0.14766165537E+04 -0.23417950839E+03  0.17133421120E+04  0.12699999809E+01 0.  1.
</event>
<event>
 5   0  0.1963852E-07  0.3399030E+04  0.7818609E-02  0.8138144E-01
        2   -1    0    0  501    0  0.00000000000E+00  0.00000000000E+00  0.23580117918E+04  0.23580117919E+04  0.25500000920E-02 0.  1.
       -2   -1    0    0    0  501  0.00000000000E+00  0.00000000000E+00 -0.12249097205E+04  0.12249097205E+04  0.25500000920E-02 0. -1.
    10030    2    1    2    0    0  0.00000000000E+00  0.00000000000E+00  0.11331020713E+04  0.35829215124E+04  0.33990301940E+04 0.  0.
        4    1    3    3  502    0  0.67355133474E+03 -0.10931250896E+03 -0.10741699022E+04  0.12725813203E+04  0.12699999809E+01 0. -1.
       -4    1    3    3    0  502 -0.67355133474E+03  0.10931250896E+03  0.22072719735E+04  0.23103401921E+04  0.12699999809E+01 0.  1.
</event>
<event>
 5   0  0.1970449E-07  0.3393254E+04  0.7818609E-02  0.8139564E-01
       -2   -1    0    0    0  501  0.00000000000E+00  0.00000000000E+00  0.20588241829E+04  0.20588241829E+04  0.25500000920E-02 0. -1.
        2   -1    0    0  501    0  0.00000000000E+00  0.00000000000E+00 -0.13981490094E+04  0.13981490094E+04  0.25500000920E-02 0.  1.
    10030    2    1    2    0    0  0.00000000000E+00  0.00000000000E+00  0.66067517352E+03  0.34569731924E+04  0.33932538909E+04 0.  0.
        1    1    3    3  502    0  0.17369086848E+03 -0.59585648234E+03 -0.12783417968E+04  0.14210458173E+04  0.50400001928E-02 0.  1.
       -1    1    3    3    0  502 -0.17369086848E+03  0.59585648234E+03  0.19390169703E+04  0.20359273751E+04  0.50400001928E-02 0. -1.
</event>
<event>
 5   0  0.1928004E-07  0.3403183E+04  0.7818609E-02  0.8137126E-01
       -2   -1    0    0    0  501  0.00000000000E+00  0.00000000000E+00  0.14125845772E+04  0.14125845772E+04  0.25500000920E-02 0. -1.
        2   -1    0    0  501    0  0.00000000000E+00  0.00000000000E+00 -0.20497272620E+04  0.20497272620E+04  0.25500000920E-02 0.  1.
    10030    2    1    2    0    0  0.00000000000E+00  0.00000000000E+00 -0.63714268481E+03  0.34623118392E+04  0.34031826973E+04 0.  0.
        2    1    3    3  502    0 -0.71549812205E+02 -0.34261515676E+03 -0.20127089892E+04  0.20429150733E+04  0.25500000920E-02 0.  1.
       -2    1    3    3    0  502  0.71549812205E+02  0.34261515676E+03  0.13755663044E+04  0.14193967660E+04  0.25500000920E-02 0. -1.
</event>
<event>
 5   0  0.6367111E-08  0.3404357E+04  0.7818609E-02  0.8136838E-01
        1   -1    0    0  501    0  0.00000000000E+00  0.00000000000E+00  0.25051660352E+04  0.25051660353E+04  0.50400001928E-02 0. -1.
       -1   -1    0    0    0  501  0.00000000000E+00  0.00000000000E+00 -0.11565747758E+04  0.11565747759E+04  0.50400001928E-02 0.  1.
    10030    2    1    2    0    0  0.00000000000E+00  0.00000000000E+00  0.13485912594E+04  0.36617408111E+04  0.34043571174E+04 0.  0.
        3    1    3    3  502    0  0.15650554175E+04 -0.60856992158E+03  0.37455882683E+03  0.17204796233E+04  0.10100000352E+00 0.  1.
       -3    1    3    3    0  502 -0.15650554175E+04  0.60856992158E+03  0.97403243258E+03  0.19412611878E+04  0.10100000352E+00 0. -1.
</event>
<event>
 5   0  0.6584420E-08  0.3399394E+04  0.7818609E-02  0.8138055E-01
       -1   -1    0    0    0  501  0.00000000000E+00  0.00000000000E+00  0.12948175503E+04  0.12948175503E+04  0.50400001928E-02 0. -1.
        1   -1    0    0  501    0  0.00000000000E+00  0.00000000000E+00 -0.22311797776E+04  0.22311797776E+04  0.50400001928E-02 0.  1.
    10030    2    1    2    0    0  0.00000000000E+00  0.00000000000E+00 -0.93636222728E+03  0.35259973279E+04  0.33993944954E+04 0.  0.
        1    1    3    3  502    0 -0.40662626797E+03 -0.14084600375E+04 -0.13603703647E+04  0.19999280307E+04  0.50400001928E-02 0. -1.
       -1    1    3    3    0  502  0.40662626797E+03  0.14084600375E+04  0.42400813742E+03  0.15260692971E+04  0.50400001928E-02 0.  1.
</event>
<event>
 5   0  0.6788600E-08  0.3382596E+04  0.7818609E-02  0.8142191E-01
       -1   -1    0    0    0  501  0.00000000000E+00  0.00000000000E+00  0.15794400758E+04  0.15794400758E+04  0.50400001928E-02 0. -1.
        1   -1    0    0  501    0  0.00000000000E+00  0.00000000000E+00 -0.18110777710E+04  0.18110777710E+04  0.50400001928E-02 0.  1.
    10030    2    1    2    0    0  0.00000000000E+00  0.00000000000E+00 -0.23163769520E+03  0.33905178468E+04  0.33825959333E+04 0.  0.
        2    1    3    3  502    0  0.46497384275E+03 -0.10036159091E+04  0.11666475308E+04  0.16076417600E+04  0.25500000920E-02 0. -1.
       -2    1    3    3    0  502 -0.46497384275E+03  0.10036159091E+04 -0.13982852260E+04  0.17828760868E+04  0.25500000920E-02 0.  1.
</event>
<event>
 5   0  0.1928004E-07  0.3377054E+04  0.7818609E-02  0.8143561E-01
        2   -1    0    0  501    0  0.00000000000E+00  0.00000000000E+00  0.22840621334E+04  0.22840621334E+04  0.25500000920E-02 0.  1.
       -2   -1    0    0    0  501  0.00000000000E+00  0.00000000000E+00 -0.12482687409E+04  0.12482687409E+04  0.25500000920E-02 0. -1.
    10030    2    1    2    0    0  0.00000000000E+00  0.00000000000E+00  0.10357933924E+04  0.35323308743E+04  0.33770539608E+04 0.  0.
        2    1    3    3  502    0 -0.12632481972E+04 -0.24545404381E+03 -0.62556548691E+03  0.14308654282E+04  0.25500000920E-02 0. -1.
       -2    1    3    3    0  502  0.12632481972E+04  0.24545404381E+03  0.16613588793E+04  0.21014654461E+04  0.25500000920E-02 0.  1.
</event>
<event>
 5   0  0.1986613E-07  0.3394972E+04  0.7818609E-02  0.8139142E-01
        2   -1    0    0  501    0  0.00000000000E+00  0.00000000000E+00  0.21152185357E+04  0.21152185357E+04  0.25500000920E-02 0.  1.
       -2   -1    0    0    0  501  0.00000000000E+00  0.00000000000E+00 -0.13622508555E+04  0.13622508555E+04  0.25500000920E-02 0. -1.
    10030    2    1    2    0    0  0.00000000000E+00  0.00000000000E+00  0.75296768018E+03  0.34774693912E+04  0.33949717288E+04 0.  0.
        5    1    3    3  502    0 -0.33210572285E+03 -0.13446676709E+04 -0.62869360686E+03  0.15210861572E+04  0.46999998093E+01 0. -1.
       -5    1    3    3    0  502  0.33210572285E+03  0.13446676709E+04  0.13816612870E+04  0.19563832340E+04  0.46999998093E+01 0.  1.
</event>
<event>
 5   0  0.6584420E-08  0.3399872E+04  0.7818609E-02  0.8137938E-01
        1   -1    0    0  501    0  0.00000000000E+00  0.00000000000E+00  0.14511661020E+04  0.14511661020E+04  0.50400001928E-02 0.  1.
       -1   -1    0    0    0  501  0.00000000000E+00  0.00000000000E+00 -0.19913518732E+04  0.19913518732E+04  0.50400001928E-02 0. -1.
    10030    2    1    2    0    0  0.00000000000E+00  0.00000000000E+00 -0.54018577127E+03  0.34425179752E+04  0.33998719597E+04 0.  0.
        1    1    3    3  502    0 -0.65443942280E+03  0.93760134045E+03 -0.15438045329E+04  0.19211245841E+04  0.50400001928E-02 0. -1.
       -1    1    3    3    0  502  0.65443942280E+03 -0.93760134045E+03  0.10036187617E+04  0.15213933911E+04  0.50400001928E-02 0.  1.
</event>
<event>
 5   0  0.1970449E-07  0.3381271E+04  0.7818609E-02  0.8142518E-01
        2   -1    0    0  501    0  0.00000000000E+00  0.00000000000E+00  0.17118669560E+04  0.17118669560E+04  0.25500000920E-02 0.  1.
       -2   -1    0    0    0  501  0.00000000000E+00  0.00000000000E+00 -0.16696676694E+04  0.16696676694E+04  0.25500000920E-02 0. -1.
    10030    2    1    2    0    0  0.00000000000E+00  0.00000000000E+00  0.42199286528E+02  0.33815346254E+04  0.33812713057E+04 0.  0.
        1    1    3    3  502    0 -0.10241631087E+04  0.11100705845E+04 -0.73861873875E+03  0.16812865363E+04  0.50400001928E-02 0. -1.
       -1    1    3    3    0  502  0.10241631087E+04 -0.11100705845E+04  0.78081802528E+03  0.17002480891E+04  0.50400001928E-02 0.  1.
</event>
<event>
 5   0  0.6584420E-08  0.3403413E+04  0.7818609E-02  0.8137069E-01
        1   -1    0    0  501    0  0.00000000000E+00  0.00000000000E+00  0.20277624488E+04  0.20277624488E+04  0.50400001928E-02 0.  1.
       -1   -1    0    0    0  501  0.00000000000E+00  0.00000000000E+00 -0.14280787089E+04  0.14280787089E+04  0.50400001928E-02 0. -1.
    10030    2    1    2    0    0  0.00000000000E+00  0.00000000000E+00  0.59968373986E+03  0.34558411577E+04  0.34034126284E+04 0.  0.
        1    1    3    3  502    0 -0.60946998611E+03  0.55707671131E+03  0.18107204668E+04  0.19900996797E+04  0.50400001928E-02 0.  1.
       -1    1    3    3    0  502  0.60946998611E+03 -0.55707671131E+03 -0.12110367269E+04  0.14657414780E+04  0.50400001928E-02 0. -1.
</event>
<event>
 5   0  0.1986613E-07  0.3396723E+04  0.7818609E-02  0.8138711E-01
       -2   -1    0    0    0  501  0.00000000000E+00  0.00000000000E+00  0.16699499981E+04  0.16699499981E+04  0.25500000920E-02 0. -1.
        2   -1    0    0  501    0  0.00000000000E+00  0.00000000000E+00 -0.17272562103E+04  0.17272562103E+04  0.25500000920E-02 0.  1.
    10030    2    1    2    0    0  0.00000000000E+00  0.00000000000E+00 -0.57306212227E+02  0.33972062084E+04  0.33967228354E+04 0.  0.
        5    1    3    3  502    0  0.72547109584E+03  0.10131526737E+04 -0.11827769236E+04  0.17180715911E+04  0.46999998093E+01 0.  1.
       -5    1    3    3    0  502 -0.72547109584E+03 -0.10131526737E+04  0.11254707113E+04  0.16791346173E+04  0.46999998093E+01 0. -1.
</event>
<event>
 5   0  0.1963852E-07  0.3402043E+04  0.7818609E-02  0.8137405E-01
       -2   -1    0    0    0  501  0.00000000000E+00  0.00000000000E+00  0.15447596366E+04  0.15447596366E+04  0.25500000920E-02 0.  1.
        2   -1    0    0  501    0  0.00000000000E+00  0.00000000000E+00 -0.18730899851E+04  0.18730899851E+04  0.25500000920E-02 0. -1.
    10030    2    1    2    0    0  0.00000000000E+00  0.00000000000E+00 -0.32833034847E+03  0.34178496218E+04  0.34020428009E+04 0.  0.
        4    1    3    3  502    0  0.97407247949E+03  0.88463482164E+03  0.91883988731E+03  0.16048876329E+04  0.12699999809E+01 0.  1.
       -4    1    3    3    0  502 -0.97407247949E+03 -0.88463482164E+03 -0.12471702358E+04  0.18129619888E+04  0.12699999809E+01 0. -1.
</event>
<event>
 5   0  0.1986613E-07  0.3396083E+04  0.7818609E-02  0.8138868E-01
       -2   -1    0    0    0  501  0.00000000000E+00  0.00000000000E+00  0.98361842437E+03  0.98361842438E+03  0.25500000920E-02 0.  1.
        2   -1    0    0  501    0  0.00000000000E+00  0.00000000000E+00 -0.29313644557E+04  0.29313644557E+04  0.25500000920E-02 0. -1.
    10030    2    1    2    0    0  0.00000000000E+00  0.00000000000E+00 -0.19477460313E+04  0.39149828801E+04  0.33960825003E+04 0.  0.
        5    1    3    3  502    0 -0.83636248409E+03 -0.84392429124E+03  0.42458114084E+03  0.12617454772E+04  0.46999998093E+01 0.  1.
       -5    1    3    3    0  502  0.83636248409E+03  0.84392429124E+03 -0.23723271722E+04  0.26532374029E+04  0.46999998093E+01 0. -1.
</event>
<event>
 5   0  0.1986613E-07  0.3399523E+04  0.7818609E-02  0.8138023E-01
       -2   -1    0    0    0  501  0.00000000000E+00  0.00000000000E+00  0.12438635394E+04  0.12438635394E+04  0.25500000920E-02 0.  1.
        2   -1    0    0  501    0  0.00000000000E+00  0.00000000000E+00 -0.23227541266E+04  0.23227541266E+04  0.25500000920E-02 0. -1.
    10030    2    1    2    0    0  0.00000000000E+00  0.00000000000E+00 -0.10788905872E+04  0.35666176660E+04  0.33995230072E+04 0.  0.
        5    1    3    3  502    0  0.49544972561E+03  0.16120172230E+04 -0.76224416261E+03  0.18507047877E+04  0.46999998093E+01 0. -1.
       -5    1    3    3    0  502 -0.49544972561E+03 -0.16120172230E+04 -0.31664642463E+03  0.17159128783E+04  0.46999998093E+01 0.  1.
</event>
<event>
 5   0  0.6311750E-08  0.3402318E+04  0.7818609E-02  0.8137338E-01
        4   -1    0    0  501    0  0.00000000000E+00  0.00000000000E+00  0.13736915256E+04  0.13736921127E+04  0.12699999809E+01 0.  1.
       -4   -1    0    0    0  501  0.00000000000E+00  0.00000000000E+00 -0.21066884469E+04  0.21066888297E+04  0.12699999809E+01 0. -1.
    10030    2    1    2    0    0  0.00000000000E+00  0.00000000000E+00 -0.73299692127E+03  0.34803809424E+04  0.34023178890E+04 0.  0.
        4    1    3    3  502    0  0.74289431937E+03 -0.11255552420E+04 -0.14271950761E+04  0.19635819236E+04  0.12699999809E+01 0. -1.
       -4    1    3    3    0  502 -0.74289431937E+03  0.11255552420E+04  0.69419815479E+03  0.15167990188E+04  0.12699999809E+01 0.  1.
</event>
<event>
 5   0  0.1970449E-07  0.3403676E+04  0.7818609E-02  0.8137005E-01
        2   -1    0    0  501    0  0.00000000000E+00  0.00000000000E+00  0.88828297883E+03  0.88828297884E+03  0.25500000920E-02 0.  1.
       -2   -1    0    0    0  501  0.00000000000E+00  0.00000000000E+00 -0.32605072887E+04  0.32605072887E+04  0.25500000920E-02 0. -1.
    10030    2    1    2    0    0  0.00000000000E+00  0.00000000000E+00 -0.23722243099E+04  0.41487902675E+04  0.34036763224E+04 0.  0.
        1    1    3    3  502    0  0.11707342477E+04 -0.23368833634E+03 -0.26644821423E+04  0.29197078627E+04  0.50400001928E-02 0.  1.
       -1    1    3    3    0  502 -0.11707342477E+04  0.23368833634E+03  0.29225783240E+03  0.12290824048E+04  0.50400001928E-02 0. -1.
</event>
<event>
 5   0  0.6788600E-08  0.3400586E+04  0.7818609E-02  0.8137762E-01
       -1   -1    0    0    0  501  0.00000000000E+00  0.00000000000E+00  0.23467951206E+04  0.23467951207E+04  0.50400001928E-02 0.  1.
        1   -1    0    0  501    0  0.00000000000E+00  0.00000000000E+00 -0.12318912438E+04  0.12318912438E+04  0.50400001928E-02 0. -1.
    10030    2    1    2    0    0  0.00000000000E+00  0.00000000000E+00  0.11149038769E+04  0.35786863645E+04  0.34005860437E+04 0.  0.
        2    1    3    3  502    0  0.24801959998E+03 -0.11543016184E+04 -0.73017775730E+03  0.13881950531E+04  0.25500000920E-02 0. -1.
       -2    1    3    3    0  502 -0.24801959998E+03  0.11543016184E+04  0.18450816342E+04  0.21904913113E+04  0.25500000920E-02 0.  1.
</event>
<event>
 5   0  0.1963852E-07  0.3401872E+04  0.7818609E-02  0.8137447E-01
        2   -1    0    0  501    0  0.00000000000E+00  0.00000000000E+00  0.26696900577E+04  0.26696900577E+04  0.25500000920E-02 0. -1.
       -2   -1    0    0    0  501  0.00000000000E+00  0.00000000000E+00 -0.10837153059E+04  0.10837153059E+04  0.25500000920E-02 0.  1.
    10030    2    1    2    0    0  0.00000000000E+00  0.00000000000E+00  0.15859747518E+04  0.37534053635E+04  0.34018724123E+04 0.  0.
        4    1    3    3  502    0 -0.56739982520E+03 -0.11321951154E+04 -0.45985636363E+03  0.13473224666E+04  0.12699999809E+01 0.  1.
       -4    1    3    3    0  502  0.56739982520E+03  0.11321951154E+04  0.20458311154E+04  0.24060828969E+04  0.12699999809E+01 0. -1.
</event>
<event>
 5   0  0.6367111E-08  0.3430060E+04  0.7818609E-02  0.8130568E-01
       -1   -1    0    0    0  501  0.00000000000E+00  0.00000000000E+00  0.19544482820E+04  0.19544482820E+04  0.50400001928E-02 0.  1.
        1   -1    0    0  501    0  0.00000000000E+00  0.00000000000E+00 -0.15049403605E+04  0.15049403605E+04  0.50400001928E-02 0. -1.
    10030    2    1    2    0    0  0.00000000000E+00  0.00000000000E+00  0.44950792156E+03  0.34593886425E+04  0.34300601173E+04 0.  0.
        3    1    3    3  502    0  0.67728807619E+03  0.54422864686E+03 -0.12665453930E+04  0.15359170553E+04  0.10100000352E+00 0. -1.
       -3    1    3    3    0  502 -0.67728807619E+03 -0.54422864686E+03  0.17160533145E+04  0.19234715872E+04  0.10100000352E+00 0.  1.
</event>
<event>
 5   0  0.1897313E-07  0.3392374E+04  0.7818609E-02  0.8139781E-01
       -2   -1    0    0    0  501  0.00000000000E+00  0.00000000000E+00  0.13369601172E+04  0.13369601172E+04  0.25500000920E-02 0.  1.
        2   -1    0    0  501    0  0.00000000000E+00  0.00000000000E+00 -0.21519339990E+04  0.21519339990E+04  0.25500000920E-02 0. -1.
    10030    2    1    2    0    0  0.00000000000E+00  0.00000000000E+00 -0.81497388182E+03  0.34888941162E+04  0.33923737598E+04 0.  0.
        3    1    3    3  502    0  0.12613462964E+04  0.11030293125E+04 -0.67838556889E+03  0.18077265097E+04  0.10100000352E+00 0. -1.
       -3    1    3    3    0  502 -0.12613462964E+04 -0.11030293125E+04 -0.13658831293E+03  0.16811676065E+04  0.10100000352E+00 0.  1.
</event>
<event>
 5   0  0.6311750E-08  0.3401432E+04  0.7818609E-02  0.8137555E-01
       -1   -1    0    0    0  501  0.00000000000E+00  0.00000000000E+00  0.15787942132E+04  0.15787942132E+04  0.50400001928E-02 0. -1.
        1   -1    0    0  501    0  0.00000000000E+00  0.00000000000E+00 -0.18320529386E+04  0.18320529386E+04  0.50400001928E-02 0.  1.
    10030    2    1    2    0    0  0.00000000000E+00  0.00000000000E+00 -0.25325872539E+03  0.34108471518E+04  0.34014318031E+04 0.  0.
        4    1    3    3  502    0  0.45890224838E+03 -0.12802088610E+04  0.89742561680E+03  0.16293864956E+04  0.12699999809E+01 0.  1.
       -4    1    3    3    0  502 -0.45890224838E+03  0.12802088610E+04 -0.11506843422E+04  0.17814606562E+04  0.12699999809E+01 0. -1.
</event>
<event>
 5   0  0.1970449E-07  0.3294088E+04  0.7818609E-02  0.8164401E-01
        2   -1    0    0  501    0  0.00000000000E+00  0.00000000000E+00  0.18676772036E+04  0.18676772036E+04  0.25500000920E-02 0.  1.
       -2   -1    0    0    0  501  0.00000000000E+00  0.00000000000E+00 -0.14524748138E+04  0.14524748138E+04  0.25500000920E-02 0. -1.
    10030    2    1    2    0    0  0.00000000000E+00  0.00000000000E+00  0.41520238987E+03  0.33201520174E+04  0.32940880975E+04 0.  0.
        1    1    3    3  502    0 -0.67923359409E+03  0.11292019049E+04  0.12034975776E+04  0.17846180646E+04  0.50400001928E-02 0.  1.
       -1    1    3    3    0  502  0.67923359409E+03 -0.11292019049E+04 -0.78829518768E+03  0.15355339528E+04  0.50400001928E-02 0. -1.
</event>
<event>
 5   0  0.6341535E-08  0.3400881E+04  0.7818609E-02  0.8137690E-01
        1   -1    0    0  501    0  0.00000000000E+00  0.00000000000E+00  0.19330705888E+04  0.19330705888E+04  0.50400001928E-02 0. -1.
       -1   -1    0    0    0  501  0.00000000000E+00  0.00000000000E+00 -0.14958053482E+04  0.14958053482E+04  0.50400001928E-02 0.  1.
    10030    2    1    2    0    0  0.00000000000E+00  0.00000000000E+00  0.43726524058E+03  0.34288759370E+04  0.34008806655E+04 0.  0.
        5    1    3    3  502    0  0.85092558586E+03 -0.62624244462E+03 -0.11247094831E+04  0.15431291143E+04  0.46999998093E+01 0.  1.
       -5    1    3    3    0  502 -0.85092558586E+03  0.62624244462E+03  0.15619747236E+04  0.18857468227E+04  0.46999998093E+01 0. -1.
</event>
<event>
 5   0  0.6311750E-08  0.3393994E+04  0.7818609E-02  0.8139382E-01
        1   -1    0    0  501    0  0.00000000000E+00  0.00000000000E+00  0.21347973301E+04  0.21347973301E+04  0.50400001928E-02 0. -1.
       -1   -1    0    0    0  501  0.00000000000E+00  0.00000000000E+00 -0.13489801410E+04  0.13489801410E+04  0.50400001928E-02 0.  1.
    10030    2    1    2    0    0  0.00000000000E+00  0.00000000000E+00  0.78581718908E+03  0.34837774711E+04  0.33939942271E+04 0.  0.
        4    1    3    3  502    0  0.70466268051E+03 -0.31137092532E+03  0.19449580597E+04  0.20919762937E+04  0.12699999809E+01 0. -1.
       -4    1    3    3    0  502 -0.70466268051E+03  0.31137092532E+03 -0.11591408706E+04  0.13918011774E+04  0.12699999809E+01 0.  1.
</event>
<event>
 5   0  0.1897313E-07  0.3403157E+04  0.7818609E-02  0.8137132E-01
        2   -1    0    0  501    0  0.00000000000E+00  0.00000000000E+00  0.24348312408E+04  0.24348312408E+04  0.25500000920E-02 0. -1.
       -2   -1    0    0    0  501  0.00000000000E+00  0.00000000000E+00 -0.11891460951E+04  0.11891460951E+04  0.25500000920E-02 0.  1.
    10030    2    1    2    0    0  0.00000000000E+00  0.00000000000E+00  0.12456851457E+04  0.36239773359E+04  0.34031573940E+04 0.  0.
        3    1    3    3  502    0  0.16906615793E+04  0.40648604300E+02  0.42253862223E+03  0.17431373389E+04  0.10100000352E+00 0.  1.
       -3    1    3    3    0  502 -0.16906615793E+04 -0.40648604300E+02  0.82314652345E+03  0.18808399969E+04  0.10100000352E+00 0. -1.
</event>
<event>
 5   0  0.6341535E-08  0.3401493E+04  0.7818609E-02  0.8137540E-01
        1   -1    0    0  501    0  0.00000000000E+00  0.00000000000E+00  0.19828836603E+04  0.19828836603E+04  0.50400001928E-02 0. -1.
       -1   -1    0    0    0  501  0.00000000000E+00  0.00000000000E+00 -0.14587536892E+04  0.14587536892E+04  0.50400001928E-02 0.  1.
    10030    2    1    2    0    0  0.00000000000E+00  0.00000000000E+00  0.52412997106E+03  0.34416373495E+04  0.34014931161E+04 0.  0.
        5    1    3    3  502    0 -0.47052058004E+03 -0.80027740760E+03 -0.11797734544E+04  0.15012398339E+04  0.46999998093E+01 0.  1.
       -5    1    3    3    0  502  0.47052058004E+03  0.80027740760E+03  0.17039034254E+04  0.19403975156E+04  0.46999998093E+01 0. -1.
</event>
<event>
 5   0  0.6367111E-08  0.3385868E+04  0.7818609E-02  0.8141383E-01
       -1   -1    0    0    0  501  0.00000000000E+00  0.00000000000E+00  0.94047375830E+03  0.94047375831E+03  0.50400001928E-02 0. -1.
        1   -1    0    0  501    0  0.00000000000E+00  0.00000000000E+00 -0.30474280606E+04  0.30474280606E+04  0.50400001928E-02 0.  1.
    10030    2    1    2    0    0  0.00000000000E+00  0.00000000000E+00 -0.21069543023E+04  0.39879018189E+04  0.33858683502E+04 0.  0.
        3    1    3    3  502    0 -0.37299333185E+03 -0.10917102698E+04 -0.25127570195E+04  0.27649418055E+04  0.10100000352E+00 0.  1.
       -3    1    3    3    0  502  0.37299333185E+03  0.10917102698E+04  0.40580271721E+03  0.12229600134E+04  0.10100000352E+00 0. -1.
</event>
<event>
 5   0  0.6788600E-08  0.3373725E+04  0.7818609E-02  0.8144385E-01
       -1   -1    0    0    0  501  0.00000000000E+00  0.00000000000E+00  0.13440611205E+04  0.13440611205E+04  0.50400001928E-02 0.  1.
        1   -1    0    0  501    0  0.00000000000E+00  0.00000000000E+00 -0.21170946115E+04  0.21170946115E+04  0.50400001928E-02 0. -1.
    10030    2    1    2    0    0  0.00000000000E+00  0.00000000000E+00 -0.77303349098E+03  0.34611557321E+04  0.33737246810E+04 0.  0.
        2    1    3    3  502    0 -0.19154894400E+03  0.40782614811E+03 -0.20542181431E+04  0.21030514364E+04  0.25500000920E-02 0. -1.
       -2    1    3    3    0  502  0.19154894400E+03 -0.40782614811E+03  0.12811846521E+04  0.13581042956E+04  0.25500000920E-02 0.  1.
</event>
<event>
 5   0  0.1928004E-07  0.3395339E+04  0.7818609E-02  0.8139051E-01
       -2   -1    0    0    0  501  0.00000000000E+00  0.00000000000E+00  0.10510863961E+04  0.10510863961E+04  0.25500000920E-02 0.  1.
        2   -1    0    0  501    0  0.00000000000E+00  0.00000000000E+00 -0.27420028460E+04  0.27420028460E+04  0.25500000920E-02 0. -1.
    10030    2    1    2    0    0  0.00000000000E+00  0.00000000000E+00 -0.16909164498E+04  0.37930892421E+04  0.33953390933E+04 0.  0.
        2    1    3    3  502    0  0.86214727514E+03 -0.74625925297E+02 -0.24771090121E+04  0.26239161592E+04  0.25500000920E-02 0. -1.
       -2    1    3    3    0  502 -0.86214727514E+03  0.74625925297E+02  0.78619256229E+03  0.11691730829E+04  0.25500000920E-02 0.  1.
</event>
<event>
 5   0  0.6311750E-08  0.3400403E+04  0.7818609E-02  0.8137807E-01
       -1   -1    0    0    0  501  0.00000000000E+00  0.00000000000E+00  0.12522714671E+04  0.12522714671E+04  0.50400001928E-02 0.  1.
        1   -1    0    0  501    0  0.00000000000E+00  0.00000000000E+00 -0.23083529828E+04  0.23083529828E+04  0.50400001928E-02 0. -1.
    10030    2    1    2    0    0  0.00000000000E+00  0.00000000000E+00 -0.10560815157E+04  0.35606244499E+04  0.34004026681E+04 0.  0.
        4    1    3    3  502    0  0.15051590751E+04  0.76839415832E+03 -0.72323650386E+03  0.18382072999E+04  0.12699999809E+01 0. -1.
       -4    1    3    3    0  502 -0.15051590751E+04 -0.76839415832E+03 -0.33284501183E+03  0.17224171500E+04  0.12699999809E+01 0.  1.
</event>
<event>
 5   0  0.6788600E-08  0.3399658E+04  0.7818609E-02  0.8137990E-01
       -1   -1    0    0    0  501  0.00000000000E+00  0.00000000000E+00  0.21702550840E+04  0.21702550840E+04  0.50400001928E-02 0.  1.
        1   -1    0    0  501    0  0.00000000000E+00  0.00000000000E+00 -0.13313725680E+04  0.13313725680E+04  0.50400001928E-02 0. -1.
    10030    2    1    2    0    0  0.00000000000E+00  0.00000000000E+00  0.83888251602E+03  0.35016276519E+04  0.33996576794E+04 0.  0.
        2    1    3    3  502    0 -0.13554187020E+04  0.84328318961E+03 -0.18214208982E+03  0.16066929192E+04  0.25500000920E-02 0. -1.
       -2    1    3    3    0  502  0.13554187020E+04 -0.84328318961E+03  0.10210246058E+04  0.18949347328E+04  0.25500000920E-02 0.  1.
</event>
<event>
 5   0  0.6367111E-08  0.3411087E+04  0.7818609E-02  0.8135191E-01
       -1   -1    0    0    0  501  0.00000000000E+00  0.00000000000E+00  0.14616874726E+04  0.14616874726E+04  0.50400001928E-02 0. -1.
        1   -1    0    0  501    0  0.00000000000E+00  0.00000000000E+00 -0.19900821376E+04  0.19900821376E+04  0.50400001928E-02 0.  1.
    10030    2    1    2    0    0  0.00000000000E+00  0.00000000000E+00 -0.52839466495E+03  0.34517696102E+04  0.34110867066E+04 0.  0.
        3    1    3    3  502    0 -0.16172254822E+04  0.53620870948E+03 -0.34218845434E+03  0.17378236357E+04  0.10100000352E+00 0. -1.
       -3    1    3    3    0  502  0.16172254822E+04 -0.53620870948E+03 -0.18620621061E+03  0.17139459745E+04  0.10100000352E+00 0.  1.
</event>
<event>
 5   0  0.1970449E-07  0.3402010E+04  0.7818609E-02  0.8137413E-01
       -2   -1    0    0    0  501  0.00000000000E+00  0.00000000000E+00  0.12233107288E+04  0.12233107288E+04  0.25500000920E-02 0.  1.
        2   -1    0    0  501    0  0.00000000000E+00  0.00000000000E+00 -0.23652352842E+04  0.23652352842E+04  0.25500000920E-02 0. -1.
    10030    2    1    2    0    0  0.00000000000E+00  0.00000000000E+00 -0.11419245554E+04  0.35885460130E+04  0.34020098173E+04 0.  0.
        1    1    3    3  502    0 -0.22181545174E+03  0.97644019016E+03  0.87949010208E+03  0.13327191674E+04  0.50400001928E-02 0.  1.
       -1    1    3    3    0  502  0.22181545174E+03 -0.97644019016E+03 -0.20214146575E+04  0.22558268455E+04  0.50400001928E-02 0. -1.
</event>
<event>
 5   0  0.1963852E-07  0.3401069E+04  0.7818609E-02  0.8137644E-01
       -2   -1    0    0    0  501  0.00000000000E+00  0.00000000000E+00  0.24981318823E+04  0.24981318823E+04  0.25500000920E-02 0.  1.
        2   -1    0    0  501    0  0.00000000000E+00  0.00000000000E+00 -0.11575919803E+04  0.11575919803E+04  0.25500000920E-02 0. -1.
    10030    2    1    2    0    0  0.00000000000E+00  0.00000000000E+00  0.13405399020E+04  0.36557238627E+04  0.34010689101E+04 0.  0.
        4    1    3    3  502    0  0.15325116231E+04  0.34787059588E+03 -0.28158956983E+02  0.15717507328E+04  0.12699999809E+01 0. -1.
       -4    1    3    3    0  502 -0.15325116231E+04 -0.34787059588E+03  0.13686988590E+04  0.20839731298E+04  0.12699999809E+01 0.  1.
</event>
<event>
 5   0  0.6584420E-08  0.3396619E+04  0.7818609E-02  0.8138737E-01
       -1   -1    0    0    0  501  0.00000000000E+00  0.00000000000E+00  0.12468472057E+04  0.12468472057E+04  0.50400001928E-02 0.  1.
        1   -1    0    0  501    0  0.00000000000E+00  0.00000000000E+00 -0.23132390716E+04  0.23132390716E+04  0.50400001928E-02 0. -1.
    10030    2    1    2    0    0  0.00000000000E+00  0.00000000000E+00 -0.10663918659E+04  0.35600862773E+04  0.33966193031E+04 0.  0.
        1    1    3    3  502    0  0.40597985105E+03  0.13738757143E+04 -0.14891777184E+04  0.20663988954E+04  0.50400001928E-02 0. -1.
       -1    1    3    3    0  502 -0.40597985105E+03 -0.13738757143E+04  0.42278585248E+03  0.14936873819E+04  0.50400001928E-02 0.  1.
</event>
<event>
 5   0  0.1970449E-07  0.3393543E+04  0.7818609E-02  0.8139493E-01
       -2   -1    0    0    0  501  0.00000000000E+00  0.00000000000E+00  0.20749058955E+04  0.20749058955E+04  0.25500000920E-02 0.  1.
        2   -1    0    0  501    0  0.00000000000E+00  0.00000000000E+00 -0.13875486468E+04  0.13875486468E+04  0.25500000920E-02 0. -1.
    10030    2    1    2    0    0  0.00000000000E+00  0.00000000000E+00  0.68735724868E+03  0.34624545423E+04  0.33935426136E+04 0.  0.
        1    1    3    3  502    0 -0.64707211339E+03 -0.45528164097E+03  0.18751754770E+04  0.20352559451E+04  0.50400001928E-02 0.  1.
       -1    1    3    3    0  502  0.64707211339E+03  0.45528164097E+03 -0.11878182283E+04  0.14271985973E+04  0.50400001928E-02 0. -1.
</event>
<event>
 5   0  0.1963852E-07  0.3402363E+04  0.7818609E-02  0.8137327E-01
        2   -1    0    0  501    0  0.00000000000E+00  0.00000000000E+00  0.17447416461E+04  0.17447416462E+04  0.25500000920E-02 0.  1.
       -2   -1    0    0    0  501  0.00000000000E+00  0.00000000000E+00 -0.16587090570E+04  0.16587090570E+04  0.25500000920E-02 0. -1.
    10030    2    1    2    0    0  0.00000000000E+00  0.00000000000E+00  0.86032589132E+02  0.34034507032E+04  0.34023631615E+04 0.  0.
        4    1    3    3  502    0 -0.31196642809E+03 -0.78799236628E+03  0.15185342690E+04  0.17390235653E+04  0.12699999809E+01 0.  1.
       -4    1    3    3    0  502  0.31196642809E+03  0.78799236628E+03 -0.14325016799E+04  0.16644271379E+04  0.12699999809E+01 0. -1.
</event>
<event>
 5   0  0.1986613E-07  0.3399932E+04  0.7818609E-02  0.8137923E-01
        2   -1    0    0  501    0  0.00000000000E+00  0.00000000000E+00  0.15092542185E+04  0.15092542185E+04  0.25500000920E-02 0.  1.
       -2   -1    0    0    0  501  0.00000000000E+00  0.00000000000E+00 -0.19147769573E+04  0.19147769573E+04  0.25500000920E-02 0. -1.
    10030    2    1    2    0    0  0.00000000000E+00  0.00000000000E+00 -0.40552273886E+03  0.34240311758E+04  0.33999324701E+04 0.  0.
        5    1    3    3  502    0  0.12684611737E+04 -0.11232572952E+04 -0.63351833523E+02  0.16955047170E+04  0.46999998093E+01 0.  1.
       -5    1    3    3    0  502 -0.12684611737E+04  0.11232572952E+04 -0.34217090533E+03  0.17285264588E+04  0.46999998093E+01 0. -1.
</event>
<event>
 5   0  0.1970449E-07  0.3397263E+04  0.7818609E-02  0.8138578E-01
       -2   -1    0    0    0  501  0.00000000000E+00  0.00000000000E+00  0.17431100847E+04  0.17431100847E+04  0.25500000920E-02 0. -1.
        2   -1    0    0  501    0  0.00000000000E+00  0.00000000000E+00 -0.16552882732E+04  0.16552882732E+04  0.25500000920E-02 0.  1.
    10030    2    1    2    0    0  0.00000000000E+00  0.00000000000E+00  0.87821811550E+02  0.33983983579E+04  0.33972634175E+04 0.  0.
        1    1    3    3  502    0  0.62574848644E+02 -0.28245712678E+03  0.17182837070E+04  0.17424685185E+04  0.50400001928E-02 0. -1.
       -1    1    3    3    0  502 -0.62574848644E+02  0.28245712678E+03 -0.16304618955E+04  0.16559298393E+04  0.50400001928E-02 0.  1.
</event>
<event>
 5   0  0.1986613E-07  0.3396289E+04  0.7818609E-02  0.8138818E-01
        2   -1    0    0  501    0  0.00000000000E+00  0.00000000000E+00  0.20871244599E+04  0.20871244599E+04  0.25500000920E-02 0.  1.
       -2   -1    0    0    0  501  0.00000000000E+00  0.00000000000E+00 -0.13816595651E+04  0.13816595651E+04  0.25500000920E-02 0. -1.
    10030    2    1    2    0    0  0.00000000000E+00  0.00000000000E+00  0.70546489479E+03  0.34687840249E+04  0.33962894302E+04 0.  0.
        5    1    3    3  502    0  0.49221893693E+03  0.22478205465E+03 -0.12912422187E+04  0.14000482175E+04  0.46999998093E+01 0. -1.
       -5    1    3    3    0  502 -0.49221893693E+03 -0.22478205465E+03  0.19967071135E+04  0.20687358074E+04  0.46999998093E+01 0.  1.
</event>
<event>
 5   0  0.1970449E-07  0.3397521E+04  0.7818609E-02  0.8138515E-01
        2   -1    0    0  501    0  0.00000000000E+00  0.00000000000E+00  0.16696969374E+04  0.16696969374E+04  0.25500000920E-02 0. -1.
       -2   -1    0    0    0  501  0.00000000000E+00  0.00000000000E+00 -0.17283300178E+04  0.17283300178E+04  0.25500000920E-02 0.  1.
    10030    2    1    2    0    0  0.00000000000E+00  0.00000000000E+00 -0.58633080369E+02  0.33980269551E+04  0.33975210595E+04 0.  0.
        1    1    3    3  502    0  0.97341089554E+03  0.49052098393E+03  0.12738155836E+04  0.16765278847E+04  0.50400001928E-02 0. -1.
       -1    1    3    3    0  502 -0.97341089554E+03 -0.49052098393E+03 -0.13324486640E+04  0.17214990704E+04  0.50400001928E-02 0.  1.
</event>
<event>
 5   0  0.6311750E-08  0.3399811E+04  0.7818609E-02  0.8137953E-01
        1   -1    0    0  501    0  0.00000000000E+00  0.00000000000E+00  0.20763659263E+04  0.20763659263E+04  0.50400001928E-02 0.  1.
       -1   -1    0    0    0  501  0.00000000000E+00  0.00000000000E+00 -0.13917003328E+04  0.13917003329E+04  0.50400001928E-02 0. -1.
    10030    2    1    2    0    0  0.00000000000E+00  0.00000000000E+00  0.68466559344E+03  0.34680662591E+04  0.33998112599E+04 0.  0.
        4    1    3    3  502    0  0.14746724676E+04 -0.84536338993E+03  0.36220177751E+03  0.17379556635E+04  0.12699999809E+01 0.  1.
       -4    1    3    3    0  502 -0.14746724676E+04  0.84536338993E+03  0.32246381593E+03  0.17301105957E+04  0.12699999809E+01 0. -1.
</event>
<event>
 5   0  0.6367111E-08  0.3396794E+04  0.7818609E-02  0.8138694E-01
       -1   -1    0    0    0  501  0.00000000000E+00  0.00000000000E+00  0.25998572218E+04  0.25998572218E+04  0.50400001928E-02 0.  1.
        1   -1    0    0  501    0  0.00000000000E+00  0.00000000000E+00 -0.11095044642E+04  0.11095044642E+04  0.50400001928E-02 0. -1.
    10030    2    1    2    0    0  0.00000000000E+00  0.00000000000E+00  0.14903527577E+04  0.37093616860E+04  0.33967944853E+04 0.  0.
        3    1    3    3  502    0 -0.12993875263E+04 -0.66550147075E+03  0.16929406976E+04  0.22354749757E+04  0.10100000352E+00 0.  1.
       -3    1    3    3    0  502  0.12993875263E+04  0.66550147075E+03 -0.20258793998E+03  0.14738867103E+04  0.10100000352E+00 0. -1.
</event>
<event>
 5   0  0.1970449E-07  0.3404443E+04  0.7818609E-02  0.8136817E-01
        2   -1    0    0  501    0  0.00000000000E+00  0.00000000000E+00  0.23072206415E+04  0.23072206415E+04  0.25500000920E-02 0. -1.
       -2   -1    0    0    0  501  0.00000000000E+00  0.00000000000E+00 -0.12558652894E+04  0.12558652894E+04  0.25500000920E-02 0.  1.
    10030    2    1    2    0    0  0.00000000000E+00  0.00000000000E+00  0.10513553520E+04  0.35630859309E+04  0.34044431666E+04 0.  0.
        1    1    3    3  502    0 -0.11024723987E+04  0.30556289633E+03 -0.79351187605E+03  0.13922913384E+04  0.50400001928E-02 0.  1.
       -1    1    3    3    0  502  0.11024723987E+04 -0.30556289633E+03  0.18448672281E+04  0.21707945925E+04  0.50400001928E-02 0. -1.
</event>
<event>
 5   0  0.6788600E-08  0.3400854E+04  0.7818609E-02  0.8137697E-01
        1   -1    0    0  501    0  0.00000000000E+00  0.00000000000E+00  0.18277193260E+04  0.18277193260E+04  0.50400001928E-02 0.  1.
       -1   -1    0    0    0  501  0.00000000000E+00  0.00000000000E+00 -0.15819995936E+04  0.15819995936E+04  0.50400001928E-02 0. -1.
    10030    2    1    2    0    0  0.00000000000E+00  0.00000000000E+00  0.24571973244E+03  0.34097189196E+04  0.34008535581E+04 0.  0.
        2    1    3    3  502    0 -0.62950883751E+03 -0.98084016700E+03 -0.11185610702E+04  0.16153970649E+04  0.25500000920E-02 0. -1.
       -2    1    3    3    0  502  0.62950883751E+03  0.98084016700E+03  0.13642808026E+04  0.17943218546E+04  0.25500000920E-02 0.  1.
</event>
<event>
 5   0  0.1928004E-07  0.3401676E+04  0.7818609E-02  0.8137495E-01
        2   -1    0    0  501    0  0.00000000000E+00  0.00000000000E+00  0.20381861004E+04  0.20381861004E+04  0.25500000920E-02 0.  1.
       -2   -1    0    0    0  501  0.00000000000E+00  0.00000000000E+00 -0.14193259906E+04  0.14193259906E+04  0.25500000920E-02 0. -1.
    10030    2    1    2    0    0  0.00000000000E+00  0.00000000000E+00  0.61886010978E+03  0.34575120910E+04  0.34016763549E+04 0.  0.
        2    1    3    3  502    0  0.12256929312E+04 -0.40653746677E+03  0.14345113200E+04  0.19301343478E+04  0.25500000920E-02 0.  1.
       -2    1    3    3    0  502 -0.12256929312E+04  0.40653746677E+03 -0.81565121025E+03  0.15273777431E+04  0.25500000920E-02 0. -1.
</event>
<event>
 5   0  0.6311750E-08  0.3409457E+04  0.7818609E-02  0.8135589E-01
        1   -1    0    0  501    0  0.00000000000E+00  0.00000000000E+00  0.23274506938E+04  0.23274506938E+04  0.50400001928E-02 0.  1.
       -1   -1    0    0    0  501  0.00000000000E+00  0.00000000000E+00 -0.12486190967E+04  0.12486190968E+04  0.50400001928E-02 0. -1.
    10030    2    1    2    0    0  0.00000000000E+00  0.00000000000E+00  0.10788315971E+04  0.35760697906E+04  0.34094570729E+04 0.  0.
        4    1    3    3  502    0 -0.11746272622E+04 -0.24834764776E+03  0.18087937494E+04  0.21709818516E+04  0.12699999809E+01 0.  1.
       -4    1    3    3    0  502  0.11746272622E+04  0.24834764776E+03 -0.72996215238E+03  0.14050879389E+04  0.12699999809E+01 0. -1.
</event>
<event>
 5   0  0.1986613E-07  0.3373221E+04  0.7818609E-02  0.8144510E-01
       -2   -1    0    0    0  501  0.00000000000E+00  0.00000000000E+00  0.25196134909E+04  0.25196134909E+04  0.25500000920E-02 0.  1.
        2   -1    0    0  501    0  0.00000000000E+00  0.00000000000E+00 -0.11290045025E+04  0.11290045025E+04  0.25500000920E-02 0. -1.
    10030    2    1    2    0    0  0.00000000000E+00  0.00000000000E+00  0.13906089884E+04  0.36486179934E+04  0.33732209983E+04 0.  0.
        5    1    3    3  502    0  0.31069397047E+03  0.43850386535E+03 -0.10339082811E+04  0.11652488176E+04  0.46999998093E+01 0. -1.
       -5    1    3    3    0  502 -0.31069397047E+03 -0.43850386535E+03  0.24245172695E+04  0.24833691758E+04  0.46999998093E+01 0.  1.
</event>
<event>
 5   0  0.6311750E-08  0.3406400E+04  0.7818609E-02  0.8136337E-01
       -1   -1    0    0    0  501  0.00000000000E+00  0.00000000000E+00  0.15567308706E+04  0.15567308706E+04  0.50400001928E-02 0. -1.
        1   -1    0    0  501    0  0.00000000000E+00  0.00000000000E+00 -0.18634505826E+04  0.18634505826E+04  0.50400001928E-02 0.  1.
    10030    2    1    2    0    0  0.00000000000E+00  0.00000000000E+00 -0.30671971199E+03  0.34201814532E+04  0.34064004742E+04 0.  0.
        4    1    3    3  502    0 -0.23007949053E+03 -0.15996033487E+04 -0.69332919208E+03  0.17585148355E+04  0.12699999809E+01 0. -1.
       -4    1    3    3    0  502  0.23007949053E+03  0.15996033487E+04  0.38660948009E+03  0.16616666177E+04  0.12699999809E+01 0.  1.
</event>
<event>
 5   0  0.1970449E-07  0.3445115E+04  0.7818609E-02  0.8126922E-01
        2   -1    0    0  501    0  0.00000000000E+00  0.00000000000E+00  0.16374272098E+04  0.16374272098E+04  0.25500000920E-02 0. -1.
       -2   -1    0    0    0  501  0.00000000000E+00  0.00000000000E+00 -0.18121132584E+04  0.18121132584E+04  0.25500000920E-02 0.  1.
    10030    2    1    2    0    0  0.00000000000E+00  0.00000000000E+00 -0.17468604864E+03  0.34495404682E+04  0.34451145447E+04 0.  0.
        1    1    3    3  502    0 -0.15080159438E+04 -0.19156947140E+03  0.72387841279E+03  0.16836896703E+04  0.50400001928E-02 0. -1.
       -1    1    3    3    0  502  0.15080159438E+04  0.19156947140E+03 -0.89856446143E+03  0.17658507979E+04  0.50400001928E-02 0.  1.
</event>
<event>
 5   0  0.6788600E-08  0.3399681E+04  0.7818609E-02  0.8137985E-01
        1   -1    0    0  501    0  0.00000000000E+00  0.00000000000E+00  0.10526159603E+04  0.10526159603E+04  0.50400001928E-02 0. -1.
       -1   -1    0    0    0  501  0.00000000000E+00  0.00000000000E+00 -0.27450255749E+04  0.27450255749E+04  0.50400001928E-02 0.  1.
    10030    2    1    2    0    0  0.00000000000E+00  0.00000000000E+00 -0.16924096146E+04  0.37976415352E+04  0.33996810036E+04 0.  0.
        2    1    3    3  502    0 -0.54340777609E+03 -0.30191929807E+03 -0.26134920081E+04  0.26864079642E+04  0.25500000920E-02 0.  1.
       -2    1    3    3    0  502  0.54340777609E+03  0.30191929807E+03  0.92108239348E+03  0.11112335710E+04  0.25500000920E-02 0. -1.
</event>
<event>
 5   0  0.6788600E-08  0.3403099E+04  0.7818609E-02  0.8137146E-01
        1   -1    0    0  501    0  0.00000000000E+00  0.00000000000E+00  0.22937233595E+04  0.22937233595E+04  0.50400001928E-02 0.  1.
       -1   -1    0    0    0  501  0.00000000000E+00  0.00000000000E+00 -0.12622582725E+04  0.12622582725E+04  0.50400001928E-02 0. -1.
    10030    2    1    2    0    0  0.00000000000E+00  0.00000000000E+00  0.10314650870E+04  0.35559816320E+04  0.34030993435E+04 0.  0.
        2    1    3    3  502    0 -0.50198581481E+03  0.62129186694E+03 -0.10541870175E+04  0.13226124187E+04  0.25500000920E-02 0. -1.
       -2    1    3    3    0  502  0.50198581481E+03 -0.62129186694E+03  0.20856521045E+04  0.22333692133E+04  0.25500000920E-02 0.  1.
</event>
<event>
 5   0  0.6367111E-08  0.3407881E+04  0.7818609E-02  0.8135975E-01
       -1   -1    0    0    0  501  0.00000000000E+00  0.00000000000E+00  0.11172952887E+04  0.11172952887E+04  0.50400001928E-02 0.  1.
        1   -1    0    0  501    0  0.00000000000E+00  0.00000000000E+00 -0.25986094188E+04  0.25986094188E+04  0.50400001928E-02 0. -1.
    10030    2    1    2    0    0  0.00000000000E+00  0.00000000000E+00 -0.14813141301E+04  0.37159047075E+04  0.34078814890E+04 0.  0.
        3    1    3    3  502    0  0.60968179220E+03  0.14908555078E+04 -0.13448505867E+03  0.16163069863E+04  0.10100000352E+00 0.  1.
       -3    1    3    3    0  502 -0.60968179220E+03 -0.14908555078E+04 -0.13468290714E+04  0.20995977212E+04  0.10100000352E+00 0. -1.
</event>
<event>
 5   0  0.6341535E-08  0.3342316E+04  0.7818609E-02  0.8152211E-01
       -1   -1    0    0    0  501  0.00000000000E+00  0.00000000000E+00  0.19318930128E+04  0.19318930128E+04  0.50400001928E-02 0. -1.
        1   -1    0    0  501    0  0.00000000000E+00  0.00000000000E+00 -0.14456129931E+04  0.14456129931E+04  0.50400001928E-02 0.  1.
    10030    2    1    2    0    0  0.00000000000E+00  0.00000000000E+00  0.48628001971E+03  0.33775060059E+04  0.33423163469E+04 0.  0.
        5    1    3    3  502    0  0.10726975047E+04 -0.37357297490E+03  0.14818150454E+04  0.18670925587E+04  0.46999998093E+01 0. -1.
       -5    1    3    3    0  502 -0.10726975047E+04  0.37357297490E+03 -0.99553502566E+03  0.15104134472E+04  0.46999998093E+01 0.  1.
</event>
<event>
 5   0  0.6311750E-08  0.3394876E+04  0.7818609E-02  0.8139165E-01
       -1   -1    0    0    0  501  0.00000000000E+00  0.00000000000E+00  0.19355732980E+04  0.19355732980E+04  0.50400001928E-02 0. -1.
        1   -1    0    0  501    0  0.00000000000E+00  0.00000000000E+00 -0.14886005124E+04  0.14886005124E+04  0.50400001928E-02 0.  1.
    10030    2    1    2    0    0  0.00000000000E+00  0.00000000000E+00  0.44697278557E+03  0.34241738103E+04  0.33948757875E+04 0.  0.
        4    1    3    3  502    0 -0.29327138294E+03 -0.91325668117E+03 -0.11890451688E+04  0.15277028167E+04  0.12699999809E+01 0.  1.
       -4    1    3    3    0  502  0.29327138294E+03  0.91325668117E+03  0.16360179544E+04  0.18964709937E+04  0.12699999809E+01 0. -1.
</event>
<event>
 5   0  0.1963852E-07  0.3402798E+04  0.7818609E-02  0.8137220E-01
        2   -1    0    0  501    0  0.00000000000E+00  0.00000000000E+00  0.18000629299E+04  0.18000629299E+04  0.25500000920E-02 0.  1.
       -2   -1    0    0    0  501  0.00000000000E+00  0.00000000000E+00 -0.16081425225E+04  0.16081425225E+04  0.25500000920E-02 0. -1.
    10030    2    1    2    0    0  0.00000000000E+00  0.00000000000E+00  0.19192040736E+03  0.34082054524E+04  0.34027975201E+04 0.  0.
        4    1    3    3  502    0  0.51675224585E+03 -0.80669030080E+02 -0.15256297453E+04  0.16127889225E+04  0.12699999809E+01 0. -1.
       -4    1    3    3    0  502 -0.51675224585E+03  0.80669030080E+02  0.17175501527E+04  0.17954165299E+04  0.12699999809E+01 0.  1.
</event>
<event>
 5   0  0.1970449E-07  0.3345305E+04  0.7818609E-02  0.8151462E-01
       -2   -1    0    0    0  501  0.00000000000E+00  0.00000000000E+00  0.14298253433E+04  0.14298253433E+04  0.25500000920E-02 0. -1.
        2   -1    0    0  501    0  0.00000000000E+00  0.00000000000E+00 -0.19567190454E+04  0.19567190454E+04  0.25500000920E-02 0.  1.
    10030    2    1    2    0    0  0.00000000000E+00  0.00000000000E+00 -0.52689370210E+03  0.33865443887E+04  0.33453050568E+04 0.  0.
        1    1    3    3  502    0 -0.10508495766E+04 -0.10062456823E+04 -0.10988172152E+04  0.18232428468E+04  0.50400001928E-02 0.  1.
       -1    1    3    3    0  502  0.10508495766E+04  0.10062456823E+04  0.57192351314E+03  0.15633015419E+04  0.50400001928E-02 0. -1.
</event>
<event>
 5   0  0.1986613E-07  0.3394553E+04  0.7818609E-02  0.8139245E-01
       -2   -1    0    0    0  501  0.00000000000E+00  0.00000000000E+00  0.14107715473E+04  0.14107715473E+04  0.25500000920E-02 0. -1.
        2   -1    0    0  501    0  0.00000000000E+00  0.00000000000E+00 -0.20419655700E+04  0.20419655700E+04  0.25500000920E-02 0.  1.
    10030    2    1    2    0    0  0.00000000000E+00  0.00000000000E+00 -0.63119402271E+03  0.34527371173E+04  0.33945526519E+04 0.  0.
        5    1    3    3  502    0 -0.57731269727E+03  0.12568273122E+04 -0.13162379319E+04  0.19092954791E+04  0.46999998093E+01 0.  1.
       -5    1    3    3    0  502  0.57731269727E+03 -0.12568273122E+04  0.68504390916E+03  0.15434416382E+04  0.46999998093E+01 0. -1.
</event>
<event>
 5   0  0.1928004E-07  0.3394371E+04  0.7818609E-02  0.8139289E-01
       -2   -1    0    0    0  501  0.00000000000E+00  0.00000000000E+00  0.24734498696E+04  0.24734498696E+04  0.25500000920E-02 0.  1.
        2   -1    0    0  501    0  0.00000000000E+00  0.00000000000E+00 -0.11645430957E+04  0.11645430957E+04  0.25500000920E-02 0. -1.
    10030    2    1    2    0    0  0.00000000000E+00  0.00000000000E+00  0.13089067738E+04  0.36379929653E+04  0.33943712044E+04 0.  0.
        2    1    3    3  502    0 -0.10410584616E+04  0.41574964104E+03  0.20201909329E+04  0.23103726734E+04  0.25500000920E-02 0.  1.
       -2    1    3    3    0  502  0.10410584616E+04 -0.41574964104E+03 -0.71128415906E+03  0.13276202919E+04  0.25500000920E-02 0. -1.
</event>
<event>
 5   0  0.6788600E-08  0.3409119E+04  0.7818609E-02  0.8135672E-01
       -1   -1    0    0    0  501  0.00000000000E+00  0.00000000000E+00  0.14083092376E+04  0.14083092376E+04  0.50400001928E-02 0.  1.
        1   -1    0    0  501    0  0.00000000000E+00  0.00000000000E+00 -0.20631287726E+04  0.20631287726E+04  0.50400001928E-02 0. -1.
    10030    2    1    2    0    0  0.00000000000E+00  0.00000000000E+00 -0.65481953499E+03  0.34714380101E+04  0.34091191289E+04 0.  0.
        2    1    3    3  502    0 -0.10217894958E+04 -0.10259641061E+04  0.58840121232E+03  0.15629690040E+04  0.25500000920E-02 0.  1.
       -2    1    3    3    0  502  0.10217894958E+04  0.10259641061E+04 -0.12432207473E+04  0.19084690061E+04  0.25500000920E-02 0. -1.
</event>
<event>
 5   0  0.6584420E-08  0.3398989E+04  0.7818609E-02  0.8138155E-01
       -1   -1    0    0    0  501  0.00000000000E+00  0.00000000000E+00  0.14330479373E+04  0.14330479373E+04  0.50400001928E-02 0. -1.
        1   -1    0    0  501    0  0.00000000000E+00  0.00000000000E+00 -0.20154810576E+04  0.20154810576E+04  0.50400001928E-02 0.  1.
    10030    2    1    2    0    0  0.00000000000E+00  0.00000000000E+00 -0.58243312039E+03  0.34485289949E+04  0.33989886568E+04 0.  0.
        1    1    3    3  502    0  0.53089545582E+03  0.10366485493E+04 -0.15469107684E+04  0.19363427189E+04  0.50400001928E-02 0.  1.
       -1    1    3    3    0  502 -0.53089545582E+03 -0.10366485493E+04  0.96447764798E+03  0.15121862760E+04  0.50400001928E-02 0. -1.
</event>
<event>
 5   0  0.1986613E-07  0.3393342E+04  0.7818609E-02  0.8139542E-01
        2   -1    0    0  501    0  0.00000000000E+00  0.00000000000E+00  0.31336551813E+04  0.31336551813E+04  0.25500000920E-02 0.  1.
       -2   -1    0    0    0  501  0.00000000000E+00  0.00000000000E+00 -0.91863726382E+03  0.91863726382E+03  0.25500000920E-02 0. -1.
    10030    2    1    2    0    0  0.00000000000E+00  0.00000000000E+00  0.22150179174E+04  0.40522924451E+04  0.33933419642E+04 0.  0.
        5    1    3    3  502    0 -0.52839058867E+01 -0.90162020245E+03  0.28238723347E+04  0.29643252119E+04  0.46999998093E+01 0.  1.
       -5    1    3    3    0  502  0.52839058867E+01  0.90162020245E+03 -0.60885441725E+03  0.10879672332E+04  0.46999998093E+01 0. -1.
</event>
<event>
 5   0  0.1970449E-07  0.3397338E+04  0.7818609E-02  0.8138560E-01
       -2   -1    0    0    0  501  0.00000000000E+00  0.00000000000E+00  0.16210163628E+04  0.16210163628E+04  0.25500000920E-02 0. -1.
        2   -1    0    0  501    0  0.00000000000E+00  0.00000000000E+00 -0.17800411854E+04  0.17800411854E+04  0.25500000920E-02 0.  1.
    10030    2    1    2    0    0  0.00000000000E+00  0.00000000000E+00 -0.15902482265E+03  0.34010575482E+04  0.33973377153E+04 0.  0.
        1    1    3    3  502    0  0.83948718169E+03 -0.42762208776E+03 -0.14945226439E+04  0.17666910628E+04  0.50400001928E-02 0.  1.
       -1    1    3    3    0  502 -0.83948718169E+03  0.42762208776E+03  0.13354978212E+04  0.16343664854E+04  0.50400001928E-02 0. -1.
</event>
<event>
 5   0  0.6341535E-08  0.3392008E+04  0.7818609E-02  0.8139870E-01
       -1   -1    0    0    0  501  0.00000000000E+00  0.00000000000E+00  0.13787015858E+04  0.13787015858E+04  0.50400001928E-02 0.  1.
        1   -1    0    0  501    0  0.00000000000E+00  0.00000000000E+00 -0.20863328443E+04  0.20863328443E+04  0.50400001928E-02 0. -1.
    10030    2    1    2    0    0  0.00000000000E+00  0.00000000000E+00 -0.70763125848E+03  0.34650344301E+04  0.33920084911E+04 0.  0.
        5    1    3    3  502    0  0.10799607483E+03  0.98481414026E+03  0.10523685188E+04  0.14453455063E+04  0.46999998093E+01 0.  1.
       -5    1    3    3    0  502 -0.10799607483E+03 -0.98481414026E+03 -0.17599997773E+04  0.20196889239E+04  0.46999998093E+01 0. -1.
</event>
<event>
 5   0  0.6367111E-08  0.3404381E+04  0.7818609E-02  0.8136832E-01
        1   -1    0    0  501    0  0.00000000000E+00  0.00000000000E+00  0.10275399459E+04  0.10275399459E+04  0.50400001928E-02 0. -1.
       -1   -1    0    0    0  501  0.00000000000E+00  0.00000000000E+00 -0.28197956298E+04  0.28197956298E+04  0.50400001928E-02 0.  1.
    10030    2    1    2    0    0  0.00000000000E+00  0.00000000000E+00 -0.17922556839E+04  0.38473355757E+04  0.34043810885E+04 0.  0.
        3    1    3    3  502    0 -0.13816317654E+04  0.94604880569E+03 -0.55049432698E+03  0.17626567142E+04  0.10100000352E+00 0. -1.
       -3    1    3    3    0  502  0.13816317654E+04 -0.94604880569E+03 -0.12417613570E+04  0.20846788615E+04  0.10100000352E+00 0.  1.
</event>
<event>
 5   0  0.1986613E-07  0.3402954E+04  0.7818609E-02  0.8137182E-01
        2   -1    0    0  501    0  0.00000000000E+00  0.00000000000E+00  0.24931391630E+04  0.24931391630E+04  0.25500000920E-02 0. -1.
       -2   -1    0    0    0  501  0.00000000000E+00  0.00000000000E+00 -0.11611960655E+04  0.11611960655E+04  0.25500000920E-02 0.  1.
    10030    2    1    2    0    0  0.00000000000E+00  0.00000000000E+00  0.13319430975E+04  0.36543352285E+04  0.34029536504E+04 0.  0.
        5    1    3    3  502    0 -0.28252559358E+03  0.14601440152E+04  0.15535639562E+04  0.21506799651E+04  0.46999998093E+01 0. -1.
       -5    1    3    3    0  502  0.28252559358E+03 -0.14601440152E+04 -0.22162085862E+03  0.15036552634E+04  0.46999998093E+01 0.  1.
</event>
<event>
 5   0  0.6367111E-08  0.3402155E+04  0.7818609E-02  0.8137378E-01
       -1   -1    0    0    0  501  0.00000000000E+00  0.00000000000E+00  0.11799367926E+04  0.11799367926E+04  0.50400001928E-02 0.  1.
        1   -1    0    0  501    0  0.00000000000E+00  0.00000000000E+00 -0.24523893410E+04  0.24523893410E+04  0.50400001928E-02 0. -1.
    10030    2    1    2    0    0  0.00000000000E+00  0.00000000000E+00 -0.12724525484E+04  0.36323261337E+04  0.34021548544E+04 0.  0.
        3    1    3    3  502    0 -0.68873091115E+03  0.87673115918E+03 -0.20079262333E+04  0.22966879548E+04  0.10100000352E+00 0. -1.
       -3    1    3    3    0  502  0.68873091115E+03 -0.87673115918E+03  0.73547368483E+03  0.13356381788E+04  0.10100000352E+00 0.  1.
</event>
<event>
 5   0  0.1897313E-07  0.3398828E+04  0.7818609E-02  0.8138194E-01
        2   -1    0    0  501    0  0.00000000000E+00  0.00000000000E+00  0.81502173528E+03  0.81502173528E+03  0.25500000920E-02 0.  1.
       -2   -1    0    0    0  501  0.00000000000E+00  0.00000000000E+00 -0.35434736088E+04  0.35434736088E+04  0.25500000920E-02 0. -1.
    10030    2    1    2    0    0  0.00000000000E+00  0.00000000000E+00 -0.27284518736E+04  0.43584953441E+04  0.33988280390E+04 0.  0.
        3    1    3    3  502    0 -0.60366408657E+02 -0.10184252821E+04 -0.31070810257E+04  0.32702884688E+04  0.10100000352E+00 0. -1.
       -3    1    3    3    0  502  0.60366408657E+02  0.10184252821E+04  0.37862915211E+03  0.10882068754E+04  0.10100000352E+00 0.  1.
</event>
<event>
 5   0  0.6788600E-08  0.3401543E+04  0.7818609E-02  0.8137528E-01
       -1   -1    0    0    0  501  0.00000000000E+00  0.00000000000E+00  0.11102235102E+04  0.11102235102E+04  0.50400001928E-02 0.  1.
        1   -1    0    0  501    0  0.00000000000E+00  0.00000000000E+00 -0.26054432818E+04  0.26054432818E+04  0.50400001928E-02 0. -1.
    10030    2    1    2    0    0  0.00000000000E+00  0.00000000000E+00 -0.14952197717E+04  0.37156667920E+04  0.34015434061E+04 0.  0.
        2    1    3    3  502    0 -0.40990718439E+03  0.70549927012E+03 -0.23776875610E+04  0.25137922065E+04  0.25500000920E-02 0. -1.
       -2    1    3    3    0  502  0.40990718439E+03 -0.70549927012E+03  0.88246778933E+03  0.12018745855E+04  0.25500000920E-02 0.  1.
</event>
<event>
 5   0  0.1970449E-07  0.3388537E+04  0.7818609E-02  0.8140726E-01
       -2   -1    0    0    0  501  0.00000000000E+00  0.00000000000E+00  0.14792897517E+04  0.14792897517E+04  0.25500000920E-02 0.  1.
        2   -1    0    0  501    0  0.00000000000E+00  0.00000000000E+00 -0.19404886642E+04  0.19404886642E+04  0.25500000920E-02 0. -1.
    10030    2    1    2    0    0  0.00000000000E+00  0.00000000000E+00 -0.46119891251E+03  0.34197784159E+04  0.33885365539E+04 0.  0.
        1    1    3    3  502    0  0.75136781474E+03  0.54429450497E+03  0.12001222903E+04  0.15169388956E+04  0.50400001928E-02 0.  1.
       -1    1    3    3    0  502 -0.75136781474E+03 -0.54429450497E+03 -0.16613212028E+04  0.19028395203E+04  0.50400001928E-02 0. -1.
</event>
<event>
 5   0  0.6788600E-08  0.3366637E+04  0.7818609E-02  0.8146144E-01
        1   -1    0    0  501    0  0.00000000000E+00  0.00000000000E+00  0.19724185618E+04  0.19724185619E+04  0.50400001928E-02 0. -1.
       -1   -1    0    0    0  501  0.00000000000E+00  0.00000000000E+00 -0.14365923208E+04  0.14365923208E+04  0.50400001928E-02 0.  1.
    10030    2    1    2    0    0  0.00000000000E+00  0.00000000000E+00  0.53582624104E+03  0.34090108827E+04  0.33666371111E+04 0.  0.
        2    1    3    3  502    0 -0.13795668563E+03  0.14094860637E+04  0.11892433980E+04  0.18493195696E+04  0.25500000920E-02 0. -1.
       -2    1    3    3    0  502  0.13795668563E+03 -0.14094860637E+04 -0.65341715697E+03  0.15596913130E+04  0.25500000920E-02 0.  1.
</event>
<event>
 5   0  0.1963852E-07  0.3398121E+04  0.7818609E-02  0.8138368E-01
       -2   -1    0    0    0  501  0.00000000000E+00  0.00000000000E+00  0.10227456217E+04  0.10227456217E+04  0.25500000920E-02 0.  1.
        2   -1    0    0  501    0  0.00000000000E+00  0.00000000000E+00 -0.28226049326E+04  0.28226049326E+04  0.25500000920E-02 0. -1.
    10030    2    1    2    0    0  0.00000000000E+00  0.00000000000E+00 -0.17998593109E+04  0.38453505543E+04  0.33981211495E+04 0.  0.
        4    1    3    3  502    0  0.10301435361E+04 -0.13503178405E+04 -0.95362155743E+03  0.19478063721E+04  0.12699999809E+01 0.  1.
       -4    1    3    3    0  502 -0.10301435361E+04  0.13503178405E+04 -0.84623775342E+03  0.18975441823E+04  0.12699999809E+01 0. -1.
</event>
<event>
 5   0  0.6311750E-08  0.3394979E+04  0.7818609E-02  0.8139140E-01
       -1   -1    0    0    0  501  0.00000000000E+00  0.00000000000E+00  0.24777430324E+04  0.24777430324E+04  0.50400001928E-02 0. -1.
        1   -1    0    0  501    0  0.00000000000E+00  0.00000000000E+00 -0.11629419053E+04  0.11629419053E+04  0.50400001928E-02 0.  1.
    10030    2    1    2    0    0  0.00000000000E+00  0.00000000000E+00  0.13148011271E+04  0.36406849377E+04  0.33949793537E+04 0.  0.
        4    1    3    3  502    0  0.12075799739E+04  0.62572322740E+03 -0.43183222107E+03  0.14269756938E+04  0.12699999809E+01 0.  1.
       -4    1    3    3    0  502 -0.12075799739E+04 -0.62572322740E+03  0.17466333481E+04  0.22137092439E+04  0.12699999809E+01 0. -1.
</event>
<event>
 5   0  0.6788600E-08  0.3402295E+04  0.7818609E-02  0.8137343E-01
       -1   -1    0    0    0  501  0.00000000000E+00  0.00000000000E+00  0.16246087627E+04  0.16246087628E+04  0.50400001928E-02 0. -1.
        1   -1    0    0  501    0  0.00000000000E+00  0.00000000000E+00 -0.17812920030E+04  0.17812920030E+04  0.50400001928E-02 0.  1.
    10030    2    1    2    0    0  0.00000000000E+00  0.00000000000E+00 -0.15668324028E+03  0.34059007658E+04  0.34022948709E+04 0.  0.
        2    1    3    3  502    0  0.22027644849E+03 -0.32585285245E+03  0.15784655861E+04  0.16267315088E+04  0.25500000920E-02 0. -1.
       -2    1    3    3    0  502 -0.22027644849E+03  0.32585285245E+03 -0.17351488264E+04  0.17791692570E+04  0.25500000920E-02 0.  1.
</event>
<event>
 5   0  0.6341535E-08  0.3405914E+04  0.7818609E-02  0.8136456E-01
       -1   -1    0    0    0  501  0.00000000000E+00  0.00000000000E+00  0.12662323056E+04  0.12662323056E+04  0.50400001928E-02 0. -1.
        1   -1    0    0  501    0  0.00000000000E+00  0.00000000000E+00 -0.22903082897E+04  0.22903082897E+04  0.50400001928E-02 0.  1.
    10030    2    1    2    0    0  0.00000000000E+00  0.00000000000E+00 -0.10240759841E+04  0.35565405953E+04  0.34059138839E+04 0.  0.
        5    1    3    3  502    0  0.11892974887E+04 -0.10740865784E+04  0.89593121479E+02  0.16050356731E+04  0.46999998093E+01 0. -1.
       -5    1    3    3    0  502 -0.11892974887E+04  0.10740865784E+04 -0.11136691055E+04  0.19515049222E+04  0.46999998093E+01 0.  1.
</event>
<event>
 5   0  0.6788600E-08  0.3384411E+04  0.7818609E-02  0.8141743E-01
        1   -1    0    0  501    0  0.00000000000E+00  0.00000000000E+00  0.26361956215E+04  0.26361956215E+04  0.50400001928E-02 0.  1.
       -1   -1    0    0    0  501  0.00000000000E+00  0.00000000000E+00 -0.10862470483E+04  0.10862470483E+04  0.50400001928E-02 0. -1.
    10030    2    1    2    0    0  0.00000000000E+00  0.00000000000E+00  0.15499485732E+04  0.37224426698E+04  0.33844111526E+04 0.  0.
        2    1    3    3  502    0  0.13853280919E+03  0.57358088153E+03 -0.96942591253E+03  0.11348889667E+04  0.25500000920E-02 0. -1.
       -2    1    3    3    0  502 -0.13853280919E+03 -0.57358088153E+03  0.25193744857E+04  0.25875537030E+04  0.25500000920E-02 0.  1.
</event>
<event>
 5   0  0.6367111E-08  0.3397164E+04  0.7818609E-02  0.8138603E-01
        1   -1    0    0  501    0  0.00000000000E+00  0.00000000000E+00  0.13170003338E+04  0.13170003338E+04  0.50400001928E-02 0.  1.
       -1   -1    0    0    0  501  0.00000000000E+00  0.00000000000E+00 -0.21907217208E+04  0.21907217208E+04  0.50400001928E-02 0. -1.
    10030    2    1    2    0    0  0.00000000000E+00  0.00000000000E+00 -0.87372138707E+03  0.35077220546E+04  0.33971642513E+04 0.  0.
        3    1    3    3  502    0  0.58560110133E+03  0.55671199106E+03  0.11058598933E+04  0.13695922768E+04  0.10100000352E+00 0.  1.
       -3    1    3    3    0  502 -0.58560110133E+03 -0.55671199106E+03 -0.19795812804E+04  0.21381297778E+04  0.10100000352E+00 0. -1.
</event>
<event>
 5   0  0.6341535E-08  0.3411744E+04  0.7818609E-02  0.8135030E-01
        1   -1    0    0  501    0  0.00000000000E+00  0.00000000000E+00  0.10957727717E+04  0.10957727717E+04  0.50400001928E-02 0. -1.
       -1   -1    0    0    0  501  0.00000000000E+00  0.00000000000E+00 -0.26556587475E+04  0.26556587475E+04  0.50400001928E-02 0.  1.
    10030    2    1    2    0    0  0.00000000000E+00  0.00000000000E+00 -0.15598859758E+04  0.37514315193E+04  0.34117435698E+04 0.  0.
        5    1    3    3  502    0  0.24339857627E+03  0.38684978610E+03 -0.25870731386E+04  0.26271401063E+04  0.46999998093E+01 0.  1.
       -5    1    3    3    0  502 -0.24339857627E+03 -0.38684978610E+03  0.10271871627E+04  0.11242914130E+04  0.46999998093E+01 0. -1.
</event>
<event>
 5   0  0.6341535E-08  0.3400871E+04  0.7818609E-02  0.8137693E-01
        1   -1    0    0  501    0  0.00000000000E+00  0.00000000000E+00  0.17220323629E+04  0.17220323629E+04  0.50400001928E-02 0. -1.
       -1   -1    0    0    0  501  0.00000000000E+00  0.00000000000E+00 -0.16791097160E+04  0.16791097160E+04  0.50400001928E-02 0.  1.
    10030    2    1    2    0    0  0.00000000000E+00  0.00000000000E+00  0.42922646903E+02  0.34011420789E+04  0.34008712248E+04 0.  0.
        5    1    3    3  502    0  0.15795760731E+04 -0.17987320465E+03 -0.58194751858E+03  0.16929559784E+04  0.46999998093E+01 0.  1.
       -5    1    3    3    0  502 -0.15795760731E+04  0.17987320465E+03  0.62487016548E+03  0.17081861005E+04  0.46999998093E+01 0. -1.
</event>
<event>
 5   0  0.6341535E-08  0.3390610E+04  0.7818609E-02  0.8140215E-01
       -1   -1    0    0    0  501  0.00000000000E+00  0.00000000000E+00  0.16696294510E+04  0.16696294510E+04  0.50400001928E-02 0. -1.
        1   -1    0    0  501    0  0.00000000000E+00  0.00000000000E+00 -0.17213750334E+04  0.17213750334E+04  0.50400001928E-02 0.  1.
    10030    2    1    2    0    0  0.00000000000E+00  0.00000000000E+00 -0.51745582397E+02  0.33910044844E+04  0.33906096513E+04 0.  0.
        5    1    3    3  502    0  0.11995704650E+04  0.11169629331E+04  0.40714514058E+03  0.16888945349E+04  0.46999998093E+01 0. -1.
       -5    1    3    3    0  502 -0.11995704650E+04 -0.11169629331E+04 -0.45889072298E+03  0.17021099495E+04  0.46999998093E+01 0.  1.
</event>
<event>
 5   0  0.1963852E-07  0.3375870E+04  0.7818609E-02  0.8143854E-01
       -2   -1    0    0    0  501  0.00000000000E+00  0.00000000000E+00  0.98688232916E+03  0.98688232917E+03  0.25500000920E-02 0. -1.
        2   -1    0    0  501    0  0.00000000000E+00  0.00000000000E+00 -0.28869950136E+04  0.28869950136E+04  0.25500000920E-02 0.  1.
    10030    2    1    2    0    0  0.00000000000E+00  0.00000000000E+00 -0.19001126844E+04  0.38738773428E+04  0.33758698810E+04 0.  0.
        4    1    3    3  502    0  0.66108049244E+02 -0.14234100781E+04 -0.19883278859E+04  0.24462043903E+04  0.12699999809E+01 0.  1.
       -4    1    3    3    0  502 -0.66108049244E+02  0.14234100781E+04  0.88215201458E+02  0.14276729525E+04  0.12699999809E+01 0. -1.
</event>
<event>
 5   0  0.6311750E-08  0.3399667E+04  0.7818609E-02  0.8137988E-01
       -1   -1    0    0    0  501  0.00000000000E+00  0.00000000000E+00  0.15698539244E+04  0.15698539244E+04  0.50400001928E-02 0.  1.
        1   -1    0    0  501    0  0.00000000000E+00  0.00000000000E+00 -0.18405745796E+04  0.18405745796E+04  0.50400001928E-02 0. -1.
    10030    2    1    2    0    0  0.00000000000E+00  0.00000000000E+00 -0.27072065517E+03  0.34104285040E+04  0.33996665877E+04 0.  0.
        4    1    3    3  502    0  0.12405250261E+04  0.11619565285E+04 -0.15507704682E+03  0.17067793700E+04  0.12699999809E+01 0.  1.
       -4    1    3    3    0  502 -0.12405250261E+04 -0.11619565285E+04 -0.11564360836E+03  0.17036491339E+04  0.12699999809E+01 0. -1.
</event>
<event>
 5   0  0.1897313E-07  0.3399168E+04  0.7818609E-02  0.8138111E-01
       -2   -1    0    0    0  501  0.00000000000E+00  0.00000000000E+00  0.93335452215E+03  0.93335452216E+03  0.25500000920E-02 0. -1.
        2   -1    0    0  501    0  0.00000000000E+00  0.00000000000E+00 -0.30948432800E+04  0.30948432800E+04  0.25500000920E-02 0.  1.
    10030    2    1    2    0    0  0.00000000000E+00  0.00000000000E+00 -0.21614887579E+04  0.40281978022E+04  0.33991681163E+04 0.  0.
        3    1    3    3  502    0  0.72703001810E+03  0.14590012102E+04 -0.16507156674E+04  0.23199395258E+04  0.10100000352E+00 0. -1.
       -3    1    3    3    0  502 -0.72703001810E+03 -0.14590012102E+04 -0.51077309045E+03  0.17082582764E+04  0.10100000352E+00 0.  1.
</event>
<event>
 5   0  0.1970449E-07  0.3401858E+04  0.7818609E-02  0.8137450E-01
        2   -1    0    0  501    0  0.00000000000E+00  0.00000000000E+00  0.26962882045E+04  0.26962882045E+04  0.25500000920E-02 0.  1.
       -2   -1    0    0    0  501  0.00000000000E+00  0.00000000000E+00 -0.10730157063E+04  0.10730157063E+04  0.25500000920E-02 0. -1.
    10030    2    1    2    0    0  0.00000000000E+00  0.00000000000E+00  0.16232724982E+04  0.37693039108E+04  0.34018580759E+04 0.  0.
        1    1    3    3  502    0  0.14119930676E+04 -0.38865330866E+03 -0.14689691964E+03  0.14718541104E+04  0.50400001928E-02 0. -1.
       -1    1    3    3    0  502 -0.14119930676E+04  0.38865330866E+03  0.17701694179E+04  0.22974498004E+04  0.50400001928E-02 0.  1.
</event>
<event>
 5   0  0.6311750E-08  0.3398800E+04  0.7818609E-02  0.8138201E-01
       -1   -1    0    0    0  501  0.00000000000E+00  0.00000000000E+00  0.14120086733E+04  0.14120086733E+04  0.50400001928E-02 0. -1.
        1   -1    0    0  501    0  0.00000000000E+00  0.00000000000E+00 -0.20452852156E+04  0.20452852156E+04  0.50400001928E-02 0.  1.
    10030    2    1    2    0    0  0.00000000000E+00  0.00000000000E+00 -0.63327654230E+03  0.34572938890E+04  0.33988000612E+04 0.  0.
        4    1    3    3  502    0 -0.62307857408E+03 -0.13533040091E+03  0.12857236375E+04  0.14351404502E+04  0.12699999809E+01 0. -1.
       -4    1    3    3    0  502  0.62307857408E+03  0.13533040091E+03 -0.19190001798E+04  0.20221534388E+04  0.12699999809E+01 0.  1.
</event>
<event>
 5   0  0.1970449E-07  0.3408940E+04  0.7818609E-02  0.8135716E-01
        2   -1    0    0  501    0  0.00000000000E+00  0.00000000000E+00  0.20621675307E+04  0.20621675307E+04  0.25500000920E-02 0.  1.
       -2   -1    0    0    0  501  0.00000000000E+00  0.00000000000E+00 -0.14088177559E+04  0.14088177559E+04  0.25500000920E-02 0. -1.
    10030    2    1    2    0    0  0.00000000000E+00  0.00000000000E+00  0.65334977482E+03  0.34709852867E+04  0.34089401479E+04 0.  0.
        1    1    3    3  502    0  0.15218054166E+04  0.96252854412E+02  0.11021548220E+04  0.18814626198E+04  0.50400001928E-02 0.  1.
       -1    1    3    3    0  502 -0.15218054166E+04 -0.96252854412E+02 -0.44880504719E+03  0.15895226669E+04  0.50400001928E-02 0. -1.
</event>
<event>
 5   0  0.1970449E-07  0.3394368E+04  0.7818609E-02  0.8139290E-01
       -2   -1    0    0    0  501  0.00000000000E+00  0.00000000000E+00  0.14625065147E+04  0.14625065147E+04  0.25500000920E-02 0. -1.
        2   -1    0    0  501    0  0.00000000000E+00  0.00000000000E+00 -0.19695182944E+04  0.19695182944E+04  0.25500000920E-02 0.  1.
    10030    2    1    2    0    0  0.00000000000E+00  0.00000000000E+00 -0.50701177976E+03  0.34320248091E+04  0.33943678860E+04 0.  0.
        1    1    3    3  502    0 -0.11427618222E+04 -0.76003519305E+03  0.75600711383E+03  0.15668774148E+04  0.50400001928E-02 0. -1.
       -1    1    3    3    0  502  0.11427618222E+04  0.76003519305E+03 -0.12630188936E+04  0.18651473943E+04  0.50400001928E-02 0.  1.
</event>
<event>
 5   0  0.6788600E-08  0.3397127E+04  0.7818609E-02  0.8138612E-01
       -1   -1    0    0    0  501  0.00000000000E+00  0.00000000000E+00  0.21214922637E+04  0.21214922637E+04  0.50400001928E-02 0. -1.
        1   -1    0    0  501    0  0.00000000000E+00  0.00000000000E+00 -0.13599476316E+04  0.13599476316E+04  0.50400001928E-02 0.  1.
    10030    2    1    2    0    0  0.00000000000E+00  0.00000000000E+00  0.76154463206E+03  0.34814398953E+04  0.33971272449E+04 0.  0.
        2    1    3    3  502    0 -0.24705009624E+03  0.49965695822E+03  0.20250964267E+04  0.21004062377E+04  0.25500000920E-02 0. -1.
       -2    1    3    3    0  502  0.24705009624E+03 -0.49965695822E+03 -0.12635517946E+04  0.13810336577E+04  0.25500000920E-02 0.  1.
</event>
<event>
 5   0  0.1970449E-07  0.3400109E+04  0.7818609E-02  0.8137880E-01
        2   -1    0    0  501    0  0.00000000000E+00  0.00000000000E+00  0.24050556167E+04  0.24050556167E+04  0.25500000920E-02 0. -1.
       -2   -1    0    0    0  501  0.00000000000E+00  0.00000000000E+00 -0.12017122539E+04  0.12017122539E+04  0.25500000920E-02 0.  1.
    10030    2    1    2    0    0  0.00000000000E+00  0.00000000000E+00  0.12033433628E+04  0.36067678705E+04  0.34001087076E+04 0.  0.
        1    1    3    3  502    0  0.10377234704E+04  0.11647211237E+03 -0.82141504071E+03  0.13285926476E+04  0.50400001928E-02 0.  1.
       -1    1    3    3    0  502 -0.10377234704E+04 -0.11647211237E+03  0.20247584035E+04  0.22781752230E+04  0.50400001928E-02 0. -1.
</event>
<event>
 5   0  0.6311750E-08  0.3397946E+04  0.7818609E-02  0.8138411E-01
        1   -1    0    0  501    0  0.00000000000E+00  0.00000000000E+00  0.21950613938E+04  0.21950613938E+04  0.50400001928E-02 0. -1.
       -1   -1    0    0    0  501  0.00000000000E+00  0.00000000000E+00 -0.13150014268E+04  0.13150014268E+04  0.50400001928E-02 0.  1.
    10030    2    1    2    0    0  0.00000000000E+00  0.00000000000E+00  0.88005996699E+03  0.35100628206E+04  0.33979457704E+04 0.  0.
        4    1    3    3  502    0  0.41744677232E+03  0.36823829051E+02 -0.12607743333E+04  0.13285975066E+04  0.12699999809E+01 0.  1.
       -4    1    3    3    0  502 -0.41744677232E+03 -0.36823829051E+02  0.21408343003E+04  0.21814653140E+04  0.12699999809E+01 0. -1.
</event>
<event>
 5   0  0.6788600E-08  0.3400614E+04  0.7818609E-02  0.8137756E-01
        1   -1    0    0  501    0  0.00000000000E+00  0.00000000000E+00  0.15152378409E+04  0.15152378409E+04  0.50400001928E-02 0.  1.
       -1   -1    0    0    0  501  0.00000000000E+00  0.00000000000E+00 -0.19079802588E+04  0.19079802588E+04  0.50400001928E-02 0. -1.
    10030    2    1    2    0    0  0.00000000000E+00  0.00000000000E+00 -0.39274241787E+03  0.34232180997E+04  0.34006139962E+04 0.  0.
        2    1    3    3  502    0 -0.12775010642E+04  0.57657210331E+03  0.77262765805E+03  0.16004367708E+04  0.25500000920E-02 0.  1.
       -2    1    3    3    0  502  0.12775010642E+04 -0.57657210331E+03 -0.11653700759E+04  0.18227813289E+04  0.25500000920E-02 0. -1.
</event>
<event>
 5   0  0.6584420E-08  0.3390850E+04  0.7818609E-02  0.8140156E-01
        1   -1    0    0  501    0  0.00000000000E+00  0.00000000000E+00  0.10839252555E+04  0.10839252555E+04  0.50400001928E-02 0.  1.
       -1   -1    0    0    0  501  0.00000000000E+00  0.00000000000E+00 -0.26519037937E+04  0.26519037937E+04  0.50400001928E-02 0. -1.
    10030    2    1    2    0    0  0.00000000000E+00  0.00000000000E+00 -0.15679785383E+04  0.37358290492E+04  0.33908497443E+04 0.  0.
        1    1    3    3  502    0  0.15068103410E+04  0.73209349056E+03 -0.10713449537E+04  0.19885216349E+04  0.50400001928E-02 0. -1.
       -1    1    3    3    0  502 -0.15068103410E+04 -0.73209349056E+03 -0.49663358455E+03  0.17473074143E+04  0.50400001928E-02 0.  1.
</event>
<event>
 5   0  0.1970449E-07  0.3400783E+04  0.7818609E-02  0.8137714E-01
        2   -1    0    0  501    0  0.00000000000E+00  0.00000000000E+00  0.18423566010E+04  0.18423566010E+04  0.25500000920E-02 0. -1.
       -2   -1    0    0    0  501  0.00000000000E+00  0.00000000000E+00 -0.15693656338E+04  0.15693656338E+04  0.25500000920E-02 0.  1.
    10030    2    1    2    0    0  0.00000000000E+00  0.00000000000E+00  0.27299096727E+03  0.34117222348E+04  0.34007829303E+04 0.  0.
        1    1    3    3  502    0  0.50466600645E+03 -0.13647861668E+04 -0.74610836409E+03  0.16352390499E+04  0.50400001928E-02 0. -1.
       -1    1    3    3    0  502 -0.50466600645E+03  0.13647861668E+04  0.10190993314E+04  0.17764831849E+04  0.50400001928E-02 0.  1.
</event>
<event>
 5   0  0.6584420E-08  0.3398717E+04  0.7818609E-02  0.8138221E-01
       -1   -1    0    0    0  501  0.00000000000E+00  0.00000000000E+00  0.99727536162E+03  0.99727536163E+03  0.50400001928E-02 0.  1.
        1   -1    0    0  501    0  0.00000000000E+00  0.00000000000E+00 -0.28957083569E+04  0.28957083570E+04  0.50400001928E-02 0. -1.
    10030    2    1    2    0    0  0.00000000000E+00  0.00000000000E+00 -0.18984329953E+04  0.38929837186E+04  0.33987165806E+04 0.  0.
        1    1    3    3  502    0 -0.96750216021E+03  0.12423152333E+04 -0.21720758573E+03  0.15895240496E+04  0.50400001928E-02 0. -1.
       -1    1    3    3    0  502  0.96750216021E+03 -0.12423152333E+04 -0.16812254096E+04  0.23034596690E+04  0.50400001928E-02 0.  1.
</event>
<event>
 5   0  0.6311750E-08  0.3382508E+04  0.7818609E-02  0.8142213E-01
       -1   -1    0    0    0  501  0.00000000000E+00  0.00000000000E+00  0.16697142580E+04  0.16697142580E+04  0.50400001928E-02 0.  1.
        1   -1    0    0  501    0  0.00000000000E+00  0.00000000000E+00 -0.17130714763E+04  0.17130714764E+04  0.50400001928E-02 0. -1.
    10030    2    1    2    0    0  0.00000000000E+00  0.00000000000E+00 -0.43357218348E+02  0.33827857344E+04  0.33825078679E+04 0.  0.
        4    1    3    3  502    0 -0.19131432015E+03  0.89551810415E+03  0.14003328525E+04  0.16731669237E+04  0.12699999809E+01 0.  1.
       -4    1    3    3    0  502  0.19131432015E+03 -0.89551810415E+03 -0.14436900709E+04  0.17096188106E+04  0.12699999809E+01 0. -1.
</event>
<event>
 5   0  0.1928004E-07  0.3405556E+04  0.7818609E-02  0.8136544E-01
       -2   -1    0    0    0  501  0.00000000000E+00  0.00000000000E+00  0.13684268670E+04  0.13684268670E+04  0.25500000920E-02 0.  1.
        2   -1    0    0  501    0  0.00000000000E+00  0.00000000000E+00 -0.21188225711E+04  0.21188225711E+04  0.25500000920E-02 0. -1.
    10030    2    1    2    0    0  0.00000000000E+00  0.00000000000E+00 -0.75039570414E+03  0.34872494380E+04  0.34055564788E+04 0.  0.
        2    1    3    3  502    0  0.81246826974E+03 -0.26033812538E+03  0.11337775238E+04  0.14189193431E+04  0.25500000920E-02 0.  1.
       -2    1    3    3    0  502 -0.81246826974E+03  0.26033812538E+03 -0.18841732279E+04  0.20683300949E+04  0.25500000920E-02 0. -1.
</event>
<event>
 5   0  0.1928004E-07  0.3391975E+04  0.7818609E-02  0.8139879E-01
        2   -1    0    0  501    0  0.00000000000E+00  0.00000000000E+00  0.16698220513E+04  0.16698220513E+04  0.25500000920E-02 0. -1.
       -2   -1    0    0    0  501  0.00000000000E+00  0.00000000000E+00 -0.17225628565E+04  0.17225628565E+04  0.25500000920E-02 0.  1.
    10030    2    1    2    0    0  0.00000000000E+00  0.00000000000E+00 -0.52740805233E+02  0.33923849078E+04  0.33919749071E+04 0.  0.
        2    1    3    3  502    0 -0.88235763473E+03  0.99062702448E+03  0.10303918540E+04  0.16797631589E+04  0.25500000920E-02 0. -1.
       -2    1    3    3    0  502  0.88235763473E+03 -0.99062702448E+03 -0.10831326593E+04  0.17126217489E+04  0.25500000920E-02 0.  1.
</event>
<event>
 5   0  0.1986613E-07  0.3414431E+04  0.7818609E-02  0.8134373E-01
       -2   -1    0    0    0  501  0.00000000000E+00  0.00000000000E+00  0.14315617232E+04  0.14315617232E+04  0.25500000920E-02 0.  1.
        2   -1    0    0  501    0  0.00000000000E+00  0.00000000000E+00 -0.20359481956E+04  0.20359481956E+04  0.25500000920E-02 0. -1.
    10030    2    1    2    0    0  0.00000000000E+00  0.00000000000E+00 -0.60438647239E+03  0.34675099189E+04  0.34144314358E+04 0.  0.
        5    1    3    3  502    0 -0.59251207192E+03 -0.69353594997E+02 -0.19266477405E+04  0.20168971423E+04  0.46999998093E+01 0. -1.
       -5    1    3    3    0  502  0.59251207192E+03  0.69353594997E+02  0.13222612681E+04  0.14506127766E+04  0.46999998093E+01 0.  1.
</event>
<event>
 5   0  0.1970449E-07  0.3390260E+04  0.7818609E-02  0.8140301E-01
       -2   -1    0    0    0  501  0.00000000000E+00  0.00000000000E+00  0.15414918052E+04  0.15414918052E+04  0.25500000920E-02 0.  1.
        2   -1    0    0  501    0  0.00000000000E+00  0.00000000000E+00 -0.18640812131E+04  0.18640812131E+04  0.25500000920E-02 0. -1.
    10030    2    1    2    0    0  0.00000000000E+00  0.00000000000E+00 -0.32258940787E+03  0.34055730183E+04  0.33902601164E+04 0.  0.
        1    1    3    3  502    0 -0.20612000520E+03  0.64292722717E+03 -0.17231890335E+04  0.18507353460E+04  0.50400001928E-02 0. -1.
       -1    1    3    3    0  502  0.20612000520E+03 -0.64292722717E+03  0.14005996256E+04  0.15548376723E+04  0.50400001928E-02 0.  1.
</event>
<event>
 5   0  0.6367111E-08  0.3398599E+04  0.7818609E-02  0.8138250E-01
       -1   -1    0    0    0  501  0.00000000000E+00  0.00000000000E+00  0.14047664007E+04  0.14047664007E+04  0.50400001928E-02 0.  1.
        1   -1    0    0  501    0  0.00000000000E+00  0.00000000000E+00 -0.20555858976E+04  0.20555858976E+04  0.50400001928E-02 0. -1.
    10030    2    1    2    0    0  0.00000000000E+00  0.00000000000E+00 -0.65081949694E+03  0.34603522983E+04  0.33985985363E+04 0.  0.
        3    1    3    3  502    0  0.10518672244E+04 -0.50853697428E+02  0.10324673945E+04  0.14747880144E+04  0.10100000352E+00 0.  1.
       -3    1    3    3    0  502 -0.10518672244E+04  0.50853697428E+02 -0.16832868915E+04  0.19855642839E+04  0.10100000352E+00 0. -1.
</event>
<event>
 5   0  0.1963852E-07  0.3394564E+04  0.7818609E-02  0.8139242E-01
        2   -1    0    0  501    0  0.00000000000E+00  0.00000000000E+00  0.19614189711E+04  0.19614189711E+04  0.25500000920E-02 0.  1.
       -2   -1    0    0    0  501  0.00000000000E+00  0.00000000000E+00 -0.14687157163E+04  0.14687157163E+04  0.25500000920E-02 0. -1.
    10030    2    1    2    0    0  0.00000000000E+00  0.00000000000E+00  0.49270325483E+03  0.34301346874E+04  0.33945644015E+04 0.  0.
        4    1    3    3  502    0  0.11251826608E+04  0.71078083814E+03 -0.81802335064E+03  0.15621809226E+04  0.12699999809E+01 0. -1.
       -4    1    3    3    0  502 -0.11251826608E+04 -0.71078083814E+03  0.13107266055E+04  0.18679537647E+04  0.12699999809E+01 0.  1.
</event>
<event>
 5   0  0.1986613E-07  0.3405903E+04  0.7818609E-02  0.8136459E-01
       -2   -1    0    0    0  501  0.00000000000E+00  0.00000000000E+00  0.19009852590E+04  0.19009852590E+04  0.25500000920E-02 0.  1.
        2   -1    0    0  501    0  0.00000000000E+00  0.00000000000E+00 -0.15255481955E+04  0.15255481955E+04  0.25500000920E-02 0. -1.
    10030    2    1    2    0    0  0.00000000000E+00  0.00000000000E+00  0.37543706350E+03  0.34265334546E+04  0.34059034817E+04 0.  0.
        5    1    3    3  502    0 -0.53736509003E+03  0.68543391829E+03  0.16599488665E+04  0.18745754788E+04  0.46999998093E+01 0.  1.
       -5    1    3    3    0  502  0.53736509003E+03 -0.68543391829E+03 -0.12845118030E+04  0.15519579757E+04  0.46999998093E+01 0. -1.
</event>
<event>
 5   0  0.1970449E-07  0.3402311E+04  0.7818609E-02  0.8137339E-01
       -2   -1    0    0    0  501  0.00000000000E+00  0.00000000000E+00  0.97283120050E+03  0.97283120050E+03  0.25500000920E-02 0. -1.
        2   -1    0    0  501    0  0.00000000000E+00  0.00000000000E+00 -0.29747504042E+04  0.29747504042E+04  0.25500000920E-02 0.  1.
    10030    2    1    2    0    0  0.00000000000E+00  0.00000000000E+00 -0.20019192037E+04  0.39475816047E+04  0.34023109834E+04 0.  0.
        1    1    3    3  502    0 -0.38182707850E+03 -0.12634826225E+04 -0.22461511753E+04  0.26052591728E+04  0.50400001928E-02 0.  1.
       -1    1    3    3    0  502  0.38182707850E+03  0.12634826225E+04  0.24423197160E+03  0.13423224319E+04  0.50400001928E-02 0. -1.
</event>
<event>
 5   0  0.6584420E-08  0.3408225E+04  0.7818609E-02  0.8135891E-01
       -1   -1    0    0    0  501  0.00000000000E+00  0.00000000000E+00  0.12277521637E+04  0.12277521637E+04  0.50400001928E-02 0. -1.
        1   -1    0    0  501    0  0.00000000000E+00  0.00000000000E+00 -0.23652980664E+04  0.23652980664E+04  0.50400001928E-02 0.  1.
    10030    2    1    2    0    0  0.00000000000E+00  0.00000000000E+00 -0.11375459027E+04  0.35930502302E+04  0.34082252384E+04 0.  0.
        1    1    3    3  502    0  0.82410053390E+02  0.49162958226E+03  0.11491705200E+04  0.12526308103E+04  0.50400001928E-02 0. -1.
       -1    1    3    3    0  502 -0.82410053390E+02 -0.49162958226E+03 -0.22867164226E+04  0.23404194198E+04  0.50400001928E-02 0.  1.
</event>
<event>
 5   0  0.6788600E-08  0.3402941E+04  0.7818609E-02  0.8137185E-01
       -1   -1    0    0    0  501  0.00000000000E+00  0.00000000000E+00  0.10744518996E+04  0.10744518996E+04  0.50400001928E-02 0. -1.
        1   -1    0    0  501    0  0.00000000000E+00  0.00000000000E+00 -0.26943987270E+04  0.26943987270E+04  0.50400001928E-02 0.  1.
    10030    2    1    2    0    0  0.00000000000E+00  0.00000000000E+00 -0.16199468274E+04  0.37688506266E+04  0.34029409812E+04 0.  0.
        2    1    3    3  502    0 -0.18339466300E+03  0.99792885257E+03 -0.23226735999E+04  0.25346219144E+04  0.25500000920E-02 0.  1.
       -2    1    3    3    0  502  0.18339466300E+03 -0.99792885257E+03  0.70272677247E+03  0.12342287122E+04  0.25500000920E-02 0. -1.
</event>
<event>
 5   0  0.6788600E-08  0.3401185E+04  0.7818609E-02  0.8137616E-01
        1   -1    0    0  501    0  0.00000000000E+00  0.00000000000E+00  0.19194712603E+04  0.19194712603E+04  0.50400001928E-02 0. -1.
       -1   -1    0    0    0  501  0.00000000000E+00  0.00000000000E+00 -0.15066725978E+04  0.15066725978E+04  0.50400001928E-02 0.  1.
    10030    2    1    2    0    0  0.00000000000E+00  0.00000000000E+00  0.41279866246E+03  0.34261438581E+04  0.34011849407E+04 0.  0.
        2    1    3    3  502    0 -0.40565441463E+03 -0.54555252199E+03 -0.13638312921E+04  0.15238828208E+04  0.25500000920E-02 0.  1.
       -2    1    3    3    0  502  0.40565441463E+03  0.54555252199E+03  0.17766299546E+04  0.19022610372E+04  0.25500000920E-02 0. -1.
</event>
<event>
 5   0  0.1928004E-07  0.3400651E+04  0.7818609E-02  0.8137746E-01
        2   -1    0    0  501    0  0.00000000000E+00  0.00000000000E+00  0.25188632534E+04  0.25188632534E+04  0.25500000920E-02 0.  1.
       -2   -1    0    0    0  501  0.00000000000E+00  0.00000000000E+00 -0.11477826047E+04  0.11477826047E+04  0.25500000920E-02 0. -1.
    10030    2    1    2    0    0  0.00000000000E+00  0.00000000000E+00  0.13710806488E+04  0.36666458581E+04  0.34006513646E+04 0.  0.
        2    1    3    3  502    0  0.53488118328E+03  0.14793112239E+04 -0.10431130138E+02  0.15730760903E+04  0.25500000920E-02 0. -1.
       -2    1    3    3    0  502 -0.53488118328E+03 -0.14793112239E+04  0.13815117789E+04  0.20935697678E+04  0.25500000920E-02 0.  1.
</event>
<event>
 5   0  0.1963852E-07  0.3389818E+04  0.7818609E-02  0.8140410E-01
       -2   -1    0    0    0  501  0.00000000000E+00  0.00000000000E+00  0.13046235871E+04  0.13046235871E+04  0.25500000920E-02 0. -1.
        2   -1    0    0  501    0  0.00000000000E+00  0.00000000000E+00 -0.22019509411E+04  0.22019509411E+04  0.25500000920E-02 0.  1.
    10030    2    1    2    0    0  0.00000000000E+00  0.00000000000E+00 -0.89732735399E+03  0.35065745282E+04  0.33898183641E+04 0.  0.
        4    1    3    3  502    0 -0.11717108258E+04  0.66546102475E+03 -0.15121653035E+04  0.20254357933E+04  0.12699999809E+01 0.  1.
       -4    1    3    3    0  502  0.11717108258E+04 -0.66546102475E+03  0.61483794954E+03  0.14811387348E+04  0.12699999809E+01 0. -1.
</event>
<event>
 5   0  0.1986613E-07  0.3413348E+04  0.7818609E-02  0.8134638E-01
       -2   -1    0    0    0  501  0.00000000000E+00  0.00000000000E+00  0.11805166060E+04  0.11805166060E+04  0.25500000920E-02 0.  1.
        2   -1    0    0  501    0  0.00000000000E+00  0.00000000000E+00 -0.24673400222E+04  0.24673400222E+04  0.25500000920E-02 0. -1.
    10030    2    1    2    0    0  0.00000000000E+00  0.00000000000E+00 -0.12868234162E+04  0.36478566282E+04  0.34133478398E+04 0.  0.
        5    1    3    3  502    0  0.13788240918E+04  0.28579851177E+03  0.38714048683E+03  0.14603891646E+04  0.46999998093E+01 0.  1.
       -5    1    3    3    0  502 -0.13788240918E+04 -0.28579851177E+03 -0.16739639031E+04  0.21874674636E+04  0.46999998093E+01 0. -1.
</event>
<event>
 5   0  0.6584420E-08  0.3397304E+04  0.7818609E-02  0.8138568E-01
       -1   -1    0    0    0  501  0.00000000000E+00  0.00000000000E+00  0.16437926082E+04  0.16437926082E+04  0.50400001928E-02 0.  1.
        1   -1    0    0  501    0  0.00000000000E+00  0.00000000000E+00 -0.17553423874E+04  0.17553423874E+04  0.50400001928E-02 0. -1.
    10030    2    1    2    0    0  0.00000000000E+00  0.00000000000E+00 -0.11154977915E+03  0.33991349956E+04  0.33973041320E+04 0.  0.
        1    1    3    3  502    0 -0.96053919983E+03 -0.95098087539E+03 -0.10851240858E+04  0.17333477612E+04  0.50400001928E-02 0. -1.
       -1    1    3    3    0  502  0.96053919983E+03  0.95098087539E+03  0.97357430661E+03  0.16657872344E+04  0.50400001928E-02 0.  1.
</event>
<event>
 5   0  0.6311750E-08  0.3398764E+04  0.7818609E-02  0.8138210E-01
       -1   -1    0    0    0  501  0.00000000000E+00  0.00000000000E+00  0.12016144449E+04  0.12016144449E+04  0.50400001928E-02 0.  1.
        1   -1    0    0  501    0  0.00000000000E+00  0.00000000000E+00 -0.24033486086E+04  0.24033486086E+04  0.50400001928E-02 0. -1.
    10030    2    1    2    0    0  0.00000000000E+00  0.00000000000E+00 -0.12017341637E+04  0.36049630536E+04  0.33987635424E+04 0.  0.
        4    1    3    3  502    0 -0.10150857267E+04  0.12775338081E+04 -0.11044393009E+04  0.19703500820E+04  0.12699999809E+01 0.  1.
       -4    1    3    3    0  502  0.10150857267E+04 -0.12775338081E+04 -0.97294862795E+02  0.16346129715E+04  0.12699999809E+01 0. -1.
</event>
<event>
 5   0  0.1928004E-07  0.3410025E+04  0.7818609E-02  0.8135450E-01
        2   -1    0    0  501    0  0.00000000000E+00  0.00000000000E+00  0.19516654596E+04  0.19516654596E+04  0.25500000920E-02 0. -1.
       -2   -1    0    0    0  501  0.00000000000E+00  0.00000000000E+00 -0.14895318789E+04  0.14895318789E+04  0.25500000920E-02 0.  1.
    10030    2    1    2    0    0  0.00000000000E+00  0.00000000000E+00  0.46213358079E+03  0.34411973385E+04  0.34100251723E+04 0.  0.
        2    1    3    3  502    0  0.16230985989E+04  0.30828546351E+03  0.65632010871E+03  0.17777078145E+04  0.25500000920E-02 0. -1.
       -2    1    3    3    0  502 -0.16230985989E+04 -0.30828546351E+03 -0.19418652792E+03  0.16634895240E+04  0.25500000920E-02 0.  1.
</event>
<event>
 5   0  0.1970449E-07  0.3406977E+04  0.7818609E-02  0.8136196E-01
        2   -1    0    0  501    0  0.00000000000E+00  0.00000000000E+00  0.15179595973E+04  0.15179595973E+04  0.25500000920E-02 0.  1.
       -2   -1    0    0    0  501  0.00000000000E+00  0.00000000000E+00 -0.19116931353E+04  0.19116931353E+04  0.25500000920E-02 0. -1.
    10030    2    1    2    0    0  0.00000000000E+00  0.00000000000E+00 -0.39373353807E+03  0.34296527326E+04  0.34069769250E+04 0.  0.
        1    1    3    3  502    0  0.98170704861E+03 -0.33764690778E+03  0.11627218264E+04  0.15587418675E+04  0.50400001928E-02 0.  1.
       -1    1    3    3    0  502 -0.98170704861E+03  0.33764690778E+03 -0.15564553645E+04  0.18709108652E+04  0.50400001928E-02 0. -1.
</event>
<event>
 5   0  0.1970449E-07  0.3418561E+04  0.7818609E-02  0.8133366E-01
       -2   -1    0    0    0  501  0.00000000000E+00  0.00000000000E+00  0.14933086250E+04  0.14933086250E+04  0.25500000920E-02 0.  1.
        2   -1    0    0  501    0  0.00000000000E+00  0.00000000000E+00 -0.19564879081E+04  0.19564879081E+04  0.25500000920E-02 0. -1.
    10030    2    1    2    0    0  0.00000000000E+00  0.00000000000E+00 -0.46317928309E+03  0.34497965331E+04  0.34185612576E+04 0.  0.
        1    1    3    3  502    0 -0.56431334525E+03 -0.97301232712E+03 -0.15303758602E+04  0.18992769187E+04  0.50400001928E-02 0. -1.
       -1    1    3    3    0  502  0.56431334525E+03  0.97301232712E+03  0.10671965771E+04  0.15505196144E+04  0.50400001928E-02 0.  1.
</event>
<event>
 5   0  0.6788600E-08  0.3402075E+04  0.7818609E-02  0.8137397E-01
       -1   -1    0    0    0  501  0.00000000000E+00  0.00000000000E+00  0.29677857575E+04  0.29677857575E+04  0.50400001928E-02 0.  1.
        1   -1    0    0  501    0  0.00000000000E+00  0.00000000000E+00 -0.97497886621E+03  0.97497886622E+03  0.50400001928E-02 0. -1.
    10030    2    1    2    0    0  0.00000000000E+00  0.00000000000E+00  0.19928068913E+04  0.39427646237E+04  0.34020748922E+04 0.  0.
        2    1    3    3  502    0 -0.81517262573E+03  0.11285900149E+04  0.21291385549E+04  0.25439050331E+04  0.25500000920E-02 0.  1.
       -2    1    3    3    0  502  0.81517262573E+03 -0.11285900149E+04 -0.13633166366E+03  0.13988595906E+04  0.25500000920E-02 0. -1.
</event>
<event>
 5   0  0.1986613E-07  0.3386338E+04  0.7818609E-02  0.8141268E-01
       -2   -1    0    0    0  501  0.00000000000E+00  0.00000000000E+00  0.17729223449E+04  0.17729223449E+04  0.25500000920E-02 0. -1.
        2   -1    0    0  501    0  0.00000000000E+00  0.00000000000E+00 -0.16170032423E+04  0.16170032423E+04  0.25500000920E-02 0.  1.
    10030    2    1    2    0    0  0.00000000000E+00  0.00000000000E+00  0.15591910256E+03  0.33899255873E+04  0.33863379513E+04 0.  0.
        5    1    3    3  502    0 -0.26272827089E+03 -0.27910806312E+03 -0.15729910210E+04  0.16190275777E+04  0.46999998093E+01 0.  1.
       -5    1    3    3    0  502  0.26272827089E+03  0.27910806312E+03  0.17289101235E+04  0.17708980096E+04  0.46999998093E+01 0. -1.
</event>
<event>
 5   0  0.6311750E-08  0.3396451E+04  0.7818609E-02  0.8138778E-01
        1   -1    0    0  501    0  0.00000000000E+00  0.00000000000E+00  0.10591016298E+04  0.10591016298E+04  0.50400001928E-02 0.  1.
       -1   -1    0    0    0  501  0.00000000000E+00  0.00000000000E+00 -0.27230334941E+04  0.27230334941E+04  0.50400001928E-02 0. -1.
    10030    2    1    2    0    0  0.00000000000E+00  0.00000000000E+00 -0.16639318644E+04  0.37821351239E+04  0.33964506247E+04 0.  0.
        4    1    3    3  502    0 -0.78097659272E+03 -0.12140122545E+04 -0.18280952726E+04  0.23293097972E+04  0.12699999809E+01 0. -1.
       -4    1    3    3    0  502  0.78097659272E+03  0.12140122545E+04  0.16416340825E+03  0.14528253267E+04  0.12699999809E+01 0.  1.
</event>
<event>
 5   0  0.6584420E-08  0.3390383E+04  0.7818609E-02  0.8140271E-01
       -1   -1    0    0    0  501  0.00000000000E+00  0.00000000000E+00  0.13451286407E+04  0.13451286407E+04  0.50400001928E-02 0.  1.
        1   -1    0    0  501    0  0.00000000000E+00  0.00000000000E+00 -0.21363561967E+04  0.21363561967E+04  0.50400001928E-02 0. -1.
    10030    2    1    2    0    0  0.00000000000E+00  0.00000000000E+00 -0.79122755596E+03  0.34814848374E+04  0.33903828143E+04 0.  0.
        1    1    3    3  502    0  0.13239431731E+04  0.78526253737E+03 -0.11247723464E+04  0.19064562962E+04  0.50400001928E-02 0. -1.
       -1    1    3    3    0  502 -0.13239431731E+04 -0.78526253737E+03  0.33354479046E+03  0.15750285411E+04  0.50400001928E-02 0.  1.
</event>
<event>
 5   0  0.6584420E-08  0.3400627E+04  0.7818609E-02  0.8137752E-01
       -1   -1    0    0    0  501  0.00000000000E+00  0.00000000000E+00  0.15544957279E+04  0.15544957279E+04  0.50400001928E-02 0.  1.
        1   -1    0    0  501    0  0.00000000000E+00  0.00000000000E+00 -0.18598098493E+04  0.18598098493E+04  0.50400001928E-02 0. -1.
    10030    2    1    2    0    0  0.00000000000E+00  0.00000000000E+00 -0.30531412138E+03  0.34143055773E+04  0.34006272748E+04 0.  0.
        1    1    3    3  502    0 -0.10051204915E+04  0.71338172383E+03  0.10233294249E+04  0.16019936948E+04  0.50400001928E-02 0.  1.
       -1    1    3    3    0  502  0.10051204915E+04 -0.71338172383E+03 -0.13286435463E+04  0.18123118825E+04  0.50400001928E-02 0. -1.
</event>
<event>
 5   0  0.6788600E-08  0.3394919E+04  0.7818609E-02  0.8139154E-01
       -1   -1    0    0    0  501  0.00000000000E+00  0.00000000000E+00  0.18647196291E+04  0.18647196291E+04  0.50400001928E-02 0.  1.
        1   -1    0    0  501    0  0.00000000000E+00  0.00000000000E+00 -0.15452024632E+04  0.15452024632E+04  0.50400001928E-02 0. -1.
    10030    2    1    2    0    0  0.00000000000E+00  0.00000000000E+00  0.31951716590E+03  0.34099220923E+04  0.33949193593E+04 0.  0.
        2    1    3    3  502    0 -0.80392055598E+02  0.78569230143E+03  0.16689277489E+04  0.18463735012E+04  0.25500000920E-02 0.  1.
       -2    1    3    3    0  502  0.80392055598E+02 -0.78569230143E+03 -0.13494105830E+04  0.15635485910E+04  0.25500000920E-02 0. -1.
</event>
<event>
 5   0  0.6367111E-08  0.3395645E+04  0.7818609E-02  0.8138976E-01
        1   -1    0    0  501    0  0.00000000000E+00  0.00000000000E+00  0.20938218585E+04  0.20938218585E+04  0.50400001928E-02 0.  1.
       -1   -1    0    0    0  501  0.00000000000E+00  0.00000000000E+00 -0.13767173206E+04  0.13767173206E+04  0.50400001928E-02 0. -1.
    10030    2    1    2    0    0  0.00000000000E+00  0.00000000000E+00  0.71710453782E+03  0.34705391791E+04  0.33956447511E+04 0.  0.
        3    1    3    3  502    0  0.15381988077E+04 -0.20348080693E+03 -0.34595562608E+03  0.15896997566E+04  0.10100000352E+00 0.  1.
       -3    1    3    3    0  502 -0.15381988077E+04  0.20348080693E+03  0.10630601639E+04  0.18808394225E+04  0.10100000352E+00 0. -1.
</event>
<event>
 5   0  0.1897313E-07  0.3401316E+04  0.7818609E-02  0.8137584E-01
       -2   -1    0    0    0  501  0.00000000000E+00  0.00000000000E+00  0.18639154768E+04  0.18639154768E+04  0.25500000920E-02 0.  1.
        2   -1    0    0  501    0  0.00000000000E+00  0.00000000000E+00 -0.15516995892E+04  0.15516995892E+04  0.25500000920E-02 0. -1.
    10030    2    1    2    0    0  0.00000000000E+00  0.00000000000E+00  0.31221588763E+03  0.34156150660E+04  0.34013155570E+04 0.  0.
        3    1    3    3  502    0 -0.10456340569E+04  0.14919128723E+03 -0.11823979153E+04  0.15854568621E+04  0.10100000352E+00 0. -1.
       -3    1    3    3    0  502  0.10456340569E+04 -0.14919128723E+03  0.14946138030E+04  0.18301582039E+04  0.10100000352E+00 0.  1.
</event>
<event>
 5   0  0.6367111E-08  0.3403223E+04  0.7818609E-02  0.8137116E-01
       -1   -1    0    0    0  501  0.00000000000E+00  0.00000000000E+00  0.12108149694E+04  0.12108149694E+04  0.50400001928E-02 0. -1.
        1   -1    0    0  501    0  0.00000000000E+00  0.00000000000E+00 -0.23913497202E+04  0.23913497202E+04  0.50400001928E-02 0.  1.
    10030    2    1    2    0    0  0.00000000000E+00  0.00000000000E+00 -0.11805347508E+04  0.36021646897E+04  0.34032232007E+04 0.  0.
        3    1    3    3  502    0 -0.51357255073E+03  0.43651683524E+03 -0.22440288984E+04  0.23430683770E+04  0.10100000352E+00 0.  1.
       -3    1    3    3    0  502  0.51357255073E+03 -0.43651683524E+03  0.10634941476E+04  0.12590963126E+04  0.10100000352E+00 0. -1.
</event>
<event>
 5   0  0.1963852E-07  0.3387802E+04  0.7818609E-02  0.8140907E-01
        2   -1    0    0  501    0  0.00000000000E+00  0.00000000000E+00  0.15148185442E+04  0.15148185442E+04  0.25500000920E-02 0.  1.
       -2   -1    0    0    0  501  0.00000000000E+00  0.00000000000E+00 -0.18941546927E+04  0.18941546927E+04  0.25500000920E-02 0. -1.
    10030    2    1    2    0    0  0.00000000000E+00  0.00000000000E+00 -0.37933614842E+03  0.34089732369E+04  0.33878020332E+04 0.  0.
        4    1    3    3  502    0  0.57908702066E+03  0.99204863706E+03 -0.14423561471E+04  0.18438804581E+04  0.12699999809E+01 0. -1.
       -4    1    3    3    0  502 -0.57908702066E+03 -0.99204863706E+03  0.10630199987E+04  0.15650927788E+04  0.12699999809E+01 0.  1.
</event>
<event>
 5   0  0.1897313E-07  0.3400816E+04  0.7818609E-02  0.8137706E-01
       -2   -1    0    0    0  501  0.00000000000E+00  0.00000000000E+00  0.32767214019E+04  0.32767214019E+04  0.25500000920E-02 0. -1.
        2   -1    0    0  501    0  0.00000000000E+00  0.00000000000E+00 -0.88240251416E+03  0.88240251416E+03  0.25500000920E-02 0.  1.
    10030    2    1    2    0    0  0.00000000000E+00  0.00000000000E+00  0.23943188877E+04  0.41591239161E+04  0.34008159040E+04 0.  0.
        3    1    3    3  502    0 -0.12409950575E+04  0.18691024185E+03  0.26003280940E+04  0.28873362080E+04  0.10100000352E+00 0. -1.
       -3    1    3    3    0  502  0.12409950575E+04 -0.18691024185E+03 -0.20600920629E+03  0.12717877081E+04  0.10100000352E+00 0.  1.
</event>
<event>
 5   0  0.1928004E-07  0.3400305E+04  0.7818609E-02  0.8137831E-01
        2   -1    0    0  501    0  0.00000000000E+00  0.00000000000E+00  0.19279393757E+04  0.19279393757E+04  0.25500000920E-02 0.  1.
       -2   -1    0    0    0  501  0.00000000000E+00  0.00000000000E+00 -0.14992791795E+04  0.14992791795E+04  0.25500000920E-02 0. -1.
    10030    2    1    2    0    0  0.00000000000E+00  0.00000000000E+00  0.42866019617E+03  0.34272185552E+04  0.34003054953E+04 0.  0.
        2    1    3    3  502    0  0.13641700331E+03 -0.75410589471E+02  0.19207222782E+04  0.19270366955E+04  0.25500000920E-02 0.  1.
       -2    1    3    3    0  502 -0.13641700331E+03  0.75410589471E+02 -0.14920620820E+04  0.15001818597E+04  0.25500000920E-02 0. -1.
</event>
<event>
 5   0  0.6341535E-08  0.3396619E+04  0.7818609E-02  0.8138737E-01
       -1   -1    0    0    0  501  0.00000000000E+00  0.00000000000E+00  0.12901886142E+04  0.12901886142E+04  0.50400001928E-02 0.  1.
        1   -1    0    0  501    0  0.00000000000E+00  0.00000000000E+00 -0.22355295641E+04  0.22355295642E+04  0.50400001928E-02 0. -1.
    10030    2    1    2    0    0  0.00000000000E+00  0.00000000000E+00 -0.94534094997E+03  0.35257181783E+04  0.33966187836E+04 0.  0.
        5    1    3    3  502    0 -0.83812132721E+03  0.14770544989E+04 -0.48280626973E+03  0.17655767715E+04  0.46999998093E+01 0. -1.
       -5    1    3    3    0  502  0.83812132721E+03 -0.14770544989E+04 -0.46253468023E+03  0.17601414069E+04  0.46999998093E+01 0.  1.
</event>
<event>
 5   0  0.6584420E-08  0.3392385E+04  0.7818609E-02  0.8139778E-01
       -1   -1    0    0    0  501  0.00000000000E+00  0.00000000000E+00  0.12586765368E+04  0.12586765368E+04  0.50400001928E-02 0.  1.
        1   -1    0    0  501    0  0.00000000000E+00  0.00000000000E+00 -0.22857886991E+04  0.22857886991E+04  0.50400001928E-02 0. -1.
    10030    2    1    2    0    0  0.00000000000E+00  0.00000000000E+00 -0.10271121623E+04  0.35444652358E+04  0.33923847680E+04 0.  0.
        1    1    3    3  502    0  0.15781696598E+04  0.59564129816E+03 -0.32764511969E+03  0.17183594955E+04  0.50400001928E-02 0.  1.
       -1    1    3    3    0  502 -0.15781696598E+04 -0.59564129816E+03 -0.69946704262E+03  0.18261057404E+04  0.50400001928E-02 0. -1.
</event>
<event>
 5   0  0.1963852E-07  0.3400542E+04  0.7818609E-02  0.8137773E-01
       -2   -1    0    0    0  501  0.00000000000E+00  0.00000000000E+00  0.17034964345E+04  0.17034964345E+04  0.25500000920E-02 0.  1.
        2   -1    0    0  501    0  0.00000000000E+00  0.00000000000E+00 -0.16970512857E+04  0.16970512857E+04  0.25500000920E-02 0. -1.
    10030    2    1    2    0    0  0.00000000000E+00  0.00000000000E+00  0.64451488693E+01  0.34005477202E+04  0.34005416124E+04 0.  0.
        4    1    3    3  502    0 -0.59073818351E+03 -0.30490109597E+03 -0.15617028932E+04  0.16973078151E+04  0.12699999809E+01 0. -1.
       -4    1    3    3    0  502  0.59073818351E+03  0.30490109597E+03  0.15681480420E+04  0.17032399051E+04  0.12699999809E+01 0.  1.
</event>
<event>
 5   0  0.1963852E-07  0.3397203E+04  0.7818609E-02  0.8138593E-01
        2   -1    0    0  501    0  0.00000000000E+00  0.00000000000E+00  0.17720482940E+04  0.17720482940E+04  0.25500000920E-02 0. -1.
       -2   -1    0    0    0  501  0.00000000000E+00  0.00000000000E+00 -0.16281986814E+04  0.16281986814E+04  0.25500000920E-02 0.  1.
    10030    2    1    2    0    0  0.00000000000E+00  0.00000000000E+00  0.14384961259E+03  0.34002469754E+04  0.33972027879E+04 0.  0.
        4    1    3    3  502    0  0.14183730070E+04  0.14924214878E+03 -0.85150144392E+03  0.16610573524E+04  0.12699999809E+01 0.  1.
       -4    1    3    3    0  502 -0.14183730070E+04 -0.14924214878E+03  0.99535105651E+03  0.17391896230E+04  0.12699999809E+01 0. -1.
</event>
<event>
 5   0  0.1986613E-07  0.3410759E+04  0.7818609E-02  0.8135271E-01
        2   -1    0    0  501    0  0.00000000000E+00  0.00000000000E+00  0.17369429692E+04  0.17369429692E+04  0.25500000920E-02 0. -1.
       -2   -1    0    0    0  501  0.00000000000E+00  0.00000000000E+00 -0.16743896971E+04  0.16743896971E+04  0.25500000920E-02 0.  1.
    10030    2    1    2    0    0  0.00000000000E+00  0.00000000000E+00  0.62553272037E+02  0.34113326663E+04  0.34107591015E+04 0.  0.
        5    1    3    3  502    0 -0.23535758759E+03  0.43694774132E+03  0.16631087873E+04  0.17355890790E+04  0.46999998093E+01 0. -1.
       -5    1    3    3    0  502  0.23535758759E+03 -0.43694774132E+03 -0.16005555153E+04  0.16757435873E+04  0.46999998093E+01 0.  1.
</event>
<event>
 5   0  0.1897313E-07  0.3416605E+04  0.7818609E-02  0.8133843E-01
        2   -1    0    0  501    0  0.00000000000E+00  0.00000000000E+00  0.26136734604E+04  0.26136734604E+04  0.25500000920E-02 0.  1.
       -2   -1    0    0    0  501  0.00000000000E+00  0.00000000000E+00 -0.11165500495E+04  0.11165500495E+04  0.25500000920E-02 0. -1.
    10030    2    1    2    0    0  0.00000000000E+00  0.00000000000E+00  0.14971234109E+04  0.37302235099E+04  0.34166048830E+04 0.  0.
        3    1    3    3  502    0  0.16366842767E+04 -0.12721527919E+03  0.12645743779E+04  0.20722131927E+04  0.10100000352E+00 0.  1.
       -3    1    3    3    0  502 -0.16366842767E+04  0.12721527919E+03  0.23254903307E+03  0.16580103172E+04  0.10100000352E+00 0. -1.
</event>
<event>
 5   0  0.1963852E-07  0.3392861E+04  0.7818609E-02  0.8139661E-01
       -2   -1    0    0    0  501  0.00000000000E+00  0.00000000000E+00  0.19606485926E+04  0.19606485926E+04  0.25500000920E-02 0. -1.
        2   -1    0    0  501    0  0.00000000000E+00  0.00000000000E+00 -0.14678187254E+04  0.14678187254E+04  0.25500000920E-02 0.  1.
    10030    2    1    2    0    0  0.00000000000E+00  0.00000000000E+00  0.49282986719E+03  0.34284673179E+04  0.33928611631E+04 0.  0.
        4    1    3    3  502    0 -0.14176901007E+04  0.38113944418E+03 -0.61266141669E+03  0.15907445181E+04  0.12699999809E+01 0. -1.
       -4    1    3    3    0  502  0.14176901007E+04 -0.38113944418E+03  0.11054912839E+04  0.18377227998E+04  0.12699999809E+01 0.  1.
</event>
<event>
 5   0  0.6341535E-08  0.3401367E+04  0.7818609E-02  0.8137571E-01
        1   -1    0    0  501    0  0.00000000000E+00  0.00000000000E+00  0.18550694840E+04  0.18550694840E+04  0.50400001928E-02 0. -1.
       -1   -1    0    0    0  501  0.00000000000E+00  0.00000000000E+00 -0.15591459924E+04  0.15591459924E+04  0.50400001928E-02 0.  1.
    10030    2    1    2    0    0  0.00000000000E+00  0.00000000000E+00  0.29592349163E+03  0.34142154764E+04  0.34013668733E+04 0.  0.
        5    1    3    3  502    0 -0.39612718790E+03  0.70479799172E+03  0.16498239006E+04  0.18372800416E+04  0.46999998093E+01 0. -1.
       -5    1    3    3    0  502  0.39612718790E+03 -0.70479799172E+03 -0.13539004090E+04  0.15769354348E+04  0.46999998093E+01 0.  1.
</event>
<event>
 5   0  0.6788600E-08  0.3386118E+04  0.7818609E-02  0.8141322E-01
       -1   -1    0    0    0  501  0.00000000000E+00  0.00000000000E+00  0.36695074839E+04  0.36695074839E+04  0.50400001928E-02 0. -1.
        1   -1    0    0  501    0  0.00000000000E+00  0.00000000000E+00 -0.78115340740E+03  0.78115340742E+03  0.50400001928E-02 0.  1.
    10030    2    1    2    0    0  0.00000000000E+00  0.00000000000E+00  0.28883540765E+04  0.44506608913E+04  0.33861177030E+04 0.  0.
        2    1    3    3  502    0 -0.14420653381E+04 -0.17643100808E+03  0.25868361472E+04  0.29668841555E+04  0.25500000920E-02 0. -1.
       -2    1    3    3    0  502  0.14420653381E+04  0.17643100808E+03  0.30151792935E+03  0.14837767358E+04  0.25500000920E-02 0.  1.
</event>
<event>
 5   0  0.1963852E-07  0.3398676E+04  0.7818609E-02  0.8138231E-01
       -2   -1    0    0    0  501  0.00000000000E+00  0.00000000000E+00  0.10877189669E+04  0.10877189669E+04  0.25500000920E-02 0.  1.
        2   -1    0    0  501    0  0.00000000000E+00  0.00000000000E+00 -0.26548668527E+04  0.26548668527E+04  0.25500000920E-02 0. -1.
    10030    2    1    2    0    0  0.00000000000E+00  0.00000000000E+00 -0.15671478859E+04  0.37425858196E+04  0.33986756422E+04 0.  0.
        4    1    3    3  502    0  0.15867177694E+03 -0.13285568614E+04 -0.19372018876E+04  0.23543561398E+04  0.12699999809E+01 0. -1.
       -4    1    3    3    0  502 -0.15867177694E+03  0.13285568614E+04  0.37005400175E+03  0.13882296798E+04  0.12699999809E+01 0.  1.
</event>
<event>
 5   0  0.1897313E-07  0.3399869E+04  0.7818609E-02  0.8137939E-01
        2   -1    0    0  501    0  0.00000000000E+00  0.00000000000E+00  0.21898926088E+04  0.21898926088E+04  0.25500000920E-02 0. -1.
       -2   -1    0    0    0  501  0.00000000000E+00  0.00000000000E+00 -0.13195973462E+04  0.13195973462E+04  0.25500000920E-02 0.  1.
    10030    2    1    2    0    0  0.00000000000E+00  0.00000000000E+00  0.87029526252E+03  0.35094899550E+04  0.33998685122E+04 0.  0.
        3    1    3    3  502    0 -0.80570926950E+03 -0.13691470077E+04  0.10596720503E+04  0.19096166683E+04  0.10100000352E+00 0. -1.
       -3    1    3    3    0  502  0.80570926950E+03  0.13691470077E+04 -0.18937678775E+03  0.15998732867E+04  0.10100000352E+00 0.  1.
</event>
<event>
 5   0  0.6311750E-08  0.3415232E+04  0.7818609E-02  0.8134178E-01
        3   -1    0    0  501    0  0.00000000000E+00  0.00000000000E+00  0.13555630290E+04  0.13555630327E+04  0.10100000352E+00 0. -1.
       -3   -1    0    0    0  501  0.00000000000E+00  0.00000000000E+00 -0.21511010252E+04  0.21511010276E+04  0.10100000352E+00 0.  1.
    10030    2    1    2    0    0  0.00000000000E+00  0.00000000000E+00 -0.79553799626E+03  0.35066640603E+04  0.34152323682E+04 0.  0.
        1    1    3    3  502    0 -0.83531689886E+03 -0.14163851591E+04  0.75049955384E+02  0.16460661397E+04  0.50400001928E-02 0. -1.
       -1    1    3    3    0  502  0.83531689886E+03  0.14163851591E+04 -0.87058795164E+03  0.18605979206E+04  0.50400001928E-02 0.  1.
</event>
<event>
 5   0  0.1928004E-07  0.3393831E+04  0.7818609E-02  0.8139422E-01
        2   -1    0    0  501    0  0.00000000000E+00  0.00000000000E+00  0.14861153578E+04  0.14861153578E+04  0.25500000920E-02 0.  1.
       -2   -1    0    0    0  501  0.00000000000E+00  0.00000000000E+00 -0.19376168834E+04  0.19376168834E+04  0.25500000920E-02 0. -1.
    10030    2    1    2    0    0  0.00000000000E+00  0.00000000000E+00 -0.45150152561E+03  0.34237322412E+04  0.33938309964E+04 0.  0.
        2    1    3    3  502    0  0.31805844076E+03 -0.13751593678E+04 -0.11760147499E+04  0.18371813058E+04  0.25500000920E-02 0. -1.
       -2    1    3    3    0  502 -0.31805844076E+03  0.13751593678E+04  0.72451322425E+03  0.15865509354E+04  0.25500000920E-02 0.  1.
</event>
<event>
 5   0  0.1963852E-07  0.3400424E+04  0.7818609E-02  0.8137802E-01
       -2   -1    0    0    0  501  0.00000000000E+00  0.00000000000E+00  0.17827579081E+04  0.17827579081E+04  0.25500000920E-02 0.  1.
        2   -1    0    0  501    0  0.00000000000E+00  0.00000000000E+00 -0.16214886210E+04  0.16214886210E+04  0.25500000920E-02 0. -1.
    10030    2    1    2    0    0  0.00000000000E+00  0.00000000000E+00  0.16126928716E+03  0.34042465291E+04  0.34004244806E+04 0.  0.
        4    1    3    3  502    0  0.13868577116E+04 -0.47144873947E+01 -0.90399689132E+03  0.16554783391E+04  0.12699999809E+01 0. -1.
       -4    1    3    3    0  502 -0.13868577116E+04  0.47144873947E+01  0.10652661785E+04  0.17487681901E+04  0.12699999809E+01 0.  1.
</event>
<event>
 5   0  0.6584420E-08  0.3402803E+04  0.7818609E-02  0.8137219E-01
       -1   -1    0    0    0  501  0.00000000000E+00  0.00000000000E+00  0.13936000183E+04  0.13936000183E+04  0.50400001928E-02 0. -1.
        1   -1    0    0  501    0  0.00000000000E+00  0.00000000000E+00 -0.20771868206E+04  0.20771868206E+04  0.50400001928E-02 0.  1.
    10030    2    1    2    0    0  0.00000000000E+00  0.00000000000E+00 -0.68358680235E+03  0.34707868389E+04  0.34028033097E+04 0.  0.
        1    1    3    3  502    0  0.76115930177E+03 -0.25603309915E+03  0.11881240184E+04  0.14340694243E+04  0.50400001928E-02 0. -1.
       -1    1    3    3    0  502 -0.76115930177E+03  0.25603309915E+03 -0.18717108207E+04  0.20367174146E+04  0.50400001928E-02 0.  1.
</event>
<event>
 5   0  0.1928004E-07  0.3398071E+04  0.7818609E-02  0.8138380E-01
        2   -1    0    0  501    0  0.00000000000E+00  0.00000000000E+00  0.27168193508E+04  0.27168193508E+04  0.25500000920E-02 0. -1.
       -2   -1    0    0    0  501  0.00000000000E+00  0.00000000000E+00 -0.10625371520E+04  0.10625371520E+04  0.25500000920E-02 0.  1.
    10030    2    1    2    0    0  0.00000000000E+00  0.00000000000E+00  0.16542821988E+04  0.37793565028E+04  0.33980709207E+04 0.  0.
        2    1    3    3  502    0  0.36742473211E+03  0.80194098189E+03  0.24421825701E+04  0.25966066275E+04  0.25500000920E-02 0. -1.
       -2    1    3    3    0  502 -0.36742473211E+03 -0.80194098189E+03 -0.78790037139E+03  0.11827498753E+04  0.25500000920E-02 0.  1.
</event>
<event>
 5   0  0.6341535E-08  0.3397160E+04  0.7818609E-02  0.8138604E-01
       -1   -1    0    0    0  501  0.00000000000E+00  0.00000000000E+00  0.99481295621E+03  0.99481295622E+03  0.50400001928E-02 0.  1.
        1   -1    0    0  501    0  0.00000000000E+00  0.00000000000E+00 -0.29002171451E+04  0.29002171451E+04  0.50400001928E-02 0. -1.
    10030    2    1    2    0    0  0.00000000000E+00  0.00000000000E+00 -0.19054041889E+04  0.38950301013E+04  0.33971597500E+04 0.  0.
        5    1    3    3  502    0 -0.13192032308E+04 -0.76690361764E+03 -0.18081835499E+04  0.23660067969E+04  0.46999998093E+01 0. -1.
       -5    1    3    3    0  502  0.13192032308E+04  0.76690361764E+03 -0.97220638964E+02  0.15290233044E+04  0.46999998093E+01 0.  1.
</event>
<event>
 5   0  0.6367111E-08  0.3408232E+04  0.7818609E-02  0.8135889E-01
        1   -1    0    0  501    0  0.00000000000E+00  0.00000000000E+00  0.20123072125E+04  0.20123072125E+04  0.50400001928E-02 0. -1.
       -1   -1    0    0    0  501  0.00000000000E+00  0.00000000000E+00 -0.14431249220E+04  0.14431249220E+04  0.50400001928E-02 0.  1.
    10030    2    1    2    0    0  0.00000000000E+00  0.00000000000E+00  0.56918229046E+03  0.34554321345E+04  0.34082316172E+04 0.  0.
        3    1    3    3  502    0  0.16347633596E+04 -0.20570120416E+03  0.72564044729E+03  0.18003661562E+04  0.10100000352E+00 0. -1.
       -3    1    3    3    0  502 -0.16347633596E+04  0.20570120416E+03 -0.15645815683E+03  0.16550659783E+04  0.10100000352E+00 0.  1.
</event>
<event>
 5   0  0.1986613E-07  0.3405972E+04  0.7818609E-02  0.8136442E-01
       -2   -1    0    0    0  501  0.00000000000E+00  0.00000000000E+00  0.99543885166E+03  0.99543885166E+03  0.25500000920E-02 0. -1.
        2   -1    0    0  501    0  0.00000000000E+00  0.00000000000E+00 -0.29134507337E+04  0.29134507337E+04  0.25500000920E-02 0.  1.
    10030    2    1    2    0    0  0.00000000000E+00  0.00000000000E+00 -0.19180118820E+04  0.39088895854E+04  0.34059724325E+04 0.  0.
        5    1    3    3  502    0  0.80510484735E+03  0.21258378799E+03  0.74585618693E+03  0.11179039421E+04  0.46999998093E+01 0. -1.
       -5    1    3    3    0  502 -0.80510484735E+03 -0.21258378799E+03 -0.26638680690E+04  0.27909856433E+04  0.46999998093E+01 0.  1.
</event>
<event>
 5   0  0.6341535E-08  0.3414171E+04  0.7818609E-02  0.8134437E-01
        1   -1    0    0  501    0  0.00000000000E+00  0.00000000000E+00  0.20563089779E+04  0.20563089779E+04  0.50400001928E-02 0. -1.
       -1   -1    0    0    0  501  0.00000000000E+00  0.00000000000E+00 -0.14171706458E+04  0.14171706458E+04  0.50400001928E-02 0.  1.
    10030    2    1    2    0    0  0.00000000000E+00  0.00000000000E+00  0.63913833215E+03  0.34734796237E+04  0.34141708933E+04 0.  0.
        5    1    3    3  502    0 -0.11897130317E+04 -0.61817111020E+03  0.13946019340E+04  0.19345514373E+04  0.46999998093E+01 0. -1.
       -5    1    3    3    0  502  0.11897130317E+04  0.61817111020E+03 -0.75546360182E+03  0.15389281864E+04  0.46999998093E+01 0.  1.
</event>
<event>
 5   0  0.1897313E-07  0.3404147E+04  0.7818609E-02  0.8136889E-01
        2   -1    0    0  501    0  0.00000000000E+00  0.00000000000E+00  0.21423258196E+04  0.21423258196E+04  0.25500000920E-02 0. -1.
       -2   -1    0    0    0  501  0.00000000000E+00  0.00000000000E+00 -0.13522938335E+04  0.13522938335E+04  0.25500000920E-02 0.  1.
    10030    2    1    2    0    0  0.00000000000E+00  0.00000000000E+00  0.79003198605E+03  0.34946196531E+04  0.34041468800E+04 0.  0.
        3    1    3    3  502    0 -0.11224425426E+02  0.13662968924E+04  0.14369594079E+04  0.19828629645E+04  0.10100000352E+00 0. -1.
       -3    1    3    3    0  502  0.11224425426E+02 -0.13662968924E+04 -0.64692742184E+03  0.15117566885E+04  0.10100000352E+00 0.  1.
</event>
<event>
 5   0  0.6584420E-08  0.3385276E+04  0.7818609E-02  0.8141530E-01
       -1   -1    0    0    0  501  0.00000000000E+00  0.00000000000E+00  0.10094815926E+04  0.10094815926E+04  0.50400001928E-02 0.  1.
        1   -1    0    0  501    0  0.00000000000E+00  0.00000000000E+00 -0.28381130746E+04  0.28381130746E+04  0.50400001928E-02 0. -1.
    10030    2    1    2    0    0  0.00000000000E+00  0.00000000000E+00 -0.18286314820E+04  0.38475946671E+04  0.33852757089E+04 0.  0.
        1    1    3    3  502    0  0.41642402046E+03  0.11913580139E+02 -0.27789351601E+04  0.28099878153E+04  0.50400001928E-02 0. -1.
       -1    1    3    3    0  502 -0.41642402046E+03 -0.11913580139E+02  0.95030367812E+03  0.10376068518E+04  0.50400001928E-02 0.  1.
</event>
<event>
 5   0  0.6341535E-08  0.3328802E+04  0.7818609E-02  0.8155605E-01
       -1   -1    0    0    0  501  0.00000000000E+00  0.00000000000E+00  0.10532278588E+04  0.10532278588E+04  0.50400001928E-02 0.  1.
        1   -1    0    0  501    0  0.00000000000E+00  0.00000000000E+00 -0.26302291019E+04  0.26302291019E+04  0.50400001928E-02 0. -1.
    10030    2    1    2    0    0  0.00000000000E+00  0.00000000000E+00 -0.15770012430E+04  0.36834569607E+04  0.33288019257E+04 0.  0.
        5    1    3    3  502    0  0.82341867638E+03  0.14386924620E+04 -0.62305822733E+03  0.17708975017E+04  0.46999998093E+01 0.  1.
       -5    1    3    3    0  502 -0.82341867638E+03 -0.14386924620E+04 -0.95394301571E+03  0.19125594590E+04  0.46999998093E+01 0. -1.
</event>
<event>
 5   0  0.1897313E-07  0.3392793E+04  0.7818609E-02  0.8139678E-01
       -2   -1    0    0    0  501  0.00000000000E+00  0.00000000000E+00  0.15862210564E+04  0.15862210564E+04  0.25500000920E-02 0. -1.
        2   -1    0    0  501    0  0.00000000000E+00  0.00000000000E+00 -0.18142239575E+04  0.18142239575E+04  0.25500000920E-02 0.  1.
    10030    2    1    2    0    0  0.00000000000E+00  0.00000000000E+00 -0.22800290115E+03  0.34004450139E+04  0.33927925032E+04 0.  0.
        3    1    3    3  502    0 -0.92493518115E+03 -0.23885937747E+03 -0.15190197563E+04  0.17944302499E+04  0.10100000352E+00 0.  1.
       -3    1    3    3    0  502  0.92493518115E+03  0.23885937747E+03  0.12910168552E+04  0.16060147640E+04  0.10100000352E+00 0. -1.
</event>
<event>
 5   0  0.1986613E-07  0.3398625E+04  0.7818609E-02  0.8138244E-01
       -2   -1    0    0    0  501  0.00000000000E+00  0.00000000000E+00  0.13291709708E+04  0.13291709708E+04  0.25500000920E-02 0.  1.
        2   -1    0    0  501    0  0.00000000000E+00  0.00000000000E+00 -0.21725288259E+04  0.21725288259E+04  0.25500000920E-02 0. -1.
    10030    2    1    2    0    0  0.00000000000E+00  0.00000000000E+00 -0.84335785512E+03  0.35016997968E+04  0.33986245740E+04 0.  0.
        5    1    3    3  502    0 -0.13535361788E+04 -0.96507609944E+03 -0.58558512833E+02  0.16633950987E+04  0.46999998093E+01 0. -1.
       -5    1    3    3    0  502  0.13535361788E+04  0.96507609944E+03 -0.78479934229E+03  0.18383046980E+04  0.46999998093E+01 0.  1.
</event>
<event>
 5   0  0.1986613E-07  0.3396705E+04  0.7818609E-02  0.8138715E-01
        2   -1    0    0  501    0  0.00000000000E+00  0.00000000000E+00  0.11313579455E+04  0.11313579455E+04  0.25500000920E-02 0. -1.
       -2   -1    0    0    0  501  0.00000000000E+00  0.00000000000E+00 -0.25495038424E+04  0.25495038424E+04  0.25500000920E-02 0.  1.
    10030    2    1    2    0    0  0.00000000000E+00  0.00000000000E+00 -0.14181458969E+04  0.36808617879E+04  0.33967051266E+04 0.  0.
        5    1    3    3  502    0  0.10521767506E+03 -0.12346808435E+04  0.54949596527E+03  0.13555351158E+04  0.46999998093E+01 0. -1.
       -5    1    3    3    0  502 -0.10521767506E+03  0.12346808435E+04 -0.19676418621E+04  0.23253266721E+04  0.46999998093E+01 0.  1.
</event>
<event>
 5   0  0.6311750E-08  0.3411892E+04  0.7818609E-02  0.8134994E-01
        1   -1    0    0  501    0  0.00000000000E+00  0.00000000000E+00  0.34549635951E+04  0.34549635951E+04  0.50400001928E-02 0. -1.
       -1   -1    0    0    0  501  0.00000000000E+00  0.00000000000E+00 -0.84233918823E+03  0.84233918825E+03  0.50400001928E-02 0.  1.
    10030    2    1    2    0    0  0.00000000000E+00  0.00000000000E+00  0.26126244068E+04  0.42973027833E+04  0.34118916924E+04 0.  0.
        4    1    3    3  502    0 -0.70911731827E+03  0.15356414588E+04  0.15857059078E+04  0.23185139422E+04  0.12699999809E+01 0.  1.
       -4    1    3    3    0  502  0.70911731827E+03 -0.15356414588E+04  0.10269184990E+04  0.19787888411E+04  0.12699999809E+01 0. -1.
</event>
<event>
 5   0  0.6311750E-08  0.3391258E+04  0.7818609E-02  0.8140055E-01
        3   -1    0    0  501    0  0.00000000000E+00  0.00000000000E+00  0.21703553498E+04  0.21703553521E+04  0.10100000352E+00 0.  1.
       -3   -1    0    0    0  501  0.00000000000E+00  0.00000000000E+00 -0.13247407478E+04  0.13247407516E+04  0.10100000352E+00 0. -1.
    10030    2    1    2    0    0  0.00000000000E+00  0.00000000000E+00  0.84561460197E+03  0.34950961037E+04  0.33912582797E+04 0.  0.
        2    1    3    3  502    0  0.32896621163E+03  0.15124611797E+04 -0.29078069800E+03  0.15749003152E+04  0.25500000920E-02 0. -1.
       -2    1    3    3    0  502 -0.32896621163E+03 -0.15124611797E+04  0.11363953000E+04  0.19201957885E+04  0.25500000920E-02 0.  1.
</event>
<event>
 5   0  0.6311750E-08  0.3387322E+04  0.7818609E-02  0.8141025E-01
        1   -1    0    0  501    0  0.00000000000E+00  0.00000000000E+00  0.18832398460E+04  0.18832398461E+04  0.50400001928E-02 0. -1.
       -1   -1    0    0    0  501  0.00000000000E+00  0.00000000000E+00 -0.15231664097E+04  0.15231664097E+04  0.50400001928E-02 0.  1.
    10030    2    1    2    0    0  0.00000000000E+00  0.00000000000E+00  0.36007343639E+03  0.34064062557E+04  0.33873220543E+04 0.  0.
        4    1    3    3  502    0 -0.74452612504E+03  0.95114080097E+03  0.13739483886E+04  0.18294053027E+04  0.12699999809E+01 0. -1.
       -4    1    3    3    0  502  0.74452612504E+03 -0.95114080097E+03 -0.10138749522E+04  0.15770009530E+04  0.12699999809E+01 0.  1.
</event>
<event>
 5   0  0.6367111E-08  0.3395622E+04  0.7818609E-02  0.8138982E-01
        1   -1    0    0  501    0  0.00000000000E+00  0.00000000000E+00  0.19828204790E+04  0.19828204790E+04  0.50400001928E-02 0. -1.
       -1   -1    0    0    0  501  0.00000000000E+00  0.00000000000E+00 -0.14537684941E+04  0.14537684941E+04  0.50400001928E-02 0.  1.
    10030    2    1    2    0    0  0.00000000000E+00  0.00000000000E+00  0.52905198486E+03  0.34365889731E+04  0.33956218529E+04 0.  0.
        3    1    3    3  502    0  0.15176953123E+04 -0.52149987387E+03 -0.29641788202E+03  0.16319389542E+04  0.10100000352E+00 0.  1.
       -3    1    3    3    0  502 -0.15176953123E+04  0.52149987387E+03  0.82546986688E+03  0.18046500189E+04  0.10100000352E+00 0. -1.
</event>
<event>
 5   0  0.6311750E-08  0.3403408E+04  0.7818609E-02  0.8137071E-01
       -1   -1    0    0    0  501  0.00000000000E+00  0.00000000000E+00  0.17020614470E+04  0.17020614470E+04  0.50400001928E-02 0. -1.
        1   -1    0    0  501    0  0.00000000000E+00  0.00000000000E+00 -0.17013461698E+04  0.17013461698E+04  0.50400001928E-02 0.  1.
    10030    2    1    2    0    0  0.00000000000E+00  0.00000000000E+00  0.71527717934E+00  0.34034076169E+04  0.34034075417E+04 0.  0.
        4    1    3    3  502    0 -0.11473792783E+04  0.92399320987E+03 -0.85143545993E+03  0.17015247913E+04  0.12699999809E+01 0. -1.
       -4    1    3    3    0  502  0.11473792783E+04 -0.92399320987E+03  0.85215073711E+03  0.17018828255E+04  0.12699999809E+01 0.  1.
</event>
<event>
 5   0  0.1897313E-07  0.3400839E+04  0.7818609E-02  0.8137700E-01
       -2   -1    0    0    0  501  0.00000000000E+00  0.00000000000E+00  0.13585257149E+04  0.13585257149E+04  0.25500000920E-02 0. -1.
        2   -1    0    0  501    0  0.00000000000E+00  0.00000000000E+00 -0.21283562525E+04  0.21283562525E+04  0.25500000920E-02 0.  1.
    10030    2    1    2    0    0  0.00000000000E+00  0.00000000000E+00 -0.76983053759E+03  0.34868819674E+04  0.34008391315E+04 0.  0.
        3    1    3    3  502    0 -0.11155054591E+04  0.72717626280E+03  0.69933159043E+03  0.15040619768E+04  0.10100000352E+00 0. -1.
       -3    1    3    3    0  502  0.11155054591E+04 -0.72717626280E+03 -0.14691621280E+04  0.19828199906E+04  0.10100000352E+00 0.  1.
</event>
<event>
 5   0  0.1986613E-07  0.3399112E+04  0.7818609E-02  0.8138124E-01
       -2   -1    0    0    0  501  0.00000000000E+00  0.00000000000E+00  0.11497240961E+04  0.11497240961E+04  0.25500000920E-02 0. -1.
        2   -1    0    0  501    0  0.00000000000E+00  0.00000000000E+00 -0.25123343264E+04  0.25123343264E+04  0.25500000920E-02 0.  1.
    10030    2    1    2    0    0  0.00000000000E+00  0.00000000000E+00 -0.13626102302E+04  0.36620584225E+04  0.33991124210E+04 0.  0.
        5    1    3    3  502    0  0.36474371590E+03  0.36406886827E+01  0.11070488616E+04  0.11656030649E+04  0.46999998093E+01 0. -1.
       -5    1    3    3    0  502 -0.36474371590E+03 -0.36406886827E+01 -0.24696590918E+04  0.24964553576E+04  0.46999998093E+01 0.  1.
</event>
<event>
 5   0  0.1986613E-07  0.3396138E+04  0.7818609E-02  0.8138855E-01
        2   -1    0    0  501    0  0.00000000000E+00  0.00000000000E+00  0.21597013094E+04  0.21597013094E+04  0.25500000920E-02 0.  1.
       -2   -1    0    0    0  501  0.00000000000E+00  0.00000000000E+00 -0.13351099017E+04  0.13351099017E+04  0.25500000920E-02 0. -1.
    10030    2    1    2    0    0  0.00000000000E+00  0.00000000000E+00  0.82459140765E+03  0.34948112111E+04  0.33961381615E+04 0.  0.
        5    1    3    3  502    0 -0.46917878982E+03 -0.67830018022E+03  0.19397386626E+04  0.21078017081E+04  0.46999998093E+01 0.  1.
       -5    1    3    3    0  502  0.46917878982E+03  0.67830018022E+03 -0.11151472550E+04  0.13870095031E+04  0.46999998093E+01 0. -1.
</event>
<event>
 5   0  0.6584420E-08  0.3404179E+04  0.7818609E-02  0.8136881E-01
        1   -1    0    0  501    0  0.00000000000E+00  0.00000000000E+00  0.23690448984E+04  0.23690448984E+04  0.50400001928E-02 0.  1.
       -1   -1    0    0    0  501  0.00000000000E+00  0.00000000000E+00 -0.12229015631E+04  0.12229015631E+04  0.50400001928E-02 0. -1.
    10030    2    1    2    0    0  0.00000000000E+00  0.00000000000E+00  0.11461433353E+04  0.35919464616E+04  0.34041790255E+04 0.  0.
        1    1    3    3  502    0 -0.47717933421E+03 -0.16302938845E+04  0.45967069629E+03  0.17597884577E+04  0.50400001928E-02 0.  1.
       -1    1    3    3    0  502  0.47717933421E+03  0.16302938845E+04  0.68647263901E+03  0.18321580038E+04  0.50400001928E-02 0. -1.
</event>
<event>
 5   0  0.1970449E-07  0.3394608E+04  0.7818609E-02  0.8139231E-01
        2   -1    0    0  501    0  0.00000000000E+00  0.00000000000E+00  0.21178262616E+04  0.21178262616E+04  0.25500000920E-02 0.  1.
       -2   -1    0    0    0  501  0.00000000000E+00  0.00000000000E+00 -0.13602822183E+04  0.13602822183E+04  0.25500000920E-02 0. -1.
    10030    2    1    2    0    0  0.00000000000E+00  0.00000000000E+00  0.75754404321E+03  0.34781084799E+04  0.33946083162E+04 0.  0.
        1    1    3    3  502    0 -0.15286726848E+04  0.45797413171E+03  0.97114638670E+03  0.18680754232E+04  0.50400001928E-02 0.  1.
       -1    1    3    3    0  502  0.15286726848E+04 -0.45797413171E+03 -0.21360234348E+03  0.16100330567E+04  0.50400001928E-02 0. -1.
</event>
<event>
 5   0  0.1970449E-07  0.3415237E+04  0.7818609E-02  0.8134177E-01
       -2   -1    0    0    0  501  0.00000000000E+00  0.00000000000E+00  0.20286626028E+04  0.20286626028E+04  0.25500000920E-02 0. -1.
        2   -1    0    0  501    0  0.00000000000E+00  0.00000000000E+00 -0.14373813243E+04  0.14373813243E+04  0.25500000920E-02 0.  1.
    10030    2    1    2    0    0  0.00000000000E+00  0.00000000000E+00  0.59128127853E+03  0.34660439271E+04  0.34152374668E+04 0.  0.
        1    1    3    3  502    0  0.63492493367E+02 -0.55315065046E+03  0.19339525760E+04  0.20125057777E+04  0.50400001928E-02 0. -1.
       -1    1    3    3    0  502 -0.63492493367E+02  0.55315065046E+03 -0.13426712975E+04  0.14535381495E+04  0.50400001928E-02 0.  1.
</event>
<event>
 5   0  0.6367111E-08  0.3420915E+04  0.7818609E-02  0.8132792E-01
       -1   -1    0    0    0  501  0.00000000000E+00  0.00000000000E+00  0.13443467197E+04  0.13443467197E+04  0.50400001928E-02 0. -1.
        1   -1    0    0  501    0  0.00000000000E+00  0.00000000000E+00 -0.21762721797E+04  0.21762721797E+04  0.50400001928E-02 0.  1.
    10030    2    1    2    0    0  0.00000000000E+00  0.00000000000E+00 -0.83192546000E+03  0.35206188993E+04  0.34209147115E+04 0.  0.
        3    1    3    3  502    0 -0.42405638938E+03  0.16498742679E+04 -0.57458284352E+03  0.17977915273E+04  0.10100000352E+00 0.  1.
       -3    1    3    3    0  502  0.42405638938E+03 -0.16498742679E+04 -0.25734261647E+03  0.17228273720E+04  0.10100000352E+00 0. -1.
</event>
<event>
 5   0  0.1963852E-07  0.3402192E+04  0.7818609E-02  0.8137369E-01
        2   -1    0    0  501    0  0.00000000000E+00  0.00000000000E+00  0.27779578676E+04  0.27779578676E+04  0.25500000920E-02 0. -1.
       -2   -1    0    0    0  501  0.00000000000E+00  0.00000000000E+00 -0.10416743310E+04  0.10416743310E+04  0.25500000920E-02 0.  1.
    10030    2    1    2    0    0  0.00000000000E+00  0.00000000000E+00  0.17362835366E+04  0.38196321986E+04  0.34021918836E+04 0.  0.
        4    1    3    3  502    0  0.83611409594E+03  0.80566040106E+03  0.22638811006E+04  0.25442748896E+04  0.12699999809E+01 0. -1.
       -4    1    3    3    0  502 -0.83611409594E+03 -0.80566040106E+03 -0.52759756397E+03  0.12753573090E+04  0.12699999809E+01 0.  1.
</event>
<event>
 5   0  0.6788600E-08  0.3388098E+04  0.7818609E-02  0.8140834E-01
        1   -1    0    0  501    0  0.00000000000E+00  0.00000000000E+00  0.27959145255E+04  0.27959145255E+04  0.50400001928E-02 0.  1.
       -1   -1    0    0    0  501  0.00000000000E+00  0.00000000000E+00 -0.10264270805E+04  0.10264270805E+04  0.50400001928E-02 0. -1.
    10030    2    1    2    0    0  0.00000000000E+00  0.00000000000E+00  0.17694874450E+04  0.38223416060E+04  0.33880982180E+04 0.  0.
        2    1    3    3  502    0 -0.78426952729E+02  0.92065676247E+03 -0.71711190621E+03  0.11696192317E+04  0.25500000920E-02 0. -1.
       -2    1    3    3    0  502  0.78426952729E+02 -0.92065676247E+03  0.24865993512E+04  0.26527223742E+04  0.25500000920E-02 0.  1.
</event>
<event>
 5   0  0.1928004E-07  0.3407365E+04  0.7818609E-02  0.8136101E-01
       -2   -1    0    0    0  501  0.00000000000E+00  0.00000000000E+00  0.12183598357E+04  0.12183598357E+04  0.25500000920E-02 0. -1.
        2   -1    0    0  501    0  0.00000000000E+00  0.00000000000E+00 -0.23823289817E+04  0.23823289817E+04  0.25500000920E-02 0.  1.
    10030    2    1    2    0    0  0.00000000000E+00  0.00000000000E+00 -0.11639691460E+04  0.36006888175E+04  0.34073649331E+04 0.  0.
        2    1    3    3  502    0 -0.94896004492E+03 -0.25832989861E+02 -0.20769375557E+04  0.22836072606E+04  0.25500000920E-02 0.  1.
       -2    1    3    3    0  502  0.94896004492E+03  0.25832989861E+02  0.91296840976E+03  0.13170815569E+04  0.25500000920E-02 0. -1.
</event>
<event>
 5   0  0.6584420E-08  0.3408053E+04  0.7818609E-02  0.8135933E-01
        1   -1    0    0  501    0  0.00000000000E+00  0.00000000000E+00  0.21436010399E+04  0.21436010399E+04  0.50400001928E-02 0. -1.
       -1   -1    0    0    0  501  0.00000000000E+00  0.00000000000E+00 -0.13545924157E+04  0.13545924157E+04  0.50400001928E-02 0.  1.
    10030    2    1    2    0    0  0.00000000000E+00  0.00000000000E+00  0.78900862423E+03  0.34981934556E+04  0.34080526468E+04 0.  0.
        1    1    3    3  502    0  0.13727966008E+04  0.95976436924E+03  0.71581339151E+03  0.18215671723E+04  0.50400001928E-02 0. -1.
       -1    1    3    3    0  502 -0.13727966008E+04 -0.95976436924E+03  0.73195232720E+02  0.16766262833E+04  0.50400001928E-02 0.  1.
</event>
<event>
 5   0  0.1928004E-07  0.3401517E+04  0.7818609E-02  0.8137534E-01
       -2   -1    0    0    0  501  0.00000000000E+00  0.00000000000E+00  0.12277485463E+04  0.12277485463E+04  0.25500000920E-02 0. -1.
        2   -1    0    0  501    0  0.00000000000E+00  0.00000000000E+00 -0.23560025733E+04  0.23560025733E+04  0.25500000920E-02 0.  1.
    10030    2    1    2    0    0  0.00000000000E+00  0.00000000000E+00 -0.11282540270E+04  0.35837511196E+04  0.34015165643E+04 0.  0.
        2    1    3    3  502    0 -0.48595306258E+03 -0.62892246563E+03  0.10200528070E+04  0.12931363331E+04  0.25500000920E-02 0. -1.
       -2    1    3    3    0  502  0.48595306258E+03  0.62892246563E+03 -0.21483068341E+04  0.22906147865E+04  0.25500000920E-02 0.  1.
</event>
<event>
 5   0  0.1986613E-07  0.3393628E+04  0.7818609E-02  0.8139472E-01
        2   -1    0    0  501    0  0.00000000000E+00  0.00000000000E+00  0.24438499407E+04  0.24438499407E+04  0.25500000920E-02 0.  1.
       -2   -1    0    0    0  501  0.00000000000E+00  0.00000000000E+00 -0.11781323124E+04  0.11781323124E+04  0.25500000920E-02 0. -1.
    10030    2    1    2    0    0  0.00000000000E+00  0.00000000000E+00  0.12657176282E+04  0.36219822531E+04  0.33936284899E+04 0.  0.
        5    1    3    3  502    0  0.13129194289E+04  0.31952840070E+03 -0.46250452242E+03  0.14282115911E+04  0.46999998093E+01 0. -1.
       -5    1    3    3    0  502 -0.13129194289E+04 -0.31952840070E+03  0.17282221507E+04  0.21937706620E+04  0.46999998093E+01 0.  1.
</event>
<event>
 5   0  0.1986613E-07  0.3383845E+04  0.7818609E-02  0.8141883E-01
        2   -1    0    0  501    0  0.00000000000E+00  0.00000000000E+00  0.15772766046E+04  0.15772766046E+04  0.25500000920E-02 0. -1.
       -2   -1    0    0    0  501  0.00000000000E+00  0.00000000000E+00 -0.18149010591E+04  0.18149010591E+04  0.25500000920E-02 0.  1.
    10030    2    1    2    0    0  0.00000000000E+00  0.00000000000E+00 -0.23762445450E+03  0.33921776638E+04  0.33838445474E+04 0.  0.
        5    1    3    3  502    0 -0.14783873813E+04  0.69282080193E+03  0.32606999545E+03  0.16649245162E+04  0.46999998093E+01 0.  1.
       -5    1    3    3    0  502  0.14783873813E+04 -0.69282080193E+03 -0.56369444995E+03  0.17272531475E+04  0.46999998093E+01 0. -1.
</event>
<event>
 5   0  0.1986613E-07  0.3386514E+04  0.7818609E-02  0.8141224E-01
        2   -1    0    0  501    0  0.00000000000E+00  0.00000000000E+00  0.27708771417E+04  0.27708771417E+04  0.25500000920E-02 0.  1.
       -2   -1    0    0    0  501  0.00000000000E+00  0.00000000000E+00 -0.10347337490E+04  0.10347337490E+04  0.25500000920E-02 0. -1.
    10030    2    1    2    0    0  0.00000000000E+00  0.00000000000E+00  0.17361433927E+04  0.38056108906E+04  0.33865144870E+04 0.  0.
        5    1    3    3  502    0  0.14641499756E+04  0.54006262628E+03  0.12972547082E+03  0.15659672982E+04  0.46999998093E+01 0. -1.
       -5    1    3    3    0  502 -0.14641499756E+04 -0.54006262628E+03  0.16064179219E+04  0.22396435924E+04  0.46999998093E+01 0.  1.
</event>
<event>
 5   0  0.6367111E-08  0.3397937E+04  0.7818609E-02  0.8138413E-01
       -1   -1    0    0    0  501  0.00000000000E+00  0.00000000000E+00  0.16435541139E+04  0.16435541139E+04  0.50400001928E-02 0. -1.
        1   -1    0    0  501    0  0.00000000000E+00  0.00000000000E+00 -0.17562515935E+04  0.17562515935E+04  0.50400001928E-02 0.  1.
    10030    2    1    2    0    0  0.00000000000E+00  0.00000000000E+00 -0.11269747963E+03  0.33998057074E+04  0.33979373341E+04 0.  0.
        3    1    3    3  502    0  0.12551309303E+04  0.74236966135E+03 -0.92862403795E+03  0.17288172200E+04  0.10100000352E+00 0.  1.
       -3    1    3    3    0  502 -0.12551309303E+04 -0.74236966135E+03  0.81592655832E+03  0.16709884874E+04  0.10100000352E+00 0. -1.
</event>
<event>
 5   0  0.6367111E-08  0.3448867E+04  0.7818609E-02  0.8126016E-01
        1   -1    0    0  501    0  0.00000000000E+00  0.00000000000E+00  0.19227123340E+04  0.19227123340E+04  0.50400001928E-02 0. -1.
       -1   -1    0    0    0  501  0.00000000000E+00  0.00000000000E+00 -0.15466020814E+04  0.15466020814E+04  0.50400001928E-02 0.  1.
    10030    2    1    2    0    0  0.00000000000E+00  0.00000000000E+00  0.37611025264E+03  0.34693144154E+04  0.34488670010E+04 0.  0.
        3    1    3    3  502    0 -0.26734704903E+03  0.14005998768E+04 -0.78749683549E+03  0.16288970918E+04  0.10100000352E+00 0.  1.
       -3    1    3    3    0  502  0.26734704903E+03 -0.14005998768E+04  0.11636070881E+04  0.18404173237E+04  0.10100000352E+00 0. -1.
</event>
<event>
 5   0  0.6367111E-08  0.3403328E+04  0.7818609E-02  0.8137090E-01
        1   -1    0    0  501    0  0.00000000000E+00  0.00000000000E+00  0.12447419104E+04  0.12447419104E+04  0.50400001928E-02 0. -1.
       -1   -1    0    0    0  501  0.00000000000E+00  0.00000000000E+00 -0.23263132065E+04  0.23263132065E+04  0.50400001928E-02 0.  1.
    10030    2    1    2    0    0  0.00000000000E+00  0.00000000000E+00 -0.10815712961E+04  0.35710551169E+04  0.34033275157E+04 0.  0.
        3    1    3    3  502    0  0.42168900750E+03  0.92871553014E+03 -0.19700180420E+04  0.22184015081E+04  0.10100000352E+00 0.  1.
       -3    1    3    3    0  502 -0.42168900750E+03 -0.92871553014E+03  0.88844674591E+03  0.13526536088E+04  0.10100000352E+00 0. -1.
</event>
<event>
 5   0  0.1970449E-07  0.3381804E+04  0.7818609E-02  0.8142387E-01
       -2   -1    0    0    0  501  0.00000000000E+00  0.00000000000E+00  0.17526009501E+04  0.17526009501E+04  0.25500000920E-02 0. -1.
        2   -1    0    0  501    0  0.00000000000E+00  0.00000000000E+00 -0.16313749190E+04  0.16313749190E+04  0.25500000920E-02 0.  1.
    10030    2    1    2    0    0  0.00000000000E+00  0.00000000000E+00  0.12122603107E+03  0.33839758691E+04  0.33818037985E+04 0.  0.
        1    1    3    3  502    0 -0.26275010880E+03 -0.11490603373E+04 -0.11525071664E+04  0.16485296622E+04  0.50400001928E-02 0.  1.
       -1    1    3    3    0  502  0.26275010880E+03  0.11490603373E+04  0.12737331975E+04  0.17354462069E+04  0.50400001928E-02 0. -1.
</event>
<event>
 5   0  0.6341535E-08  0.3398515E+04  0.7818609E-02  0.8138271E-01
        1   -1    0    0  501    0  0.00000000000E+00  0.00000000000E+00  0.25409553309E+04  0.25409553309E+04  0.50400001928E-02 0. -1.
       -1   -1    0    0    0  501  0.00000000000E+00  0.00000000000E+00 -0.11363744736E+04  0.11363744736E+04  0.50400001928E-02 0.  1.
    10030    2    1    2    0    0  0.00000000000E+00  0.00000000000E+00  0.14045808573E+04  0.36773298045E+04  0.33985154268E+04 0.  0.
        5    1    3    3  502    0  0.10683689350E+04 -0.32207591387E+03 -0.68437233416E+03  0.13090197315E+04  0.46999998093E+01 0.  1.
       -5    1    3    3    0  502 -0.10683689350E+04  0.32207591387E+03  0.20889531915E+04  0.23683100730E+04  0.46999998093E+01 0. -1.
</event>
<event>
 5   0  0.1970449E-07  0.3386433E+04  0.7818609E-02  0.8141244E-01
       -2   -1    0    0    0  501  0.00000000000E+00  0.00000000000E+00  0.13043286115E+04  0.13043286115E+04  0.25500000920E-02 0. -1.
        2   -1    0    0  501    0  0.00000000000E+00  0.00000000000E+00 -0.21980515301E+04  0.21980515301E+04  0.25500000920E-02 0.  1.
    10030    2    1    2    0    0  0.00000000000E+00  0.00000000000E+00 -0.89372291862E+03  0.35023801417E+04  0.33864326365E+04 0.  0.
        1    1    3    3  502    0 -0.36580380519E+03  0.14768595629E+04 -0.12153050248E+04  0.19472783304E+04  0.50400001928E-02 0.  1.
       -1    1    3    3    0  502  0.36580380519E+03 -0.14768595629E+04  0.32158210619E+03  0.15551018113E+04  0.50400001928E-02 0. -1.
</event>
<event>
 5   0  0.1897313E-07  0.3397407E+04  0.7818609E-02  0.8138543E-01
       -2   -1    0    0    0  501  0.00000000000E+00  0.00000000000E+00  0.18250463619E+04  0.18250463619E+04  0.25500000920E-02 0. -1.
        2   -1    0    0  501    0  0.00000000000E+00  0.00000000000E+00 -0.15811068622E+04  0.15811068622E+04  0.25500000920E-02 0.  1.
    10030    2    1    2    0    0  0.00000000000E+00  0.00000000000E+00  0.24393949974E+03  0.34061532241E+04  0.33974068503E+04 0.  0.
        3    1    3    3  502    0 -0.12296168607E+04  0.10969674496E+03 -0.10479114537E+04  0.16192928781E+04  0.10100000352E+00 0.  1.
       -3    1    3    3    0  502  0.12296168607E+04 -0.10969674496E+03  0.12918509535E+04  0.17868603460E+04  0.10100000352E+00 0. -1.
</event>
<event>
 5   0  0.1928004E-07  0.3411903E+04  0.7818609E-02  0.8134991E-01
        2   -1    0    0  501    0  0.00000000000E+00  0.00000000000E+00  0.22674137580E+04  0.22674137580E+04  0.25500000920E-02 0. -1.
       -2   -1    0    0    0  501  0.00000000000E+00  0.00000000000E+00 -0.12835197829E+04  0.12835197829E+04  0.25500000920E-02 0.  1.
    10030    2    1    2    0    0  0.00000000000E+00  0.00000000000E+00  0.98389397519E+03  0.35509335409E+04  0.34119029379E+04 0.  0.
        2    1    3    3  502    0  0.73695861627E+03  0.10688153108E+04  0.16437489104E+04  0.20946084720E+04  0.25500000920E-02 0. -1.
       -2    1    3    3    0  502 -0.73695861627E+03 -0.10688153108E+04 -0.65985493525E+03  0.14563250689E+04  0.25500000920E-02 0.  1.
</event>
<event>
 5   0  0.6788600E-08  0.3399530E+04  0.7818609E-02  0.8138022E-01
       -1   -1    0    0    0  501  0.00000000000E+00  0.00000000000E+00  0.13745492565E+04  0.13745492565E+04  0.50400001928E-02 0. -1.
        1   -1    0    0  501    0  0.00000000000E+00  0.00000000000E+00 -0.21019257604E+04  0.21019257604E+04  0.50400001928E-02 0.  1.
    10030    2    1    2    0    0  0.00000000000E+00  0.00000000000E+00 -0.72737650391E+03  0.34764750169E+04  0.33995296682E+04 0.  0.
        2    1    3    3  502    0  0.11625316820E+04 -0.24403331877E+03 -0.16070062546E+04  0.19983746582E+04  0.25500000920E-02 0.  1.
       -2    1    3    3    0  502 -0.11625316820E+04  0.24403331877E+03  0.87962975069E+03  0.14781003587E+04  0.25500000920E-02 0. -1.
</event>
<event>
 5   0  0.1986613E-07  0.3391441E+04  0.7818609E-02  0.8140010E-01
        2   -1    0    0  501    0  0.00000000000E+00  0.00000000000E+00  0.16011849021E+04  0.16011849021E+04  0.25500000920E-02 0. -1.
       -2   -1    0    0    0  501  0.00000000000E+00  0.00000000000E+00 -0.17958373918E+04  0.17958373918E+04  0.25500000920E-02 0.  1.
    10030    2    1    2    0    0  0.00000000000E+00  0.00000000000E+00 -0.19465248966E+03  0.33970222939E+04  0.33914408256E+04 0.  0.
        5    1    3    3  502    0  0.47286886004E+03 -0.27698113191E+02  0.15335651311E+04  0.16050595770E+04  0.46999998093E+01 0. -1.
       -5    1    3    3    0  502 -0.47286886004E+03  0.27698113191E+02 -0.17282176208E+04  0.17919627170E+04  0.46999998093E+01 0.  1.
</event>
<event>
 5   0  0.6311750E-08  0.3395079E+04  0.7818609E-02  0.8139115E-01
        3   -1    0    0  501    0  0.00000000000E+00  0.00000000000E+00  0.16762910199E+04  0.16762910229E+04  0.10100000352E+00 0. -1.
       -3   -1    0    0    0  501  0.00000000000E+00  0.00000000000E+00 -0.17190568607E+04  0.17190568637E+04  0.10100000352E+00 0.  1.
    10030    2    1    2    0    0  0.00000000000E+00  0.00000000000E+00 -0.42765840780E+02  0.33953478866E+04  0.33950785490E+04 0.  0.
        5    1    3    3  502    0  0.14667183865E+04 -0.18770221543E+03  0.81242331991E+03  0.16871718015E+04  0.46999998093E+01 0. -1.
       -5    1    3    3    0  502 -0.14667183865E+04  0.18770221543E+03 -0.85518916069E+03  0.17081760851E+04  0.46999998093E+01 0.  1.
</event>
<event>
 5   0  0.1986613E-07  0.3401019E+04  0.7818609E-02  0.8137656E-01
       -2   -1    0    0    0  501  0.00000000000E+00  0.00000000000E+00  0.23802065571E+04  0.23802065571E+04  0.25500000920E-02 0.  1.
        2   -1    0    0  501    0  0.00000000000E+00  0.00000000000E+00 -0.12149080027E+04  0.12149080027E+04  0.25500000920E-02 0. -1.
    10030    2    1    2    0    0  0.00000000000E+00  0.00000000000E+00  0.11652985543E+04  0.35951145598E+04  0.34010186676E+04 0.  0.
        5    1    3    3  502    0  0.76886296276E+03  0.13913531542E+04  0.12210145414E+04  0.20044731117E+04  0.46999998093E+01 0.  1.
       -5    1    3    3    0  502 -0.76886296276E+03 -0.13913531542E+04 -0.55715987025E+02  0.15906414481E+04  0.46999998093E+01 0. -1.
</event>
<event>
 5   0  0.1970449E-07  0.3387393E+04  0.7818609E-02  0.8141007E-01
        2   -1    0    0  501    0  0.00000000000E+00  0.00000000000E+00  0.14230223759E+04  0.14230223759E+04  0.25500000920E-02 0. -1.
       -2   -1    0    0    0  501  0.00000000000E+00  0.00000000000E+00 -0.20158559630E+04  0.20158559630E+04  0.25500000920E-02 0.  1.
    10030    2    1    2    0    0  0.00000000000E+00  0.00000000000E+00 -0.59283358707E+03  0.34388783389E+04  0.33873931818E+04 0.  0.
        1    1    3    3  502    0 -0.12969232695E+03  0.49388341696E+03 -0.19358508012E+04  0.20020637487E+04  0.50400001928E-02 0.  1.
       -1    1    3    3    0  502  0.12969232695E+03 -0.49388341696E+03  0.13430172141E+04  0.14368145902E+04  0.50400001928E-02 0. -1.
</event>
<event>
 5   0  0.1963852E-07  0.3383149E+04  0.7818609E-02  0.8142055E-01
        2   -1    0    0  501    0  0.00000000000E+00  0.00000000000E+00  0.14009775586E+04  0.14009775586E+04  0.25500000920E-02 0.  1.
       -2   -1    0    0    0  501  0.00000000000E+00  0.00000000000E+00 -0.20424484096E+04  0.20424484096E+04  0.25500000920E-02 0. -1.
    10030    2    1    2    0    0  0.00000000000E+00  0.00000000000E+00 -0.64147085096E+03  0.34434259682E+04  0.33831490576E+04 0.  0.
        4    1    3    3  502    0 -0.12111219549E+04 -0.11079550108E+04 -0.73672510831E+03  0.17992071014E+04  0.12699999809E+01 0.  1.
       -4    1    3    3    0  502  0.12111219549E+04  0.11079550108E+04  0.95254257351E+02  0.16442188668E+04  0.12699999809E+01 0. -1.
</event>
<event>
 5   0  0.6788600E-08  0.3388935E+04  0.7818609E-02  0.8140627E-01
       -1   -1    0    0    0  501  0.00000000000E+00  0.00000000000E+00  0.17808601159E+04  0.17808601159E+04  0.50400001928E-02 0. -1.
        1   -1    0    0  501    0  0.00000000000E+00  0.00000000000E+00 -0.16122656445E+04  0.16122656445E+04  0.50400001928E-02 0.  1.
    10030    2    1    2    0    0  0.00000000000E+00  0.00000000000E+00  0.16859447142E+03  0.33931257603E+04  0.33889346895E+04 0.  0.
        2    1    3    3  502    0 -0.80819630516E+03  0.11768064960E+04  0.99820466956E+03  0.17419722613E+04  0.25500000920E-02 0. -1.
       -2    1    3    3    0  502  0.80819630516E+03 -0.11768064960E+04 -0.82961019815E+03  0.16511534991E+04  0.25500000920E-02 0.  1.
</event>
<event>
 5   0  0.6788600E-08  0.3401485E+04  0.7818609E-02  0.8137542E-01
       -1   -1    0    0    0  501  0.00000000000E+00  0.00000000000E+00  0.15841056728E+04  0.15841056728E+04  0.50400001928E-02 0.  1.
        1   -1    0    0  501    0  0.00000000000E+00  0.00000000000E+00 -0.18259667400E+04  0.18259667400E+04  0.50400001928E-02 0. -1.
    10030    2    1    2    0    0  0.00000000000E+00  0.00000000000E+00 -0.24186106723E+03  0.34100724128E+04  0.34014845413E+04 0.  0.
        2    1    3    3  502    0 -0.22404694478E+03 -0.10214796856E+04  0.12236889317E+04  0.16096684078E+04  0.25500000920E-02 0.  1.
       -2    1    3    3    0  502  0.22404694478E+03  0.10214796856E+04 -0.14655499990E+04  0.18004040050E+04  0.25500000920E-02 0. -1.
</event>
<event>
 5   0  0.1986613E-07  0.3407707E+04  0.7818609E-02  0.8136017E-01
        2   -1    0    0  501    0  0.00000000000E+00  0.00000000000E+00  0.30193778079E+04  0.30193778079E+04  0.25500000920E-02 0. -1.
       -2   -1    0    0    0  501  0.00000000000E+00  0.00000000000E+00 -0.96149481483E+03  0.96149481483E+03  0.25500000920E-02 0.  1.
    10030    2    1    2    0    0  0.00000000000E+00  0.00000000000E+00  0.20578829930E+04  0.39808726227E+04  0.34077066225E+04 0.  0.
        5    1    3    3  502    0 -0.91279033294E+03 -0.30487076850E+03 -0.61359566654E+03  0.11413387356E+04  0.46999998093E+01 0.  1.
       -5    1    3    3    0  502  0.91279033294E+03  0.30487076850E+03  0.26714786596E+04  0.28395338871E+04  0.46999998093E+01 0. -1.
</event>
<event>
 5   0  0.1897313E-07  0.3457228E+04  0.7818609E-02  0.8124002E-01
        2   -1    0    0  501    0  0.00000000000E+00  0.00000000000E+00  0.22685849937E+04  0.22685849937E+04  0.25500000920E-02 0.  1.
       -2   -1    0    0    0  501  0.00000000000E+00  0.00000000000E+00 -0.13171671784E+04  0.13171671784E+04  0.25500000920E-02 0. -1.
    10030    2    1    2    0    0  0.00000000000E+00  0.00000000000E+00  0.95141781529E+03  0.35857521720E+04  0.34572276147E+04 0.  0.
        3    1    3    3  502    0  0.13877080077E+04  0.51255828405E+03  0.14031876078E+04  0.20389666456E+04  0.10100000352E+00 0.  1.
       -3    1    3    3    0  502 -0.13877080077E+04 -0.51255828405E+03 -0.45176979250E+03  0.15467855264E+04  0.10100000352E+00 0. -1.
</event>
<event>
 5   0  0.6788600E-08  0.3398569E+04  0.7818609E-02  0.8138258E-01
       -1   -1    0    0    0  501  0.00000000000E+00  0.00000000000E+00  0.16998245086E+04  0.16998245087E+04  0.50400001928E-02 0. -1.
        1   -1    0    0  501    0  0.00000000000E+00  0.00000000000E+00 -0.16987442895E+04  0.16987442895E+04  0.50400001928E-02 0.  1.
    10030    2    1    2    0    0  0.00000000000E+00  0.00000000000E+00  0.10802191841E+01  0.33985687981E+04  0.33985686265E+04 0.  0.
        2    1    3    3  502    0  0.14534466894E+04  0.21282819704E+03  0.85480244081E+03  0.16995559223E+04  0.25500000920E-02 0. -1.
       -2    1    3    3    0  502 -0.14534466894E+04 -0.21282819704E+03 -0.85372222163E+03  0.16990128758E+04  0.25500000920E-02 0.  1.
</event>
<event>
 5   0  0.1928004E-07  0.3382988E+04  0.7818609E-02  0.8142094E-01
       -2   -1    0    0    0  501  0.00000000000E+00  0.00000000000E+00  0.14172700070E+04  0.14172700070E+04  0.25500000920E-02 0. -1.
        2   -1    0    0  501    0  0.00000000000E+00  0.00000000000E+00 -0.20187764429E+04  0.20187764429E+04  0.25500000920E-02 0.  1.
    10030    2    1    2    0    0  0.00000000000E+00  0.00000000000E+00 -0.60150643592E+03  0.34360464499E+04  0.33829876165E+04 0.  0.
        2    1    3    3  502    0 -0.29740138234E+03  0.54064711777E+03  0.12988779811E+04  0.14379954444E+04  0.25500000920E-02 0. -1.
       -2    1    3    3    0  502  0.29740138234E+03 -0.54064711777E+03 -0.19003844171E+04  0.19980510055E+04  0.25500000920E-02 0.  1.
</event>
<event>
 5   0  0.6311750E-08  0.3403145E+04  0.7818609E-02  0.8137135E-01
       -1   -1    0    0    0  501  0.00000000000E+00  0.00000000000E+00  0.24647031412E+04  0.24647031412E+04  0.50400001928E-02 0. -1.
        1   -1    0    0  501    0  0.00000000000E+00  0.00000000000E+00 -0.11747249657E+04  0.11747249657E+04  0.50400001928E-02 0.  1.
    10030    2    1    2    0    0  0.00000000000E+00  0.00000000000E+00  0.12899781755E+04  0.36394281070E+04  0.34031446123E+04 0.  0.
        4    1    3    3  502    0 -0.15092411608E+04 -0.71272796289E+03  0.29101444567E+03  0.16942494064E+04  0.12699999809E+01 0.  1.
       -4    1    3    3    0  502  0.15092411608E+04  0.71272796289E+03  0.99896372981E+03  0.19451787005E+04  0.12699999809E+01 0. -1.
</event>
<event>
 5   0  0.6367111E-08  0.3397703E+04  0.7818609E-02  0.8138470E-01
       -1   -1    0    0    0  501  0.00000000000E+00  0.00000000000E+00  0.15762772776E+04  0.15762772776E+04  0.50400001928E-02 0. -1.
        1   -1    0    0  501    0  0.00000000000E+00  0.00000000000E+00 -0.18309568312E+04  0.18309568312E+04  0.50400001928E-02 0.  1.
    10030    2    1    2    0    0  0.00000000000E+00  0.00000000000E+00 -0.25467955359E+03  0.34072341088E+04  0.33977025469E+04 0.  0.
        3    1    3    3  502    0 -0.10065250310E+03  0.12702092903E+04 -0.12541168469E+04  0.17878399378E+04  0.10100000352E+00 0.  1.
       -3    1    3    3    0  502  0.10065250310E+03 -0.12702092903E+04  0.99943729326E+03  0.16193941709E+04  0.10100000352E+00 0. -1.
</event>
<event>
 5   0  0.1970449E-07  0.3361809E+04  0.7818609E-02  0.8147344E-01
       -2   -1    0    0    0  501  0.00000000000E+00  0.00000000000E+00  0.14218966546E+04  0.14218966546E+04  0.25500000920E-02 0.  1.
        2   -1    0    0  501    0  0.00000000000E+00  0.00000000000E+00 -0.19870923271E+04  0.19870923271E+04  0.25500000920E-02 0. -1.
    10030    2    1    2    0    0  0.00000000000E+00  0.00000000000E+00 -0.56519567253E+03  0.34089889817E+04  0.33618089965E+04 0.  0.
        1    1    3    3  502    0  0.89372032431E+03 -0.91679015803E+03  0.82181506468E+03  0.15213875944E+04  0.50400001928E-02 0.  1.
       -1    1    3    3    0  502 -0.89372032431E+03  0.91679015803E+03 -0.13870107372E+04  0.18876013872E+04  0.50400001928E-02 0. -1.
</event>
<event>
 5   0  0.6788600E-08  0.3393662E+04  0.7818609E-02  0.8139464E-01
       -1   -1    0    0    0  501  0.00000000000E+00  0.00000000000E+00  0.15320656523E+04  0.15320656523E+04  0.50400001928E-02 0. -1.
        1   -1    0    0  501    0  0.00000000000E+00  0.00000000000E+00 -0.18793156356E+04  0.18793156356E+04  0.50400001928E-02 0.  1.
    10030    2    1    2    0    0  0.00000000000E+00  0.00000000000E+00 -0.34724998331E+03  0.34113812879E+04  0.33936617009E+04 0.  0.
        2    1    3    3  502    0 -0.59419805818E+03  0.11112972190E+04 -0.13158599902E+04  0.18219605800E+04  0.25500000920E-02 0.  1.
       -2    1    3    3    0  502  0.59419805818E+03 -0.11112972190E+04  0.96861000686E+03  0.15894207079E+04  0.25500000920E-02 0. -1.
</event>
<event>
 5   0  0.1970449E-07  0.3402624E+04  0.7818609E-02  0.8137263E-01
       -2   -1    0    0    0  501  0.00000000000E+00  0.00000000000E+00  0.16805343342E+04  0.16805343342E+04  0.25500000920E-02 0. -1.
        2   -1    0    0  501    0  0.00000000000E+00  0.00000000000E+00 -0.17223461006E+04  0.17223461006E+04  0.25500000920E-02 0.  1.
    10030    2    1    2    0    0  0.00000000000E+00  0.00000000000E+00 -0.41811766431E+02  0.34028804348E+04  0.34026235510E+04 0.  0.
        1    1    3    3  502    0 -0.37707978489E+02  0.32851105786E+03 -0.16898998605E+04  0.17219474282E+04  0.50400001928E-02 0.  1.
       -1    1    3    3    0  502  0.37707978489E+02 -0.32851105786E+03  0.16480880941E+04  0.16809330066E+04  0.50400001928E-02 0. -1.
</event>
<event>
 5   0  0.1897313E-07  0.3368967E+04  0.7818609E-02  0.8145565E-01
        2   -1    0    0  501    0  0.00000000000E+00  0.00000000000E+00  0.20421355929E+04  0.20421355929E+04  0.25500000920E-02 0. -1.
       -2   -1    0    0    0  501  0.00000000000E+00  0.00000000000E+00 -0.13894695232E+04  0.13894695232E+04  0.25500000920E-02 0.  1.
    10030    2    1    2    0    0  0.00000000000E+00  0.00000000000E+00  0.65266606975E+03  0.34316051161E+04  0.33689673008E+04 0.  0.
        3    1    3    3  502    0  0.26361299042E+03  0.88846580214E+03 -0.11064548915E+04  0.14432968259E+04  0.10100000352E+00 0.  1.
       -3    1    3    3    0  502 -0.26361299042E+03 -0.88846580214E+03  0.17591209613E+04  0.19883082902E+04  0.10100000352E+00 0. -1.
</event>
<event>
 5   0  0.6584420E-08  0.3380071E+04  0.7818609E-02  0.8142815E-01
       -1   -1    0    0    0  501  0.00000000000E+00  0.00000000000E+00  0.12246967315E+04  0.12246967315E+04  0.50400001928E-02 0.  1.
        1   -1    0    0  501    0  0.00000000000E+00  0.00000000000E+00 -0.23321859145E+04  0.23321859145E+04  0.50400001928E-02 0. -1.
    10030    2    1    2    0    0  0.00000000000E+00  0.00000000000E+00 -0.11074891830E+04  0.35568826460E+04  0.33800712814E+04 0.  0.
        1    1    3    3  502    0  0.77737276280E+03  0.97659377110E+03  0.64523164595E+03  0.14051219460E+04  0.50400001928E-02 0.  1.
       -1    1    3    3    0  502 -0.77737276280E+03 -0.97659377110E+03 -0.17527208289E+04  0.21517607001E+04  0.50400001928E-02 0. -1.
</event>
<event>
 5   0  0.6584420E-08  0.3404767E+04  0.7818609E-02  0.8136737E-01
        1   -1    0    0  501    0  0.00000000000E+00  0.00000000000E+00  0.28986084266E+04  0.28986084266E+04  0.50400001928E-02 0.  1.
       -1   -1    0    0    0  501  0.00000000000E+00  0.00000000000E+00 -0.99982813657E+03  0.99982813659E+03  0.50400001928E-02 0. -1.
    10030    2    1    2    0    0  0.00000000000E+00  0.00000000000E+00  0.18987802900E+04  0.38984365632E+04  0.34047673999E+04 0.  0.
        1    1    3    3  502    0  0.69967857719E+03  0.13428223155E+04  0.18402718978E+04  0.23831329255E+04  0.50400001928E-02 0.  1.
       -1    1    3    3    0  502 -0.69967857719E+03 -0.13428223155E+04  0.58508392147E+02  0.15153036377E+04  0.50400001928E-02 0. -1.
</event>
<event>
 5   0  0.1970449E-07  0.3399529E+04  0.7818609E-02  0.8138022E-01
        2   -1    0    0  501    0  0.00000000000E+00  0.00000000000E+00  0.10016621532E+04  0.10016621532E+04  0.25500000920E-02 0. -1.
       -2   -1    0    0    0  501  0.00000000000E+00  0.00000000000E+00 -0.28844055031E+04  0.28844055031E+04  0.25500000920E-02 0.  1.
    10030    2    1    2    0    0  0.00000000000E+00  0.00000000000E+00 -0.18827433499E+04  0.38860676563E+04  0.33995292774E+04 0.  0.
        1    1    3    3  502    0  0.21542282594E+03  0.16340089190E+04 -0.14165680276E+04  0.21732595607E+04  0.50400001928E-02 0. -1.
       -1    1    3    3    0  502 -0.21542282594E+03 -0.16340089190E+04 -0.46617532233E+03  0.17128080956E+04  0.50400001928E-02 0.  1.
</event>
<event>
 5   0  0.6788600E-08  0.3398322E+04  0.7818609E-02  0.8138318E-01
        1   -1    0    0  501    0  0.00000000000E+00  0.00000000000E+00  0.13942454837E+04  0.13942454837E+04  0.50400001928E-02 0.  1.
       -1   -1    0    0    0  501  0.00000000000E+00  0.00000000000E+00 -0.20707607375E+04  0.20707607375E+04  0.50400001928E-02 0. -1.
    10030    2    1    2    0    0  0.00000000000E+00  0.00000000000E+00 -0.67651525376E+03  0.34650062212E+04  0.33983224133E+04 0.  0.
        2    1    3    3  502    0 -0.36175213268E+03 -0.10496336661E+04 -0.16497924578E+04  0.19885699868E+04  0.25500000920E-02 0. -1.
       -2    1    3    3    0  502  0.36175213268E+03  0.10496336661E+04  0.97327720407E+03  0.14764362345E+04  0.25500000920E-02 0.  1.
</event>
<event>
 5   0  0.6584420E-08  0.3389731E+04  0.7818609E-02  0.8140431E-01
       -1   -1    0    0    0  501  0.00000000000E+00  0.00000000000E+00  0.28648848830E+04  0.28648848830E+04  0.50400001928E-02 0. -1.
        1   -1    0    0  501    0  0.00000000000E+00  0.00000000000E+00 -0.10026823042E+04  0.10026823042E+04  0.50400001928E-02 0.  1.
    10030    2    1    2    0    0  0.00000000000E+00  0.00000000000E+00  0.18622025788E+04  0.38675671873E+04  0.33897311845E+04 0.  0.
        1    1    3    3  502    0 -0.55095335143E+03  0.55275496616E+03  0.26476696550E+04  0.27602974930E+04  0.50400001928E-02 0. -1.
       -1    1    3    3    0  502  0.55095335143E+03 -0.55275496616E+03 -0.78546707616E+03  0.11072696943E+04  0.50400001928E-02 0.  1.
</event>
<event>
 5   0  0.1897313E-07  0.3409615E+04  0.7818609E-02  0.8135550E-01
        2   -1    0    0  501    0  0.00000000000E+00  0.00000000000E+00  0.22287867027E+04  0.22287867027E+04  0.25500000920E-02 0. -1.
       -2   -1    0    0    0  501  0.00000000000E+00  0.00000000000E+00 -0.13040138892E+04  0.13040138892E+04  0.25500000920E-02 0.  1.
    10030    2    1    2    0    0  0.00000000000E+00  0.00000000000E+00  0.92477281351E+03  0.35328005920E+04  0.34096151199E+04 0.  0.
        3    1    3    3  502    0 -0.14995477785E+04  0.61679837590E+03 -0.83216880112E+02  0.16235790205E+04  0.10100000352E+00 0.  1.
       -3    1    3    3    0  502  0.14995477785E+04 -0.61679837590E+03  0.10079896936E+04  0.19092215715E+04  0.10100000352E+00 0. -1.
</event>
<event>
 5   0  0.6311750E-08  0.3399419E+04  0.7818609E-02  0.8138049E-01
        1   -1    0    0  501    0  0.00000000000E+00  0.00000000000E+00  0.28608368217E+04  0.28608368217E+04  0.50400001928E-02 0.  1.
       -1   -1    0    0    0  501  0.00000000000E+00  0.00000000000E+00 -0.10098484651E+04  0.10098484651E+04  0.50400001928E-02 0. -1.
    10030    2    1    2    0    0  0.00000000000E+00  0.00000000000E+00  0.18509883566E+04  0.38706852868E+04  0.33994185816E+04 0.  0.
        4    1    3    3  502    0 -0.73468367061E+03 -0.10459026479E+04 -0.35024968785E+03  0.13252731422E+04  0.12699999809E+01 0. -1.
       -4    1    3    3    0  502  0.73468367061E+03  0.10459026479E+04  0.22012380444E+04  0.25454121446E+04  0.12699999809E+01 0.  1.
</event>
<event>
 5   0  0.6584420E-08  0.3399433E+04  0.7818609E-02  0.8138046E-01
       -1   -1    0    0    0  501  0.00000000000E+00  0.00000000000E+00  0.19561035652E+04  0.19561035652E+04  0.50400001928E-02 0. -1.
        1   -1    0    0  501    0  0.00000000000E+00  0.00000000000E+00 -0.14769337521E+04  0.14769337521E+04  0.50400001928E-02 0.  1.
    10030    2    1    2    0    0  0.00000000000E+00  0.00000000000E+00  0.47916981308E+03  0.34330373173E+04  0.33994325279E+04 0.  0.
        1    1    3    3  502    0  0.50701889634E+02  0.60360175217E+03  0.18434055528E+04  0.19403736210E+04  0.50400001928E-02 0. -1.
       -1    1    3    3    0  502 -0.50701889634E+02 -0.60360175217E+03 -0.13642357397E+04  0.14926636963E+04  0.50400001928E-02 0.  1.
</event>
<event>
 5   0  0.6584420E-08  0.3397740E+04  0.7818609E-02  0.8138461E-01
        1   -1    0    0  501    0  0.00000000000E+00  0.00000000000E+00  0.10987435714E+04  0.10987435714E+04  0.50400001928E-02 0.  1.
       -1   -1    0    0    0  501  0.00000000000E+00  0.00000000000E+00 -0.26267815694E+04  0.26267815694E+04  0.50400001928E-02 0. -1.
    10030    2    1    2    0    0  0.00000000000E+00  0.00000000000E+00 -0.15280379981E+04  0.37255251408E+04  0.33977400506E+04 0.  0.
        1    1    3    3  502    0  0.40328810383E+01  0.16245094774E+04 -0.21895899331E+03  0.16392041811E+04  0.50400001928E-02 0.  1.
       -1    1    3    3    0  502 -0.40328810383E+01 -0.16245094774E+04 -0.13090790048E+04  0.20863209598E+04  0.50400001928E-02 0. -1.
</event>
<event>
 5   0  0.1928004E-07  0.3358565E+04  0.7818609E-02  0.8148151E-01
       -2   -1    0    0    0  501  0.00000000000E+00  0.00000000000E+00  0.13242359677E+04  0.13242359677E+04  0.25500000920E-02 0. -1.
        2   -1    0    0  501    0  0.00000000000E+00  0.00000000000E+00 -0.21295220004E+04  0.21295220004E+04  0.25500000920E-02 0.  1.
    10030    2    1    2    0    0  0.00000000000E+00  0.00000000000E+00 -0.80528603271E+03  0.34537579681E+04  0.33585649476E+04 0.  0.
        2    1    3    3  502    0  0.36285850975E+03  0.16134522902E+04 -0.10266442471E+03  0.16569352960E+04  0.25500000920E-02 0.  1.
       -2    1    3    3    0  502 -0.36285850975E+03 -0.16134522902E+04 -0.70262160800E+03  0.17968226721E+04  0.25500000920E-02 0. -1.
</event>
<event>
 5   0  0.1963852E-07  0.3393433E+04  0.7818609E-02  0.8139520E-01
        2   -1    0    0  501    0  0.00000000000E+00  0.00000000000E+00  0.23484673113E+04  0.23484673113E+04  0.25500000920E-02 0.  1.
       -2   -1    0    0    0  501  0.00000000000E+00  0.00000000000E+00 -0.12258406425E+04  0.12258406425E+04  0.25500000920E-02 0. -1.
    10030    2    1    2    0    0  0.00000000000E+00  0.00000000000E+00  0.11226266689E+04  0.35743079538E+04  0.33934328800E+04 0.  0.
        4    1    3    3  502    0 -0.15935066420E+04 -0.51702476530E+03  0.84446742104E+03  0.18760876483E+04  0.12699999809E+01 0.  1.
       -4    1    3    3    0  502  0.15935066420E+04  0.51702476530E+03  0.27815924785E+03  0.16982203055E+04  0.12699999809E+01 0. -1.
</event>
<event>
 5   0  0.1897313E-07  0.3403085E+04  0.7818609E-02  0.8137150E-01
        2   -1    0    0  501    0  0.00000000000E+00  0.00000000000E+00  0.17506094017E+04  0.17506094017E+04  0.25500000920E-02 0. -1.
       -2   -1    0    0    0  501  0.00000000000E+00  0.00000000000E+00 -0.16538510775E+04  0.16538510775E+04  0.25500000920E-02 0.  1.
    10030    2    1    2    0    0  0.00000000000E+00  0.00000000000E+00  0.96758324119E+02  0.34044604792E+04  0.34030852151E+04 0.  0.
        3    1    3    3  502    0  0.33948913065E+01 -0.16970636111E+04  0.17176111478E+03  0.17057368836E+04  0.10100000352E+00 0.  1.
       -3    1    3    3    0  502 -0.33948913065E+01  0.16970636111E+04 -0.75002790657E+02  0.16987235956E+04  0.10100000352E+00 0. -1.
</event>
<event>
 5   0  0.6367111E-08  0.3395896E+04  0.7818609E-02  0.8138914E-01
       -1   -1    0    0    0  501  0.00000000000E+00  0.00000000000E+00  0.18386160688E+04  0.18386160688E+04  0.50400001928E-02 0. -1.
        1   -1    0    0  501    0  0.00000000000E+00  0.00000000000E+00 -0.15680421515E+04  0.15680421515E+04  0.50400001928E-02 0.  1.
    10030    2    1    2    0    0  0.00000000000E+00  0.00000000000E+00  0.27057391735E+03  0.34066582203E+04  0.33958960504E+04 0.  0.
        3    1    3    3  502    0 -0.12929367962E+03  0.12965252327E+04  0.12274673001E+04  0.17900755620E+04  0.10100000352E+00 0. -1.
       -3    1    3    3    0  502  0.12929367962E+03 -0.12965252327E+04 -0.95689338277E+03  0.16165826582E+04  0.10100000352E+00 0.  1.
</event>
<event>
 5   0  0.1897313E-07  0.3333655E+04  0.7818609E-02  0.8154384E-01
        2   -1    0    0  501    0  0.00000000000E+00  0.00000000000E+00  0.16981469329E+04  0.16981469329E+04  0.25500000920E-02 0.  1.
       -2   -1    0    0    0  501  0.00000000000E+00  0.00000000000E+00 -0.16360856909E+04  0.16360856909E+04  0.25500000920E-02 0. -1.
    10030    2    1    2    0    0  0.00000000000E+00  0.00000000000E+00  0.62061242028E+02  0.33342326238E+04  0.33336549900E+04 0.  0.
        3    1    3    3  502    0  0.24766673563E+03 -0.11659129000E+04 -0.11343417255E+04  0.16454248274E+04  0.10100000352E+00 0. -1.
       -3    1    3    3    0  502 -0.24766673563E+03  0.11659129000E+04  0.11964029675E+04  0.16888077964E+04  0.10100000352E+00 0.  1.
</event>
<event>
 5   0  0.1928004E-07  0.3407425E+04  0.7818609E-02  0.8136086E-01
       -2   -1    0    0    0  501  0.00000000000E+00  0.00000000000E+00  0.14281675391E+04  0.14281675391E+04  0.25500000920E-02 0.  1.
        2   -1    0    0  501    0  0.00000000000E+00  0.00000000000E+00 -0.20324201573E+04  0.20324201573E+04  0.25500000920E-02 0. -1.
    10030    2    1    2    0    0  0.00000000000E+00  0.00000000000E+00 -0.60425261822E+03  0.34605876965E+04  0.34074251244E+04 0.  0.
        2    1    3    3  502    0  0.12614319549E+04  0.71023197393E+03  0.61021923044E+03  0.15709893516E+04  0.25500000920E-02 0.  1.
       -2    1    3    3    0  502 -0.12614319549E+04 -0.71023197393E+03 -0.12144718487E+04  0.18895983448E+04  0.25500000920E-02 0. -1.
</event>
<event>
 5   0  0.6367111E-08  0.3401127E+04  0.7818609E-02  0.8137630E-01
       -1   -1    0    0    0  501  0.00000000000E+00  0.00000000000E+00  0.11567419862E+04  0.11567419862E+04  0.50400001928E-02 0. -1.
        1   -1    0    0  501    0  0.00000000000E+00  0.00000000000E+00 -0.25000534951E+04  0.25000534951E+04  0.50400001928E-02 0.  1.
    10030    2    1    2    0    0  0.00000000000E+00  0.00000000000E+00 -0.13433115089E+04  0.36567954813E+04  0.34011273693E+04 0.  0.
        3    1    3    3  502    0  0.15698044359E+04 -0.33526565751E+03 -0.12753124693E+04  0.20501490025E+04  0.10100000352E+00 0.  1.
       -3    1    3    3    0  502 -0.15698044359E+04  0.33526565751E+03 -0.67999039619E+02  0.16066464788E+04  0.10100000352E+00 0. -1.
</event>
<event>
 5   0  0.1986613E-07  0.3386339E+04  0.7818609E-02  0.8141267E-01
       -2   -1    0    0    0  501  0.00000000000E+00  0.00000000000E+00  0.12680679570E+04  0.12680679570E+04  0.25500000920E-02 0.  1.
        2   -1    0    0  501    0  0.00000000000E+00  0.00000000000E+00 -0.22607801338E+04  0.22607801338E+04  0.25500000920E-02 0. -1.
    10030    2    1    2    0    0  0.00000000000E+00  0.00000000000E+00 -0.99271217679E+03  0.35288480908E+04  0.33863389349E+04 0.  0.
        5    1    3    3  502    0 -0.10667534355E+04  0.22790705080E+03 -0.18458024749E+04  0.21440413668E+04  0.46999998093E+01 0.  1.
       -5    1    3    3    0  502  0.10667534355E+04 -0.22790705080E+03  0.85309029816E+03  0.13848067240E+04  0.46999998093E+01 0. -1.
</event>
<event>
 5   0  0.6311750E-08  0.3393445E+04  0.7818609E-02  0.8139517E-01
       -3   -1    0    0    0  501  0.00000000000E+00  0.00000000000E+00  0.12347475905E+04  0.12347475946E+04  0.10100000352E+00 0. -1.
        3   -1    0    0  501    0  0.00000000000E+00  0.00000000000E+00 -0.23315426825E+04  0.23315426847E+04  0.10100000352E+00 0.  1.
    10030    2    1    2    0    0  0.00000000000E+00  0.00000000000E+00 -0.10967950920E+04  0.35662902793E+04  0.33934446927E+04 0.  0.
        2    1    3    3  502    0 -0.77885877693E+03  0.91878455978E+03  0.70749442263E+03  0.13969017216E+04  0.25500000920E-02 0. -1.
       -2    1    3    3    0  502  0.77885877693E+03 -0.91878455978E+03 -0.18042895147E+04  0.21693885577E+04  0.25500000920E-02 0.  1.
</event>
<event>
 5   0  0.1986613E-07  0.3393461E+04  0.7818609E-02  0.8139513E-01
        2   -1    0    0  501    0  0.00000000000E+00  0.00000000000E+00  0.18803346711E+04  0.18803346711E+04  0.25500000920E-02 0.  1.
       -2   -1    0    0    0  501  0.00000000000E+00  0.00000000000E+00 -0.15310545709E+04  0.15310545709E+04  0.25500000920E-02 0. -1.
    10030    2    1    2    0    0  0.00000000000E+00  0.00000000000E+00  0.34928010024E+03  0.34113892420E+04  0.33934613557E+04 0.  0.
        5    1    3    3  502    0 -0.81284428539E+03  0.75609233630E+03  0.14645719672E+04  0.18377661958E+04  0.46999998093E+01 0.  1.
       -5    1    3    3    0  502  0.81284428539E+03 -0.75609233630E+03 -0.11152918669E+04  0.15736230463E+04  0.46999998093E+01 0. -1.
</event>
<event>
 5   0  0.1970449E-07  0.3394586E+04  0.7818609E-02  0.8139236E-01
        2   -1    0    0  501    0  0.00000000000E+00  0.00000000000E+00  0.19815767975E+04  0.19815767975E+04  0.25500000920E-02 0.  1.
       -2   -1    0    0    0  501  0.00000000000E+00  0.00000000000E+00 -0.14537937827E+04  0.14537937827E+04  0.25500000920E-02 0. -1.
    10030    2    1    2    0    0  0.00000000000E+00  0.00000000000E+00  0.52778301476E+03  0.34353705802E+04  0.33945862948E+04 0.  0.
        1    1    3    3  502    0  0.81138259362E+03 -0.10647184044E+02 -0.12447736659E+04  0.14859059712E+04  0.50400001928E-02 0. -1.
       -1    1    3    3    0  502 -0.81138259362E+03  0.10647184044E+02  0.17725566807E+04  0.19494646091E+04  0.50400001928E-02 0.  1.
</event>
<event>
 5   0  0.1963852E-07  0.3400386E+04  0.7818609E-02  0.8137812E-01
       -2   -1    0    0    0  501  0.00000000000E+00  0.00000000000E+00  0.98345694893E+03  0.98345694893E+03  0.25500000920E-02 0.  1.
        2   -1    0    0  501    0  0.00000000000E+00  0.00000000000E+00 -0.29392803487E+04  0.29392803487E+04  0.25500000920E-02 0. -1.
    10030    2    1    2    0    0  0.00000000000E+00  0.00000000000E+00 -0.19558233997E+04  0.39227372976E+04  0.34003856744E+04 0.  0.
        4    1    3    3  502    0  0.11336125609E+04  0.32567439279E+03 -0.23905667904E+04  0.26656992405E+04  0.12699999809E+01 0. -1.
       -4    1    3    3    0  502 -0.11336125609E+04 -0.32567439279E+03  0.43474339068E+03  0.12570380571E+04  0.12699999809E+01 0.  1.
</event>
<event>
 5   0  0.6367111E-08  0.3405184E+04  0.7818609E-02  0.8136635E-01
        1   -1    0    0  501    0  0.00000000000E+00  0.00000000000E+00  0.14253422889E+04  0.14253422889E+04  0.50400001928E-02 0.  1.
       -1   -1    0    0    0  501  0.00000000000E+00  0.00000000000E+00 -0.20337703736E+04  0.20337703736E+04  0.50400001928E-02 0. -1.
    10030    2    1    2    0    0  0.00000000000E+00  0.00000000000E+00 -0.60842808474E+03  0.34591126625E+04  0.34051836481E+04 0.  0.
        3    1    3    3  502    0 -0.56906237870E+03 -0.90924350333E+03 -0.16473734929E+04  0.19658064947E+04  0.10100000352E+00 0. -1.
       -3    1    3    3    0  502  0.56906237870E+03  0.90924350333E+03  0.10389454082E+04  0.14933061677E+04  0.10100000352E+00 0.  1.
</event>
<event>
 5   0  0.6311750E-08  0.3404046E+04  0.7818609E-02  0.8136914E-01
        1   -1    0    0  501    0  0.00000000000E+00  0.00000000000E+00  0.22892051682E+04  0.22892051682E+04  0.50400001928E-02 0.  1.
       -1   -1    0    0    0  501  0.00000000000E+00  0.00000000000E+00 -0.12654531056E+04  0.12654531056E+04  0.50400001928E-02 0. -1.
    10030    2    1    2    0    0  0.00000000000E+00  0.00000000000E+00  0.10237520627E+04  0.35546582738E+04  0.34040457044E+04 0.  0.
        4    1    3    3  502    0 -0.13697900243E+04  0.10014443208E+04  0.65066535993E+03  0.18173008727E+04  0.12699999809E+01 0.  1.
       -4    1    3    3    0  502  0.13697900243E+04 -0.10014443208E+04  0.37308670274E+03  0.17373574011E+04  0.12699999809E+01 0. -1.
</event>
<event>
 5   0  0.1970449E-07  0.3402840E+04  0.7818609E-02  0.8137210E-01
       -2   -1    0    0    0  501  0.00000000000E+00  0.00000000000E+00  0.19341878294E+04  0.19341878294E+04  0.25500000920E-02 0. -1.
        2   -1    0    0  501    0  0.00000000000E+00  0.00000000000E+00 -0.14966646716E+04  0.14966646716E+04  0.25500000920E-02 0.  1.
    10030    2    1    2    0    0  0.00000000000E+00  0.00000000000E+00  0.43752315780E+03  0.34308525010E+04  0.34028403386E+04 0.  0.
        1    1    3    3  502    0  0.25001509464E+03 -0.22452323199E+03 -0.14628751997E+04  0.15009737104E+04  0.50400001928E-02 0.  1.
       -1    1    3    3    0  502 -0.25001509464E+03  0.22452323199E+03  0.19003983575E+04  0.19298787906E+04  0.50400001928E-02 0. -1.
</event>
<event>
 5   0  0.6584420E-08  0.3399560E+04  0.7818609E-02  0.8138014E-01
        1   -1    0    0  501    0  0.00000000000E+00  0.00000000000E+00  0.24295360391E+04  0.24295360391E+04  0.50400001928E-02 0. -1.
       -1   -1    0    0    0  501  0.00000000000E+00  0.00000000000E+00 -0.11892196569E+04  0.11892196569E+04  0.50400001928E-02 0.  1.
    10030    2    1    2    0    0  0.00000000000E+00  0.00000000000E+00  0.12403163822E+04  0.36187556960E+04  0.33995599802E+04 0.  0.
        1    1    3    3  502    0  0.52248617325E+03  0.16106819491E+04  0.77791605361E+03  0.18634488265E+04  0.50400001928E-02 0. -1.
       -1    1    3    3    0  502 -0.52248617325E+03 -0.16106819491E+04  0.46240032863E+03  0.17553068695E+04  0.50400001928E-02 0.  1.
</event>
<event>
 5   0  0.1963852E-07  0.3399406E+04  0.7818609E-02  0.8138052E-01
        2   -1    0    0  501    0  0.00000000000E+00  0.00000000000E+00  0.20506408910E+04  0.20506408910E+04  0.25500000920E-02 0. -1.
       -2   -1    0    0    0  501  0.00000000000E+00  0.00000000000E+00 -0.14088231386E+04  0.14088231386E+04  0.25500000920E-02 0.  1.
    10030    2    1    2    0    0  0.00000000000E+00  0.00000000000E+00  0.64181775241E+03  0.34594640295E+04  0.33994060282E+04 0.  0.
        4    1    3    3  502    0 -0.88167575707E+03 -0.11121680689E+04 -0.63087863473E+03  0.15531514474E+04  0.12699999809E+01 0.  1.
       -4    1    3    3    0  502  0.88167575707E+03  0.11121680689E+04  0.12726963871E+04  0.19063125821E+04  0.12699999809E+01 0. -1.
</event>
<event>
 5   0  0.1897313E-07  0.3414596E+04  0.7818609E-02  0.8134333E-01
       -2   -1    0    0    0  501  0.00000000000E+00  0.00000000000E+00  0.89903367577E+03  0.89903367577E+03  0.25500000920E-02 0.  1.
        2   -1    0    0  501    0  0.00000000000E+00  0.00000000000E+00 -0.32422224893E+04  0.32422224893E+04  0.25500000920E-02 0. -1.
    10030    2    1    2    0    0  0.00000000000E+00  0.00000000000E+00 -0.23431888136E+04  0.41412561651E+04  0.34145964343E+04 0.  0.
        3    1    3    3  502    0 -0.65869403357E+02 -0.73123461577E+03 -0.30409842449E+04  0.31283586798E+04  0.10100000352E+00 0. -1.
       -3    1    3    3    0  502  0.65869403357E+02  0.73123461577E+03  0.69779543132E+03  0.10128974853E+04  0.10100000352E+00 0.  1.
</event>
<event>
 5   0  0.1986613E-07  0.3382523E+04  0.7818609E-02  0.8142209E-01
        2   -1    0    0  501    0  0.00000000000E+00  0.00000000000E+00  0.10545204606E+04  0.10545204606E+04  0.25500000920E-02 0. -1.
       -2   -1    0    0    0  501  0.00000000000E+00  0.00000000000E+00 -0.27124805615E+04  0.27124805615E+04  0.25500000920E-02 0.  1.
    10030    2    1    2    0    0  0.00000000000E+00  0.00000000000E+00 -0.16579601008E+04  0.37670010221E+04  0.33825234670E+04 0.  0.
        5    1    3    3  502    0  0.18157608581E+03  0.10757972642E+04  0.61020833501E+03  0.12500743701E+04  0.46999998093E+01 0. -1.
       -5    1    3    3    0  502 -0.18157608581E+03 -0.10757972642E+04 -0.22681684359E+04  0.25169266521E+04  0.46999998093E+01 0.  1.
</event>
<event>
 5   0  0.6311750E-08  0.3396768E+04  0.7818609E-02  0.8138700E-01
        1   -1    0    0  501    0  0.00000000000E+00  0.00000000000E+00  0.13770919858E+04  0.13770919858E+04  0.50400001928E-02 0.  1.
       -1   -1    0    0    0  501  0.00000000000E+00  0.00000000000E+00 -0.20946372337E+04  0.20946372337E+04  0.50400001928E-02 0. -1.
    10030    2    1    2    0    0  0.00000000000E+00  0.00000000000E+00 -0.71754524793E+03  0.34717292194E+04  0.33967679624E+04 0.  0.
        4    1    3    3  502    0 -0.10813492579E+04 -0.89417468669E+03 -0.13367815174E+04  0.19380018127E+04  0.12699999809E+01 0.  1.
       -4    1    3    3    0  502  0.10813492579E+04  0.89417468669E+03  0.61923626950E+03  0.15337274067E+04  0.12699999809E+01 0. -1.
</event>
<event>
 5   0  0.6311750E-08  0.3401611E+04  0.7818609E-02  0.8137511E-01
        1   -1    0    0  501    0  0.00000000000E+00  0.00000000000E+00  0.12996939049E+04  0.12996939049E+04  0.50400001928E-02 0. -1.
       -1   -1    0    0    0  501  0.00000000000E+00  0.00000000000E+00 -0.22257086560E+04  0.22257086560E+04  0.50400001928E-02 0.  1.
    10030    2    1    2    0    0  0.00000000000E+00  0.00000000000E+00 -0.92601475108E+03  0.35254025609E+04  0.34016113678E+04 0.  0.
        4    1    3    3  502    0  0.89781951843E+03  0.10483657484E+04  0.56693248042E+03  0.14921677789E+04  0.12699999809E+01 0. -1.
       -4    1    3    3    0  502 -0.89781951843E+03 -0.10483657484E+04 -0.14929472315E+04  0.20332347821E+04  0.12699999809E+01 0.  1.
</event>
<event>
 5   0  0.6584420E-08  0.3393319E+04  0.7818609E-02  0.8139548E-01
        1   -1    0    0  501    0  0.00000000000E+00  0.00000000000E+00  0.18132684864E+04  0.18132684864E+04  0.50400001928E-02 0.  1.
       -1   -1    0    0    0  501  0.00000000000E+00  0.00000000000E+00 -0.15875493133E+04  0.15875493133E+04  0.50400001928E-02 0. -1.
    10030    2    1    2    0    0  0.00000000000E+00  0.00000000000E+00  0.22571917304E+03  0.34008177997E+04  0.33933188122E+04 0.  0.
        1    1    3    3  502    0  0.39581522786E+03 -0.33442851188E+03  0.17320230145E+04  0.18078760597E+04  0.50400001928E-02 0.  1.
       -1    1    3    3    0  502 -0.39581522786E+03  0.33442851188E+03 -0.15063038415E+04  0.15929417400E+04  0.50400001928E-02 0. -1.
</event>
<event>
 5   0  0.1986613E-07  0.3400463E+04  0.7818609E-02  0.8137793E-01
        2   -1    0    0  501    0  0.00000000000E+00  0.00000000000E+00  0.17924593929E+04  0.17924593929E+04  0.25500000920E-02 0.  1.
       -2   -1    0    0    0  501  0.00000000000E+00  0.00000000000E+00 -0.16127486882E+04  0.16127486882E+04  0.25500000920E-02 0. -1.
    10030    2    1    2    0    0  0.00000000000E+00  0.00000000000E+00  0.17971070465E+03  0.34052080811E+04  0.34004626359E+04 0.  0.
        5    1    3    3  502    0 -0.11295047807E+04  0.80970594175E+03 -0.89098060756E+03  0.16508401785E+04  0.46999998093E+01 0. -1.
       -5    1    3    3    0  502  0.11295047807E+04 -0.80970594175E+03  0.10706913122E+04  0.17543679026E+04  0.46999998093E+01 0.  1.
</event>
<event>
 5   0  0.1963852E-07  0.3397307E+04  0.7818609E-02  0.8138568E-01
       -2   -1    0    0    0  501  0.00000000000E+00  0.00000000000E+00  0.12658821188E+04  0.12658821188E+04  0.25500000920E-02 0. -1.
        2   -1    0    0  501    0  0.00000000000E+00  0.00000000000E+00 -0.22793781108E+04  0.22793781108E+04  0.25500000920E-02 0.  1.
    10030    2    1    2    0    0  0.00000000000E+00  0.00000000000E+00 -0.10134959920E+04  0.35452602295E+04  0.33973071644E+04 0.  0.
        4    1    3    3  502    0 -0.30697029791E+03  0.26796817414E+02  0.12364722399E+04  0.12742896241E+04  0.12699999809E+01 0. -1.
       -4    1    3    3    0  502  0.30697029791E+03 -0.26796817414E+02 -0.22499682319E+04  0.22709706054E+04  0.12699999809E+01 0.  1.
</event>
<event>
 5   0  0.1970449E-07  0.3400279E+04  0.7818609E-02  0.8137838E-01
        2   -1    0    0  501    0  0.00000000000E+00  0.00000000000E+00  0.19947128648E+04  0.19947128648E+04  0.25500000920E-02 0. -1.
       -2   -1    0    0    0  501  0.00000000000E+00  0.00000000000E+00 -0.14490676541E+04  0.14490676542E+04  0.25500000920E-02 0.  1.
    10030    2    1    2    0    0  0.00000000000E+00  0.00000000000E+00  0.54564521061E+03  0.34437805189E+04  0.34002787484E+04 0.  0.
        1    1    3    3  502    0  0.10183044650E+04  0.41899039239E+03  0.15847625050E+04  0.19297588268E+04  0.50400001928E-02 0. -1.
       -1    1    3    3    0  502 -0.10183044650E+04 -0.41899039239E+03 -0.10391172944E+04  0.15140216921E+04  0.50400001928E-02 0.  1.
</event>
<event>
 5   0  0.1970449E-07  0.3401139E+04  0.7818609E-02  0.8137627E-01
        2   -1    0    0  501    0  0.00000000000E+00  0.00000000000E+00  0.18529992554E+04  0.18529992554E+04  0.25500000920E-02 0.  1.
       -2   -1    0    0    0  501  0.00000000000E+00  0.00000000000E+00 -0.15606786740E+04  0.15606786740E+04  0.25500000920E-02 0. -1.
    10030    2    1    2    0    0  0.00000000000E+00  0.00000000000E+00  0.29232058131E+03  0.34136779294E+04  0.34011388804E+04 0.  0.
        1    1    3    3  502    0  0.14413512535E+03 -0.69201433685E+03  0.16985614884E+04  0.18397744173E+04  0.50400001928E-02 0.  1.
       -1    1    3    3    0  502 -0.14413512535E+03  0.69201433685E+03 -0.14062409071E+04  0.15739035121E+04  0.50400001928E-02 0. -1.
</event>
<event>
 5   0  0.6788600E-08  0.3402276E+04  0.7818609E-02  0.8137348E-01
       -1   -1    0    0    0  501  0.00000000000E+00  0.00000000000E+00  0.15563126807E+04  0.15563126807E+04  0.50400001928E-02 0.  1.
        1   -1    0    0  501    0  0.00000000000E+00  0.00000000000E+00 -0.18594405597E+04  0.18594405597E+04  0.50400001928E-02 0. -1.
    10030    2    1    2    0    0  0.00000000000E+00  0.00000000000E+00 -0.30312787905E+03  0.34157532404E+04  0.34022762510E+04 0.  0.
        2    1    3    3  502    0  0.81527518657E+03  0.84257324588E+03 -0.13890321638E+04  0.18176945994E+04  0.25500000920E-02 0. -1.
       -2    1    3    3    0  502 -0.81527518657E+03 -0.84257324588E+03  0.10859042848E+04  0.15980586410E+04  0.25500000920E-02 0.  1.
</event>
<event>
 5   0  0.6341535E-08  0.3405331E+04  0.7818609E-02  0.8136599E-01
        1   -1    0    0  501    0  0.00000000000E+00  0.00000000000E+00  0.14153019258E+04  0.14153019258E+04  0.50400001928E-02 0.  1.
       -1   -1    0    0    0  501  0.00000000000E+00  0.00000000000E+00 -0.20483755553E+04  0.20483755553E+04  0.50400001928E-02 0. -1.
    10030    2    1    2    0    0  0.00000000000E+00  0.00000000000E+00 -0.63307362954E+03  0.34636774811E+04  0.34053310372E+04 0.  0.
        5    1    3    3  502    0 -0.54534182298E+03 -0.11687812565E+04  0.81408442046E+03  0.15251894515E+04  0.46999998093E+01 0.  1.
       -5    1    3    3    0  502  0.54534182298E+03  0.11687812565E+04 -0.14471580500E+04  0.19384880296E+04  0.46999998093E+01 0. -1.
</event>
<event>
 5   0  0.1986613E-07  0.3395575E+04  0.7818609E-02  0.8138993E-01
       -2   -1    0    0    0  501  0.00000000000E+00  0.00000000000E+00  0.18723810499E+04  0.18723810499E+04  0.25500000920E-02 0. -1.
        2   -1    0    0  501    0  0.00000000000E+00  0.00000000000E+00 -0.15394743817E+04  0.15394743817E+04  0.25500000920E-02 0.  1.
    10030    2    1    2    0    0  0.00000000000E+00  0.00000000000E+00  0.33290666820E+03  0.34118554315E+04  0.33955751554E+04 0.  0.
        5    1    3    3  502    0 -0.20073875717E+03 -0.16031353754E+04  0.69060707819E+03  0.17570712299E+04  0.46999998093E+01 0. -1.
       -5    1    3    3    0  502  0.20073875717E+03  0.16031353754E+04 -0.35770040999E+03  0.16547842016E+04  0.46999998093E+01 0.  1.
</event>
<event>
 5   0  0.6311750E-08  0.3398391E+04  0.7818609E-02  0.8138301E-01
        1   -1    0    0  501    0  0.00000000000E+00  0.00000000000E+00  0.16815980951E+04  0.16815980951E+04  0.50400001928E-02 0.  1.
       -1   -1    0    0    0  501  0.00000000000E+00  0.00000000000E+00 -0.17169773169E+04  0.17169773169E+04  0.50400001928E-02 0. -1.
    10030    2    1    2    0    0  0.00000000000E+00  0.00000000000E+00 -0.35379221754E+02  0.33985754120E+04  0.33983912579E+04 0.  0.
        4    1    3    3  502    0  0.12970159905E+04  0.10257078405E+04  0.37340333742E+03  0.16952164224E+04  0.12699999809E+01 0. -1.
       -4    1    3    3    0  502 -0.12970159905E+04 -0.10257078405E+04 -0.40878255917E+03  0.17033589895E+04  0.12699999809E+01 0.  1.
</event>
<event>
 5   0  0.1928004E-07  0.3400125E+04  0.7818609E-02  0.8137876E-01
       -2   -1    0    0    0  501  0.00000000000E+00  0.00000000000E+00  0.29736725128E+04  0.29736725128E+04  0.25500000920E-02 0. -1.
        2   -1    0    0  501    0  0.00000000000E+00  0.00000000000E+00 -0.97193363559E+03  0.97193363559E+03  0.25500000920E-02 0.  1.
    10030    2    1    2    0    0  0.00000000000E+00  0.00000000000E+00  0.20017388772E+04  0.39456061484E+04  0.34001249015E+04 0.  0.
        2    1    3    3  502    0 -0.15504620539E+04  0.34674982528E+03  0.17029479706E+04  0.23289911577E+04  0.25500000920E-02 0. -1.
       -2    1    3    3    0  502  0.15504620539E+04 -0.34674982528E+03  0.29879090653E+03  0.16166149906E+04  0.25500000920E-02 0.  1.
</event>
<event>
 5   0  0.6584420E-08  0.3388171E+04  0.7818609E-02  0.8140816E-01
        1   -1    0    0  501    0  0.00000000000E+00  0.00000000000E+00  0.19219513801E+04  0.19219513801E+04  0.50400001928E-02 0.  1.
       -1   -1    0    0    0  501  0.00000000000E+00  0.00000000000E+00 -0.14932353349E+04  0.14932353350E+04  0.50400001928E-02 0. -1.
    10030    2    1    2    0    0  0.00000000000E+00  0.00000000000E+00  0.42871604517E+03  0.34151867151E+04  0.33881710186E+04 0.  0.
        1    1    3    3  502    0 -0.14030249875E+04 -0.13766276509E+03 -0.73254476212E+03  0.15887265280E+04  0.50400001928E-02 0.  1.
       -1    1    3    3    0  502  0.14030249875E+04  0.13766276509E+03  0.11612608073E+04  0.18264601871E+04  0.50400001928E-02 0. -1.
</event>
<event>
 5   0  0.1897313E-07  0.3389178E+04  0.7818609E-02  0.8140567E-01
        2   -1    0    0  501    0  0.00000000000E+00  0.00000000000E+00  0.19758548125E+04  0.19758548125E+04  0.25500000920E-02 0. -1.
       -2   -1    0    0    0  501  0.00000000000E+00  0.00000000000E+00 -0.14533618809E+04  0.14533618809E+04  0.25500000920E-02 0.  1.
    10030    2    1    2    0    0  0.00000000000E+00  0.00000000000E+00  0.52249293166E+03  0.34292166934E+04  0.33891781108E+04 0.  0.
        3    1    3    3  502    0 -0.73760290202E+03  0.72511633488E+03 -0.10969151597E+04  0.15076719199E+04  0.10100000352E+00 0.  1.
       -3    1    3    3    0  502  0.73760290202E+03 -0.72511633488E+03  0.16194080914E+04  0.19215447736E+04  0.10100000352E+00 0. -1.
</event>
<event>
 5   0  0.1986613E-07  0.3402533E+04  0.7818609E-02  0.8137285E-01
       -2   -1    0    0    0  501  0.00000000000E+00  0.00000000000E+00  0.12388106108E+04  0.12388106108E+04  0.25500000920E-02 0. -1.
        2   -1    0    0  501    0  0.00000000000E+00  0.00000000000E+00 -0.23363594889E+04  0.23363594889E+04  0.25500000920E-02 0.  1.
    10030    2    1    2    0    0  0.00000000000E+00  0.00000000000E+00 -0.10975488781E+04  0.35751700997E+04  0.34025325424E+04 0.  0.
        5    1    3    3  502    0  0.15022908179E+03 -0.84571756825E+03  0.99422910347E+03  0.13138951946E+04  0.46999998093E+01 0. -1.
       -5    1    3    3    0  502 -0.15022908179E+03  0.84571756825E+03 -0.20917779816E+04  0.22612749051E+04  0.46999998093E+01 0.  1.
</event>
<event>
 5   0  0.6584420E-08  0.3397378E+04  0.7818609E-02  0.8138550E-01
        1   -1    0    0  501    0  0.00000000000E+00  0.00000000000E+00  0.10330197140E+04  0.10330197140E+04  0.50400001928E-02 0. -1.
       -1   -1    0    0    0  501  0.00000000000E+00  0.00000000000E+00 -0.27933107432E+04  0.27933107432E+04  0.50400001928E-02 0.  1.
    10030    2    1    2    0    0  0.00000000000E+00  0.00000000000E+00 -0.17602910292E+04  0.38263304572E+04  0.33973784394E+04 0.  0.
        1    1    3    3  502    0 -0.89962841812E+03  0.11939882804E+04 -0.17885881335E+04  0.23310913357E+04  0.50400001928E-02 0.  1.
       -1    1    3    3    0  502  0.89962841812E+03 -0.11939882804E+04  0.28297104263E+02  0.14952391215E+04  0.50400001928E-02 0. -1.
</event>
<event>
 5   0  0.6311750E-08  0.3395978E+04  0.7818609E-02  0.8138894E-01
        1   -1    0    0  501    0  0.00000000000E+00  0.00000000000E+00  0.26901342177E+04  0.26901342177E+04  0.50400001928E-02 0. -1.
       -1   -1    0    0    0  501  0.00000000000E+00  0.00000000000E+00 -0.10717554599E+04  0.10717554599E+04  0.50400001928E-02 0.  1.
    10030    2    1    2    0    0  0.00000000000E+00  0.00000000000E+00  0.16183787578E+04  0.37618896776E+04  0.33959776417E+04 0.  0.
        4    1    3    3  502    0  0.99226444258E+03  0.75463700554E+03  0.20862745074E+04  0.24303515522E+04  0.12699999809E+01 0. -1.
       -4    1    3    3    0  502 -0.99226444258E+03 -0.75463700554E+03 -0.46789574957E+03  0.13315381254E+04  0.12699999809E+01 0.  1.
</event>
<event>
 5   0  0.6311750E-08  0.3401194E+04  0.7818609E-02  0.8137613E-01
        3   -1    0    0  501    0  0.00000000000E+00  0.00000000000E+00  0.19806597106E+04  0.19806597131E+04  0.10100000352E+00 0.  1.
       -3   -1    0    0    0  501  0.00000000000E+00  0.00000000000E+00 -0.14601347037E+04  0.14601347072E+04  0.10100000352E+00 0. -1.
    10030    2    1    2    0    0  0.00000000000E+00  0.00000000000E+00  0.52052500684E+03  0.34407944203E+04  0.34011939022E+04 0.  0.
        2    1    3    3  502    0 -0.11163982741E+04 -0.99335354233E+03 -0.56093603545E+03  0.15961659069E+04  0.25500000920E-02 0. -1.
       -2    1    3    3    0  502  0.11163982741E+04  0.99335354233E+03  0.10814610423E+04  0.18446285134E+04  0.25500000920E-02 0.  1.
</event>
<event>
 5   0  0.6341535E-08  0.3399030E+04  0.7818609E-02  0.8138144E-01
        1   -1    0    0  501    0  0.00000000000E+00  0.00000000000E+00  0.21405006745E+04  0.21405006745E+04  0.50400001928E-02 0.  1.
       -1   -1    0    0    0  501  0.00000000000E+00  0.00000000000E+00 -0.13493811108E+04  0.13493811108E+04  0.50400001928E-02 0. -1.
    10030    2    1    2    0    0  0.00000000000E+00  0.00000000000E+00  0.79111956368E+03  0.34898817854E+04  0.33990299663E+04 0.  0.
        5    1    3    3  502    0 -0.73765370918E+03  0.13259465352E+04  0.11815686741E+04  0.19231208570E+04  0.46999998093E+01 0.  1.
       -5    1    3    3    0  502  0.73765370918E+03 -0.13259465352E+04 -0.39044911039E+03  0.15667609284E+04  0.46999998093E+01 0. -1.
</event>
<event>
 5   0  0.1986613E-07  0.3407357E+04  0.7818609E-02  0.8136103E-01
       -2   -1    0    0    0  501  0.00000000000E+00  0.00000000000E+00  0.13530950975E+04  0.13530950975E+04  0.25500000920E-02 0.  1.
        2   -1    0    0  501    0  0.00000000000E+00  0.00000000000E+00 -0.21450976693E+04  0.21450976693E+04  0.25500000920E-02 0. -1.
    10030    2    1    2    0    0  0.00000000000E+00  0.00000000000E+00 -0.79200257185E+03  0.34981927668E+04  0.34073574159E+04 0.  0.
        5    1    3    3  502    0  0.26872454976E+03  0.30533955946E+01 -0.21231928377E+04  0.21401383420E+04  0.46999998093E+01 0. -1.
       -5    1    3    3    0  502 -0.26872454976E+03 -0.30533955946E+01  0.13311902658E+04  0.13580544248E+04  0.46999998093E+01 0.  1.
</event>
<event>
 5   0  0.1986613E-07  0.3400148E+04  0.7818609E-02  0.8137870E-01
        2   -1    0    0  501    0  0.00000000000E+00  0.00000000000E+00  0.93199909362E+03  0.93199909362E+03  0.25500000920E-02 0.  1.
       -2   -1    0    0    0  501  0.00000000000E+00  0.00000000000E+00 -0.31011321928E+04  0.31011321928E+04  0.25500000920E-02 0. -1.
    10030    2    1    2    0    0  0.00000000000E+00  0.00000000000E+00 -0.21691330992E+04  0.40331312865E+04  0.34001484632E+04 0.  0.
        5    1    3    3  502    0 -0.15507921725E+04  0.57162708061E+03 -0.61230606465E+03  0.17625704775E+04  0.46999998093E+01 0.  1.
       -5    1    3    3    0  502  0.15507921725E+04 -0.57162708061E+03 -0.15568270346E+04  0.22705608089E+04  0.46999998093E+01 0. -1.
</event>
<event>
 5   0  0.1897313E-07  0.3403314E+04  0.7818609E-02  0.8137093E-01
        2   -1    0    0  501    0  0.00000000000E+00  0.00000000000E+00  0.20314519451E+04  0.20314519451E+04  0.25500000920E-02 0.  1.
       -2   -1    0    0    0  501  0.00000000000E+00  0.00000000000E+00 -0.14254023898E+04  0.14254023898E+04  0.25500000920E-02 0. -1.
    10030    2    1    2    0    0  0.00000000000E+00  0.00000000000E+00  0.60604955537E+03  0.34568543349E+04  0.34033139481E+04 0.  0.
        3    1    3    3  502    0  0.11962223948E+04 -0.92040504379E+03 -0.49517694765E+03  0.15884878602E+04  0.10100000352E+00 0. -1.
       -3    1    3    3    0  502 -0.11962223948E+04  0.92040504379E+03  0.11012265030E+04  0.18683664747E+04  0.10100000352E+00 0.  1.
</event>
<event>
 5   0  0.1986613E-07  0.3400273E+04  0.7818609E-02  0.8137839E-01
       -2   -1    0    0    0  501  0.00000000000E+00  0.00000000000E+00  0.22882019675E+04  0.22882019675E+04  0.25500000920E-02 0. -1.
        2   -1    0    0  501    0  0.00000000000E+00  0.00000000000E+00 -0.12632032207E+04  0.12632032207E+04  0.25500000920E-02 0.  1.
    10030    2    1    2    0    0  0.00000000000E+00  0.00000000000E+00  0.10249987468E+04  0.35514051882E+04  0.34002729861E+04 0.  0.
        5    1    3    3  502    0  0.10702573470E+04  0.27337042301E+03 -0.83732870418E+03  0.13861181861E+04  0.46999998093E+01 0.  1.
       -5    1    3    3    0  502 -0.10702573470E+04 -0.27337042301E+03  0.18623274510E+04  0.21652870021E+04  0.46999998093E+01 0. -1.
</event>
<event>
 5   0  0.6788600E-08  0.3387787E+04  0.7818609E-02  0.8140910E-01
        1   -1    0    0  501    0  0.00000000000E+00  0.00000000000E+00  0.23888106937E+04  0.23888106937E+04  0.50400001928E-02 0.  1.
       -1   -1    0    0    0  501  0.00000000000E+00  0.00000000000E+00 -0.12011314555E+04  0.12011314555E+04  0.50400001928E-02 0. -1.
    10030    2    1    2    0    0  0.00000000000E+00  0.00000000000E+00  0.11876792382E+04  0.35899421492E+04  0.33877872810E+04 0.  0.
        2    1    3    3  502    0  0.60596206993E+03  0.15174114586E+04  0.12047573912E+03  0.16383656395E+04  0.25500000920E-02 0. -1.
       -2    1    3    3    0  502 -0.60596206993E+03 -0.15174114586E+04  0.10672034991E+04  0.19515765097E+04  0.25500000920E-02 0.  1.
</event>
<event>
 5   0  0.1897313E-07  0.3402802E+04  0.7818609E-02  0.8137219E-01
       -2   -1    0    0    0  501  0.00000000000E+00  0.00000000000E+00  0.11176993171E+04  0.11176993171E+04  0.25500000920E-02 0. -1.
        2   -1    0    0  501    0  0.00000000000E+00  0.00000000000E+00 -0.25899328779E+04  0.25899328779E+04  0.25500000920E-02 0.  1.
    10030    2    1    2    0    0  0.00000000000E+00  0.00000000000E+00 -0.14722335607E+04  0.37076321950E+04  0.34028024974E+04 0.  0.
        3    1    3    3  502    0  0.81248083667E+03  0.42220888879E+03  0.82635314215E+03  0.12333876039E+04  0.10100000352E+00 0. -1.
       -3    1    3    3    0  502 -0.81248083667E+03 -0.42220888879E+03 -0.22985867029E+04  0.24742445911E+04  0.10100000352E+00 0.  1.
</event>
<event>
 5   0  0.1928004E-07  0.3390697E+04  0.7818609E-02  0.8140193E-01
        2   -1    0    0  501    0  0.00000000000E+00  0.00000000000E+00  0.28577227589E+04  0.28577227589E+04  0.25500000920E-02 0. -1.
       -2   -1    0    0    0  501  0.00000000000E+00  0.00000000000E+00 -0.10057680819E+04  0.10057680819E+04  0.25500000920E-02 0.  1.
    10030    2    1    2    0    0  0.00000000000E+00  0.00000000000E+00  0.18519546770E+04  0.38634908408E+04  0.33906968828E+04 0.  0.
        2    1    3    3  502    0  0.94047884293E+02  0.16754892643E+04  0.65133468160E+03  0.18000961493E+04  0.25500000920E-02 0. -1.
       -2    1    3    3    0  502 -0.94047884293E+02 -0.16754892643E+04  0.12006199954E+04  0.20633946914E+04  0.25500000920E-02 0.  1.
</event>
<event>
 5   0  0.1897313E-07  0.3404697E+04  0.7818609E-02  0.8136754E-01
        2   -1    0    0  501    0  0.00000000000E+00  0.00000000000E+00  0.25162265783E+04  0.25162265783E+04  0.25500000920E-02 0.  1.
       -2   -1    0    0    0  501  0.00000000000E+00  0.00000000000E+00 -0.11517209878E+04  0.11517209879E+04  0.25500000920E-02 0. -1.
    10030    2    1    2    0    0  0.00000000000E+00  0.00000000000E+00  0.13645055904E+04  0.36679475661E+04  0.34046973201E+04 0.  0.
        3    1    3    3  502    0 -0.89814885506E+03 -0.14365254335E+04  0.86160068787E+03  0.19006926218E+04  0.10100000352E+00 0. -1.
       -3    1    3    3    0  502  0.89814885506E+03  0.14365254335E+04  0.50290490257E+03  0.17672549443E+04  0.10100000352E+00 0.  1.
</event>
<event>
 5   0  0.6788600E-08  0.3465339E+04  0.7818609E-02  0.8122054E-01
        1   -1    0    0  501    0  0.00000000000E+00  0.00000000000E+00  0.12349830718E+04  0.12349830718E+04  0.50400001928E-02 0.  1.
       -1   -1    0    0    0  501  0.00000000000E+00  0.00000000000E+00 -0.24309190424E+04  0.24309190424E+04  0.50400001928E-02 0. -1.
    10030    2    1    2    0    0  0.00000000000E+00  0.00000000000E+00 -0.11959359706E+04  0.36659021143E+04  0.34653391559E+04 0.  0.
        2    1    3    3  502    0 -0.12311635540E+04  0.19360127720E+03 -0.18713365731E+04  0.22483651218E+04  0.25500000920E-02 0. -1.
       -2    1    3    3    0  502  0.12311635540E+04 -0.19360127720E+03  0.67540060247E+03  0.14175369925E+04  0.25500000920E-02 0.  1.
</event>
<event>
 5   0  0.1928004E-07  0.3391654E+04  0.7818609E-02  0.8139958E-01
       -2   -1    0    0    0  501  0.00000000000E+00  0.00000000000E+00  0.11248416501E+04  0.11248416501E+04  0.25500000920E-02 0. -1.
        2   -1    0    0  501    0  0.00000000000E+00  0.00000000000E+00 -0.25566528965E+04  0.25566528965E+04  0.25500000920E-02 0.  1.
    10030    2    1    2    0    0  0.00000000000E+00  0.00000000000E+00 -0.14318112464E+04  0.36814945466E+04  0.33916542647E+04 0.  0.
        2    1    3    3  502    0  0.13898416218E+04 -0.84285932348E+03 -0.12407081428E+04  0.20448540947E+04  0.25500000920E-02 0.  1.
       -2    1    3    3    0  502 -0.13898416218E+04  0.84285932348E+03 -0.19110310365E+03  0.16366404520E+04  0.25500000920E-02 0. -1.
</event>
<event>
 5   0  0.6311750E-08  0.3397532E+04  0.7818609E-02  0.8138512E-01
       -1   -1    0    0    0  501  0.00000000000E+00  0.00000000000E+00  0.11508741124E+04  0.11508741124E+04  0.50400001928E-02 0. -1.
        1   -1    0    0  501    0  0.00000000000E+00  0.00000000000E+00 -0.25074909665E+04  0.25074909666E+04  0.50400001928E-02 0.  1.
    10030    2    1    2    0    0  0.00000000000E+00  0.00000000000E+00 -0.13566168541E+04  0.36583650790E+04  0.33975323048E+04 0.  0.
        4    1    3    3  502    0  0.92597530681E+03 -0.13207938563E+04 -0.10460237735E+03  0.16164374253E+04  0.12699999809E+01 0.  1.
       -4    1    3    3    0  502 -0.92597530681E+03  0.13207938563E+04 -0.12520144768E+04  0.20419276536E+04  0.12699999809E+01 0. -1.
</event>
<event>
 5   0  0.6311750E-08  0.3404165E+04  0.7818609E-02  0.8136885E-01
        1   -1    0    0  501    0  0.00000000000E+00  0.00000000000E+00  0.20937986358E+04  0.20937986358E+04  0.50400001928E-02 0. -1.
       -1   -1    0    0    0  501  0.00000000000E+00  0.00000000000E+00 -0.13836501124E+04  0.13836501125E+04  0.50400001928E-02 0.  1.
    10030    2    1    2    0    0  0.00000000000E+00  0.00000000000E+00  0.71014852339E+03  0.34774487483E+04  0.34041649302E+04 0.  0.
        4    1    3    3  502    0 -0.57756678043E+03 -0.14250626376E+04  0.11006468686E+04  0.18909817686E+04  0.12699999809E+01 0. -1.
       -4    1    3    3    0  502  0.57756678043E+03  0.14250626376E+04 -0.39049834520E+03  0.15864669797E+04  0.12699999809E+01 0.  1.
</event>
<event>
 5   0  0.1963852E-07  0.3398882E+04  0.7818609E-02  0.8138181E-01
        2   -1    0    0  501    0  0.00000000000E+00  0.00000000000E+00  0.20116764766E+04  0.20116764766E+04  0.25500000920E-02 0.  1.
       -2   -1    0    0    0  501  0.00000000000E+00  0.00000000000E+00 -0.14356682197E+04  0.14356682197E+04  0.25500000920E-02 0. -1.
    10030    2    1    2    0    0  0.00000000000E+00  0.00000000000E+00  0.57600825691E+03  0.34473446962E+04  0.33988821608E+04 0.  0.
        4    1    3    3  502    0 -0.59760298275E+03 -0.15253375306E+04 -0.17045239891E+03  0.16470699865E+04  0.12699999809E+01 0. -1.
       -4    1    3    3    0  502  0.59760298275E+03  0.15253375306E+04  0.74646065582E+03  0.18002747098E+04  0.12699999809E+01 0.  1.
</event>
<event>
 5   0  0.6367111E-08  0.3406079E+04  0.7818609E-02  0.8136416E-01
        1   -1    0    0  501    0  0.00000000000E+00  0.00000000000E+00  0.21807037913E+04  0.21807037913E+04  0.50400001928E-02 0.  1.
       -1   -1    0    0    0  501  0.00000000000E+00  0.00000000000E+00 -0.13300033736E+04  0.13300033736E+04  0.50400001928E-02 0. -1.
    10030    2    1    2    0    0  0.00000000000E+00  0.00000000000E+00  0.85070041773E+03  0.35107071649E+04  0.34060789181E+04 0.  0.
        3    1    3    3  502    0  0.28306519304E+03 -0.31916771215E+03  0.21247381911E+04  0.21671424325E+04  0.10100000352E+00 0.  1.
       -3    1    3    3    0  502 -0.28306519304E+03  0.31916771215E+03 -0.12740377733E+04  0.13435647324E+04  0.10100000352E+00 0. -1.
</event>
<event>
 5   0  0.6788600E-08  0.3335367E+04  0.7818609E-02  0.8153954E-01
        1   -1    0    0  501    0  0.00000000000E+00  0.00000000000E+00  0.23494784482E+04  0.23494784482E+04  0.50400001928E-02 0.  1.
       -1   -1    0    0    0  501  0.00000000000E+00  0.00000000000E+00 -0.11837384967E+04  0.11837384967E+04  0.50400001928E-02 0. -1.
    10030    2    1    2    0    0  0.00000000000E+00  0.00000000000E+00  0.11657399515E+04  0.35332169449E+04  0.33353668982E+04 0.  0.
        2    1    3    3  502    0 -0.32691214773E+03 -0.69531140201E+03  0.21508187906E+04  0.22839332232E+04  0.25500000920E-02 0.  1.
       -2    1    3    3    0  502  0.32691214773E+03  0.69531140201E+03 -0.98507883910E+03  0.12492837217E+04  0.25500000920E-02 0. -1.
</event>
<event>
 5   0  0.1970449E-07  0.3407923E+04  0.7818609E-02  0.8135965E-01
       -2   -1    0    0    0  501  0.00000000000E+00  0.00000000000E+00  0.11361802804E+04  0.11361802804E+04  0.25500000920E-02 0. -1.
        2   -1    0    0  501    0  0.00000000000E+00  0.00000000000E+00 -0.25554784006E+04  0.25554784006E+04  0.25500000920E-02 0.  1.
    10030    2    1    2    0    0  0.00000000000E+00  0.00000000000E+00 -0.14192981202E+04  0.36916586810E+04  0.34079226316E+04 0.  0.
        1    1    3    3  502    0 -0.13089593330E+04 -0.10856793390E+04 -0.82536007348E+03  0.18903156915E+04  0.50400001928E-02 0.  1.
       -1    1    3    3    0  502  0.13089593330E+04  0.10856793390E+04 -0.59393804675E+03  0.18013429895E+04  0.50400001928E-02 0. -1.
</event>
<event>
 5   0  0.1897313E-07  0.3400762E+04  0.7818609E-02  0.8137719E-01
        2   -1    0    0  501    0  0.00000000000E+00  0.00000000000E+00  0.24070663622E+04  0.24070663622E+04  0.25500000920E-02 0. -1.
       -2   -1    0    0    0  501  0.00000000000E+00  0.00000000000E+00 -0.12011696875E+04  0.12011696875E+04  0.25500000920E-02 0.  1.
    10030    2    1    2    0    0  0.00000000000E+00  0.00000000000E+00  0.12058966747E+04  0.36082360497E+04  0.34007617676E+04 0.  0.
        3    1    3    3  502    0 -0.14789056722E+04  0.36209961981E+03 -0.20021244065E+03  0.15356963090E+04  0.10100000352E+00 0.  1.
       -3    1    3    3    0  502  0.14789056722E+04 -0.36209961981E+03  0.14061091154E+04  0.20725397407E+04  0.10100000352E+00 0. -1.
</event>
<event>
 5   0  0.1928004E-07  0.3398802E+04  0.7818609E-02  0.8138200E-01
        2   -1    0    0  501    0  0.00000000000E+00  0.00000000000E+00  0.18196596995E+04  0.18196596995E+04  0.25500000920E-02 0. -1.
       -2   -1    0    0    0  501  0.00000000000E+00  0.00000000000E+00 -0.15870899385E+04  0.15870899385E+04  0.25500000920E-02 0.  1.
    10030    2    1    2    0    0  0.00000000000E+00  0.00000000000E+00  0.23256976100E+03  0.34067496380E+04  0.33988019069E+04 0.  0.
        2    1    3    3  502    0 -0.83285173042E+03 -0.14811474144E+04  0.93341783736E+02  0.17018085547E+04  0.25500000920E-02 0. -1.
       -2    1    3    3    0  502  0.83285173042E+03  0.14811474144E+04  0.13922797726E+03  0.17049410834E+04  0.25500000920E-02 0.  1.
</event>
<event>
 5   0  0.6584420E-08  0.3398740E+04  0.7818609E-02  0.8138216E-01
        1   -1    0    0  501    0  0.00000000000E+00  0.00000000000E+00  0.10278060860E+04  0.10278060860E+04  0.50400001928E-02 0. -1.
       -1   -1    0    0    0  501  0.00000000000E+00  0.00000000000E+00 -0.28097303974E+04  0.28097303974E+04  0.50400001928E-02 0.  1.
    10030    2    1    2    0    0  0.00000000000E+00  0.00000000000E+00 -0.17819243114E+04  0.38375364834E+04  0.33987397679E+04 0.  0.
        1    1    3    3  502    0 -0.32870309921E+03  0.15501169388E+03 -0.27653400934E+04  0.27891181733E+04  0.50400001928E-02 0.  1.
       -1    1    3    3    0  502  0.32870309921E+03 -0.15501169388E+03  0.98341578198E+03  0.10484183101E+04  0.50400001928E-02 0. -1.
</event>
<event>
 5   0  0.1963852E-07  0.3409823E+04  0.7818609E-02  0.8135500E-01
        2   -1    0    0  501    0  0.00000000000E+00  0.00000000000E+00  0.18089992034E+04  0.18089992034E+04  0.25500000920E-02 0.  1.
       -2   -1    0    0    0  501  0.00000000000E+00  0.00000000000E+00 -0.16068125939E+04  0.16068125939E+04  0.25500000920E-02 0. -1.
    10030    2    1    2    0    0  0.00000000000E+00  0.00000000000E+00  0.20218660944E+03  0.34158117973E+04  0.34098226947E+04 0.  0.
        4    1    3    3  502    0  0.31907813282E+03 -0.15260401720E+04 -0.59012707030E+03  0.16669916117E+04  0.12699999809E+01 0. -1.
       -4    1    3    3    0  502 -0.31907813282E+03  0.15260401720E+04  0.79231367974E+03  0.17488201856E+04  0.12699999809E+01 0.  1.
</event>
<event>
 5   0  0.6367111E-08  0.3393933E+04  0.7818609E-02  0.8139397E-01
        1   -1    0    0  501    0  0.00000000000E+00  0.00000000000E+00  0.15803356925E+04  0.15803356925E+04  0.50400001928E-02 0. -1.
       -1   -1    0    0    0  501  0.00000000000E+00  0.00000000000E+00 -0.18222047423E+04  0.18222047423E+04  0.50400001928E-02 0.  1.
    10030    2    1    2    0    0  0.00000000000E+00  0.00000000000E+00 -0.24186904984E+03  0.34025404348E+04  0.33939329359E+04 0.  0.
        3    1    3    3  502    0  0.53838314329E+03  0.93089346288E+02 -0.17316120835E+04  0.18157649775E+04  0.10100000352E+00 0.  1.
       -3    1    3    3    0  502 -0.53838314329E+03 -0.93089346288E+02  0.14897430337E+04  0.15867754573E+04  0.10100000352E+00 0. -1.
</event>
<event>
 5   0  0.1897313E-07  0.3394581E+04  0.7818609E-02  0.8139238E-01
       -2   -1    0    0    0  501  0.00000000000E+00  0.00000000000E+00  0.12349108447E+04  0.12349108447E+04  0.25500000920E-02 0.  1.
        2   -1    0    0  501    0  0.00000000000E+00  0.00000000000E+00 -0.23327964761E+04  0.23327964761E+04  0.25500000920E-02 0. -1.
    10030    2    1    2    0    0  0.00000000000E+00  0.00000000000E+00 -0.10978856313E+04  0.35677073208E+04  0.33945813685E+04 0.  0.
        3    1    3    3  502    0 -0.15818596963E+03 -0.16202910437E+02 -0.23249505937E+04  0.23303820736E+04  0.10100000352E+00 0. -1.
       -3    1    3    3    0  502  0.15818596963E+03  0.16202910437E+02  0.12270649624E+04  0.12373252472E+04  0.10100000352E+00 0.  1.
</event>
<event>
 5   0  0.1897313E-07  0.3396350E+04  0.7818609E-02  0.8138803E-01
        2   -1    0    0  501    0  0.00000000000E+00  0.00000000000E+00  0.18564399803E+04  0.18564399803E+04  0.25500000920E-02 0.  1.
       -2   -1    0    0    0  501  0.00000000000E+00  0.00000000000E+00 -0.15534021438E+04  0.15534021438E+04  0.25500000920E-02 0. -1.
    10030    2    1    2    0    0  0.00000000000E+00  0.00000000000E+00  0.30303783651E+03  0.34098421241E+04  0.33963497141E+04 0.  0.
        3    1    3    3  502    0 -0.16130806258E+03  0.87181780359E+03 -0.13025825878E+04  0.15756928578E+04  0.10100000352E+00 0. -1.
       -3    1    3    3    0  502  0.16130806258E+03 -0.87181780359E+03  0.16056204244E+04  0.18341492663E+04  0.10100000352E+00 0.  1.
</event>
<event>
 5   0  0.6584420E-08  0.3400633E+04  0.7818609E-02  0.8137751E-01
        1   -1    0    0  501    0  0.00000000000E+00  0.00000000000E+00  0.27179058650E+04  0.27179058650E+04  0.50400001928E-02 0. -1.
       -1   -1    0    0    0  501  0.00000000000E+00  0.00000000000E+00 -0.10637146523E+04  0.10637146523E+04  0.50400001928E-02 0.  1.
    10030    2    1    2    0    0  0.00000000000E+00  0.00000000000E+00  0.16541912126E+04  0.37816205173E+04  0.34006330541E+04 0.  0.
        1    1    3    3  502    0  0.14095123832E+04 -0.81128536918E+03  0.13788340584E+04  0.21321567647E+04  0.50400001928E-02 0. -1.
       -1    1    3    3    0  502 -0.14095123832E+04  0.81128536918E+03  0.27535715425E+03  0.16494637526E+04  0.50400001928E-02 0.  1.
</event>
<event>
 5   0  0.6584420E-08  0.3391743E+04  0.7818609E-02  0.8139936E-01
        1   -1    0    0  501    0  0.00000000000E+00  0.00000000000E+00  0.15869316523E+04  0.15869316523E+04  0.50400001928E-02 0.  1.
       -1   -1    0    0    0  501  0.00000000000E+00  0.00000000000E+00 -0.18122896464E+04  0.18122896464E+04  0.50400001928E-02 0. -1.
    10030    2    1    2    0    0  0.00000000000E+00  0.00000000000E+00 -0.22535799414E+03  0.33992212987E+04  0.33917427986E+04 0.  0.
        1    1    3    3  502    0 -0.86967295073E+03 -0.98409238960E+03  0.96263173414E+03  0.16283208308E+04  0.50400001928E-02 0.  1.
       -1    1    3    3    0  502  0.86967295073E+03  0.98409238960E+03 -0.11879897283E+04  0.17709004678E+04  0.50400001928E-02 0. -1.
</event>
<event>
 5   0  0.1970449E-07  0.3394724E+04  0.7818609E-02  0.8139203E-01
       -2   -1    0    0    0  501  0.00000000000E+00  0.00000000000E+00  0.13214080811E+04  0.13214080811E+04  0.25500000920E-02 0. -1.
        2   -1    0    0  501    0  0.00000000000E+00  0.00000000000E+00 -0.21802781427E+04  0.21802781427E+04  0.25500000920E-02 0.  1.
    10030    2    1    2    0    0  0.00000000000E+00  0.00000000000E+00 -0.85887006157E+03  0.35016862238E+04  0.33947236452E+04 0.  0.
        1    1    3    3  502    0 -0.16752174209E+04  0.27322250672E+03 -0.42349051157E+03  0.17493850802E+04  0.50400001928E-02 0. -1.
       -1    1    3    3    0  502  0.16752174209E+04 -0.27322250672E+03 -0.43537955000E+03  0.17523011436E+04  0.50400001928E-02 0.  1.
</event>
<event>
 5   0  0.6311750E-08  0.3361971E+04  0.7818609E-02  0.8147303E-01
       -1   -1    0    0    0  501  0.00000000000E+00  0.00000000000E+00  0.14562440367E+04  0.14562440367E+04  0.50400001928E-02 0. -1.
        1   -1    0    0  501    0  0.00000000000E+00  0.00000000000E+00 -0.19404110355E+04  0.19404110355E+04  0.50400001928E-02 0.  1.
    10030    2    1    2    0    0  0.00000000000E+00  0.00000000000E+00 -0.48416699881E+03  0.33966550722E+04  0.33619708501E+04 0.  0.
        4    1    3    3  502    0 -0.53036607097E+03 -0.13693699313E+04 -0.10685992076E+04  0.18161409794E+04  0.12699999809E+01 0.  1.
       -4    1    3    3    0  502  0.53036607097E+03  0.13693699313E+04  0.58443220875E+03  0.15805140928E+04  0.12699999809E+01 0. -1.
</event>
<event>
 5   0  0.1986613E-07  0.3406021E+04  0.7818609E-02  0.8136430E-01
        2   -1    0    0  501    0  0.00000000000E+00  0.00000000000E+00  0.15200515722E+04  0.15200515723E+04  0.25500000920E-02 0. -1.
       -2   -1    0    0    0  501  0.00000000000E+00  0.00000000000E+00 -0.19079905477E+04  0.19079905477E+04  0.25500000920E-02 0.  1.
    10030    2    1    2    0    0  0.00000000000E+00  0.00000000000E+00 -0.38793897546E+03  0.34280421200E+04  0.34060205706E+04 0.  0.
        5    1    3    3  502    0 -0.14430088113E+04 -0.68994720045E+03  0.39455070984E+03  0.16474203840E+04  0.46999998093E+01 0.  1.
       -5    1    3    3    0  502  0.14430088113E+04  0.68994720045E+03 -0.78248968530E+03  0.17806217360E+04  0.46999998093E+01 0. -1.
</event>
<event>
 5   0  0.6788600E-08  0.3358628E+04  0.7818609E-02  0.8148136E-01
       -1   -1    0    0    0  501  0.00000000000E+00  0.00000000000E+00  0.21433930533E+04  0.21433930533E+04  0.50400001928E-02 0.  1.
        1   -1    0    0  501    0  0.00000000000E+00  0.00000000000E+00 -0.13157158417E+04  0.13157158417E+04  0.50400001928E-02 0. -1.
    10030    2    1    2    0    0  0.00000000000E+00  0.00000000000E+00  0.82767721158E+03  0.34591088950E+04  0.33586284077E+04 0.  0.
        2    1    3    3  502    0  0.15065269271E+04  0.62883102197E+03  0.81937539840E+03  0.18265891382E+04  0.25500000920E-02 0.  1.
       -2    1    3    3    0  502 -0.15065269271E+04 -0.62883102197E+03  0.83018131794E+01  0.16325197568E+04  0.25500000920E-02 0. -1.
</event>
<event>
 5   0  0.6341535E-08  0.3400630E+04  0.7818609E-02  0.8137752E-01
        1   -1    0    0  501    0  0.00000000000E+00  0.00000000000E+00  0.27507146602E+04  0.27507146602E+04  0.50400001928E-02 0.  1.
       -1   -1    0    0    0  501  0.00000000000E+00  0.00000000000E+00 -0.10510255425E+04  0.10510255425E+04  0.50400001928E-02 0. -1.
    10030    2    1    2    0    0  0.00000000000E+00  0.00000000000E+00  0.16996891177E+04  0.38017402027E+04  0.34006301580E+04 0.  0.
        5    1    3    3  502    0 -0.15695206675E+04 -0.63517142180E+03  0.67589107238E+03  0.18230986514E+04  0.46999998093E+01 0.  1.
       -5    1    3    3    0  502  0.15695206675E+04  0.63517142180E+03  0.10237980453E+04  0.19786415513E+04  0.46999998093E+01 0. -1.
</event>
<event>
 5   0  0.6584420E-08  0.3401257E+04  0.7818609E-02  0.8137598E-01
        1   -1    0    0  501    0  0.00000000000E+00  0.00000000000E+00  0.19739480517E+04  0.19739480517E+04  0.50400001928E-02 0. -1.
       -1   -1    0    0    0  501  0.00000000000E+00  0.00000000000E+00 -0.14651535502E+04  0.14651535502E+04  0.50400001928E-02 0.  1.
    10030    2    1    2    0    0  0.00000000000E+00  0.00000000000E+00  0.50879450152E+03  0.34391016019E+04  0.34012568241E+04 0.  0.
        1    1    3    3  502    0 -0.79099681237E+03 -0.10908736804E+04 -0.79467077744E+03  0.15643474641E+04  0.50400001928E-02 0.  1.
       -1    1    3    3    0  502  0.79099681237E+03  0.10908736804E+04  0.13034652790E+04  0.18747541378E+04  0.50400001928E-02 0. -1.
</event>
<event>
 5   0  0.1986613E-07  0.3398539E+04  0.7818609E-02  0.8138265E-01
        2   -1    0    0  501    0  0.00000000000E+00  0.00000000000E+00  0.20595820968E+04  0.20595820968E+04  0.25500000920E-02 0.  1.
       -2   -1    0    0    0  501  0.00000000000E+00  0.00000000000E+00 -0.14019912456E+04  0.14019912456E+04  0.25500000920E-02 0. -1.
    10030    2    1    2    0    0  0.00000000000E+00  0.00000000000E+00  0.65759085112E+03  0.34615733424E+04  0.33985385502E+04 0.  0.
        5    1    3    3  502    0  0.20645116448E+03  0.15703339084E+03 -0.13817012987E+04  0.14058457020E+04  0.46999998093E+01 0. -1.
       -5    1    3    3    0  502 -0.20645116448E+03 -0.15703339084E+03  0.20392921498E+04  0.20557276404E+04  0.46999998093E+01 0.  1.
</event>
<event>
 5   0  0.6788600E-08  0.3397328E+04  0.7818609E-02  0.8138562E-01
        1   -1    0    0  501    0  0.00000000000E+00  0.00000000000E+00  0.25217143793E+04  0.25217143793E+04  0.50400001928E-02 0. -1.
       -1   -1    0    0    0  501  0.00000000000E+00  0.00000000000E+00 -0.11442450949E+04  0.11442450949E+04  0.50400001928E-02 0.  1.
    10030    2    1    2    0    0  0.00000000000E+00  0.00000000000E+00  0.13774692844E+04  0.36659594742E+04  0.33973279555E+04 0.  0.
        2    1    3    3  502    0  0.10121485812E+04 -0.13573716000E+04  0.54173953470E+03  0.17777469264E+04  0.25500000920E-02 0. -1.
       -2    1    3    3    0  502 -0.10121485812E+04  0.13573716000E+04  0.83572974971E+03  0.18882125478E+04  0.25500000920E-02 0.  1.
</event>
<event>
 5   0  0.6367111E-08  0.3390968E+04  0.7818609E-02  0.8140127E-01
        1   -1    0    0  501    0  0.00000000000E+00  0.00000000000E+00  0.19232620690E+04  0.19232620690E+04  0.50400001928E-02 0.  1.
       -1   -1    0    0    0  501  0.00000000000E+00  0.00000000000E+00 -0.14946820184E+04  0.14946820184E+04  0.50400001928E-02 0. -1.
    10030    2    1    2    0    0  0.00000000000E+00  0.00000000000E+00  0.42858005064E+03  0.34179440875E+04  0.33909675500E+04 0.  0.
        3    1    3    3  502    0  0.12266637080E+04 -0.19169632458E+03 -0.94954449528E+03  0.15630374570E+04  0.10100000352E+00 0. -1.
       -3    1    3    3    0  502 -0.12266637080E+04  0.19169632458E+03  0.13781245459E+04  0.18549066304E+04  0.10100000352E+00 0.  1.
</event>
<event>
 5   0  0.1897313E-07  0.3407262E+04  0.7818609E-02  0.8136126E-01
       -2   -1    0    0    0  501  0.00000000000E+00  0.00000000000E+00  0.15155344755E+04  0.15155344755E+04  0.25500000920E-02 0.  1.
        2   -1    0    0  501    0  0.00000000000E+00  0.00000000000E+00 -0.19150724680E+04  0.19150724680E+04  0.25500000920E-02 0. -1.
    10030    2    1    2    0    0  0.00000000000E+00  0.00000000000E+00 -0.39953799245E+03  0.34306069435E+04  0.34072618615E+04 0.  0.
        3    1    3    3  502    0 -0.13838821155E+04 -0.99077409431E+03 -0.27508339475E+03  0.17240747953E+04  0.10100000352E+00 0. -1.
       -3    1    3    3    0  502  0.13838821155E+04  0.99077409431E+03 -0.12445459770E+03  0.17065321481E+04  0.10100000352E+00 0.  1.
</event>
<event>
 5   0  0.1986613E-07  0.3392514E+04  0.7818609E-02  0.8139746E-01
       -2   -1    0    0    0  501  0.00000000000E+00  0.00000000000E+00  0.15883096326E+04  0.15883096326E+04  0.25500000920E-02 0.  1.
        2   -1    0    0  501    0  0.00000000000E+00  0.00000000000E+00 -0.18115404240E+04  0.18115404240E+04  0.25500000920E-02 0. -1.
    10030    2    1    2    0    0  0.00000000000E+00  0.00000000000E+00 -0.22323079135E+03  0.33998500566E+04  0.33925135845E+04 0.  0.
        5    1    3    3  502    0  0.12934736036E+04  0.68665101128E+03  0.74621551466E+03  0.16436006993E+04  0.46999998093E+01 0.  1.
       -5    1    3    3    0  502 -0.12934736036E+04 -0.68665101128E+03 -0.96944630601E+03  0.17562493572E+04  0.46999998093E+01 0. -1.
</event>
<event>
 5   0  0.1970449E-07  0.3394529E+04  0.7818609E-02  0.8139250E-01
        2   -1    0    0  501    0  0.00000000000E+00  0.00000000000E+00  0.30979741536E+04  0.30979741536E+04  0.25500000920E-02 0. -1.
       -2   -1    0    0    0  501  0.00000000000E+00  0.00000000000E+00 -0.92986766241E+03  0.92986766242E+03  0.25500000920E-02 0.  1.
    10030    2    1    2    0    0  0.00000000000E+00  0.00000000000E+00  0.21681064912E+04  0.40278418161E+04  0.33945285295E+04 0.  0.
        1    1    3    3  502    0 -0.16442473834E+04 -0.41757722097E+03  0.10214254352E+04  0.19802096134E+04  0.50400001928E-02 0.  1.
       -1    1    3    3    0  502  0.16442473834E+04  0.41757722097E+03  0.11466810560E+04  0.20476322027E+04  0.50400001928E-02 0. -1.
</event>
<event>
 5   0  0.6311750E-08  0.3403354E+04  0.7818609E-02  0.8137084E-01
       -1   -1    0    0    0  501  0.00000000000E+00  0.00000000000E+00  0.34042977464E+04  0.34042977464E+04  0.50400001928E-02 0.  1.
        1   -1    0    0  501    0  0.00000000000E+00  0.00000000000E+00 -0.85060239522E+03  0.85060239524E+03  0.50400001928E-02 0. -1.
    10030    2    1    2    0    0  0.00000000000E+00  0.00000000000E+00  0.25536953512E+04  0.42549001417E+04  0.34033535327E+04 0.  0.
        4    1    3    3  502    0 -0.15239346058E+04  0.58032537748E+03  0.18849013636E+04  0.24923902162E+04  0.12699999809E+01 0.  1.
       -4    1    3    3    0  502  0.15239346058E+04 -0.58032537748E+03  0.66879398758E+03  0.17625099254E+04  0.12699999809E+01 0. -1.
</event>
<event>
 5   0  0.6341535E-08  0.3402386E+04  0.7818609E-02  0.8137321E-01
        1   -1    0    0  501    0  0.00000000000E+00  0.00000000000E+00  0.23484925594E+04  0.23484925594E+04  0.50400001928E-02 0. -1.
       -1   -1    0    0    0  501  0.00000000000E+00  0.00000000000E+00 -0.12323042147E+04  0.12323042147E+04  0.50400001928E-02 0.  1.
    10030    2    1    2    0    0  0.00000000000E+00  0.00000000000E+00  0.11161883447E+04  0.35807967742E+04  0.34023857978E+04 0.  0.
        5    1    3    3  502    0 -0.15452820711E+04  0.66907600107E+03  0.81259210468E+03  0.18697292298E+04  0.46999998093E+01 0. -1.
       -5    1    3    3    0  502  0.15452820711E+04 -0.66907600107E+03  0.30359624003E+03  0.17110675443E+04  0.46999998093E+01 0.  1.
</event>
<event>
 5   0  0.6584420E-08  0.3398401E+04  0.7818609E-02  0.8138299E-01
       -1   -1    0    0    0  501  0.00000000000E+00  0.00000000000E+00  0.11988620427E+04  0.11988620427E+04  0.50400001928E-02 0.  1.
        1   -1    0    0  501    0  0.00000000000E+00  0.00000000000E+00 -0.24083521151E+04  0.24083521151E+04  0.50400001928E-02 0. -1.
    10030    2    1    2    0    0  0.00000000000E+00  0.00000000000E+00 -0.12094900724E+04  0.36072141579E+04  0.33984007630E+04 0.  0.
        1    1    3    3  502    0 -0.47919983573E+02 -0.18399495217E+03  0.11875353664E+04  0.12026598496E+04  0.50400001928E-02 0.  1.
       -1    1    3    3    0  502  0.47919983573E+02  0.18399495217E+03 -0.23970254388E+04  0.24045543083E+04  0.50400001928E-02 0. -1.
</event>
<event>
 5   0  0.1928004E-07  0.3406206E+04  0.7818609E-02  0.8136385E-01
       -2   -1    0    0    0  501  0.00000000000E+00  0.00000000000E+00  0.10671460063E+04  0.10671460063E+04  0.25500000920E-02 0. -1.
        2   -1    0    0  501    0  0.00000000000E+00  0.00000000000E+00 -0.27180533350E+04  0.27180533350E+04  0.25500000920E-02 0.  1.
    10030    2    1    2    0    0  0.00000000000E+00  0.00000000000E+00 -0.16509073287E+04  0.37851993413E+04  0.34062059605E+04 0.  0.
        2    1    3    3  502    0  0.10481050569E+04  0.12910257870E+04 -0.12341939449E+04  0.20708709488E+04  0.25500000920E-02 0. -1.
       -2    1    3    3    0  502 -0.10481050569E+04 -0.12910257870E+04 -0.41671338385E+03  0.17143283925E+04  0.25500000920E-02 0.  1.
</event>
<event>
 5   0  0.6367111E-08  0.3394712E+04  0.7818609E-02  0.8139205E-01
        1   -1    0    0  501    0  0.00000000000E+00  0.00000000000E+00  0.20944989607E+04  0.20944989607E+04  0.50400001928E-02 0.  1.
       -1   -1    0    0    0  501  0.00000000000E+00  0.00000000000E+00 -0.13755163018E+04  0.13755163018E+04  0.50400001928E-02 0. -1.
    10030    2    1    2    0    0  0.00000000000E+00  0.00000000000E+00  0.71898265883E+03  0.34700152625E+04  0.33947120435E+04 0.  0.
        3    1    3    3  502    0  0.70914218396E+03 -0.48035176462E+03 -0.11384148584E+04  0.14246434132E+04  0.10100000352E+00 0. -1.
       -3    1    3    3    0  502 -0.70914218396E+03  0.48035176462E+03  0.18573975172E+04  0.20453718493E+04  0.10100000352E+00 0.  1.
</event>
<event>
 5   0  0.6788600E-08  0.3392923E+04  0.7818609E-02  0.8139645E-01
       -1   -1    0    0    0  501  0.00000000000E+00  0.00000000000E+00  0.12262995229E+04  0.12262995229E+04  0.50400001928E-02 0.  1.
        1   -1    0    0  501    0  0.00000000000E+00  0.00000000000E+00 -0.23468826945E+04  0.23468826945E+04  0.50400001928E-02 0. -1.
    10030    2    1    2    0    0  0.00000000000E+00  0.00000000000E+00 -0.11205831716E+04  0.35731822174E+04  0.33929227098E+04 0.  0.
        2    1    3    3  502    0 -0.49750873676E+03  0.15898808780E+04 -0.22272340641E+03  0.16807265885E+04  0.25500000920E-02 0. -1.
       -2    1    3    3    0  502  0.49750873676E+03 -0.15898808780E+04 -0.89785976521E+03  0.18924556289E+04  0.25500000920E-02 0.  1.
</event>
<event>
 5   0  0.6311750E-08  0.3384696E+04  0.7818609E-02  0.8141673E-01
        1   -1    0    0  501    0  0.00000000000E+00  0.00000000000E+00  0.28423619099E+04  0.28423619100E+04  0.50400001928E-02 0.  1.
       -1   -1    0    0    0  501  0.00000000000E+00  0.00000000000E+00 -0.10076276462E+04  0.10076276463E+04  0.50400001928E-02 0. -1.
    10030    2    1    2    0    0  0.00000000000E+00  0.00000000000E+00  0.18347342637E+04  0.38499895562E+04  0.33846964066E+04 0.  0.
        4    1    3    3  502    0  0.90484160227E+03  0.99520387480E+03  0.20856275487E+04  0.24817358769E+04  0.12699999809E+01 0.  1.
       -4    1    3    3    0  502 -0.90484160227E+03 -0.99520387480E+03 -0.25089328504E+03  0.13682536793E+04  0.12699999809E+01 0. -1.
</event>
<event>
 5   0  0.1970449E-07  0.3391757E+04  0.7818609E-02  0.8139932E-01
       -2   -1    0    0    0  501  0.00000000000E+00  0.00000000000E+00  0.17835561260E+04  0.17835561260E+04  0.25500000920E-02 0. -1.
        2   -1    0    0  501    0  0.00000000000E+00  0.00000000000E+00 -0.16125106777E+04  0.16125106777E+04  0.25500000920E-02 0.  1.
    10030    2    1    2    0    0  0.00000000000E+00  0.00000000000E+00  0.17104544826E+03  0.33960668037E+04  0.33917566525E+04 0.  0.
        1    1    3    3  502    0 -0.59579223232E+01  0.16519927423E+04  0.46926917588E+03  0.17173610793E+04  0.50400001928E-02 0. -1.
       -1    1    3    3    0  502  0.59579223232E+01 -0.16519927423E+04 -0.29822372761E+03  0.16787057244E+04  0.50400001928E-02 0.  1.
</event>
<event>
 5   0  0.1897313E-07  0.3409619E+04  0.7818609E-02  0.8135550E-01
        2   -1    0    0  501    0  0.00000000000E+00  0.00000000000E+00  0.17572929645E+04  0.17572929645E+04  0.25500000920E-02 0. -1.
       -2   -1    0    0    0  501  0.00000000000E+00  0.00000000000E+00 -0.16538932603E+04  0.16538932603E+04  0.25500000920E-02 0.  1.
    10030    2    1    2    0    0  0.00000000000E+00  0.00000000000E+00  0.10339970418E+03  0.34111862247E+04  0.34096187413E+04 0.  0.
        3    1    3    3  502    0 -0.11210466012E+04 -0.11905429352E+04 -0.43043145394E+03  0.16909787726E+04  0.10100000352E+00 0.  1.
       -3    1    3    3    0  502  0.11210466012E+04  0.11905429352E+04  0.53383115812E+03  0.17202074521E+04  0.10100000352E+00 0. -1.
</event>
<event>
 5   0  0.6788600E-08  0.3405157E+04  0.7818609E-02  0.8136642E-01
       -1   -1    0    0    0  501  0.00000000000E+00  0.00000000000E+00  0.97668696713E+03  0.97668696714E+03  0.50400001928E-02 0. -1.
        1   -1    0    0  501    0  0.00000000000E+00  0.00000000000E+00 -0.29679656244E+04  0.29679656244E+04  0.50400001928E-02 0.  1.
    10030    2    1    2    0    0  0.00000000000E+00  0.00000000000E+00 -0.19912786573E+04  0.39446525915E+04  0.34051568799E+04 0.  0.
        2    1    3    3  502    0 -0.27120585379E+02  0.16262714519E+04 -0.41263576135E+03  0.16780234304E+04  0.25500000920E-02 0. -1.
       -2    1    3    3    0  502  0.27120585379E+02 -0.16262714519E+04 -0.15786428959E+04  0.22666291612E+04  0.25500000920E-02 0.  1.
</event>
<event>
 5   0  0.6341535E-08  0.3398731E+04  0.7818609E-02  0.8138218E-01
       -1   -1    0    0    0  501  0.00000000000E+00  0.00000000000E+00  0.15024921643E+04  0.15024921643E+04  0.50400001928E-02 0.  1.
        1   -1    0    0  501    0  0.00000000000E+00  0.00000000000E+00 -0.19220355895E+04  0.19220355895E+04  0.50400001928E-02 0. -1.
    10030    2    1    2    0    0  0.00000000000E+00  0.00000000000E+00 -0.41954342524E+03  0.34245277538E+04  0.33987311825E+04 0.  0.
        5    1    3    3  502    0 -0.37658070523E+03 -0.15518365220E+04 -0.79539888668E+03  0.17840098367E+04  0.46999998093E+01 0. -1.
       -5    1    3    3    0  502  0.37658070523E+03  0.15518365220E+04  0.37585546144E+03  0.16405179171E+04  0.46999998093E+01 0.  1.
</event>
<event>
 5   0  0.1986613E-07  0.3371907E+04  0.7818609E-02  0.8144836E-01
        2   -1    0    0  501    0  0.00000000000E+00  0.00000000000E+00  0.16645476595E+04  0.16645476595E+04  0.25500000920E-02 0. -1.
       -2   -1    0    0    0  501  0.00000000000E+00  0.00000000000E+00 -0.17076348510E+04  0.17076348510E+04  0.25500000920E-02 0.  1.
    10030    2    1    2    0    0  0.00000000000E+00  0.00000000000E+00 -0.43087191482E+02  0.33721825104E+04  0.33719072315E+04 0.  0.
        5    1    3    3  502    0  0.81254974947E+03  0.53481619111E+03 -0.13986643832E+04  0.17036870606E+04  0.46999998093E+01 0.  1.
       -5    1    3    3    0  502 -0.81254974947E+03 -0.53481619111E+03  0.13555771917E+04  0.16684954499E+04  0.46999998093E+01 0. -1.
</event>
<event>
 5   0  0.1970449E-07  0.3403558E+04  0.7818609E-02  0.8137034E-01
        2   -1    0    0  501    0  0.00000000000E+00  0.00000000000E+00  0.21947255458E+04  0.21947255458E+04  0.25500000920E-02 0. -1.
       -2   -1    0    0    0  501  0.00000000000E+00  0.00000000000E+00 -0.13195510108E+04  0.13195510108E+04  0.25500000920E-02 0.  1.
    10030    2    1    2    0    0  0.00000000000E+00  0.00000000000E+00  0.87517453506E+03  0.35142765566E+04  0.34035583217E+04 0.  0.
        1    1    3    3  502    0 -0.76312752137E+03  0.14444538236E+04  0.92979325975E+03  0.18797143316E+04  0.50400001928E-02 0. -1.
       -1    1    3    3    0  502  0.76312752137E+03 -0.14444538236E+04 -0.54618724690E+02  0.16345622250E+04  0.50400001928E-02 0.  1.
</event>
<event>
 5   0  0.6311750E-08  0.3403139E+04  0.7818609E-02  0.8137136E-01
       -3   -1    0    0    0  501  0.00000000000E+00  0.00000000000E+00  0.10937276964E+04  0.10937277010E+04  0.10100000352E+00 0.  1.
        3   -1    0    0  501    0  0.00000000000E+00  0.00000000000E+00 -0.26472200717E+04  0.26472200736E+04  0.10100000352E+00 0. -1.
    10030    2    1    2    0    0  0.00000000000E+00  0.00000000000E+00 -0.15534923753E+04  0.37409477746E+04  0.34031385062E+04 0.  0.
        2    1    3    3  502    0  0.10917279199E+04  0.74336479816E+03 -0.19560248680E+04  0.23601894751E+04  0.25500000920E-02 0. -1.
       -2    1    3    3    0  502 -0.10917279199E+04 -0.74336479816E+03  0.40253249267E+03  0.13807582996E+04  0.25500000920E-02 0.  1.
</event>
<event>
 5   0  0.6311750E-08  0.3407542E+04  0.7818609E-02  0.8136058E-01
        1   -1    0    0  501    0  0.00000000000E+00  0.00000000000E+00  0.16258323349E+04  0.16258323349E+04  0.50400001928E-02 0.  1.
       -1   -1    0    0    0  501  0.00000000000E+00  0.00000000000E+00 -0.17854456441E+04  0.17854456441E+04  0.50400001928E-02 0. -1.
    10030    2    1    2    0    0  0.00000000000E+00  0.00000000000E+00 -0.15961330918E+03  0.34112779789E+04  0.34075417886E+04 0.  0.
        4    1    3    3  502    0  0.45872208188E+02 -0.11167739954E+04  0.12075057666E+04  0.16454057875E+04  0.12699999809E+01 0.  1.
       -4    1    3    3    0  502 -0.45872208188E+02  0.11167739954E+04 -0.13671190758E+04  0.17658721914E+04  0.12699999809E+01 0. -1.
</event>
<event>
 5   0  0.1963852E-07  0.3380988E+04  0.7818609E-02  0.8142588E-01
        2   -1    0    0  501    0  0.00000000000E+00  0.00000000000E+00  0.27924267051E+04  0.27924267051E+04  0.25500000920E-02 0.  1.
       -2   -1    0    0    0  501  0.00000000000E+00  0.00000000000E+00 -0.10234004176E+04  0.10234004176E+04  0.25500000920E-02 0. -1.
    10030    2    1    2    0    0  0.00000000000E+00  0.00000000000E+00  0.17690262875E+04  0.38158271227E+04  0.33809884094E+04 0.  0.
        4    1    3    3  502    0 -0.68921230737E+03  0.79170533964E+02  0.26243670104E+04  0.27145138416E+04  0.12699999809E+01 0.  1.
       -4    1    3    3    0  502  0.68921230737E+03 -0.79170533964E+02 -0.85534072289E+03  0.11013132811E+04  0.12699999809E+01 0. -1.
</event>
<event>
 5   0  0.1970449E-07  0.3402282E+04  0.7818609E-02  0.8137347E-01
       -2   -1    0    0    0  501  0.00000000000E+00  0.00000000000E+00  0.11709699902E+04  0.11709699902E+04  0.25500000920E-02 0.  1.
        2   -1    0    0  501    0  0.00000000000E+00  0.00000000000E+00 -0.24713531736E+04  0.24713531736E+04  0.25500000920E-02 0. -1.
    10030    2    1    2    0    0  0.00000000000E+00  0.00000000000E+00 -0.13003831834E+04  0.36423231639E+04  0.34022818235E+04 0.  0.
        1    1    3    3  502    0  0.65519532588E+01 -0.14177711022E+04 -0.16566040265E+04  0.21804712167E+04  0.50400001928E-02 0. -1.
       -1    1    3    3    0  502 -0.65519532588E+01  0.14177711022E+04  0.35622084311E+03  0.14618519471E+04  0.50400001928E-02 0.  1.
</event>
<event>
 5   0  0.1986613E-07  0.3377898E+04  0.7818609E-02  0.8143352E-01
        2   -1    0    0  501    0  0.00000000000E+00  0.00000000000E+00  0.17881644084E+04  0.17881644084E+04  0.25500000920E-02 0.  1.
       -2   -1    0    0    0  501  0.00000000000E+00  0.00000000000E+00 -0.15952383917E+04  0.15952383917E+04  0.25500000920E-02 0. -1.
    10030    2    1    2    0    0  0.00000000000E+00  0.00000000000E+00  0.19292601666E+03  0.33834028001E+04  0.33778978759E+04 0.  0.
        5    1    3    3  502    0  0.41095605050E+03 -0.15198921680E+04  0.70866227610E+03  0.17266097965E+04  0.46999998093E+01 0.  1.
       -5    1    3    3    0  502 -0.41095605050E+03  0.15198921680E+04 -0.51573625944E+03  0.16567930037E+04  0.46999998093E+01 0. -1.
</event>
<event>
 5   0  0.1986613E-07  0.3402343E+04  0.7818609E-02  0.8137332E-01
        2   -1    0    0  501    0  0.00000000000E+00  0.00000000000E+00  0.19325988726E+04  0.19325988726E+04  0.25500000920E-02 0. -1.
       -2   -1    0    0    0  501  0.00000000000E+00  0.00000000000E+00 -0.14974570125E+04  0.14974570125E+04  0.25500000920E-02 0.  1.
    10030    2    1    2    0    0  0.00000000000E+00  0.00000000000E+00  0.43514186011E+03  0.34300558852E+04  0.34023425661E+04 0.  0.
        5    1    3    3  502    0  0.29686321061E+03  0.15964547264E+04  0.72881712491E+03  0.17798853757E+04  0.46999998093E+01 0. -1.
       -5    1    3    3    0  502 -0.29686321061E+03 -0.15964547264E+04 -0.29367526480E+03  0.16501705095E+04  0.46999998093E+01 0.  1.
</event>
<event>
 5   0  0.1986613E-07  0.3395404E+04  0.7818609E-02  0.8139035E-01
       -2   -1    0    0    0  501  0.00000000000E+00  0.00000000000E+00  0.19941821013E+04  0.19941821013E+04  0.25500000920E-02 0. -1.
        2   -1    0    0  501    0  0.00000000000E+00  0.00000000000E+00 -0.14453002493E+04  0.14453002493E+04  0.25500000920E-02 0.  1.
    10030    2    1    2    0    0  0.00000000000E+00  0.00000000000E+00  0.54888185206E+03  0.34394823506E+04  0.33954038865E+04 0.  0.
        5    1    3    3  502    0 -0.13860394082E+04 -0.89118115756E+03  0.68822967362E+03  0.17857746975E+04  0.46999998093E+01 0.  1.
       -5    1    3    3    0  502  0.13860394082E+04  0.89118115756E+03 -0.13934782156E+03  0.16537076531E+04  0.46999998093E+01 0. -1.
</event>
<event>
 5   0  0.6341535E-08  0.3413765E+04  0.7818609E-02  0.8134536E-01
       -1   -1    0    0    0  501  0.00000000000E+00  0.00000000000E+00  0.13022129040E+04  0.13022129040E+04  0.50400001928E-02 0. -1.
        1   -1    0    0  501    0  0.00000000000E+00  0.00000000000E+00 -0.22373047107E+04  0.22373047107E+04  0.50400001928E-02 0.  1.
    10030    2    1    2    0    0  0.00000000000E+00  0.00000000000E+00 -0.93509180672E+03  0.35395176147E+04  0.34137645288E+04 0.  0.
        5    1    3    3  502    0  0.16389140072E+04 -0.47656474832E+03 -0.45044933901E+03  0.17652421305E+04  0.46999998093E+01 0.  1.
       -5    1    3    3    0  502 -0.16389140072E+04  0.47656474832E+03 -0.48464246771E+03  0.17742754842E+04  0.46999998093E+01 0. -1.
</event>
<event>
 5   0  0.1970449E-07  0.3412149E+04  0.7818609E-02  0.8134931E-01
       -2   -1    0    0    0  501  0.00000000000E+00  0.00000000000E+00  0.20116612635E+04  0.20116612635E+04  0.25500000920E-02 0. -1.
        2   -1    0    0  501    0  0.00000000000E+00  0.00000000000E+00 -0.14469090303E+04  0.14469090303E+04  0.25500000920E-02 0.  1.
    10030    2    1    2    0    0  0.00000000000E+00  0.00000000000E+00  0.56475223327E+03  0.34585702938E+04  0.34121493801E+04 0.  0.
        1    1    3    3  502    0 -0.70529750250E+03 -0.77460957700E+03  0.16472564437E+04  0.19521573592E+04  0.50400001928E-02 0. -1.
       -1    1    3    3    0  502  0.70529750250E+03  0.77460957700E+03 -0.10825042104E+04  0.15064129346E+04  0.50400001928E-02 0.  1.
</event>
<event>
 5   0  0.6788600E-08  0.3401484E+04  0.7818609E-02  0.8137542E-01
        1   -1    0    0  501    0  0.00000000000E+00  0.00000000000E+00  0.25501603213E+04  0.25501603213E+04  0.50400001928E-02 0.  1.
       -1   -1    0    0    0  501  0.00000000000E+00  0.00000000000E+00 -0.11342513572E+04  0.11342513572E+04  0.50400001928E-02 0. -1.
    10030    2    1    2    0    0  0.00000000000E+00  0.00000000000E+00  0.14159089642E+04  0.36844116785E+04  0.34014836795E+04 0.  0.
        2    1    3    3  502    0 -0.16341653394E+04 -0.47081125664E+03  0.72859775268E+03  0.18501389896E+04  0.25500000920E-02 0. -1.
       -2    1    3    3    0  502  0.16341653394E+04  0.47081125664E+03  0.68731121148E+03  0.18342726889E+04  0.25500000920E-02 0.  1.
</event>
<event>
 5   0  0.6311750E-08  0.3393746E+04  0.7818609E-02  0.8139443E-01
        1   -1    0    0  501    0  0.00000000000E+00  0.00000000000E+00  0.18460694077E+04  0.18460694077E+04  0.50400001928E-02 0.  1.
       -1   -1    0    0    0  501  0.00000000000E+00  0.00000000000E+00 -0.15597345199E+04  0.15597345200E+04  0.50400001928E-02 0. -1.
    10030    2    1    2    0    0  0.00000000000E+00  0.00000000000E+00  0.28633488779E+03  0.34058039277E+04  0.33937461198E+04 0.  0.
        4    1    3    3  502    0  0.16085535283E+04  0.75162983564E+02 -0.39378744278E+03  0.16577587552E+04  0.12699999809E+01 0.  1.
       -4    1    3    3    0  502 -0.16085535283E+04 -0.75162983564E+02  0.68012233057E+03  0.17480451725E+04  0.12699999809E+01 0. -1.
</event>
<event>
 5   0  0.6367111E-08  0.3395799E+04  0.7818609E-02  0.8138938E-01
       -1   -1    0    0    0  501  0.00000000000E+00  0.00000000000E+00  0.27789943840E+04  0.27789943840E+04  0.50400001928E-02 0. -1.
        1   -1    0    0  501    0  0.00000000000E+00  0.00000000000E+00 -0.10373765325E+04  0.10373765325E+04  0.50400001928E-02 0.  1.
    10030    2    1    2    0    0  0.00000000000E+00  0.00000000000E+00  0.17416178515E+04  0.38163709165E+04  0.33957994982E+04 0.  0.
        3    1    3    3  502    0  0.52617584533E+01 -0.77240433180E+03 -0.82848400760E+03  0.11327055659E+04  0.10100000352E+00 0.  1.
       -3    1    3    3    0  502 -0.52617584533E+01  0.77240433180E+03  0.25701018591E+04  0.26836653506E+04  0.10100000352E+00 0. -1.
</event>
<event>
 5   0  0.1970449E-07  0.3397984E+04  0.7818609E-02  0.8138401E-01
       -2   -1    0    0    0  501  0.00000000000E+00  0.00000000000E+00  0.93787554466E+03  0.93787554466E+03  0.25500000920E-02 0.  1.
        2   -1    0    0  501    0  0.00000000000E+00  0.00000000000E+00 -0.30777794166E+04  0.30777794166E+04  0.25500000920E-02 0. -1.
    10030    2    1    2    0    0  0.00000000000E+00  0.00000000000E+00 -0.21399038719E+04  0.40156549612E+04  0.33979841357E+04 0.  0.
        1    1    3    3  502    0  0.64310831051E+03  0.66275763797E+03  0.61536874814E+03  0.11097363119E+04  0.50400001928E-02 0.  1.
       -1    1    3    3    0  502 -0.64310831051E+03 -0.66275763797E+03 -0.27552726200E+04  0.29059186493E+04  0.50400001928E-02 0. -1.
</event>
<event>
 5   0  0.6311750E-08  0.3393343E+04  0.7818609E-02  0.8139542E-01
       -1   -1    0    0    0  501  0.00000000000E+00  0.00000000000E+00  0.20083185481E+04  0.20083185481E+04  0.50400001928E-02 0.  1.
        1   -1    0    0  501    0  0.00000000000E+00  0.00000000000E+00 -0.14333856009E+04  0.14333856009E+04  0.50400001928E-02 0. -1.
    10030    2    1    2    0    0  0.00000000000E+00  0.00000000000E+00  0.57493294717E+03  0.34417041490E+04  0.33933434184E+04 0.  0.
        4    1    3    3  502    0 -0.58394942785E+03  0.45550472256E+03  0.18357247810E+04  0.19794869464E+04  0.12699999809E+01 0.  1.
       -4    1    3    3    0  502  0.58394942785E+03 -0.45550472256E+03 -0.12607918338E+04  0.14622172026E+04  0.12699999809E+01 0. -1.
</event>
<event>
 5   0  0.6311750E-08  0.3394046E+04  0.7818609E-02  0.8139369E-01
       -1   -1    0    0    0  501  0.00000000000E+00  0.00000000000E+00  0.16116912998E+04  0.16116912998E+04  0.50400001928E-02 0.  1.
        1   -1    0    0  501    0  0.00000000000E+00  0.00000000000E+00 -0.17868726324E+04  0.17868726324E+04  0.50400001928E-02 0. -1.
    10030    2    1    2    0    0  0.00000000000E+00  0.00000000000E+00 -0.17518133266E+03  0.33985639322E+04  0.33940460076E+04 0.  0.
        4    1    3    3  502    0 -0.75172438730E+03  0.44952592927E+03 -0.15430461678E+04  0.17743044284E+04  0.12699999809E+01 0. -1.
       -4    1    3    3    0  502  0.75172438730E+03 -0.44952592927E+03  0.13678648352E+04  0.16242595038E+04  0.12699999809E+01 0.  1.
</event>
<event>
 5   0  0.6341535E-08  0.3423930E+04  0.7818609E-02  0.8132058E-01
        1   -1    0    0  501    0  0.00000000000E+00  0.00000000000E+00  0.31685343377E+04  0.31685343377E+04  0.50400001928E-02 0.  1.
       -1   -1    0    0    0  501  0.00000000000E+00  0.00000000000E+00 -0.92497783632E+03  0.92497783634E+03  0.50400001928E-02 0. -1.
    10030    2    1    2    0    0  0.00000000000E+00  0.00000000000E+00  0.22435565014E+04  0.40935121740E+04  0.34239299269E+04 0.  0.
        5    1    3    3  502    0  0.12660460505E+04  0.46405161539E+03  0.23828445068E+04  0.27379164592E+04  0.46999998093E+01 0.  1.
       -5    1    3    3    0  502 -0.12660460505E+04 -0.46405161539E+03 -0.13928800546E+03  0.13555957149E+04  0.46999998093E+01 0. -1.
</event>
<event>
 5   0  0.1928004E-07  0.3390881E+04  0.7818609E-02  0.8140148E-01
        2   -1    0    0  501    0  0.00000000000E+00  0.00000000000E+00  0.19322536508E+04  0.19322536508E+04  0.25500000920E-02 0.  1.
       -2   -1    0    0    0  501  0.00000000000E+00  0.00000000000E+00 -0.14876508228E+04  0.14876508228E+04  0.25500000920E-02 0. -1.
    10030    2    1    2    0    0  0.00000000000E+00  0.00000000000E+00  0.44460282802E+03  0.34199044736E+04  0.33908811442E+04 0.  0.
        2    1    3    3  502    0  0.10878682861E+04 -0.35977100311E+03  0.14826478700E+04  0.18738028949E+04  0.25500000920E-02 0.  1.
       -2    1    3    3    0  502 -0.10878682861E+04  0.35977100311E+03 -0.10380450419E+04  0.15461015787E+04  0.25500000920E-02 0. -1.
</event>
<event>
 5   0  0.1963852E-07  0.3405425E+04  0.7818609E-02  0.8136576E-01
       -2   -1    0    0    0  501  0.00000000000E+00  0.00000000000E+00  0.32204371399E+04  0.32204371399E+04  0.25500000920E-02 0. -1.
        2   -1    0    0  501    0  0.00000000000E+00  0.00000000000E+00 -0.90025971440E+03  0.90025971440E+03  0.25500000920E-02 0.  1.
    10030    2    1    2    0    0  0.00000000000E+00  0.00000000000E+00  0.23201774255E+04  0.41206968543E+04  0.34054249778E+04 0.  0.
        4    1    3    3  502    0 -0.52481822913E+03  0.10894737431E+04  0.26105418591E+04  0.28770327808E+04  0.12699999809E+01 0. -1.
       -4    1    3    3    0  502  0.52481822913E+03 -0.10894737431E+04 -0.29036443359E+03  0.12436640735E+04  0.12699999809E+01 0.  1.
</event>
<event>
 5   0  0.1986613E-07  0.3405357E+04  0.7818609E-02  0.8136593E-01
       -2   -1    0    0    0  501  0.00000000000E+00  0.00000000000E+00  0.15605668311E+04  0.15605668311E+04  0.25500000920E-02 0. -1.
        2   -1    0    0  501    0  0.00000000000E+00  0.00000000000E+00 -0.18577314394E+04  0.18577314394E+04  0.25500000920E-02 0.  1.
    10030    2    1    2    0    0  0.00000000000E+00  0.00000000000E+00 -0.29716460830E+03  0.34182982704E+04  0.34053569947E+04 0.  0.
        5    1    3    3  502    0 -0.17546626004E+03  0.12852647330E+04  0.95851343819E+03  0.16129054354E+04  0.46999998093E+01 0. -1.
       -5    1    3    3    0  502  0.17546626004E+03 -0.12852647330E+04 -0.12556780465E+04  0.18053928350E+04  0.46999998093E+01 0.  1.
</event>
<event>
 5   0  0.1897313E-07  0.3400984E+04  0.7818609E-02  0.8137665E-01
        2   -1    0    0  501    0  0.00000000000E+00  0.00000000000E+00  0.12238347291E+04  0.12238347291E+04  0.25500000920E-02 0. -1.
       -2   -1    0    0    0  501  0.00000000000E+00  0.00000000000E+00 -0.23627968725E+04  0.23627968725E+04  0.25500000920E-02 0.  1.
    10030    2    1    2    0    0  0.00000000000E+00  0.00000000000E+00 -0.11389621434E+04  0.35866316015E+04  0.34009838990E+04 0.  0.
        3    1    3    3  502    0  0.13570522288E+03 -0.16744791888E+04 -0.29170932419E+03  0.17051072697E+04  0.10100000352E+00 0. -1.
       -3    1    3    3    0  502 -0.13570522288E+03  0.16744791888E+04 -0.84725281922E+03  0.18815243318E+04  0.10100000352E+00 0.  1.
</event>
<event>
 5   0  0.1986613E-07  0.3401166E+04  0.7818609E-02  0.8137620E-01
       -2   -1    0    0    0  501  0.00000000000E+00  0.00000000000E+00  0.16261232611E+04  0.16261232611E+04  0.25500000920E-02 0. -1.
        2   -1    0    0  501    0  0.00000000000E+00  0.00000000000E+00 -0.17784527310E+04  0.17784527310E+04  0.25500000920E-02 0.  1.
    10030    2    1    2    0    0  0.00000000000E+00  0.00000000000E+00 -0.15232946995E+03  0.34045759922E+04  0.34011664792E+04 0.  0.
        5    1    3    3  502    0  0.11087834701E+04 -0.33316794064E+02 -0.13664295130E+04  0.17600177545E+04  0.46999998093E+01 0.  1.
       -5    1    3    3    0  502 -0.11087834701E+04  0.33316794064E+02  0.12141000431E+04  0.16445582376E+04  0.46999998093E+01 0. -1.
</event>
<event>
 5   0  0.1928004E-07  0.3406698E+04  0.7818609E-02  0.8136264E-01
       -2   -1    0    0    0  501  0.00000000000E+00  0.00000000000E+00  0.13316719797E+04  0.13316719797E+04  0.25500000920E-02 0. -1.
        2   -1    0    0  501    0  0.00000000000E+00  0.00000000000E+00 -0.21787635752E+04  0.21787635752E+04  0.25500000920E-02 0.  1.
    10030    2    1    2    0    0  0.00000000000E+00  0.00000000000E+00 -0.84709159557E+03  0.35104355549E+04  0.34066983450E+04 0.  0.
        2    1    3    3  502    0 -0.93340298709E+03 -0.52394893760E+03 -0.17888971121E+04  0.20846861882E+04  0.25500000920E-02 0.  1.
       -2    1    3    3    0  502  0.93340298709E+03  0.52394893760E+03  0.94180551658E+03  0.14257493667E+04  0.25500000920E-02 0. -1.
</event>
<event>
 5   0  0.6584420E-08  0.3393613E+04  0.7818609E-02  0.8139476E-01
        1   -1    0    0  501    0  0.00000000000E+00  0.00000000000E+00  0.14076410943E+04  0.14076410944E+04  0.50400001928E-02 0. -1.
       -1   -1    0    0    0  501  0.00000000000E+00  0.00000000000E+00 -0.20453739365E+04  0.20453739365E+04  0.50400001928E-02 0.  1.
    10030    2    1    2    0    0  0.00000000000E+00  0.00000000000E+00 -0.63773284219E+03  0.34530150309E+04  0.33936130636E+04 0.  0.
        1    1    3    3  502    0  0.65095813053E+03 -0.47425583168E+03 -0.18384900073E+04  0.20071648135E+04  0.50400001928E-02 0.  1.
       -1    1    3    3    0  502 -0.65095813053E+03  0.47425583168E+03  0.12007571651E+04  0.14458502174E+04  0.50400001928E-02 0. -1.
</event>
<event>
 5   0  0.6311750E-08  0.3399454E+04  0.7818609E-02  0.8138040E-01
        1   -1    0    0  501    0  0.00000000000E+00  0.00000000000E+00  0.22569079858E+04  0.22569079858E+04  0.50400001928E-02 0. -1.
       -1   -1    0    0    0  501  0.00000000000E+00  0.00000000000E+00 -0.12801020569E+04  0.12801020569E+04  0.50400001928E-02 0.  1.
    10030    2    1    2    0    0  0.00000000000E+00  0.00000000000E+00  0.97680592892E+03  0.35370100427E+04  0.33994544003E+04 0.  0.
        4    1    3    3  502    0  0.83990814683E+03  0.13937609633E+04 -0.22437989449E+02  0.16274275388E+04  0.12699999809E+01 0.  1.
       -4    1    3    3    0  502 -0.83990814683E+03 -0.13937609633E+04  0.99924391837E+03  0.19095825039E+04  0.12699999809E+01 0. -1.
</event>
<event>
 5   0  0.1963852E-07  0.3401198E+04  0.7818609E-02  0.8137612E-01
        2   -1    0    0  501    0  0.00000000000E+00  0.00000000000E+00  0.17731535777E+04  0.17731535777E+04  0.25500000920E-02 0.  1.
       -2   -1    0    0    0  501  0.00000000000E+00  0.00000000000E+00 -0.16310131716E+04  0.16310131716E+04  0.25500000920E-02 0. -1.
    10030    2    1    2    0    0  0.00000000000E+00  0.00000000000E+00  0.14214040616E+03  0.34041667493E+04  0.34011979304E+04 0.  0.
        4    1    3    3  502    0  0.48866102455E+03 -0.12312183976E+04 -0.99632535468E+03  0.16575144539E+04  0.12699999809E+01 0. -1.
       -4    1    3    3    0  502 -0.48866102455E+03  0.12312183976E+04  0.11384657608E+04  0.17466522954E+04  0.12699999809E+01 0.  1.
</event>
<event>
 5   0  0.1963852E-07  0.3398873E+04  0.7818609E-02  0.8138183E-01
       -2   -1    0    0    0  501  0.00000000000E+00  0.00000000000E+00  0.12090616483E+04  0.12090616483E+04  0.25500000920E-02 0.  1.
        2   -1    0    0  501    0  0.00000000000E+00  0.00000000000E+00 -0.23886996805E+04  0.23886996805E+04  0.25500000920E-02 0. -1.
    10030    2    1    2    0    0  0.00000000000E+00  0.00000000000E+00 -0.11796380323E+04  0.35977613288E+04  0.33988734445E+04 0.  0.
        4    1    3    3  502    0 -0.77548551549E+03  0.38979613606E+03 -0.21363989336E+04  0.23059750278E+04  0.12699999809E+01 0. -1.
       -4    1    3    3    0  502  0.77548551549E+03 -0.38979613606E+03  0.95676090131E+03  0.12917863011E+04  0.12699999809E+01 0.  1.
</event>
<event>
 5   0  0.6788600E-08  0.3397719E+04  0.7818609E-02  0.8138466E-01
        1   -1    0    0  501    0  0.00000000000E+00  0.00000000000E+00  0.21807694982E+04  0.21807694982E+04  0.50400001928E-02 0. -1.
       -1   -1    0    0    0  501  0.00000000000E+00  0.00000000000E+00 -0.13234425912E+04  0.13234425912E+04  0.50400001928E-02 0.  1.
    10030    2    1    2    0    0  0.00000000000E+00  0.00000000000E+00  0.85732690694E+03  0.35042120894E+04  0.33977187850E+04 0.  0.
        2    1    3    3  502    0  0.61978555746E+03 -0.13425416335E+04  0.12912821564E+04  0.19631509831E+04  0.25500000920E-02 0. -1.
       -2    1    3    3    0  502 -0.61978555746E+03  0.13425416335E+04 -0.43395524947E+03  0.15410611063E+04  0.25500000920E-02 0.  1.
</event>
<event>
 5   0  0.6788600E-08  0.3423030E+04  0.7818609E-02  0.8132277E-01
        1   -1    0    0  501    0  0.00000000000E+00  0.00000000000E+00  0.23158042645E+04  0.23158042645E+04  0.50400001928E-02 0. -1.
       -1   -1    0    0    0  501  0.00000000000E+00  0.00000000000E+00 -0.12649100820E+04  0.12649100820E+04  0.50400001928E-02 0.  1.
    10030    2    1    2    0    0  0.00000000000E+00  0.00000000000E+00  0.10508941825E+04  0.35807143465E+04  0.34230303312E+04 0.  0.
        2    1    3    3  502    0  0.11289244786E+04  0.90337770064E+03  0.14834527039E+04  0.20715196530E+04  0.25500000920E-02 0. -1.
       -2    1    3    3    0  502 -0.11289244786E+04 -0.90337770064E+03 -0.43255852134E+03  0.15091946935E+04  0.25500000920E-02 0.  1.
</event>
<event>
 5   0  0.1928004E-07  0.3399990E+04  0.7818609E-02  0.8137909E-01
       -2   -1    0    0    0  501  0.00000000000E+00  0.00000000000E+00  0.11497731435E+04  0.11497731435E+04  0.25500000920E-02 0. -1.
        2   -1    0    0  501    0  0.00000000000E+00  0.00000000000E+00 -0.25135250802E+04  0.25135250802E+04  0.25500000920E-02 0.  1.
    10030    2    1    2    0    0  0.00000000000E+00  0.00000000000E+00 -0.13637519367E+04  0.36632982238E+04  0.33999903722E+04 0.  0.
        2    1    3    3  502    0  0.69702011694E+02 -0.16391262647E+04 -0.11617805107E+04  0.20103052597E+04  0.25500000920E-02 0.  1.
       -2    1    3    3    0  502 -0.69702011694E+02  0.16391262647E+04 -0.20197142602E+03  0.16529929640E+04  0.25500000920E-02 0. -1.
</event>
<event>
 5   0  0.1897313E-07  0.3392910E+04  0.7818609E-02  0.8139649E-01
       -2   -1    0    0    0  501  0.00000000000E+00  0.00000000000E+00  0.12993154484E+04  0.12993154484E+04  0.25500000920E-02 0. -1.
        2   -1    0    0  501    0  0.00000000000E+00  0.00000000000E+00 -0.22149812071E+04  0.22149812071E+04  0.25500000920E-02 0.  1.
    10030    2    1    2    0    0  0.00000000000E+00  0.00000000000E+00 -0.91566575869E+03  0.35142966556E+04  0.33929098428E+04 0.  0.
        3    1    3    3  502    0 -0.13281081971E+02  0.16963865440E+04 -0.46555594733E+03  0.17591606078E+04  0.10100000352E+00 0.  1.
       -3    1    3    3    0  502  0.13281081971E+02 -0.16963865440E+04 -0.45010981135E+03  0.17551360478E+04  0.10100000352E+00 0. -1.
</event>
<event>
 5   0  0.1928004E-07  0.3399374E+04  0.7818609E-02  0.8138060E-01
        2   -1    0    0  501    0  0.00000000000E+00  0.00000000000E+00  0.12715939146E+04  0.12715939146E+04  0.25500000920E-02 0. -1.
       -2   -1    0    0    0  501  0.00000000000E+00  0.00000000000E+00 -0.22719016903E+04  0.22719016903E+04  0.25500000920E-02 0.  1.
    10030    2    1    2    0    0  0.00000000000E+00  0.00000000000E+00 -0.10003077756E+04  0.35434956049E+04  0.33993742741E+04 0.  0.
        2    1    3    3  502    0 -0.17148088501E+03  0.31847722152E+03 -0.22313176387E+04  0.22604450534E+04  0.25500000920E-02 0.  1.
       -2    1    3    3    0  502  0.17148088501E+03 -0.31847722152E+03  0.12310098631E+04  0.12830505514E+04  0.25500000920E-02 0. -1.
</event>
<event>
 5   0  0.1970449E-07  0.3399812E+04  0.7818609E-02  0.8137952E-01
        2   -1    0    0  501    0  0.00000000000E+00  0.00000000000E+00  0.22804037224E+04  0.22804037224E+04  0.25500000920E-02 0.  1.
       -2   -1    0    0    0  501  0.00000000000E+00  0.00000000000E+00 -0.12671794897E+04  0.12671794897E+04  0.25500000920E-02 0. -1.
    10030    2    1    2    0    0  0.00000000000E+00  0.00000000000E+00  0.10132242327E+04  0.35475832122E+04  0.33998122450E+04 0.  0.
        1    1    3    3  502    0 -0.14264991833E+03 -0.49342259581E+03  0.21974965836E+04  0.22567246381E+04  0.50400001928E-02 0.  1.
       -1    1    3    3    0  502  0.14264991833E+03  0.49342259581E+03 -0.11842723508E+04  0.12908585741E+04  0.50400001928E-02 0. -1.
</event>
<event>
 5   0  0.6341535E-08  0.3401328E+04  0.7818609E-02  0.8137581E-01
        1   -1    0    0  501    0  0.00000000000E+00  0.00000000000E+00  0.24964359259E+04  0.24964359259E+04  0.50400001928E-02 0. -1.
       -1   -1    0    0    0  501  0.00000000000E+00  0.00000000000E+00 -0.11585546196E+04  0.11585546197E+04  0.50400001928E-02 0.  1.
    10030    2    1    2    0    0  0.00000000000E+00  0.00000000000E+00  0.13378813062E+04  0.36549905455E+04  0.34013276082E+04 0.  0.
        5    1    3    3  502    0  0.22102016410E+03  0.10916688829E+04  0.20499482612E+04  0.23330025346E+04  0.46999998093E+01 0. -1.
       -5    1    3    3    0  502 -0.22102016410E+03 -0.10916688829E+04 -0.71206695497E+03  0.13219880110E+04  0.46999998093E+01 0.  1.
</event>
<event>
 5   0  0.1986613E-07  0.3398951E+04  0.7818609E-02  0.8138164E-01
        2   -1    0    0  501    0  0.00000000000E+00  0.00000000000E+00  0.23900883745E+04  0.23900883745E+04  0.25500000920E-02 0. -1.
       -2   -1    0    0    0  501  0.00000000000E+00  0.00000000000E+00 -0.12084141526E+04  0.12084141526E+04  0.25500000920E-02 0.  1.
    10030    2    1    2    0    0  0.00000000000E+00  0.00000000000E+00  0.11816742219E+04  0.35985025271E+04  0.33989507897E+04 0.  0.
        5    1    3    3  502    0  0.10713616957E+03  0.16950885966E+04  0.52918584261E+03  0.17790062550E+04  0.46999998093E+01 0. -1.
       -5    1    3    3    0  502 -0.10713616957E+03 -0.16950885966E+04  0.65248837929E+03  0.18194962721E+04  0.46999998093E+01 0.  1.
</event>
<event>
 5   0  0.1963852E-07  0.3397630E+04  0.7818609E-02  0.8138488E-01
        2   -1    0    0  501    0  0.00000000000E+00  0.00000000000E+00  0.25845949415E+04  0.25845949415E+04  0.25500000920E-02 0. -1.
       -2   -1    0    0    0  501  0.00000000000E+00  0.00000000000E+00 -0.11166052374E+04  0.11166052374E+04  0.25500000920E-02 0.  1.
    10030    2    1    2    0    0  0.00000000000E+00  0.00000000000E+00  0.14679897041E+04  0.37012001789E+04  0.33976299082E+04 0.  0.
        4    1    3    3  502    0 -0.78810556286E+03  0.14944423327E+04  0.92734215902E+03  0.19272865269E+04  0.12699999809E+01 0. -1.
       -4    1    3    3    0  502  0.78810556286E+03 -0.14944423327E+04  0.54064754511E+03  0.17739136520E+04  0.12699999809E+01 0.  1.
</event>
<event>
 5   0  0.1928004E-07  0.3393577E+04  0.7818609E-02  0.8139485E-01
        2   -1    0    0  501    0  0.00000000000E+00  0.00000000000E+00  0.25240400266E+04  0.25240400266E+04  0.25500000920E-02 0. -1.
       -2   -1    0    0    0  501  0.00000000000E+00  0.00000000000E+00 -0.11406678429E+04  0.11406678429E+04  0.25500000920E-02 0.  1.
    10030    2    1    2    0    0  0.00000000000E+00  0.00000000000E+00  0.13833721838E+04  0.36647078695E+04  0.33935770464E+04 0.  0.
        2    1    3    3  502    0  0.38616372412E+03 -0.16466259038E+04  0.54443967139E+03  0.17767706224E+04  0.25500000920E-02 0.  1.
       -2    1    3    3    0  502 -0.38616372412E+03  0.16466259038E+04  0.83893251239E+03  0.18879372471E+04  0.25500000920E-02 0. -1.
</event>
<event>
 5   0  0.6367111E-08  0.3398266E+04  0.7818609E-02  0.8138332E-01
       -1   -1    0    0    0  501  0.00000000000E+00  0.00000000000E+00  0.19419719035E+04  0.19419719035E+04  0.50400001928E-02 0. -1.
        1   -1    0    0  501    0  0.00000000000E+00  0.00000000000E+00 -0.14866601338E+04  0.14866601338E+04  0.50400001928E-02 0.  1.
    10030    2    1    2    0    0  0.00000000000E+00  0.00000000000E+00  0.45531176967E+03  0.34286320373E+04  0.33982655635E+04 0.  0.
        3    1    3    3  502    0  0.79707036029E+03 -0.21167497990E+03 -0.12711911955E+04  0.15152737449E+04  0.10100000352E+00 0.  1.
       -3    1    3    3    0  502 -0.79707036029E+03  0.21167497990E+03  0.17265029651E+04  0.19133582924E+04  0.10100000352E+00 0. -1.
</event>
<event>
 5   0  0.6341535E-08  0.3389872E+04  0.7818609E-02  0.8140396E-01
        1   -1    0    0  501    0  0.00000000000E+00  0.00000000000E+00  0.22337847181E+04  0.22337847181E+04  0.50400001928E-02 0. -1.
       -1   -1    0    0    0  501  0.00000000000E+00  0.00000000000E+00 -0.12860722577E+04  0.12860722577E+04  0.50400001928E-02 0.  1.
    10030    2    1    2    0    0  0.00000000000E+00  0.00000000000E+00  0.94771246038E+03  0.35198569758E+04  0.33898723018E+04 0.  0.
        5    1    3    3  502    0 -0.12666420009E+04  0.57089423261E+03  0.14818984840E+04  0.20313412785E+04  0.46999998093E+01 0. -1.
       -5    1    3    3    0  502  0.12666420009E+04 -0.57089423261E+03 -0.53418602357E+03  0.14885156972E+04  0.46999998093E+01 0.  1.
</event>
<event>
 5   0  0.1970449E-07  0.3412427E+04  0.7818609E-02  0.8134863E-01
       -2   -1    0    0    0  501  0.00000000000E+00  0.00000000000E+00  0.28487201468E+04  0.28487201468E+04  0.25500000920E-02 0. -1.
        2   -1    0    0  501    0  0.00000000000E+00  0.00000000000E+00 -0.10219200970E+04  0.10219200970E+04  0.25500000920E-02 0.  1.
    10030    2    1    2    0    0  0.00000000000E+00  0.00000000000E+00  0.18268000497E+04  0.38706402438E+04  0.34124269187E+04 0.  0.
        1    1    3    3  502    0 -0.49452657865E+03  0.12585876157E+04  0.20935751282E+04  0.24923194299E+04  0.50400001928E-02 0. -1.
       -1    1    3    3    0  502  0.49452657865E+03 -0.12585876157E+04 -0.26677507849E+03  0.13783208139E+04  0.50400001928E-02 0.  1.
</event>
<event>
 5   0  0.1986613E-07  0.3397523E+04  0.7818609E-02  0.8138515E-01
        2   -1    0    0  501    0  0.00000000000E+00  0.00000000000E+00  0.12664061739E+04  0.12664061739E+04  0.25500000920E-02 0. -1.
       -2   -1    0    0    0  501  0.00000000000E+00  0.00000000000E+00 -0.22787243863E+04  0.22787243863E+04  0.25500000920E-02 0.  1.
    10030    2    1    2    0    0  0.00000000000E+00  0.00000000000E+00 -0.10123182124E+04  0.35451305602E+04  0.33975229986E+04 0.  0.
        5    1    3    3  502    0 -0.27505120796E+03 -0.12170449744E+04 -0.17090292398E+04  0.21160469440E+04  0.46999998093E+01 0.  1.
       -5    1    3    3    0  502  0.27505120796E+03  0.12170449744E+04  0.69671102737E+03  0.14290836163E+04  0.46999998093E+01 0. -1.
</event>
<event>
 5   0  0.1986613E-07  0.3398137E+04  0.7818609E-02  0.8138364E-01
       -2   -1    0    0    0  501  0.00000000000E+00  0.00000000000E+00  0.89783035367E+03  0.89783035367E+03  0.25500000920E-02 0. -1.
        2   -1    0    0  501    0  0.00000000000E+00  0.00000000000E+00 -0.32153443682E+04  0.32153443682E+04  0.25500000920E-02 0.  1.
    10030    2    1    2    0    0  0.00000000000E+00  0.00000000000E+00 -0.23175140145E+04  0.41131747218E+04  0.33981370021E+04 0.  0.
        5    1    3    3  502    0 -0.51917306231E+02  0.13233070180E+04 -0.24471442058E+04  0.27825121248E+04  0.46999998093E+01 0.  1.
       -5    1    3    3    0  502  0.51917306231E+02 -0.13233070180E+04  0.12963019130E+03  0.13306625970E+04  0.46999998093E+01 0. -1.
</event>
<event>
 5   0  0.6311750E-08  0.3400190E+04  0.7818609E-02  0.8137860E-01
        1   -1    0    0  501    0  0.00000000000E+00  0.00000000000E+00  0.29238360748E+04  0.29238360748E+04  0.50400001928E-02 0.  1.
       -1   -1    0    0    0  501  0.00000000000E+00  0.00000000000E+00 -0.98853777770E+03  0.98853777771E+03  0.50400001928E-02 0. -1.
    10030    2    1    2    0    0  0.00000000000E+00  0.00000000000E+00  0.19352982971E+04  0.39123738525E+04  0.34001896511E+04 0.  0.
        4    1    3    3  502    0 -0.11768845967E+03 -0.12310953811E+04 -0.37464045821E+03  0.12922087667E+04  0.12699999809E+01 0. -1.
       -4    1    3    3    0  502  0.11768845967E+03  0.12310953811E+04  0.23099387553E+04  0.26201650858E+04  0.12699999809E+01 0.  1.
</event>
<event>
 5   0  0.6311750E-08  0.3397516E+04  0.7818609E-02  0.8138516E-01
        1   -1    0    0  501    0  0.00000000000E+00  0.00000000000E+00  0.25810080553E+04  0.25810080553E+04  0.50400001928E-02 0. -1.
       -1   -1    0    0    0  501  0.00000000000E+00  0.00000000000E+00 -0.11180817346E+04  0.11180817346E+04  0.50400001928E-02 0.  1.
    10030    2    1    2    0    0  0.00000000000E+00  0.00000000000E+00  0.14629263207E+04  0.36990897898E+04  0.33975155413E+04 0.  0.
        4    1    3    3  502    0  0.87612862562E+03  0.24999753589E+03  0.22924914609E+04  0.24669047099E+04  0.12699999809E+01 0. -1.
       -4    1    3    3    0  502 -0.87612862562E+03 -0.24999753589E+03 -0.82956514016E+03  0.12321850800E+04  0.12699999809E+01 0.  1.
</event>
<event>
 5   0  0.6788600E-08  0.3399336E+04  0.7818609E-02  0.8138069E-01
        1   -1    0    0  501    0  0.00000000000E+00  0.00000000000E+00  0.30913012213E+04  0.30913012213E+04  0.50400001928E-02 0. -1.
       -1   -1    0    0    0  501  0.00000000000E+00  0.00000000000E+00 -0.93451649297E+03  0.93451649299E+03  0.50400001928E-02 0.  1.
    10030    2    1    2    0    0  0.00000000000E+00  0.00000000000E+00  0.21567847283E+04  0.40258177143E+04  0.33993363918E+04 0.  0.
        2    1    3    3  502    0 -0.19504841201E+03 -0.11643903561E+04 -0.36965886874E+03  0.12371323549E+04  0.25500000920E-02 0.  1.
       -2    1    3    3    0  502  0.19504841201E+03  0.11643903561E+04  0.25264435970E+04  0.27886853593E+04  0.25500000920E-02 0. -1.
</event>
<event>
 5   0  0.1970449E-07  0.3387564E+04  0.7818609E-02  0.8140965E-01
       -2   -1    0    0    0  501  0.00000000000E+00  0.00000000000E+00  0.12695081680E+04  0.12695081680E+04  0.25500000920E-02 0.  1.
        2   -1    0    0  501    0  0.00000000000E+00  0.00000000000E+00 -0.22598491407E+04  0.22598491407E+04  0.25500000920E-02 0. -1.
    10030    2    1    2    0    0  0.00000000000E+00  0.00000000000E+00 -0.99034097269E+03  0.35293573086E+04  0.33875636924E+04 0.  0.
        1    1    3    3  502    0 -0.16132876345E+04 -0.50214046824E+03 -0.37165481768E+03  0.17300200418E+04  0.50400001928E-02 0.  1.
       -1    1    3    3    0  502  0.16132876345E+04  0.50214046824E+03 -0.61868615501E+03  0.17993372669E+04  0.50400001928E-02 0. -1.
</event>
<event>
 5   0  0.1986613E-07  0.3402841E+04  0.7818609E-02  0.8137209E-01
        2   -1    0    0  501    0  0.00000000000E+00  0.00000000000E+00  0.18109171806E+04  0.18109171806E+04  0.25500000920E-02 0. -1.
       -2   -1    0    0    0  501  0.00000000000E+00  0.00000000000E+00 -0.15985448202E+04  0.15985448202E+04  0.25500000920E-02 0.  1.
    10030    2    1    2    0    0  0.00000000000E+00  0.00000000000E+00  0.21237236032E+03  0.34094620008E+04  0.34028413297E+04 0.  0.
        5    1    3    3  502    0  0.81827925056E+03  0.56274541547E+03  0.14903757380E+04  0.17909509388E+04  0.46999998093E+01 0. -1.
       -5    1    3    3    0  502 -0.81827925056E+03 -0.56274541547E+03 -0.12780033777E+04  0.16185110620E+04  0.46999998093E+01 0.  1.
</event>
<event>
 5   0  0.1897313E-07  0.3399984E+04  0.7818609E-02  0.8137910E-01
       -2   -1    0    0    0  501  0.00000000000E+00  0.00000000000E+00  0.18870143899E+04  0.18870143899E+04  0.25500000920E-02 0. -1.
        2   -1    0    0  501    0  0.00000000000E+00  0.00000000000E+00 -0.15315053804E+04  0.15315053804E+04  0.25500000920E-02 0.  1.
    10030    2    1    2    0    0  0.00000000000E+00  0.00000000000E+00  0.35550900957E+03  0.34185197703E+04  0.33999839359E+04 0.  0.
        3    1    3    3  502    0 -0.99207348009E+03 -0.44662137229E+03  0.14911270657E+04  0.18458440823E+04  0.10100000352E+00 0. -1.
       -3    1    3    3    0  502  0.99207348009E+03  0.44662137229E+03 -0.11356180561E+04  0.15726756880E+04  0.10100000352E+00 0.  1.
</event>
<event>
 5   0  0.6311750E-08  0.3394095E+04  0.7818609E-02  0.8139357E-01
        1   -1    0    0  501    0  0.00000000000E+00  0.00000000000E+00  0.11210331818E+04  0.11210331818E+04  0.50400001928E-02 0.  1.
       -1   -1    0    0    0  501  0.00000000000E+00  0.00000000000E+00 -0.25690317002E+04  0.25690317002E+04  0.50400001928E-02 0. -1.
    10030    2    1    2    0    0  0.00000000000E+00  0.00000000000E+00 -0.14479985184E+04  0.36900648821E+04  0.33940947430E+04 0.  0.
        4    1    3    3  502    0 -0.91890107687E+03 -0.68138999962E+03  0.63882273298E+03  0.13102547911E+04  0.12699999809E+01 0.  1.
       -4    1    3    3    0  502  0.91890107687E+03  0.68138999962E+03 -0.20868212514E+04  0.23798100909E+04  0.12699999809E+01 0. -1.
</event>
<event>
 5   0  0.1970449E-07  0.3402872E+04  0.7818609E-02  0.8137202E-01
       -2   -1    0    0    0  501  0.00000000000E+00  0.00000000000E+00  0.16871727203E+04  0.16871727203E+04  0.25500000920E-02 0. -1.
        2   -1    0    0  501    0  0.00000000000E+00  0.00000000000E+00 -0.17158193712E+04  0.17158193713E+04  0.25500000920E-02 0.  1.
    10030    2    1    2    0    0  0.00000000000E+00  0.00000000000E+00 -0.28646650945E+02  0.34029920916E+04  0.34028715146E+04 0.  0.
        1    1    3    3  502    0  0.83213794092E+03  0.77250258054E+03 -0.12815185112E+04  0.17121633930E+04  0.50400001928E-02 0.  1.
       -1    1    3    3    0  502 -0.83213794092E+03 -0.77250258054E+03  0.12528718603E+04  0.16908286986E+04  0.50400001928E-02 0. -1.
</event>
<event>
 5   0  0.6311750E-08  0.3387689E+04  0.7818609E-02  0.8140935E-01
        1   -1    0    0  501    0  0.00000000000E+00  0.00000000000E+00  0.19155667393E+04  0.19155667393E+04  0.50400001928E-02 0. -1.
       -1   -1    0    0    0  501  0.00000000000E+00  0.00000000000E+00 -0.14977857718E+04  0.14977857718E+04  0.50400001928E-02 0.  1.
    10030    2    1    2    0    0  0.00000000000E+00  0.00000000000E+00  0.41778096754E+03  0.34133525111E+04  0.33876886557E+04 0.  0.
        4    1    3    3  502    0 -0.64400382504E+03 -0.11363221348E+04  0.12955495008E+04  0.18396790597E+04  0.12699999809E+01 0. -1.
       -4    1    3    3    0  502  0.64400382504E+03  0.11363221348E+04 -0.87776853326E+03  0.15736734514E+04  0.12699999809E+01 0.  1.
</event>
<event>
 5   0  0.1897313E-07  0.3402872E+04  0.7818609E-02  0.8137202E-01
       -2   -1    0    0    0  501  0.00000000000E+00  0.00000000000E+00  0.11847294152E+04  0.11847294152E+04  0.25500000920E-02 0. -1.
        2   -1    0    0  501    0  0.00000000000E+00  0.00000000000E+00 -0.24434980089E+04  0.24434980089E+04  0.25500000920E-02 0.  1.
    10030    2    1    2    0    0  0.00000000000E+00  0.00000000000E+00 -0.12587685937E+04  0.36282274241E+04  0.34028717091E+04 0.  0.
        3    1    3    3  502    0  0.97131210753E+03 -0.24434682996E+03  0.83710419317E+03  0.13053336830E+04  0.10100000352E+00 0. -1.
       -3    1    3    3    0  502 -0.97131210753E+03  0.24434682996E+03 -0.20958727869E+04  0.23228937411E+04  0.10100000352E+00 0.  1.
</event>
<event>
 5   0  0.1963852E-07  0.3412314E+04  0.7818609E-02  0.8134891E-01
        2   -1    0    0  501    0  0.00000000000E+00  0.00000000000E+00  0.19008207795E+04  0.19008207795E+04  0.25500000920E-02 0.  1.
       -2   -1    0    0    0  501  0.00000000000E+00  0.00000000000E+00 -0.15314291572E+04  0.15314291572E+04  0.25500000920E-02 0. -1.
    10030    2    1    2    0    0  0.00000000000E+00  0.00000000000E+00  0.36939162235E+03  0.34322499367E+04  0.34123143843E+04 0.  0.
        4    1    3    3  502    0  0.11512056966E+04 -0.82161963287E+02  0.14485979637E+04  0.18521508625E+04  0.12699999809E+01 0.  1.
       -4    1    3    3    0  502 -0.11512056966E+04  0.82161963287E+02 -0.10792063414E+04  0.15800990742E+04  0.12699999809E+01 0. -1.
</event>
<event>
 5   0  0.6584420E-08  0.3399494E+04  0.7818609E-02  0.8138030E-01
       -1   -1    0    0    0  501  0.00000000000E+00  0.00000000000E+00  0.10896543376E+04  0.10896543376E+04  0.50400001928E-02 0. -1.
        1   -1    0    0  501    0  0.00000000000E+00  0.00000000000E+00 -0.26514283492E+04  0.26514283492E+04  0.50400001928E-02 0.  1.
    10030    2    1    2    0    0  0.00000000000E+00  0.00000000000E+00 -0.15617740115E+04  0.37410826868E+04  0.33994943163E+04 0.  0.
        1    1    3    3  502    0 -0.33854003421E+03 -0.90983216078E+03  0.75456615275E+03  0.12295421890E+04  0.50400001928E-02 0. -1.
       -1    1    3    3    0  502  0.33854003421E+03  0.90983216078E+03 -0.23163401643E+04  0.25115404978E+04  0.50400001928E-02 0.  1.
</event>
<event>
 5   0  0.1970449E-07  0.3403649E+04  0.7818609E-02  0.8137011E-01
        2   -1    0    0  501    0  0.00000000000E+00  0.00000000000E+00  0.24293585270E+04  0.24293585270E+04  0.25500000920E-02 0. -1.
       -2   -1    0    0    0  501  0.00000000000E+00  0.00000000000E+00 -0.11921690477E+04  0.11921690477E+04  0.25500000920E-02 0.  1.
    10030    2    1    2    0    0  0.00000000000E+00  0.00000000000E+00  0.12371894793E+04  0.36215275747E+04  0.34036486550E+04 0.  0.
        1    1    3    3  502    0 -0.10891186809E+03 -0.16637314892E+04  0.98151809884E+03  0.19347459889E+04  0.50400001928E-02 0. -1.
       -1    1    3    3    0  502  0.10891186809E+03  0.16637314892E+04  0.25567138045E+03  0.16867815858E+04  0.50400001928E-02 0.  1.
</event>
<event>
 5   0  0.6341535E-08  0.3396885E+04  0.7818609E-02  0.8138671E-01
        1   -1    0    0  501    0  0.00000000000E+00  0.00000000000E+00  0.27897882194E+04  0.27897882194E+04  0.50400001928E-02 0.  1.
       -1   -1    0    0    0  501  0.00000000000E+00  0.00000000000E+00 -0.10340236802E+04  0.10340236802E+04  0.50400001928E-02 0. -1.
    10030    2    1    2    0    0  0.00000000000E+00  0.00000000000E+00  0.17557645392E+04  0.38238118995E+04  0.33968850917E+04 0.  0.
        5    1    3    3  502    0 -0.88400537600E+03 -0.14480610393E+04  0.78825994322E+03  0.18707544217E+04  0.46999998093E+01 0.  1.
       -5    1    3    3    0  502  0.88400537600E+03  0.14480610393E+04  0.96750459596E+03  0.19530574778E+04  0.46999998093E+01 0. -1.
</event>
<event>
 5   0  0.6341535E-08  0.3401859E+04  0.7818609E-02  0.8137450E-01
       -1   -1    0    0    0  501  0.00000000000E+00  0.00000000000E+00  0.15152330323E+04  0.15152330323E+04  0.50400001928E-02 0. -1.
        1   -1    0    0  501    0  0.00000000000E+00  0.00000000000E+00 -0.19093832188E+04  0.19093832189E+04  0.50400001928E-02 0.  1.
    10030    2    1    2    0    0  0.00000000000E+00  0.00000000000E+00 -0.39415018660E+03  0.34246162511E+04  0.34018586240E+04 0.  0.
        5    1    3    3  502    0  0.13346792360E+04  0.95051309452E+03  0.26237113179E+03  0.16594289700E+04  0.46999998093E+01 0.  1.
       -5    1    3    3    0  502 -0.13346792360E+04 -0.95051309452E+03 -0.65652131839E+03  0.17651872811E+04  0.46999998093E+01 0. -1.
</event>
<event>
 5   0  0.6311750E-08  0.3397924E+04  0.7818609E-02  0.8138416E-01
       -1   -1    0    0    0  501  0.00000000000E+00  0.00000000000E+00  0.23024104909E+04  0.23024104909E+04  0.50400001928E-02 0.  1.
        1   -1    0    0  501    0  0.00000000000E+00  0.00000000000E+00 -0.12536737454E+04  0.12536737454E+04  0.50400001928E-02 0. -1.
    10030    2    1    2    0    0  0.00000000000E+00  0.00000000000E+00  0.10487367455E+04  0.35560842363E+04  0.33979238270E+04 0.  0.
        4    1    3    3  502    0  0.13201593435E+04  0.77564777024E+03 -0.24611981142E+03  0.15508148600E+04  0.12699999809E+01 0. -1.
       -4    1    3    3    0  502 -0.13201593435E+04 -0.77564777024E+03  0.12948565569E+04  0.20052693763E+04  0.12699999809E+01 0.  1.
</event>
<event>
 5   0  0.6367111E-08  0.3380371E+04  0.7818609E-02  0.8142741E-01
       -1   -1    0    0    0  501  0.00000000000E+00  0.00000000000E+00  0.19051600683E+04  0.19051600683E+04  0.50400001928E-02 0. -1.
        1   -1    0    0  501    0  0.00000000000E+00  0.00000000000E+00 -0.14994679056E+04  0.14994679057E+04  0.50400001928E-02 0.  1.
    10030    2    1    2    0    0  0.00000000000E+00  0.00000000000E+00  0.40569216263E+03  0.34046279739E+04  0.33803706173E+04 0.  0.
        3    1    3    3  502    0 -0.16342100547E+04  0.40960664852E+03  0.66574550384E+02  0.16860760037E+04  0.10100000352E+00 0.  1.
       -3    1    3    3    0  502  0.16342100547E+04 -0.40960664852E+03  0.33911761225E+03  0.17185519702E+04  0.10100000352E+00 0. -1.
</event>
<event>
 5   0  0.6367111E-08  0.3396318E+04  0.7818609E-02  0.8138811E-01
        1   -1    0    0  501    0  0.00000000000E+00  0.00000000000E+00  0.18666210074E+04  0.18666210074E+04  0.50400001928E-02 0. -1.
       -1   -1    0    0    0  501  0.00000000000E+00  0.00000000000E+00 -0.15449003212E+04  0.15449003212E+04  0.50400001928E-02 0.  1.
    10030    2    1    2    0    0  0.00000000000E+00  0.00000000000E+00  0.32172068618E+03  0.34115213287E+04  0.33963176495E+04 0.  0.
        3    1    3    3  502    0  0.14669268115E+04 -0.82692673584E+03  0.38107057126E+03  0.17265274070E+04  0.10100000352E+00 0. -1.
       -3    1    3    3    0  502 -0.14669268115E+04  0.82692673584E+03 -0.59349885080E+02  0.16849939216E+04  0.10100000352E+00 0.  1.
</event>
<event>
 5   0  0.6311750E-08  0.3440954E+04  0.7818609E-02  0.8127927E-01
       -1   -1    0    0    0  501  0.00000000000E+00  0.00000000000E+00  0.13021708586E+04  0.13021708587E+04  0.50400001928E-02 0. -1.
        1   -1    0    0  501    0  0.00000000000E+00  0.00000000000E+00 -0.22731583722E+04  0.22731583722E+04  0.50400001928E-02 0.  1.
    10030    2    1    2    0    0  0.00000000000E+00  0.00000000000E+00 -0.97098751352E+03  0.35753292308E+04  0.34409536988E+04 0.  0.
        4    1    3    3  502    0 -0.73536037438E+03  0.88561469578E+03 -0.18140874873E+04  0.21484839525E+04  0.12699999809E+01 0. -1.
       -4    1    3    3    0  502  0.73536037438E+03 -0.88561469578E+03  0.84309997379E+03  0.14268452783E+04  0.12699999809E+01 0.  1.
</event>
<event>
 5   0  0.6367111E-08  0.3394988E+04  0.7818609E-02  0.8139138E-01
       -1   -1    0    0    0  501  0.00000000000E+00  0.00000000000E+00  0.26006993554E+04  0.26006993554E+04  0.50400001928E-02 0.  1.
        1   -1    0    0  501    0  0.00000000000E+00  0.00000000000E+00 -0.11079655396E+04  0.11079655396E+04  0.50400001928E-02 0. -1.
    10030    2    1    2    0    0  0.00000000000E+00  0.00000000000E+00  0.14927338158E+04  0.37086648950E+04  0.33949876375E+04 0.  0.
        3    1    3    3  502    0 -0.15081235717E+04  0.57809701138E+03  0.17575178261E+03  0.16246604449E+04  0.10100000352E+00 0. -1.
       -3    1    3    3    0  502  0.15081235717E+04 -0.57809701138E+03  0.13169820332E+04  0.20840044501E+04  0.10100000352E+00 0.  1.
</event>
<event>
 5   0  0.6584420E-08  0.3398751E+04  0.7818609E-02  0.8138213E-01
        1   -1    0    0  501    0  0.00000000000E+00  0.00000000000E+00  0.21036780730E+04  0.21036780730E+04  0.50400001928E-02 0. -1.
       -1   -1    0    0    0  501  0.00000000000E+00  0.00000000000E+00 -0.13727750970E+04  0.13727750970E+04  0.50400001928E-02 0.  1.
    10030    2    1    2    0    0  0.00000000000E+00  0.00000000000E+00  0.73090297599E+03  0.34764531700E+04  0.33987508710E+04 0.  0.
        1    1    3    3  502    0  0.61728005694E+03  0.10835185232E+04  0.15463277725E+04  0.19864985877E+04  0.50400001928E-02 0. -1.
       -1    1    3    3    0  502 -0.61728005694E+03 -0.10835185232E+04 -0.81542479652E+03  0.14899545824E+04  0.50400001928E-02 0.  1.
</event>
<event>
 5   0  0.6341535E-08  0.3389735E+04  0.7818609E-02  0.8140430E-01
        1   -1    0    0  501    0  0.00000000000E+00  0.00000000000E+00  0.10368019913E+04  0.10368019913E+04  0.50400001928E-02 0. -1.
       -1   -1    0    0    0  501  0.00000000000E+00  0.00000000000E+00 -0.27706114603E+04  0.27706114603E+04  0.50400001928E-02 0.  1.
    10030    2    1    2    0    0  0.00000000000E+00  0.00000000000E+00 -0.17338094691E+04  0.38074134516E+04  0.33897347856E+04 0.  0.
        5    1    3    3  502    0 -0.11978833929E+03 -0.36843024939E+03  0.98639360376E+03  0.10597568242E+04  0.46999998093E+01 0. -1.
       -5    1    3    3    0  502  0.11978833929E+03  0.36843024939E+03 -0.27202030728E+04  0.27476566274E+04  0.46999998093E+01 0.  1.
</event>
<event>
 5   0  0.1897313E-07  0.3412233E+04  0.7818609E-02  0.8134910E-01
       -2   -1    0    0    0  501  0.00000000000E+00  0.00000000000E+00  0.13486268812E+04  0.13486268812E+04  0.25500000920E-02 0. -1.
        2   -1    0    0  501    0  0.00000000000E+00  0.00000000000E+00 -0.21583689210E+04  0.21583689210E+04  0.25500000920E-02 0.  1.
    10030    2    1    2    0    0  0.00000000000E+00  0.00000000000E+00 -0.80974203985E+03  0.35069958022E+04  0.34122334893E+04 0.  0.
        3    1    3    3  502    0  0.81957614924E+03  0.32708950800E+03  0.10958658061E+04  0.14069877348E+04  0.10100000352E+00 0. -1.
       -3    1    3    3    0  502 -0.81957614924E+03 -0.32708950800E+03 -0.19056078459E+04  0.21000080674E+04  0.10100000352E+00 0.  1.
</event>
<event>
 5   0  0.1928004E-07  0.3408518E+04  0.7818609E-02  0.8135819E-01
        2   -1    0    0  501    0  0.00000000000E+00  0.00000000000E+00  0.17770625012E+04  0.17770625012E+04  0.25500000920E-02 0.  1.
       -2   -1    0    0    0  501  0.00000000000E+00  0.00000000000E+00 -0.16344377481E+04  0.16344377481E+04  0.25500000920E-02 0. -1.
    10030    2    1    2    0    0  0.00000000000E+00  0.00000000000E+00  0.14262475319E+03  0.34115002493E+04  0.34085175855E+04 0.  0.
        2    1    3    3  502    0 -0.43524526110E+03 -0.36391769654E+03 -0.15371481899E+04  0.16385051372E+04  0.25500000920E-02 0. -1.
       -2    1    3    3    0  502  0.43524526110E+03  0.36391769654E+03  0.16797729431E+04  0.17729951121E+04  0.25500000920E-02 0.  1.
</event>
<event>
 5   0  0.6341535E-08  0.3402254E+04  0.7818609E-02  0.8137353E-01
        1   -1    0    0  501    0  0.00000000000E+00  0.00000000000E+00  0.14671702615E+04  0.14671702615E+04  0.50400001928E-02 0.  1.
       -1   -1    0    0    0  501  0.00000000000E+00  0.00000000000E+00 -0.19723908818E+04  0.19723908818E+04  0.50400001928E-02 0. -1.
    10030    2    1    2    0    0  0.00000000000E+00  0.00000000000E+00 -0.50522062031E+03  0.34395611433E+04  0.34022541033E+04 0.  0.
        5    1    3    3  502    0 -0.44663848049E+03  0.15179428492E+04 -0.88409940760E+03  0.18125369729E+04  0.46999998093E+01 0. -1.
       -5    1    3    3    0  502  0.44663848049E+03 -0.15179428492E+04  0.37887878729E+03  0.16270241704E+04  0.46999998093E+01 0.  1.
</event>
<event>
 5   0  0.1897313E-07  0.3396715E+04  0.7818609E-02  0.8138713E-01
        2   -1    0    0  501    0  0.00000000000E+00  0.00000000000E+00  0.25925307712E+04  0.25925307712E+04  0.25500000920E-02 0. -1.
       -2   -1    0    0    0  501  0.00000000000E+00  0.00000000000E+00 -0.11125877232E+04  0.11125877232E+04  0.25500000920E-02 0.  1.
    10030    2    1    2    0    0  0.00000000000E+00  0.00000000000E+00  0.14799430480E+04  0.37051184944E+04  0.33967148294E+04 0.  0.
        3    1    3    3  502    0  0.11315616755E+04  0.11821876621E+04  0.12355554620E+04  0.20505113518E+04  0.10100000352E+00 0. -1.
       -3    1    3    3    0  502 -0.11315616755E+04 -0.11821876621E+04  0.24438758601E+03  0.16546071426E+04  0.10100000352E+00 0.  1.
</event>
<event>
 5   0  0.1970449E-07  0.3390505E+04  0.7818609E-02  0.8140241E-01
       -2   -1    0    0    0  501  0.00000000000E+00  0.00000000000E+00  0.15977704375E+04  0.15977704375E+04  0.25500000920E-02 0.  1.
        2   -1    0    0  501    0  0.00000000000E+00  0.00000000000E+00 -0.17986817625E+04  0.17986817625E+04  0.25500000920E-02 0. -1.
    10030    2    1    2    0    0  0.00000000000E+00  0.00000000000E+00 -0.20091132496E+03  0.33964522000E+04  0.33905047097E+04 0.  0.
        1    1    3    3  502    0 -0.36989460623E+03  0.85529525811E+03 -0.15191066973E+04  0.17821439773E+04  0.50400001928E-02 0. -1.
       -1    1    3    3    0  502  0.36989460623E+03 -0.85529525811E+03  0.13181953723E+04  0.16143082227E+04  0.50400001928E-02 0.  1.
</event>
<event>
 5   0  0.1963852E-07  0.3415390E+04  0.7818609E-02  0.8134139E-01
       -2   -1    0    0    0  501  0.00000000000E+00  0.00000000000E+00  0.19403881685E+04  0.19403881685E+04  0.25500000920E-02 0. -1.
        2   -1    0    0  501    0  0.00000000000E+00  0.00000000000E+00 -0.15029066289E+04  0.15029066289E+04  0.25500000920E-02 0.  1.
    10030    2    1    2    0    0  0.00000000000E+00  0.00000000000E+00  0.43748153959E+03  0.34432947974E+04  0.34153900164E+04 0.  0.
        4    1    3    3  502    0 -0.12230773789E+04 -0.10937922758E+04  0.69580969697E+03  0.17822605210E+04  0.12699999809E+01 0. -1.
       -4    1    3    3    0  502  0.12230773789E+04  0.10937922758E+04 -0.25832815739E+03  0.16610342764E+04  0.12699999809E+01 0.  1.
</event>
<event>
 5   0  0.1928004E-07  0.3397002E+04  0.7818609E-02  0.8138643E-01
       -2   -1    0    0    0  501  0.00000000000E+00  0.00000000000E+00  0.14222184162E+04  0.14222184162E+04  0.25500000920E-02 0. -1.
        2   -1    0    0  501    0  0.00000000000E+00  0.00000000000E+00 -0.20284542831E+04  0.20284542831E+04  0.25500000920E-02 0.  1.
    10030    2    1    2    0    0  0.00000000000E+00  0.00000000000E+00 -0.60623586692E+03  0.34506726993E+04  0.33970016414E+04 0.  0.
        2    1    3    3  502    0  0.16055199902E+03  0.16661586984E+04 -0.59584324160E+03  0.17767641715E+04  0.25500000920E-02 0. -1.
       -2    1    3    3    0  502 -0.16055199902E+03 -0.16661586984E+04 -0.10392625324E+02  0.16739085278E+04  0.25500000920E-02 0.  1.
</event>
<event>
 5   0  0.6341535E-08  0.3371647E+04  0.7818609E-02  0.8144900E-01
        1   -1    0    0  501    0  0.00000000000E+00  0.00000000000E+00  0.25583770962E+04  0.25583770962E+04  0.50400001928E-02 0. -1.
       -1   -1    0    0    0  501  0.00000000000E+00  0.00000000000E+00 -0.11108605204E+04  0.11108605204E+04  0.50400001928E-02 0.  1.
    10030    2    1    2    0    0  0.00000000000E+00  0.00000000000E+00  0.14475165758E+04  0.36692376166E+04  0.33716465487E+04 0.  0.
        5    1    3    3  502    0  0.11403827776E+04 -0.21704467847E+03 -0.60659428354E+03  0.13097938719E+04  0.46999998093E+01 0.  1.
       -5    1    3    3    0  502 -0.11403827776E+04  0.21704467847E+03  0.20541108593E+04  0.23594437447E+04  0.46999998093E+01 0. -1.
</event>
<event>
 5   0  0.1928004E-07  0.3363098E+04  0.7818609E-02  0.8147023E-01
        2   -1    0    0  501    0  0.00000000000E+00  0.00000000000E+00  0.13061654349E+04  0.13061654349E+04  0.25500000920E-02 0.  1.
       -2   -1    0    0    0  501  0.00000000000E+00  0.00000000000E+00 -0.21648149859E+04  0.21648149859E+04  0.25500000920E-02 0. -1.
    10030    2    1    2    0    0  0.00000000000E+00  0.00000000000E+00 -0.85864955095E+03  0.34709804208E+04  0.33630976837E+04 0.  0.
        2    1    3    3  502    0 -0.65464612778E+03 -0.15116425400E+04 -0.80882845183E+02  0.16492928049E+04  0.25500000920E-02 0.  1.
       -2    1    3    3    0  502  0.65464612778E+03  0.15116425400E+04 -0.77776670576E+03  0.18216876159E+04  0.25500000920E-02 0. -1.
</event>
<event>
 5   0  0.6341535E-08  0.3399559E+04  0.7818609E-02  0.8138015E-01
       -1   -1    0    0    0  501  0.00000000000E+00  0.00000000000E+00  0.21123586057E+04  0.21123586057E+04  0.50400001928E-02 0. -1.
        1   -1    0    0  501    0  0.00000000000E+00  0.00000000000E+00 -0.13677836823E+04  0.13677836823E+04  0.50400001928E-02 0.  1.
    10030    2    1    2    0    0  0.00000000000E+00  0.00000000000E+00  0.74457492335E+03  0.34801422880E+04  0.33995585785E+04 0.  0.
        5    1    3    3  502    0  0.15991678555E+04 -0.52813299108E+03  0.60788459893E+03  0.17904770487E+04  0.46999998093E+01 0. -1.
       -5    1    3    3    0  502 -0.15991678555E+04  0.52813299108E+03  0.13669032442E+03  0.16896652393E+04  0.46999998093E+01 0.  1.
</event>
<event>
 5   0  0.6311750E-08  0.3400472E+04  0.7818609E-02  0.8137790E-01
        1   -1    0    0  501    0  0.00000000000E+00  0.00000000000E+00  0.26302309345E+04  0.26302309345E+04  0.50400001928E-02 0.  1.
       -1   -1    0    0    0  501  0.00000000000E+00  0.00000000000E+00 -0.10990679776E+04  0.10990679776E+04  0.50400001928E-02 0. -1.
    10030    2    1    2    0    0  0.00000000000E+00  0.00000000000E+00  0.15311629569E+04  0.37292989121E+04  0.34004720813E+04 0.  0.
        4    1    3    3  502    0  0.28622965744E+03 -0.10585437680E+04 -0.65943647273E+03  0.12795703967E+04  0.12699999809E+01 0. -1.
       -4    1    3    3    0  502 -0.28622965744E+03  0.10585437680E+04  0.21905994296E+04  0.24497285155E+04  0.12699999809E+01 0.  1.
</event>
<event>
 5   0  0.6788600E-08  0.3410124E+04  0.7818609E-02  0.8135426E-01
       -1   -1    0    0    0  501  0.00000000000E+00  0.00000000000E+00  0.22832506997E+04  0.22832506997E+04  0.50400001928E-02 0.  1.
        1   -1    0    0  501    0  0.00000000000E+00  0.00000000000E+00 -0.12732885311E+04  0.12732885311E+04  0.50400001928E-02 0. -1.
    10030    2    1    2    0    0  0.00000000000E+00  0.00000000000E+00  0.10099621686E+04  0.35565392308E+04  0.34101242966E+04 0.  0.
        2    1    3    3  502    0 -0.70563415689E+03  0.13201020392E+04  0.13565223051E+04  0.20200845828E+04  0.25500000920E-02 0.  1.
       -2    1    3    3    0  502  0.70563415689E+03 -0.13201020392E+04 -0.34656013652E+03  0.15364546480E+04  0.25500000920E-02 0. -1.
</event>
<event>
 5   0  0.6311750E-08  0.3400046E+04  0.7818609E-02  0.8137895E-01
        1   -1    0    0  501    0  0.00000000000E+00  0.00000000000E+00  0.22671103096E+04  0.22671103096E+04  0.50400001928E-02 0. -1.
       -1   -1    0    0    0  501  0.00000000000E+00  0.00000000000E+00 -0.12747853353E+04  0.12747853353E+04  0.50400001928E-02 0.  1.
    10030    2    1    2    0    0  0.00000000000E+00  0.00000000000E+00  0.99232497438E+03  0.35418956449E+04  0.34000464563E+04 0.  0.
        4    1    3    3  502    0  0.16514001787E+04 -0.39554218144E+03  0.58015634581E+03  0.17944801938E+04  0.12699999809E+01 0. -1.
       -4    1    3    3    0  502 -0.16514001787E+04  0.39554218144E+03  0.41216862857E+03  0.17474154511E+04  0.12699999809E+01 0.  1.
</event>
<event>
 5   0  0.1970449E-07  0.3401081E+04  0.7818609E-02  0.8137641E-01
       -2   -1    0    0    0  501  0.00000000000E+00  0.00000000000E+00  0.14734095680E+04  0.14734095680E+04  0.25500000920E-02 0. -1.
        2   -1    0    0  501    0  0.00000000000E+00  0.00000000000E+00 -0.19626842566E+04  0.19626842566E+04  0.25500000920E-02 0.  1.
    10030    2    1    2    0    0  0.00000000000E+00  0.00000000000E+00 -0.48927468861E+03  0.34360938246E+04  0.34010808651E+04 0.  0.
        1    1    3    3  502    0 -0.13828851235E+04 -0.50669921565E+02 -0.12431944379E+04  0.18602341563E+04  0.50400001928E-02 0.  1.
       -1    1    3    3    0  502  0.13828851235E+04  0.50669921565E+02  0.75391974933E+03  0.15758596683E+04  0.50400001928E-02 0. -1.
</event>
<event>
 5   0  0.1963852E-07  0.3398441E+04  0.7818609E-02  0.8138289E-01
       -2   -1    0    0    0  501  0.00000000000E+00  0.00000000000E+00  0.17471652352E+04  0.17471652352E+04  0.25500000920E-02 0. -1.
        2   -1    0    0  501    0  0.00000000000E+00  0.00000000000E+00 -0.16525917403E+04  0.16525917403E+04  0.25500000920E-02 0.  1.
    10030    2    1    2    0    0  0.00000000000E+00  0.00000000000E+00  0.94573494903E+02  0.33997569754E+04  0.33984413112E+04 0.  0.
        4    1    3    3  502    0  0.13915409098E+04  0.26048266783E+03 -0.89281739757E+03  0.16737269318E+04  0.12699999809E+01 0. -1.
       -4    1    3    3    0  502 -0.13915409098E+04 -0.26048266783E+03  0.98739089247E+03  0.17260300436E+04  0.12699999809E+01 0.  1.
</event>
<event>
 5   0  0.6367111E-08  0.3403215E+04  0.7818609E-02  0.8137118E-01
        1   -1    0    0  501    0  0.00000000000E+00  0.00000000000E+00  0.19236775726E+04  0.19236775726E+04  0.50400001928E-02 0.  1.
       -1   -1    0    0    0  501  0.00000000000E+00  0.00000000000E+00 -0.15051735861E+04  0.15051735861E+04  0.50400001928E-02 0. -1.
    10030    2    1    2    0    0  0.00000000000E+00  0.00000000000E+00  0.41850398655E+03  0.34288511587E+04  0.34032153446E+04 0.  0.
        3    1    3    3  502    0 -0.62312956355E+03 -0.14264558004E+04 -0.48324053622E+03  0.16299043007E+04  0.10100000352E+00 0. -1.
       -3    1    3    3    0  502  0.62312956355E+03  0.14264558004E+04  0.90174452276E+03  0.17989468580E+04  0.10100000352E+00 0.  1.
</event>
<event>
 5   0  0.1897313E-07  0.3401274E+04  0.7818609E-02  0.8137594E-01
        2   -1    0    0  501    0  0.00000000000E+00  0.00000000000E+00  0.14936786453E+04  0.14936786453E+04  0.25500000920E-02 0.  1.
       -2   -1    0    0    0  501  0.00000000000E+00  0.00000000000E+00 -0.19362707919E+04  0.19362707919E+04  0.25500000920E-02 0. -1.
    10030    2    1    2    0    0  0.00000000000E+00  0.00000000000E+00 -0.44259214667E+03  0.34299494372E+04  0.34012740750E+04 0.  0.
        3    1    3    3  502    0  0.19759513645E+03  0.16818186916E+04 -0.63102970211E+02  0.16945618739E+04  0.10100000352E+00 0. -1.
       -3    1    3    3    0  502 -0.19759513645E+03 -0.16818186916E+04 -0.37948917646E+03  0.17353875633E+04  0.10100000352E+00 0.  1.
</event>
<event>
 5   0  0.6367111E-08  0.3392541E+04  0.7818609E-02  0.8139740E-01
       -1   -1    0    0    0  501  0.00000000000E+00  0.00000000000E+00  0.12236106570E+04  0.12236106570E+04  0.50400001928E-02 0. -1.
        1   -1    0    0  501    0  0.00000000000E+00  0.00000000000E+00 -0.23515102589E+04  0.23515102589E+04  0.50400001928E-02 0.  1.
    10030    2    1    2    0    0  0.00000000000E+00  0.00000000000E+00 -0.11278996019E+04  0.35751209159E+04  0.33925406485E+04 0.  0.
        3    1    3    3  502    0 -0.11686496836E+04 -0.47499941935E+03 -0.17589844505E+04  0.21645768267E+04  0.10100000352E+00 0.  1.
       -3    1    3    3    0  502  0.11686496836E+04  0.47499941935E+03  0.63108484864E+03  0.14105440892E+04  0.10100000352E+00 0. -1.
</event>
<event>
 5   0  0.6788600E-08  0.3404494E+04  0.7818609E-02  0.8136804E-01
       -1   -1    0    0    0  501  0.00000000000E+00  0.00000000000E+00  0.13390682210E+04  0.13390682210E+04  0.50400001928E-02 0. -1.
        1   -1    0    0  501    0  0.00000000000E+00  0.00000000000E+00 -0.21639265051E+04  0.21639265051E+04  0.50400001928E-02 0.  1.
    10030    2    1    2    0    0  0.00000000000E+00  0.00000000000E+00 -0.82485828410E+03  0.35029947261E+04  0.34044942153E+04 0.  0.
        2    1    3    3  502    0  0.24430434864E+03 -0.33249553517E+03 -0.21116971606E+04  0.21516279403E+04  0.25500000920E-02 0.  1.
       -2    1    3    3    0  502 -0.24430434864E+03  0.33249553517E+03  0.12868388765E+04  0.13513667858E+04  0.25500000920E-02 0. -1.
</event>
<event>
 5   0  0.1928004E-07  0.3402269E+04  0.7818609E-02  0.8137350E-01
        2   -1    0    0  501    0  0.00000000000E+00  0.00000000000E+00  0.21443034027E+04  0.21443034027E+04  0.25500000920E-02 0. -1.
       -2   -1    0    0    0  501  0.00000000000E+00  0.00000000000E+00 -0.13495567166E+04  0.13495567166E+04  0.25500000920E-02 0.  1.
    10030    2    1    2    0    0  0.00000000000E+00  0.00000000000E+00  0.79474668606E+03  0.34938601193E+04  0.34022692777E+04 0.  0.
        2    1    3    3  502    0 -0.10921297349E+04  0.12636457974E+04  0.65706631020E+02  0.16714859917E+04  0.25500000920E-02 0. -1.
       -2    1    3    3    0  502  0.10921297349E+04 -0.12636457974E+04  0.72904005504E+03  0.18223741276E+04  0.25500000920E-02 0.  1.
</event>
<event>
 5   0  0.6341535E-08  0.3426188E+04  0.7818609E-02  0.8131509E-01
        1   -1    0    0  501    0  0.00000000000E+00  0.00000000000E+00  0.17180936604E+04  0.17180936604E+04  0.50400001928E-02 0.  1.
       -1   -1    0    0    0  501  0.00000000000E+00  0.00000000000E+00 -0.17081086627E+04  0.17081086627E+04  0.50400001928E-02 0. -1.
    10030    2    1    2    0    0  0.00000000000E+00  0.00000000000E+00  0.99849976713E+01  0.34262023231E+04  0.34261877734E+04 0.  0.
        5    1    3    3  502    0  0.10253894090E+04  0.13593177580E+04 -0.18342371303E+03  0.17125520593E+04  0.46999998093E+01 0.  1.
       -5    1    3    3    0  502 -0.10253894090E+04 -0.13593177580E+04  0.19340871071E+03  0.17136502638E+04  0.46999998093E+01 0. -1.
</event>
<event>
 5   0  0.6584420E-08  0.3393828E+04  0.7818609E-02  0.8139423E-01
       -1   -1    0    0    0  501  0.00000000000E+00  0.00000000000E+00  0.16269390793E+04  0.16269390793E+04  0.50400001928E-02 0.  1.
        1   -1    0    0  501    0  0.00000000000E+00  0.00000000000E+00 -0.17698988291E+04  0.17698988291E+04  0.50400001928E-02 0. -1.
    10030    2    1    2    0    0  0.00000000000E+00  0.00000000000E+00 -0.14295974979E+03  0.33968379084E+04  0.33938282641E+04 0.  0.
        1    1    3    3  502    0  0.80197040619E+03 -0.11684125267E+04 -0.10056741818E+04  0.17377355739E+04  0.50400001928E-02 0.  1.
       -1    1    3    3    0  502 -0.80197040619E+03  0.11684125267E+04  0.86271443199E+03  0.16591023345E+04  0.50400001928E-02 0. -1.
</event>
<event>
 5   0  0.1963852E-07  0.3398636E+04  0.7818609E-02  0.8138241E-01
       -2   -1    0    0    0  501  0.00000000000E+00  0.00000000000E+00  0.15512440154E+04  0.15512440154E+04  0.25500000920E-02 0.  1.
        2   -1    0    0  501    0  0.00000000000E+00  0.00000000000E+00 -0.18615259408E+04  0.18615259408E+04  0.25500000920E-02 0. -1.
    10030    2    1    2    0    0  0.00000000000E+00  0.00000000000E+00 -0.31028192538E+03  0.34127699563E+04  0.33986355940E+04 0.  0.
        4    1    3    3  502    0  0.68358481041E+03  0.53276180728E+03  0.13126342737E+04  0.15729379154E+04  0.12699999809E+01 0.  1.
       -4    1    3    3    0  502 -0.68358481041E+03 -0.53276180728E+03 -0.16229161991E+04  0.18398320408E+04  0.12699999809E+01 0. -1.
</event>
<event>
 5   0  0.6584420E-08  0.3403697E+04  0.7818609E-02  0.8137000E-01
        1   -1    0    0  501    0  0.00000000000E+00  0.00000000000E+00  0.21392941997E+04  0.21392941997E+04  0.50400001928E-02 0.  1.
       -1   -1    0    0    0  501  0.00000000000E+00  0.00000000000E+00 -0.13538521141E+04  0.13538521141E+04  0.50400001928E-02 0. -1.
    10030    2    1    2    0    0  0.00000000000E+00  0.00000000000E+00  0.78544208567E+03  0.34931463138E+04  0.34036967990E+04 0.  0.
        1    1    3    3  502    0 -0.11113734228E+04 -0.12733471081E+04  0.59726830353E+03  0.17925660850E+04  0.50400001928E-02 0.  1.
       -1    1    3    3    0  502  0.11113734228E+04  0.12733471081E+04  0.18817378214E+03  0.17005802289E+04  0.50400001928E-02 0. -1.
</event>
<event>
 5   0  0.1963852E-07  0.3393537E+04  0.7818609E-02  0.8139494E-01
        2   -1    0    0  501    0  0.00000000000E+00  0.00000000000E+00  0.22088630677E+04  0.22088630677E+04  0.25500000920E-02 0. -1.
       -2   -1    0    0    0  501  0.00000000000E+00  0.00000000000E+00 -0.13033963382E+04  0.13033963382E+04  0.25500000920E-02 0.  1.
    10030    2    1    2    0    0  0.00000000000E+00  0.00000000000E+00  0.90546672952E+03  0.35122594059E+04  0.33935374075E+04 0.  0.
        4    1    3    3  502    0 -0.20574462498E+03  0.65423532291E+03 -0.11535508405E+04  0.13420267743E+04  0.12699999809E+01 0.  1.
       -4    1    3    3    0  502  0.20574462498E+03 -0.65423532291E+03  0.20590175700E+04  0.21702326316E+04  0.12699999809E+01 0. -1.
</event>
<event>
 5   0  0.1986613E-07  0.3403801E+04  0.7818609E-02  0.8136974E-01
        2   -1    0    0  501    0  0.00000000000E+00  0.00000000000E+00  0.15398542249E+04  0.15398542249E+04  0.25500000920E-02 0.  1.
       -2   -1    0    0    0  501  0.00000000000E+00  0.00000000000E+00 -0.18810000997E+04  0.18810000997E+04  0.25500000920E-02 0. -1.
    10030    2    1    2    0    0  0.00000000000E+00  0.00000000000E+00 -0.34114587482E+03  0.34208543246E+04  0.34038013753E+04 0.  0.
        5    1    3    3  502    0 -0.43268588189E+03 -0.14586403381E+04 -0.93701752174E+03  0.17868611122E+04  0.46999998093E+01 0. -1.
       -5    1    3    3    0  502  0.43268588189E+03  0.14586403381E+04  0.59587164692E+03  0.16339932124E+04  0.46999998093E+01 0.  1.
</event>
<event>
 5   0  0.6311750E-08  0.3398058E+04  0.7818609E-02  0.8138383E-01
        1   -1    0    0  501    0  0.00000000000E+00  0.00000000000E+00  0.22875749153E+04  0.22875749153E+04  0.50400001928E-02 0.  1.
       -1   -1    0    0    0  501  0.00000000000E+00  0.00000000000E+00 -0.12619039409E+04  0.12619039410E+04  0.50400001928E-02 0. -1.
    10030    2    1    2    0    0  0.00000000000E+00  0.00000000000E+00  0.10256709744E+04  0.35494788563E+04  0.33980581519E+04 0.  0.
        4    1    3    3  502    0  0.15372025387E+04 -0.29720563833E+03  0.12020679202E+04  0.19739026658E+04  0.12699999809E+01 0.  1.
       -4    1    3    3    0  502 -0.15372025387E+04  0.29720563833E+03 -0.17639694587E+03  0.15755761904E+04  0.12699999809E+01 0. -1.
</event>
<event>
 5   0  0.1986613E-07  0.3414593E+04  0.7818609E-02  0.8134334E-01
        2   -1    0    0  501    0  0.00000000000E+00  0.00000000000E+00  0.21163308864E+04  0.21163308864E+04  0.25500000920E-02 0.  1.
       -2   -1    0    0    0  501  0.00000000000E+00  0.00000000000E+00 -0.13773185110E+04  0.13773185110E+04  0.25500000920E-02 0. -1.
    10030    2    1    2    0    0  0.00000000000E+00  0.00000000000E+00  0.73901237535E+03  0.34936493974E+04  0.34145932145E+04 0.  0.
        5    1    3    3  502    0  0.94685614203E+03  0.14079236416E+04  0.56378147577E+03  0.17879197903E+04  0.46999998093E+01 0.  1.
       -5    1    3    3    0  502 -0.94685614203E+03 -0.14079236416E+04  0.17523089958E+03  0.17057296070E+04  0.46999998093E+01 0. -1.
</event>
<event>
 5   0  0.6788600E-08  0.3402544E+04  0.7818609E-02  0.8137282E-01
       -1   -1    0    0    0  501  0.00000000000E+00  0.00000000000E+00  0.17840818518E+04  0.17840818518E+04  0.50400001928E-02 0. -1.
        1   -1    0    0  501    0  0.00000000000E+00  0.00000000000E+00 -0.16223060055E+04  0.16223060055E+04  0.50400001928E-02 0.  1.
    10030    2    1    2    0    0  0.00000000000E+00  0.00000000000E+00  0.16177584630E+03  0.34063878573E+04  0.34025441672E+04 0.  0.
        2    1    3    3  502    0  0.13256993920E+04  0.40988500660E+03  0.10662976098E+04  0.17499929112E+04  0.25500000920E-02 0. -1.
       -2    1    3    3    0  502 -0.13256993920E+04 -0.40988500660E+03 -0.90452176353E+03  0.16563949461E+04  0.25500000920E-02 0.  1.
</event>
<event>
 5   0  0.1928004E-07  0.3400447E+04  0.7818609E-02  0.8137797E-01
       -2   -1    0    0    0  501  0.00000000000E+00  0.00000000000E+00  0.14525844147E+04  0.14525844147E+04  0.25500000920E-02 0. -1.
        2   -1    0    0  501    0  0.00000000000E+00  0.00000000000E+00 -0.19900805585E+04  0.19900805585E+04  0.25500000920E-02 0.  1.
    10030    2    1    2    0    0  0.00000000000E+00  0.00000000000E+00 -0.53749614374E+03  0.34426649732E+04  0.34004470314E+04 0.  0.
        2    1    3    3  502    0 -0.16948068308E+02 -0.16027249830E+04 -0.84301646853E+03  0.18109918206E+04  0.25500000920E-02 0.  1.
       -2    1    3    3    0  502  0.16948068308E+02  0.16027249830E+04  0.30552032479E+03  0.16316731526E+04  0.25500000920E-02 0. -1.
</event>
<event>
 5   0  0.6341535E-08  0.3393601E+04  0.7818609E-02  0.8139479E-01
       -1   -1    0    0    0  501  0.00000000000E+00  0.00000000000E+00  0.15085475779E+04  0.15085475779E+04  0.50400001928E-02 0.  1.
        1   -1    0    0  501    0  0.00000000000E+00  0.00000000000E+00 -0.19085451572E+04  0.19085451572E+04  0.50400001928E-02 0. -1.
    10030    2    1    2    0    0  0.00000000000E+00  0.00000000000E+00 -0.39999757927E+03  0.34170927351E+04  0.33936005506E+04 0.  0.
        5    1    3    3  502    0  0.14760797872E+04 -0.29748422310E+03  0.58759271374E+03  0.16163525879E+04  0.46999998093E+01 0.  1.
       -5    1    3    3    0  502 -0.14760797872E+04  0.29748422310E+03 -0.98759029301E+03  0.18007401473E+04  0.46999998093E+01 0. -1.
</event>
</LesHouchesEvents>
